<event>
 4    1 -0.7308497E-004  0.1923308E+03  0.7818608E-02  0.1156376E+00
         -5   -1    0    0    0  501 -0.00000000000E+00  0.00000000000E+00  0.61641259702E+03  0.61643051496E+03  0.47000000000E+01 0.  1.
          5   -1    0    0  501    0  0.00000000000E+00 -0.00000000000E+00 -0.74591982722E+03  0.74593463430E+03  0.47000000000E+01 0. -1.
          6    1    1    2  502    0  0.64607225191E+02 -0.56859849096E+02 -0.71796203884E+03  0.74327695054E+03  0.17200000000E+03 0. -1.
         -6    1    1    2    0  502 -0.64607225191E+02  0.56859849096E+02  0.58845480864E+03  0.61908819872E+03  0.17200000000E+03 0.  1.
</event>
<event>
 4    1 -0.7308497E-004  0.1902635E+03  0.7818608E-02  0.1158224E+00
         -5   -1    0    0    0  501 -0.00000000000E+00  0.00000000000E+00  0.34387298461E+03  0.34390510253E+03  0.47000000000E+01 0.  1.
          5   -1    0    0  501    0  0.00000000000E+00 -0.00000000000E+00 -0.12877830765E+03  0.12886404666E+03  0.47000000000E+01 0. -1.
          6    1    1    2  502    0 -0.66746099050E+02 -0.46488159154E+02  0.64125340877E+01  0.19037150857E+03  0.17200000000E+03 0. -1.
         -6    1    1    2    0  502  0.66746099050E+02  0.46488159154E+02  0.20868214287E+03  0.28239764063E+03  0.17200000000E+03 0.  1.
</event>
<event>
 4    1 -0.7308497E-004  0.4658974E+03  0.7818608E-02  0.1023085E+00
          5   -1    0    0  501    0  0.00000000000E+00  0.00000000000E+00  0.36625130058E+03  0.36628145623E+03  0.47000000000E+01 0. -1.
         -5   -1    0    0    0  501 -0.00000000000E+00 -0.00000000000E+00 -0.65553879986E+03  0.65555564838E+03  0.47000000000E+01 0.  1.
          6    1    1    2  502    0  0.92664893707E+02  0.42295341953E+03  0.13673831591E+02  0.46609800610E+03  0.17200000000E+03 0.  1.
         -6    1    1    2    0  502 -0.92664893707E+02 -0.42295341953E+03 -0.30296133087E+03  0.55573909852E+03  0.17200000000E+03 0. -1.
</event>
<event>
 4    1 -0.7308497E-004  0.2462769E+03  0.7818608E-02  0.1115681E+00
          5   -1    0    0  501    0  0.00000000000E+00  0.00000000000E+00  0.80232973680E+02  0.80370517390E+02  0.47000000000E+01 0. -1.
         -5   -1    0    0    0  501 -0.00000000000E+00 -0.00000000000E+00 -0.10760147873E+04  0.10760250520E+04  0.47000000000E+01 0.  1.
          6    1    1    2  502    0  0.11398826463E+03  0.13444318261E+03 -0.18217872537E+03  0.30633540736E+03  0.17200000000E+03 0. -1.
         -6    1    1    2    0  502 -0.11398826463E+03 -0.13444318261E+03 -0.81360308825E+03  0.85006016201E+03  0.17200000000E+03 0. -1.
</event>
<event>
 4    1 -0.7308497E-004  0.2039852E+03  0.7818608E-02  0.1146420E+00
         -5   -1    0    0    0  501 -0.00000000000E+00  0.00000000000E+00  0.17213747090E+04  0.17213811254E+04  0.47000000000E+01 0.  1.
          5   -1    0    0  501    0  0.00000000000E+00 -0.00000000000E+00 -0.48071686327E+02  0.48300900885E+02  0.47000000000E+01 0. -1.
          6    1    1    2  502    0 -0.81146166627E+02  0.73764912888E+02  0.21196344845E+03  0.29417421065E+03  0.17200000000E+03 0. -1.
         -6    1    1    2    0  502  0.81146166627E+02 -0.73764912888E+02  0.14613395742E+04  0.14755078156E+04  0.17200000000E+03 0.  1.
</event>
<event>
 4    1 -0.7308497E-004  0.1905967E+03  0.7818608E-02  0.1157924E+00
          5   -1    0    0  501    0  0.00000000000E+00  0.00000000000E+00  0.12262283924E+04  0.12262373996E+04  0.47000000000E+01 0. -1.
         -5   -1    0    0    0  501 -0.00000000000E+00 -0.00000000000E+00 -0.64011226813E+02  0.64183542736E+02  0.47000000000E+01 0.  1.
          6    1    1    2  502    0  0.42163101616E+02  0.70465361946E+02  0.10543071477E+04  0.10713965914E+04  0.17200000000E+03 0. -1.
         -6    1    1    2    0  502 -0.42163101616E+02 -0.70465361946E+02  0.10791001790E+03  0.21902435101E+03  0.17200000000E+03 0.  1.
</event>
<event>
 4    1 -0.7308497E-004  0.2847759E+03  0.7818608E-02  0.1093109E+00
          5   -1    0    0  501    0  0.00000000000E+00  0.00000000000E+00  0.92391890165E+03  0.92393085608E+03  0.47000000000E+01 0. -1.
         -5   -1    0    0    0  501 -0.00000000000E+00 -0.00000000000E+00 -0.47778954246E+03  0.47781265877E+03  0.47000000000E+01 0.  1.
          6    1    1    2  502    0  0.21145453314E+03  0.82464047653E+02  0.85629710610E+03  0.90240903843E+03  0.17200000000E+03 0. -1.
         -6    1    1    2    0  502 -0.21145453314E+03 -0.82464047653E+02 -0.41016774691E+03  0.49933447642E+03  0.17200000000E+03 0.  1.
</event>
<event>
 4    1 -0.7308497E-004  0.1872541E+03  0.7818608E-02  0.1160962E+00
         -5   -1    0    0    0  501 -0.00000000000E+00  0.00000000000E+00  0.65990400111E+03  0.65992073818E+03  0.47000000000E+01 0.  1.
          5   -1    0    0  501    0  0.00000000000E+00 -0.00000000000E+00 -0.25175128622E+03  0.25179515507E+03  0.47000000000E+01 0. -1.
          6    1    1    2  502    0 -0.57539176577E+02 -0.46576149213E+02 -0.20083560738E+03  0.27458884848E+03  0.17200000000E+03 0. -1.
         -6    1    1    2    0  502  0.57539176577E+02  0.46576149213E+02  0.60898832227E+03  0.63712704477E+03  0.17200000000E+03 0.  1.
</event>
<event>
 4    1 -0.7308497E-004  0.1844913E+03  0.7818608E-02  0.1163526E+00
         -5   -1    0    0    0  501 -0.00000000000E+00  0.00000000000E+00  0.13213705256E+03  0.13222061360E+03  0.47000000000E+01 0.  1.
          5   -1    0    0  501    0  0.00000000000E+00 -0.00000000000E+00 -0.58054749481E+03  0.58056651965E+03  0.47000000000E+01 0. -1.
          6    1    1    2  502    0 -0.66716505372E+02  0.14012434793E+01 -0.49007366656E+03  0.52364993481E+03  0.17200000000E+03 0. -1.
         -6    1    1    2    0  502  0.66716505372E+02 -0.14012434793E+01  0.41663224303E+02  0.18913719843E+03  0.17200000000E+03 0.  1.
</event>
<event>
 4    1 -0.7308497E-004  0.2778771E+03  0.7818608E-02  0.1096854E+00
         -5   -1    0    0    0  501 -0.00000000000E+00  0.00000000000E+00  0.53192686777E+03  0.53194763150E+03  0.47000000000E+01 0.  1.
          5   -1    0    0  501    0  0.00000000000E+00 -0.00000000000E+00 -0.16814974311E+04  0.16815039996E+04  0.47000000000E+01 0. -1.
          6    1    1    2  502    0 -0.15048746277E+03  0.15806705894E+03 -0.16326633801E+04  0.16561417163E+04  0.17200000000E+03 0. -1.
         -6    1    1    2    0  502  0.15048746277E+03 -0.15806705894E+03  0.48309281680E+03  0.55730991487E+03  0.17200000000E+03 0.  1.
</event>
<event>
 4    1 -0.7308497E-004  0.2709919E+03  0.7818608E-02  0.1100713E+00
         -5   -1    0    0    0  501 -0.00000000000E+00  0.00000000000E+00  0.29339400375E+03  0.29343164696E+03  0.47000000000E+01 0.  1.
          5   -1    0    0  501    0  0.00000000000E+00 -0.00000000000E+00 -0.35516913490E+03  0.35520023140E+03  0.47000000000E+01 0. -1.
          6    1    1    2  502    0 -0.20709515650E+03  0.31051327666E+02 -0.20716018544E+03  0.34110398888E+03  0.17200000000E+03 0. -1.
         -6    1    1    2    0  502  0.20709515650E+03 -0.31051327666E+02  0.14538505429E+03  0.30752788948E+03  0.17200000000E+03 0.  1.
</event>
<event>
 4    1 -0.7308497E-004  0.1732227E+03  0.7818608E-02  0.1174528E+00
         -5   -1    0    0    0  501 -0.00000000000E+00  0.00000000000E+00  0.24465079148E+03  0.24469593330E+03  0.47000000000E+01 0.  1.
          5   -1    0    0  501    0  0.00000000000E+00 -0.00000000000E+00 -0.90352356723E+03  0.90353579151E+03  0.47000000000E+01 0. -1.
          6    1    1    2  502    0  0.11227039697E+01 -0.20514467618E+02 -0.86317129141E+03  0.88038104373E+03  0.17200000000E+03 0. -1.
         -6    1    1    2    0  502 -0.11227039697E+01  0.20514467618E+02  0.20429851567E+03  0.26785068107E+03  0.17200000000E+03 0.  1.
</event>
<event>
 4    1 -0.7308497E-004  0.2877203E+03  0.7818608E-02  0.1091545E+00
          5   -1    0    0  501    0  0.00000000000E+00  0.00000000000E+00  0.92802618956E+02  0.92921558775E+02  0.47000000000E+01 0. -1.
         -5   -1    0    0    0  501 -0.00000000000E+00 -0.00000000000E+00 -0.13881553367E+04  0.13881632933E+04  0.47000000000E+01 0.  1.
          6    1    1    2  502    0  0.83885327709E+02 -0.21485389782E+03 -0.20467001093E+03  0.35309029863E+03  0.17200000000E+03 0. -1.
         -6    1    1    2    0  502 -0.83885327709E+02  0.21485389782E+03 -0.10906827068E+04  0.11279945534E+04  0.17200000000E+03 0.  1.
</event>
<event>
 4    1 -0.7308497E-004  0.1868171E+03  0.7818608E-02  0.1161364E+00
          5   -1    0    0  501    0  0.00000000000E+00  0.00000000000E+00  0.63890656010E+02  0.64063296242E+02  0.47000000000E+01 0. -1.
         -5   -1    0    0    0  501 -0.00000000000E+00 -0.00000000000E+00 -0.54813173102E+03  0.54815188092E+03  0.47000000000E+01 0.  1.
          6    1    1    2  502    0 -0.59851117148E+02  0.41647060760E+02 -0.22026241989E+03  0.28881857196E+03  0.17200000000E+03 0. -1.
         -6    1    1    2    0  502  0.59851117148E+02 -0.41647060760E+02 -0.26397865512E+03  0.32339660520E+03  0.17200000000E+03 0. -1.
</event>
<event>
 4    1 -0.7308497E-004  0.2298727E+03  0.7818608E-02  0.1126729E+00
          5   -1    0    0  501    0  0.00000000000E+00  0.00000000000E+00  0.41391801664E+03  0.41394469981E+03  0.47000000000E+01 0. -1.
         -5   -1    0    0    0  501 -0.00000000000E+00 -0.00000000000E+00 -0.25212286636E+03  0.25216667056E+03  0.47000000000E+01 0.  1.
          6    1    1    2  502    0 -0.13482778256E+03  0.71266676722E+02  0.31493094375E+03  0.38990123044E+03  0.17200000000E+03 0. -1.
         -6    1    1    2    0  502  0.13482778256E+03 -0.71266676722E+02 -0.15313579347E+03  0.27621013994E+03  0.17200000000E+03 0.  1.
</event>
<event>
 4    1 -0.7308497E-004  0.2195506E+03  0.7818608E-02  0.1134219E+00
          5   -1    0    0  501    0  0.00000000000E+00  0.00000000000E+00  0.41613737394E+03  0.41616391481E+03  0.47000000000E+01 0. -1.
         -5   -1    0    0    0  501 -0.00000000000E+00 -0.00000000000E+00 -0.12748164728E+04  0.12748251367E+04  0.47000000000E+01 0.  1.
          6    1    1    2  502    0 -0.13783501211E+02  0.13575151719E+03  0.37683075610E+03  0.43612369584E+03  0.17200000000E+03 0. -1.
         -6    1    1    2    0  502  0.13783501211E+02 -0.13575151719E+03 -0.12355098549E+04  0.12548653557E+04  0.17200000000E+03 0.  1.
</event>
<event>
 4    1 -0.7308497E-004  0.3766229E+03  0.7818608E-02  0.1052189E+00
          5   -1    0    0  501    0  0.00000000000E+00  0.00000000000E+00  0.11178116953E+04  0.11178215762E+04  0.47000000000E+01 0. -1.
         -5   -1    0    0    0  501 -0.00000000000E+00 -0.00000000000E+00 -0.25281780502E+03  0.25286148883E+03  0.47000000000E+01 0.  1.
          6    1    1    2  502    0  0.31318887933E+03 -0.11905273904E+03  0.91620538102E+03  0.99059433120E+03  0.17200000000E+03 0. -1.
         -6    1    1    2    0  502 -0.31318887933E+03  0.11905273904E+03 -0.51211490701E+02  0.38008873383E+03  0.17200000000E+03 0.  1.
</event>
<event>
 4    1 -0.7308497E-004  0.1727032E+03  0.7818608E-02  0.1175058E+00
          5   -1    0    0  501    0  0.00000000000E+00  0.00000000000E+00  0.69692622349E+02  0.69850924188E+02  0.47000000000E+01 0. -1.
         -5   -1    0    0    0  501 -0.00000000000E+00 -0.00000000000E+00 -0.10945454854E+04  0.10945555763E+04  0.47000000000E+01 0.  1.
          6    1    1    2  502    0  0.14900958492E+02  0.45135613262E+01 -0.57898080699E+02  0.18214993425E+03  0.17200000000E+03 0. -1.
         -6    1    1    2    0  502 -0.14900958492E+02 -0.45135613262E+01 -0.96695478240E+03  0.98225656628E+03  0.17200000000E+03 0.  1.
</event>
<event>
 4    1 -0.7308497E-004  0.3070863E+03  0.7818608E-02  0.1081751E+00
         -5   -1    0    0    0  501 -0.00000000000E+00  0.00000000000E+00  0.47384433501E+03  0.47386764378E+03  0.47000000000E+01 0.  1.
          5   -1    0    0  501    0  0.00000000000E+00 -0.00000000000E+00 -0.31471250866E+03  0.31474760223E+03  0.47000000000E+01 0. -1.
          6    1    1    2  502    0 -0.19999408316E+03  0.15722704476E+03 -0.15954447478E+03  0.34605840017E+03  0.17200000000E+03 0. -1.
         -6    1    1    2    0  502  0.19999408316E+03 -0.15722704476E+03  0.31867630113E+03  0.44255684584E+03  0.17200000000E+03 0.  1.
</event>
<event>
 4    1 -0.7308497E-004  0.4010236E+03  0.7818608E-02  0.1043426E+00
          5   -1    0    0  501    0  0.00000000000E+00  0.00000000000E+00  0.16527110556E+03  0.16533792164E+03  0.47000000000E+01 0. -1.
         -5   -1    0    0    0  501 -0.00000000000E+00 -0.00000000000E+00 -0.10040665627E+04  0.10040775629E+04  0.47000000000E+01 0.  1.
          6    1    1    2  502    0  0.35981219418E+03 -0.42084681273E+02 -0.31621844343E+03  0.51069955888E+03  0.17200000000E+03 0. -1.
         -6    1    1    2    0  502 -0.35981219418E+03  0.42084681273E+02 -0.52257701375E+03  0.65871592570E+03  0.17200000000E+03 0.  1.
</event>
<event>
 4    1 -0.7308497E-004  0.4900008E+03  0.7818608E-02  0.1016422E+00
          5   -1    0    0  501    0  0.00000000000E+00  0.00000000000E+00  0.71340237785E+03  0.71341785983E+03  0.47000000000E+01 0. -1.
         -5   -1    0    0    0  501 -0.00000000000E+00 -0.00000000000E+00 -0.49340062378E+03  0.49342300873E+03  0.47000000000E+01 0.  1.
          6    1    1    2  502    0  0.44817369179E+03 -0.98270873001E+02  0.45023928819E+03  0.66544439221E+03  0.17200000000E+03 0. -1.
         -6    1    1    2    0  502 -0.44817369179E+03  0.98270873001E+02 -0.23023753412E+03  0.54139647635E+03  0.17200000000E+03 0.  1.
</event>
<event>
 4    1 -0.7308497E-004  0.3119057E+03  0.7818608E-02  0.1079436E+00
          5   -1    0    0  501    0  0.00000000000E+00  0.00000000000E+00  0.17683412895E+03  0.17689657758E+03  0.47000000000E+01 0. -1.
         -5   -1    0    0    0  501 -0.00000000000E+00 -0.00000000000E+00 -0.14321080890E+04  0.14321158014E+04  0.47000000000E+01 0.  1.
          6    1    1    2  502    0 -0.14363399657E+03  0.21695725812E+03  0.37502758243E+01  0.31192826321E+03  0.17200000000E+03 0. -1.
         -6    1    1    2    0  502  0.14363399657E+03 -0.21695725812E+03 -0.12590242359E+04  0.12970841158E+04  0.17200000000E+03 0.  1.
</event>
<event>
 4    1 -0.7308497E-004  0.1729796E+03  0.7818608E-02  0.1174776E+00
         -5   -1    0    0    0  501 -0.00000000000E+00  0.00000000000E+00  0.50557126366E+03  0.50559310976E+03  0.47000000000E+01 0.  1.
          5   -1    0    0  501    0  0.00000000000E+00 -0.00000000000E+00 -0.82869330079E+02  0.83002505189E+02  0.47000000000E+01 0. -1.
          6    1    1    2  502    0 -0.60406812588E+01 -0.17362732001E+02  0.53802163055E+02  0.18115360069E+03  0.17200000000E+03 0. -1.
         -6    1    1    2    0  502  0.60406812588E+01  0.17362732001E+02  0.36889977052E+03  0.40744201426E+03  0.17200000000E+03 0.  1.
</event>
<event>
 4    1 -0.7308497E-004  0.1774733E+03  0.7818608E-02  0.1170271E+00
         -5   -1    0    0    0  501 -0.00000000000E+00  0.00000000000E+00  0.36353136074E+03  0.36356174199E+03  0.47000000000E+01 0.  1.
          5   -1    0    0  501    0  0.00000000000E+00 -0.00000000000E+00 -0.30062233828E+03  0.30065907649E+03  0.47000000000E+01 0. -1.
          6    1    1    2  502    0  0.49991605324E+01  0.43448482096E+02 -0.24875161462E+03  0.30557180495E+03  0.17200000000E+03 0. -1.
         -6    1    1    2    0  502 -0.49991605324E+01 -0.43448482096E+02  0.31166063708E+03  0.35864901353E+03  0.17200000000E+03 0.  1.
</event>
<event>
 4    1 -0.7308497E-004  0.1783029E+03  0.7818608E-02  0.1169456E+00
          5   -1    0    0  501    0  0.00000000000E+00  0.00000000000E+00  0.50246847369E+03  0.50249045469E+03  0.47000000000E+01 0. -1.
         -5   -1    0    0    0  501 -0.00000000000E+00 -0.00000000000E+00 -0.46677942607E+03  0.46680308761E+03  0.47000000000E+01 0.  1.
          6    1    1    2  502    0  0.24157899388E+02  0.40302635402E+02  0.46845236650E+03  0.50123799357E+03  0.17200000000E+03 0. -1.
         -6    1    1    2    0  502 -0.24157899388E+02 -0.40302635402E+02 -0.43276331888E+03  0.46805554872E+03  0.17200000000E+03 0.  1.
</event>
<event>
 4    1 -0.7308497E-004  0.1856360E+03  0.7818608E-02  0.1162457E+00
         -5   -1    0    0    0  501 -0.00000000000E+00  0.00000000000E+00  0.16835238898E+03  0.16841798264E+03  0.47000000000E+01 0.  1.
          5   -1    0    0  501    0  0.00000000000E+00 -0.00000000000E+00 -0.40704994000E+03  0.40707707336E+03  0.47000000000E+01 0. -1.
          6    1    1    2  502    0  0.50427056745E+02  0.48309892051E+02 -0.32227171195E+03  0.37191368628E+03  0.17200000000E+03 0. -1.
         -6    1    1    2    0  502 -0.50427056745E+02 -0.48309892051E+02  0.83574160928E+02  0.20358136972E+03  0.17200000000E+03 0.  1.
</event>
<event>
 4    1 -0.7308497E-004  0.2118474E+03  0.7818608E-02  0.1140111E+00
          5   -1    0    0  501    0  0.00000000000E+00  0.00000000000E+00  0.13600747516E+04  0.13600828724E+04  0.47000000000E+01 0. -1.
         -5   -1    0    0    0  501 -0.00000000000E+00 -0.00000000000E+00 -0.18308032016E+03  0.18314063894E+03  0.47000000000E+01 0.  1.
          6    1    1    2  502    0  0.81961887868E+02  0.92615229242E+02  0.12871370362E+04  0.13044543233E+04  0.17200000000E+03 0. -1.
         -6    1    1    2    0  502 -0.81961887868E+02 -0.92615229242E+02 -0.11014260479E+03  0.23876918801E+03  0.17200000000E+03 0.  1.
</event>
<event>
 4    1 -0.7308497E-004  0.2124664E+03  0.7818608E-02  0.1139628E+00
          5   -1    0    0  501    0  0.00000000000E+00  0.00000000000E+00  0.42405675976E+03  0.42408280500E+03  0.47000000000E+01 0. -1.
         -5   -1    0    0    0  501 -0.00000000000E+00 -0.00000000000E+00 -0.25485203674E+03  0.25489537193E+03  0.47000000000E+01 0.  1.
          6    1    1    2  502    0  0.10941667427E+03 -0.59882973779E+02  0.34368106219E+03  0.40405278326E+03  0.17200000000E+03 0. -1.
         -6    1    1    2    0  502 -0.10941667427E+03  0.59882973779E+02 -0.17447633916E+03  0.27492539367E+03  0.17200000000E+03 0.  1.
</event>
<event>
 4    1 -0.7308497E-004  0.2085983E+03  0.7818608E-02  0.1142681E+00
          5   -1    0    0  501    0  0.00000000000E+00  0.00000000000E+00  0.57227352948E+03  0.57229282937E+03  0.47000000000E+01 0. -1.
         -5   -1    0    0    0  501 -0.00000000000E+00 -0.00000000000E+00 -0.14519770985E+03  0.14527375863E+03  0.47000000000E+01 0.  1.
          6    1    1    2  502    0 -0.86360869031E+02 -0.80442805831E+02  0.46121406885E+03  0.50619330499E+03  0.17200000000E+03 0. -1.
         -6    1    1    2    0  502  0.86360869031E+02  0.80442805831E+02 -0.34138249225E+02  0.21137328301E+03  0.17200000000E+03 0.  1.
</event>
<event>
 4    1 -0.7308497E-004  0.2477878E+03  0.7818608E-02  0.1114711E+00
         -5   -1    0    0    0  501 -0.00000000000E+00  0.00000000000E+00  0.78591848526E+03  0.78593253876E+03  0.47000000000E+01 0.  1.
          5   -1    0    0  501    0  0.00000000000E+00 -0.00000000000E+00 -0.21387667112E+03  0.21392830680E+03  0.47000000000E+01 0. -1.
          6    1    1    2  502    0  0.12876328328E+03  0.12342945159E+03 -0.11229443431E+03  0.27204568112E+03  0.17200000000E+03 0. -1.
         -6    1    1    2    0  502 -0.12876328328E+03 -0.12342945159E+03  0.68433624845E+03  0.72781516444E+03  0.17200000000E+03 0.  1.
</event>
<event>
 4    1 -0.7308497E-004  0.2321569E+03  0.7818608E-02  0.1125131E+00
         -5   -1    0    0    0  501 -0.00000000000E+00  0.00000000000E+00  0.13984221543E+03  0.13992117501E+03  0.47000000000E+01 0.  1.
          5   -1    0    0  501    0  0.00000000000E+00 -0.00000000000E+00 -0.38750866646E+03  0.38753716800E+03  0.47000000000E+01 0. -1.
          6    1    1    2  502    0 -0.11667427323E+03 -0.10344044575E+03 -0.10352180404E+03  0.25419200570E+03  0.17200000000E+03 0. -1.
         -6    1    1    2    0  502  0.11667427323E+03  0.10344044575E+03 -0.14414464700E+03  0.27326633731E+03  0.17200000000E+03 0.  1.
</event>
<event>
 4    1 -0.7308497E-004  0.1748935E+03  0.7818608E-02  0.1172839E+00
         -5   -1    0    0    0  501 -0.00000000000E+00  0.00000000000E+00  0.50097957608E+03  0.50100162240E+03  0.47000000000E+01 0.  1.
          5   -1    0    0  501    0  0.00000000000E+00 -0.00000000000E+00 -0.23405315214E+03  0.23410033752E+03  0.47000000000E+01 0. -1.
          6    1    1    2  502    0 -0.18281964348E+02  0.25874748692E+02 -0.18254373638E+03  0.25280417032E+03  0.17200000000E+03 0. -1.
         -6    1    1    2    0  502  0.18281964348E+02 -0.25874748692E+02  0.44947016032E+03  0.48229778960E+03  0.17200000000E+03 0.  1.
</event>
<event>
 4    1 -0.7308497E-004  0.1981777E+03  0.7818608E-02  0.1151286E+00
         -5   -1    0    0    0  501 -0.00000000000E+00  0.00000000000E+00  0.32862986774E+03  0.32866347526E+03  0.47000000000E+01 0.  1.
          5   -1    0    0  501    0  0.00000000000E+00 -0.00000000000E+00 -0.25308013833E+03  0.25312377687E+03  0.47000000000E+01 0. -1.
          6    1    1    2  502    0  0.91502311770E+02  0.36300346111E+02 -0.17358044221E+03  0.26344744847E+03  0.17200000000E+03 0. -1.
         -6    1    1    2    0  502 -0.91502311770E+02 -0.36300346111E+02  0.24913017162E+03  0.31833980366E+03  0.17200000000E+03 0.  1.
</event>
<event>
 4    1 -0.7308497E-004  0.2049356E+03  0.7818608E-02  0.1145640E+00
          5   -1    0    0  501    0  0.00000000000E+00  0.00000000000E+00  0.33126478588E+03  0.33129812611E+03  0.47000000000E+01 0. -1.
         -5   -1    0    0    0  501 -0.00000000000E+00 -0.00000000000E+00 -0.20853671302E+03  0.20858967059E+03  0.47000000000E+01 0.  1.
          6    1    1    2  502    0 -0.85703463180E+02  0.71200416813E+02  0.23042789002E+03  0.30837573746E+03  0.17200000000E+03 0. -1.
         -6    1    1    2    0  502  0.85703463180E+02 -0.71200416813E+02 -0.10769981716E+03  0.23151205924E+03  0.17200000000E+03 0.  1.
</event>
<event>
 4    1 -0.7308497E-004  0.1856366E+03  0.7818608E-02  0.1162457E+00
          5   -1    0    0  501    0  0.00000000000E+00  0.00000000000E+00  0.75699131945E+03  0.75700590996E+03  0.47000000000E+01 0. -1.
         -5   -1    0    0    0  501 -0.00000000000E+00 -0.00000000000E+00 -0.95171241905E+02  0.95287225197E+02  0.47000000000E+01 0.  1.
          6    1    1    2  502    0  0.69774170281E+02  0.29187528276E+01  0.63880964336E+03  0.66523583368E+03  0.17200000000E+03 0. -1.
         -6    1    1    2    0  502 -0.69774170281E+02 -0.29187528276E+01  0.23010434179E+02  0.18705730148E+03  0.17200000000E+03 0.  1.
</event>
<event>
 4    1 -0.7308497E-004  0.1939742E+03  0.7818608E-02  0.1154925E+00
         -5   -1    0    0    0  501 -0.00000000000E+00  0.00000000000E+00  0.27529311645E+03  0.27533323440E+03  0.47000000000E+01 0.  1.
          5   -1    0    0  501    0  0.00000000000E+00 -0.00000000000E+00 -0.25480313959E+03  0.25484648310E+03  0.47000000000E+01 0. -1.
          6    1    1    2  502    0 -0.80625719058E+02 -0.39261907611E+02 -0.17028297803E+03  0.25811295312E+03  0.17200000000E+03 0. -1.
         -6    1    1    2    0  502  0.80625719058E+02  0.39261907611E+02  0.19077295489E+03  0.27206676438E+03  0.17200000000E+03 0.  1.
</event>
<event>
 4    1 -0.7308497E-004  0.2141216E+03  0.7818608E-02  0.1138343E+00
          5   -1    0    0  501    0  0.00000000000E+00  0.00000000000E+00  0.26140889955E+03  0.26145114795E+03  0.47000000000E+01 0. -1.
         -5   -1    0    0    0  501 -0.00000000000E+00 -0.00000000000E+00 -0.24085087154E+03  0.24089672543E+03  0.47000000000E+01 0.  1.
          6    1    1    2  502    0  0.10549362461E+03  0.71660080772E+02  0.14128802484E+03  0.25653533475E+03  0.17200000000E+03 0. -1.
         -6    1    1    2    0  502 -0.10549362461E+03 -0.71660080772E+02 -0.12072999683E+03  0.24581253863E+03  0.17200000000E+03 0.  1.
</event>
<event>
 4    1 -0.7308497E-004  0.2000244E+03  0.7818608E-02  0.1149718E+00
          5   -1    0    0  501    0  0.00000000000E+00  0.00000000000E+00  0.76491237102E+03  0.76492681045E+03  0.47000000000E+01 0. -1.
         -5   -1    0    0    0  501 -0.00000000000E+00 -0.00000000000E+00 -0.13350369624E+03  0.13358640242E+03  0.47000000000E+01 0.  1.
          6    1    1    2  502    0 -0.10088681946E+03  0.15735973894E+02  0.66611595927E+03  0.69549999455E+03  0.17200000000E+03 0. -1.
         -6    1    1    2    0  502  0.10088681946E+03 -0.15735973894E+02 -0.34707284498E+02  0.20301321832E+03  0.17200000000E+03 0.  1.
</event>
<event>
 4    1 -0.7308497E-004  0.1741842E+03  0.7818608E-02  0.1173553E+00
          5   -1    0    0  501    0  0.00000000000E+00  0.00000000000E+00  0.16330100321E+03  0.16336862505E+03  0.47000000000E+01 0. -1.
         -5   -1    0    0    0  501 -0.00000000000E+00 -0.00000000000E+00 -0.22633383684E+03  0.22638263118E+03  0.47000000000E+01 0.  1.
          6    1    1    2  502    0 -0.20636881856E+02  0.18173050122E+02  0.51075975548E+02  0.18151830740E+03  0.17200000000E+03 0. -1.
         -6    1    1    2    0  502  0.20636881856E+02 -0.18173050122E+02 -0.11410880918E+03  0.20823294882E+03  0.17200000000E+03 0.  1.
</event>
<event>
 4    1 -0.7308497E-004  0.2107984E+03  0.7818608E-02  0.1140935E+00
          5   -1    0    0  501    0  0.00000000000E+00  0.00000000000E+00  0.80533284522E+03  0.80534655993E+03  0.47000000000E+01 0. -1.
         -5   -1    0    0    0  501 -0.00000000000E+00 -0.00000000000E+00 -0.42457327426E+03  0.42459928782E+03  0.47000000000E+01 0.  1.
          6    1    1    2  502    0 -0.80034943480E+02 -0.91904234278E+02  0.76400488548E+03  0.79255248753E+03  0.17200000000E+03 0. -1.
         -6    1    1    2    0  502  0.80034943480E+02  0.91904234278E+02 -0.38324531452E+03  0.43739336022E+03  0.17200000000E+03 0.  1.
</event>
<event>
 4    1 -0.7308497E-004  0.2660363E+03  0.7818608E-02  0.1103570E+00
         -5   -1    0    0    0  501 -0.00000000000E+00  0.00000000000E+00  0.17040833841E+03  0.17047314099E+03  0.47000000000E+01 0.  1.
          5   -1    0    0  501    0  0.00000000000E+00 -0.00000000000E+00 -0.19533390012E+04  0.19533446556E+04  0.47000000000E+01 0. -1.
          6    1    1    2  502    0  0.10012289214E+03  0.17654103996E+03 -0.18337700489E+04  0.18529673296E+04  0.17200000000E+03 0. -1.
         -6    1    1    2    0  502 -0.10012289214E+03 -0.17654103996E+03  0.50839386071E+02  0.27085046704E+03  0.17200000000E+03 0.  1.
</event>
<event>
 4    1 -0.7308497E-004  0.1899469E+03  0.7818608E-02  0.1158509E+00
         -5   -1    0    0    0  501 -0.00000000000E+00  0.00000000000E+00  0.15857953918E+03  0.15864917349E+03  0.47000000000E+01 0.  1.
          5   -1    0    0  501    0  0.00000000000E+00 -0.00000000000E+00 -0.39349959413E+03  0.39352766177E+03  0.47000000000E+01 0. -1.
          6    1    1    2  502    0  0.57790571276E+01  0.80389155572E+02 -0.29682334590E+03  0.35239737869E+03  0.17200000000E+03 0. -1.
         -6    1    1    2    0  502 -0.57790571276E+01 -0.80389155572E+02  0.61903290957E+02  0.19977945657E+03  0.17200000000E+03 0.  1.
</event>
<event>
 4    1 -0.7308497E-004  0.3349870E+03  0.7818608E-02  0.1068951E+00
          5   -1    0    0  501    0  0.00000000000E+00  0.00000000000E+00  0.35745981843E+03  0.35749071568E+03  0.47000000000E+01 0. -1.
         -5   -1    0    0    0  501 -0.00000000000E+00 -0.00000000000E+00 -0.71275328871E+03  0.71276878479E+03  0.47000000000E+01 0.  1.
          6    1    1    2  502    0 -0.23821534723E+03 -0.16089048316E+03  0.22266470877E+03  0.40223857567E+03  0.17200000000E+03 0. -1.
         -6    1    1    2    0  502  0.23821534723E+03  0.16089048316E+03 -0.57795817905E+03  0.66802092479E+03  0.17200000000E+03 0.  1.
</event>
<event>
 4    1 -0.7308497E-004  0.1790169E+03  0.7818608E-02  0.1168758E+00
          5   -1    0    0  501    0  0.00000000000E+00  0.00000000000E+00  0.12448242942E+04  0.12448331669E+04  0.47000000000E+01 0. -1.
         -5   -1    0    0    0  501 -0.00000000000E+00 -0.00000000000E+00 -0.41418891328E+03  0.41421557899E+03  0.47000000000E+01 0.  1.
          6    1    1    2  502    0 -0.11069505314E+02  0.48378862681E+02  0.12186501717E+04  0.12317285778E+04  0.17200000000E+03 0. -1.
         -6    1    1    2    0  502  0.11069505314E+02 -0.48378862681E+02 -0.38801479073E+03  0.42732016818E+03  0.17200000000E+03 0.  1.
</event>
<event>
 4    1 -0.7308497E-004  0.1803100E+03  0.7818608E-02  0.1167503E+00
         -5   -1    0    0    0  501 -0.00000000000E+00  0.00000000000E+00  0.10900329943E+04  0.10900431269E+04  0.47000000000E+01 0.  1.
          5   -1    0    0  501    0  0.00000000000E+00 -0.00000000000E+00 -0.39113769473E+03  0.39116593185E+03  0.47000000000E+01 0. -1.
          6    1    1    2  502    0  0.12488872827E+02  0.52647203888E+02 -0.36236143186E+03  0.40474375514E+03  0.17200000000E+03 0. -1.
         -6    1    1    2    0  502 -0.12488872827E+02 -0.52647203888E+02  0.10612567314E+04  0.10764653036E+04  0.17200000000E+03 0.  1.
</event>
<event>
 4    1 -0.7308497E-004  0.1780596E+03  0.7818608E-02  0.1169694E+00
         -5   -1    0    0    0  501 -0.00000000000E+00  0.00000000000E+00  0.75697959030E+03  0.75699418104E+03  0.47000000000E+01 0.  1.
          5   -1    0    0  501    0  0.00000000000E+00 -0.00000000000E+00 -0.47519423296E+02  0.47751288887E+02  0.47000000000E+01 0. -1.
          6    1    1    2  502    0  0.86408626346E+01 -0.45239015051E+02  0.21475431108E+03  0.27897069222E+03  0.17200000000E+03 0. -1.
         -6    1    1    2    0  502 -0.86408626346E+01  0.45239015051E+02  0.49470585592E+03  0.52577477771E+03  0.17200000000E+03 0.  1.
</event>
<event>
 4    1 -0.7308497E-004  0.2049495E+03  0.7818608E-02  0.1145629E+00
          5   -1    0    0  501    0  0.00000000000E+00  0.00000000000E+00  0.36845126187E+03  0.36848123748E+03  0.47000000000E+01 0. -1.
         -5   -1    0    0    0  501 -0.00000000000E+00 -0.00000000000E+00 -0.16054760925E+03  0.16061639031E+03  0.47000000000E+01 0.  1.
          6    1    1    2  502    0 -0.33108669693E+02 -0.10641485616E+03  0.24647199325E+03  0.32055069658E+03  0.17200000000E+03 0. -1.
         -6    1    1    2    0  502  0.33108669693E+02  0.10641485616E+03 -0.38568340633E+02  0.20854693121E+03  0.17200000000E+03 0.  1.
</event>
<event>
 4    1 -0.7308497E-004  0.2277735E+03  0.7818608E-02  0.1128217E+00
          5   -1    0    0  501    0  0.00000000000E+00  0.00000000000E+00  0.49898856850E+03  0.49901070279E+03  0.47000000000E+01 0. -1.
         -5   -1    0    0    0  501 -0.00000000000E+00 -0.00000000000E+00 -0.13096375686E+03  0.13104806603E+03  0.47000000000E+01 0.  1.
          6    1    1    2  502    0  0.15070038072E+02  0.14855859669E+03  0.32717212624E+03  0.39865067777E+03  0.17200000000E+03 0. -1.
         -6    1    1    2    0  502 -0.15070038072E+02 -0.14855859669E+03  0.40852685397E+02  0.23140809105E+03  0.17200000000E+03 0.  1.
</event>
<event>
 4    1 -0.7308497E-004  0.2022159E+03  0.7818608E-02  0.1147883E+00
          5   -1    0    0  501    0  0.00000000000E+00  0.00000000000E+00  0.32362004947E+03  0.32365417720E+03  0.47000000000E+01 0. -1.
         -5   -1    0    0    0  501 -0.00000000000E+00 -0.00000000000E+00 -0.54777618284E+03  0.54779634581E+03  0.47000000000E+01 0.  1.
          6    1    1    2  502    0  0.10353241220E+03 -0.24254707685E+02  0.27011046598E+03  0.33741801234E+03  0.17200000000E+03 0. -1.
         -6    1    1    2    0  502 -0.10353241220E+03  0.24254707685E+02 -0.49426659935E+03  0.53403251067E+03  0.17200000000E+03 0.  1.
</event>
<event>
 4    1 -0.7308497E-004  0.2169658E+03  0.7818608E-02  0.1136166E+00
         -5   -1    0    0    0  501 -0.00000000000E+00  0.00000000000E+00  0.54487730047E+03  0.54489757071E+03  0.47000000000E+01 0.  1.
          5   -1    0    0  501    0  0.00000000000E+00 -0.00000000000E+00 -0.39938700023E+03  0.39941465416E+03  0.47000000000E+01 0. -1.
          6    1    1    2  502    0  0.69283479482E+02 -0.11264972518E+03 -0.34524125595E+03  0.40775689562E+03  0.17200000000E+03 0. -1.
         -6    1    1    2    0  502 -0.69283479482E+02  0.11264972518E+03  0.49073155618E+03  0.53655532925E+03  0.17200000000E+03 0.  1.
</event>
<event>
 4    1 -0.7308497E-004  0.1825028E+03  0.7818608E-02  0.1165403E+00
         -5   -1    0    0    0  501 -0.00000000000E+00  0.00000000000E+00  0.11960231689E+03  0.11969462898E+03  0.47000000000E+01 0.  1.
          5   -1    0    0  501    0  0.00000000000E+00 -0.00000000000E+00 -0.53264473212E+03  0.53266546786E+03  0.47000000000E+01 0. -1.
          6    1    1    2  502    0  0.38670618728E+02 -0.47200281355E+02 -0.43190917550E+03  0.46888465446E+03  0.17200000000E+03 0. -1.
         -6    1    1    2    0  502 -0.38670618728E+02  0.47200281355E+02  0.18866760273E+02  0.18347544238E+03  0.17200000000E+03 0.  1.
</event>
<event>
 4    1 -0.7308497E-004  0.4004072E+03  0.7818608E-02  0.1043639E+00
         -5   -1    0    0    0  501 -0.00000000000E+00  0.00000000000E+00  0.18219204550E+03  0.18225265826E+03  0.47000000000E+01 0.  1.
          5   -1    0    0  501    0  0.00000000000E+00 -0.00000000000E+00 -0.10592647388E+04  0.10592751658E+04  0.47000000000E+01 0. -1.
          6    1    1    2  502    0  0.44372525010E+02  0.35884959751E+03 -0.69406242949E+03  0.80127935867E+03  0.17200000000E+03 0. -1.
         -6    1    1    2    0  502 -0.44372525010E+02 -0.35884959751E+03 -0.18301026382E+03  0.44024846538E+03  0.17200000000E+03 0.  1.
</event>
<event>
 4    1 -0.7308497E-004  0.1770585E+03  0.7818608E-02  0.1170681E+00
          5   -1    0    0  501    0  0.00000000000E+00  0.00000000000E+00  0.19309947411E+03  0.19315666414E+03  0.47000000000E+01 0. -1.
         -5   -1    0    0    0  501 -0.00000000000E+00 -0.00000000000E+00 -0.64648516175E+03  0.64650224621E+03  0.47000000000E+01 0.  1.
          6    1    1    2  502    0 -0.12910956029E+02 -0.39987956666E+02  0.13663196301E+03  0.22364709428E+03  0.17200000000E+03 0. -1.
         -6    1    1    2    0  502  0.12910956029E+02  0.39987956666E+02 -0.59001765065E+03  0.61601181607E+03  0.17200000000E+03 0.  1.
</event>
<event>
 4    1 -0.7308497E-004  0.1778680E+03  0.7818608E-02  0.1169883E+00
          5   -1    0    0  501    0  0.00000000000E+00  0.00000000000E+00  0.49140925585E+02  0.49365175654E+02  0.47000000000E+01 0. -1.
         -5   -1    0    0    0  501 -0.00000000000E+00 -0.00000000000E+00 -0.12041761645E+04  0.12041853368E+04  0.47000000000E+01 0.  1.
          6    1    1    2  502    0  0.44412187985E+02 -0.89766042445E+01 -0.14934363677E+03  0.23225103597E+03  0.17200000000E+03 0. -1.
         -6    1    1    2    0  502 -0.44412187985E+02  0.89766042445E+01 -0.10056916022E+04  0.10212994764E+04  0.17200000000E+03 0.  1.
</event>
<event>
 4    1 -0.7308497E-004  0.2582498E+03  0.7818608E-02  0.1108199E+00
          5   -1    0    0  501    0  0.00000000000E+00  0.00000000000E+00  0.34129027299E+03  0.34132263394E+03  0.47000000000E+01 0. -1.
         -5   -1    0    0    0  501 -0.00000000000E+00 -0.00000000000E+00 -0.21091360806E+03  0.21096596897E+03  0.47000000000E+01 0.  1.
          6    1    1    2  502    0 -0.97186788327E+02 -0.16632400615E+03  0.14020016033E+03  0.29385205768E+03  0.17200000000E+03 0. -1.
         -6    1    1    2    0  502  0.97186788327E+02  0.16632400615E+03 -0.98234953963E+01  0.25843654523E+03  0.17200000000E+03 0.  1.
</event>
<event>
 4    1 -0.7308497E-004  0.5427142E+03  0.7818608E-02  0.1003195E+00
          5   -1    0    0  501    0  0.00000000000E+00  0.00000000000E+00  0.95319010004E+03  0.95320168737E+03  0.47000000000E+01 0. -1.
         -5   -1    0    0    0  501 -0.00000000000E+00 -0.00000000000E+00 -0.58292224394E+03  0.58294119128E+03  0.47000000000E+01 0.  1.
          6    1    1    2  502    0  0.11208687460E+03  0.50238552634E+03  0.71165752937E+03  0.89498330915E+03  0.17200000000E+03 0. -1.
         -6    1    1    2    0  502 -0.11208687460E+03 -0.50238552634E+03 -0.34138967328E+03  0.64115956950E+03  0.17200000000E+03 0.  1.
</event>
<event>
 4    1 -0.7308497E-004  0.2416116E+03  0.7818608E-02  0.1118724E+00
          5   -1    0    0  501    0  0.00000000000E+00  0.00000000000E+00  0.10246404123E+04  0.10246511916E+04  0.47000000000E+01 0. -1.
         -5   -1    0    0    0  501 -0.00000000000E+00 -0.00000000000E+00 -0.82237628275E+02  0.82371824700E+02  0.47000000000E+01 0.  1.
          6    1    1    2  502    0 -0.14048719675E+03  0.95160556687E+02  0.77832885139E+03  0.81496747475E+03  0.17200000000E+03 0. -1.
         -6    1    1    2    0  502  0.14048719675E+03 -0.95160556687E+02  0.16407393265E+03  0.29205554159E+03  0.17200000000E+03 0. -1.
</event>
<event>
 4    1 -0.7308497E-004  0.1961809E+03  0.7818608E-02  0.1153002E+00
         -5   -1    0    0    0  501 -0.00000000000E+00  0.00000000000E+00  0.58559707680E+03  0.58561593759E+03  0.47000000000E+01 0.  1.
          5   -1    0    0  501    0  0.00000000000E+00 -0.00000000000E+00 -0.31318107140E+03  0.31321633655E+03  0.47000000000E+01 0. -1.
          6    1    1    2  502    0  0.62819710519E+02  0.70403245504E+02 -0.26328554079E+03  0.32833855849E+03  0.17200000000E+03 0. -1.
         -6    1    1    2    0  502 -0.62819710519E+02 -0.70403245504E+02  0.53570154618E+03  0.57049371565E+03  0.17200000000E+03 0.  1.
</event>
<event>
 4    1 -0.7308497E-004  0.1791385E+03  0.7818608E-02  0.1168639E+00
         -5   -1    0    0    0  501 -0.00000000000E+00  0.00000000000E+00  0.13471526067E+04  0.13471608055E+04  0.47000000000E+01 0.  1.
          5   -1    0    0  501    0  0.00000000000E+00 -0.00000000000E+00 -0.51336730080E+02  0.51551429226E+02  0.47000000000E+01 0. -1.
          6    1    1    2  502    0 -0.22915386421E+01 -0.50013681121E+02  0.13540475681E+03  0.22455526628E+03  0.17200000000E+03 0. -1.
         -6    1    1    2    0  502  0.22915386421E+01  0.50013681121E+02  0.11604111198E+04  0.11741569684E+04  0.17200000000E+03 0.  1.
</event>
<event>
 4    1 -0.7308497E-004  0.2276281E+03  0.7818608E-02  0.1128320E+00
          5   -1    0    0  501    0  0.00000000000E+00  0.00000000000E+00  0.13187147115E+03  0.13195520037E+03  0.47000000000E+01 0. -1.
         -5   -1    0    0    0  501 -0.00000000000E+00 -0.00000000000E+00 -0.41151965215E+03  0.41154649082E+03  0.47000000000E+01 0.  1.
          6    1    1    2  502    0 -0.14023568602E+03 -0.50640837786E+02 -0.81709366656E+02  0.24184904938E+03  0.17200000000E+03 0. -1.
         -6    1    1    2    0  502  0.14023568602E+03  0.50640837786E+02 -0.19793881435E+03  0.30165264181E+03  0.17200000000E+03 0.  1.
</event>
<event>
 4    1 -0.7308497E-004  0.2656806E+03  0.7818608E-02  0.1103777E+00
         -5   -1    0    0    0  501 -0.00000000000E+00  0.00000000000E+00  0.20860411892E+04  0.20860464839E+04  0.47000000000E+01 0.  1.
          5   -1    0    0  501    0  0.00000000000E+00 -0.00000000000E+00 -0.67273365844E+02  0.67437346863E+02  0.47000000000E+01 0. -1.
          6    1    1    2  502    0  0.78118121223E+02 -0.18681473401E+03  0.24978925564E+03  0.36466540546E+03  0.17200000000E+03 0. -1.
         -6    1    1    2    0  502 -0.78118121223E+02  0.18681473401E+03  0.17689785677E+04  0.17888184253E+04  0.17200000000E+03 0.  1.
</event>
<event>
 4    1 -0.7308497E-004  0.1956780E+03  0.7818608E-02  0.1153438E+00
         -5   -1    0    0    0  501 -0.00000000000E+00  0.00000000000E+00  0.10774493608E+03  0.10784739798E+03  0.47000000000E+01 0.  1.
          5   -1    0    0  501    0  0.00000000000E+00 -0.00000000000E+00 -0.38924819745E+03  0.38927657163E+03  0.47000000000E+01 0. -1.
          6    1    1    2  502    0  0.21433746494E+02 -0.90810205315E+02 -0.21437315693E+03  0.29025118310E+03  0.17200000000E+03 0. -1.
         -6    1    1    2    0  502 -0.21433746494E+02  0.90810205315E+02 -0.67130104438E+02  0.20687278651E+03  0.17200000000E+03 0.  1.
</event>
<event>
 4    1 -0.7308497E-004  0.2691314E+03  0.7818608E-02  0.1101778E+00
          5   -1    0    0  501    0  0.00000000000E+00  0.00000000000E+00  0.34563073439E+03  0.34566268898E+03  0.47000000000E+01 0. -1.
         -5   -1    0    0    0  501 -0.00000000000E+00 -0.00000000000E+00 -0.51160044949E+03  0.51162203814E+03  0.47000000000E+01 0.  1.
          6    1    1    2  502    0  0.13714412852E+02 -0.20654202303E+03  0.24638132097E+03  0.36487730502E+03  0.17200000000E+03 0. -1.
         -6    1    1    2    0  502 -0.13714412852E+02  0.20654202303E+03 -0.41235103606E+03  0.49240742210E+03  0.17200000000E+03 0.  1.
</event>
<event>
 4    1 -0.7308497E-004  0.1875393E+03  0.7818608E-02  0.1160700E+00
          5   -1    0    0  501    0  0.00000000000E+00  0.00000000000E+00  0.63598624787E+03  0.63600361436E+03  0.47000000000E+01 0. -1.
         -5   -1    0    0    0  501 -0.00000000000E+00 -0.00000000000E+00 -0.58428968893E+02  0.58617697037E+02  0.47000000000E+01 0.  1.
          6    1    1    2  502    0  0.53287057661E+02  0.52416415425E+02  0.20707170062E+03  0.27937372875E+03  0.17200000000E+03 0.  1.
         -6    1    1    2    0  502 -0.53287057661E+02 -0.52416415425E+02  0.37048557836E+03  0.41524758264E+03  0.17200000000E+03 0. -1.
</event>
<event>
 4    1 -0.7308497E-004  0.2462245E+03  0.7818608E-02  0.1115714E+00
          5   -1    0    0  501    0  0.00000000000E+00  0.00000000000E+00  0.23126948343E+04  0.23126996101E+04  0.47000000000E+01 0. -1.
         -5   -1    0    0    0  501 -0.00000000000E+00 -0.00000000000E+00 -0.48987552800E+02  0.49212501759E+02  0.47000000000E+01 0.  1.
          6    1    1    2  502    0  0.51468446051E+01 -0.17611366232E+03  0.19381528766E+04  0.19537305559E+04  0.17200000000E+03 0. -1.
         -6    1    1    2    0  502 -0.51468446051E+01  0.17611366232E+03  0.32555440489E+03  0.40818155594E+03  0.17200000000E+03 0.  1.
</event>
<event>
 4    1 -0.7308497E-004  0.2558081E+03  0.7818608E-02  0.1109688E+00
          5   -1    0    0  501    0  0.00000000000E+00  0.00000000000E+00  0.35428293932E+03  0.35431411360E+03  0.47000000000E+01 0. -1.
         -5   -1    0    0    0  501 -0.00000000000E+00 -0.00000000000E+00 -0.45176883759E+03  0.45179328527E+03  0.47000000000E+01 0.  1.
          6    1    1    2  502    0 -0.11756390087E+03  0.14843345702E+03  0.26116556450E+03  0.36557518246E+03  0.17200000000E+03 0. -1.
         -6    1    1    2    0  502  0.11756390087E+03 -0.14843345702E+03 -0.35865146277E+03  0.44053221641E+03  0.17200000000E+03 0.  1.
</event>
<event>
 4    1 -0.7308497E-004  0.2322847E+03  0.7818608E-02  0.1125042E+00
          5   -1    0    0  501    0  0.00000000000E+00  0.00000000000E+00  0.32242608566E+03  0.32246033976E+03  0.47000000000E+01 0. -1.
         -5   -1    0    0    0  501 -0.00000000000E+00 -0.00000000000E+00 -0.93378000438E+03  0.93379183258E+03  0.47000000000E+01 0.  1.
          6    1    1    2  502    0  0.28903151321E+02 -0.15341707661E+03  0.26339468457E+03  0.35118791467E+03  0.17200000000E+03 0. -1.
         -6    1    1    2    0  502 -0.28903151321E+02  0.15341707661E+03 -0.87474860328E+03  0.90506425766E+03  0.17200000000E+03 0.  1.
</event>
<event>
 4    1 -0.7308497E-004  0.1931770E+03  0.7818608E-02  0.1155627E+00
         -5   -1    0    0    0  501 -0.00000000000E+00  0.00000000000E+00  0.12728023634E+03  0.12736698380E+03  0.47000000000E+01 0.  1.
          5   -1    0    0  501    0  0.00000000000E+00 -0.00000000000E+00 -0.68238423452E+03  0.68240042022E+03  0.47000000000E+01 0. -1.
          6    1    1    2  502    0 -0.35729312048E+02  0.80353967059E+02 -0.58337997752E+03  0.61453196982E+03  0.17200000000E+03 0. -1.
         -6    1    1    2    0  502  0.35729312048E+02 -0.80353967059E+02  0.28275979343E+02  0.19523543421E+03  0.17200000000E+03 0.  1.
</event>
<event>
 4    1 -0.7308497E-004  0.1729141E+03  0.7818608E-02  0.1174843E+00
          5   -1    0    0  501    0  0.00000000000E+00  0.00000000000E+00  0.12887181182E+03  0.12895748866E+03  0.47000000000E+01 0. -1.
         -5   -1    0    0    0  501 -0.00000000000E+00 -0.00000000000E+00 -0.61117075456E+03  0.61118882617E+03  0.47000000000E+01 0.  1.
          6    1    1    2  502    0  0.12239606954E+02 -0.12864128172E+02  0.50380931249E+02  0.18010422540E+03  0.17200000000E+03 0. -1.
         -6    1    1    2    0  502 -0.12239606954E+02  0.12864128172E+02 -0.53267987400E+03  0.56004208943E+03  0.17200000000E+03 0.  1.
</event>
<event>
 4    1 -0.7308497E-004  0.2521659E+03  0.7818608E-02  0.1111944E+00
          5   -1    0    0  501    0  0.00000000000E+00  0.00000000000E+00  0.20091828432E+03  0.20097324940E+03  0.47000000000E+01 0. -1.
         -5   -1    0    0    0  501 -0.00000000000E+00 -0.00000000000E+00 -0.40399992847E+03  0.40402726666E+03  0.47000000000E+01 0.  1.
          6    1    1    2  502    0 -0.86359029022E+02  0.16292864681E+03  0.39328615886E+02  0.25521435279E+03  0.17200000000E+03 0. -1.
         -6    1    1    2    0  502  0.86359029022E+02 -0.16292864681E+03 -0.24241026004E+03  0.34978616327E+03  0.17200000000E+03 0.  1.
</event>
<event>
 4    1 -0.7308497E-004  0.1861450E+03  0.7818608E-02  0.1161985E+00
         -5   -1    0    0    0  501 -0.00000000000E+00  0.00000000000E+00  0.37871051846E+03  0.37873968209E+03  0.47000000000E+01 0.  1.
          5   -1    0    0  501    0  0.00000000000E+00 -0.00000000000E+00 -0.11526167157E+03  0.11535745720E+03  0.47000000000E+01 0. -1.
          6    1    1    2  502    0  0.70309001881E+02 -0.11073528781E+02  0.19388850090E+02  0.18715209401E+03  0.17200000000E+03 0. -1.
         -6    1    1    2    0  502 -0.70309001881E+02  0.11073528781E+02  0.24405999680E+03  0.30694504528E+03  0.17200000000E+03 0.  1.
</event>
<event>
 4    1 -0.7308497E-004  0.2391361E+03  0.7818608E-02  0.1120370E+00
          5   -1    0    0  501    0  0.00000000000E+00  0.00000000000E+00  0.54937989247E+03  0.54939999659E+03  0.47000000000E+01 0. -1.
         -5   -1    0    0    0  501 -0.00000000000E+00 -0.00000000000E+00 -0.30497957490E+03  0.30501578829E+03  0.47000000000E+01 0.  1.
          6    1    1    2  502    0  0.16594451024E+02 -0.16530789036E+03  0.46893424440E+03  0.52638901963E+03  0.17200000000E+03 0. -1.
         -6    1    1    2    0  502 -0.16594451024E+02  0.16530789036E+03 -0.22453392683E+03  0.32802676525E+03  0.17200000000E+03 0.  1.
</event>
<event>
 4    1 -0.7308497E-004  0.2241342E+03  0.7818608E-02  0.1130838E+00
         -5   -1    0    0    0  501 -0.00000000000E+00  0.00000000000E+00  0.11330257406E+04  0.11330354888E+04  0.47000000000E+01 0.  1.
          5   -1    0    0  501    0  0.00000000000E+00 -0.00000000000E+00 -0.21687611106E+03  0.21692703277E+03  0.47000000000E+01 0. -1.
          6    1    1    2  502    0  0.13940536680E+03  0.34904058229E+02 -0.14398219065E+03  0.26639636034E+03  0.17200000000E+03 0. -1.
         -6    1    1    2    0  502 -0.13940536680E+03 -0.34904058229E+02  0.10601318202E+04  0.10835661612E+04  0.17200000000E+03 0.  1.
</event>
<event>
 4    1 -0.7308497E-004  0.1750488E+03  0.7818608E-02  0.1172683E+00
         -5   -1    0    0    0  501 -0.00000000000E+00  0.00000000000E+00  0.38840169542E+03  0.38843013143E+03  0.47000000000E+01 0.  1.
          5   -1    0    0  501    0  0.00000000000E+00 -0.00000000000E+00 -0.15687045504E+03  0.15694084766E+03  0.47000000000E+01 0. -1.
          6    1    1    2  502    0  0.27488250040E+02  0.17392199406E+02 -0.76531893520E+02  0.19104769880E+03  0.17200000000E+03 0. -1.
         -6    1    1    2    0  502 -0.27488250040E+02 -0.17392199406E+02  0.30806313390E+03  0.35432328030E+03  0.17200000000E+03 0.  1.
</event>
<event>
 4    1 -0.7308497E-004  0.1725760E+03  0.7818608E-02  0.1175188E+00
          5   -1    0    0  501    0  0.00000000000E+00  0.00000000000E+00  0.39397226957E+03  0.39400030354E+03  0.47000000000E+01 0. -1.
         -5   -1    0    0    0  501 -0.00000000000E+00 -0.00000000000E+00 -0.97660662781E+02  0.97773693061E+02  0.47000000000E+01 0.  1.
          6    1    1    2  502    0 -0.10388592602E+02 -0.95159818868E+01  0.26521339436E+03  0.31641842759E+03  0.17200000000E+03 0. -1.
         -6    1    1    2    0  502  0.10388592602E+02  0.95159818868E+01  0.31098212424E+02  0.17535556901E+03  0.17200000000E+03 0.  1.
</event>
<event>
 4    1 -0.7308497E-004  0.3091543E+03  0.7818608E-02  0.1080752E+00
         -5   -1    0    0    0  501 -0.00000000000E+00  0.00000000000E+00  0.23662539228E+03  0.23667206483E+03  0.47000000000E+01 0.  1.
          5   -1    0    0  501    0  0.00000000000E+00 -0.00000000000E+00 -0.51052979422E+03  0.51055142815E+03  0.47000000000E+01 0. -1.
          6    1    1    2  502    0  0.21225906439E+03  0.14470138418E+03 -0.30775446779E+03  0.43622151878E+03  0.17200000000E+03 0. -1.
         -6    1    1    2    0  502 -0.21225906439E+03 -0.14470138418E+03  0.33850065855E+02  0.31100197420E+03  0.17200000000E+03 0.  1.
</event>
<event>
 4    1 -0.7308497E-004  0.2321748E+03  0.7818608E-02  0.1125118E+00
          5   -1    0    0  501    0  0.00000000000E+00  0.00000000000E+00  0.18595238356E+03  0.18601177101E+03  0.47000000000E+01 0. -1.
         -5   -1    0    0    0  501 -0.00000000000E+00 -0.00000000000E+00 -0.45813631448E+03  0.45816042239E+03  0.47000000000E+01 0.  1.
          6    1    1    2  502    0  0.50885625791E+01 -0.15586928560E+03  0.59148418128E+02  0.23959061549E+03  0.17200000000E+03 0. -1.
         -6    1    1    2    0  502 -0.50885625791E+01  0.15586928560E+03 -0.33133234904E+03  0.40458157791E+03  0.17200000000E+03 0.  1.
</event>
<event>
 4    1 -0.7308497E-004  0.2731281E+03  0.7818608E-02  0.1099503E+00
         -5   -1    0    0    0  501 -0.00000000000E+00  0.00000000000E+00  0.17022412457E+03  0.17028899725E+03  0.47000000000E+01 0.  1.
          5   -1    0    0  501    0  0.00000000000E+00 -0.00000000000E+00 -0.80501369511E+03  0.80502741526E+03  0.47000000000E+01 0. -1.
          6    1    1    2  502    0 -0.14931809785E+03  0.15072838563E+03 -0.64661447575E+03  0.70193249023E+03  0.17200000000E+03 0. -1.
         -6    1    1    2    0  502  0.14931809785E+03 -0.15072838563E+03  0.11824905212E+02  0.27338392228E+03  0.17200000000E+03 0.  1.
</event>
<event>
 4    1 -0.7308497E-004  0.2161265E+03  0.7818608E-02  0.1136804E+00
         -5   -1    0    0    0  501 -0.00000000000E+00  0.00000000000E+00  0.60232290712E+02  0.60415385826E+02  0.47000000000E+01 0.  1.
          5   -1    0    0  501    0  0.00000000000E+00 -0.00000000000E+00 -0.17318661610E+04  0.17318725385E+04  0.47000000000E+01 0. -1.
          6    1    1    2  502    0 -0.11820629708E+03 -0.56160069234E+02 -0.15021887657E+04  0.15176566706E+04  0.17200000000E+03 0. -1.
         -6    1    1    2    0  502  0.11820629708E+03  0.56160069234E+02 -0.16944510456E+03  0.27463125369E+03  0.17200000000E+03 0.  1.
</event>
<event>
 4    1 -0.7308497E-004  0.1837480E+03  0.7818608E-02  0.1164224E+00
          5   -1    0    0  501    0  0.00000000000E+00  0.00000000000E+00  0.43616920209E+03  0.43619452410E+03  0.47000000000E+01 0. -1.
         -5   -1    0    0    0  501 -0.00000000000E+00 -0.00000000000E+00 -0.95161258712E+02  0.95277254157E+02  0.47000000000E+01 0.  1.
          6    1    1    2  502    0 -0.56500674967E+02 -0.31416307682E+02  0.28550564299E+03  0.33952434793E+03  0.17200000000E+03 0. -1.
         -6    1    1    2    0  502  0.56500674967E+02  0.31416307682E+02  0.55502300395E+02  0.19194743033E+03  0.17200000000E+03 0.  1.
</event>
<event>
 4    1 -0.7308497E-004  0.2560175E+03  0.7818608E-02  0.1109560E+00
          5   -1    0    0  501    0  0.00000000000E+00  0.00000000000E+00  0.33095051709E+03  0.33098388898E+03  0.47000000000E+01 0. -1.
         -5   -1    0    0    0  501 -0.00000000000E+00 -0.00000000000E+00 -0.22196772233E+03  0.22201747624E+03  0.47000000000E+01 0.  1.
          6    1    1    2  502    0  0.18405734338E+03 -0.45649236207E+02  0.14537115113E+03  0.29441081841E+03  0.17200000000E+03 0.  1.
         -6    1    1    2    0  502 -0.18405734338E+03  0.45649236207E+02 -0.36388356369E+02  0.25859054680E+03  0.17200000000E+03 0.  1.
</event>
<event>
 4    1 -0.7308497E-004  0.1846736E+03  0.7818608E-02  0.1163355E+00
          5   -1    0    0  501    0  0.00000000000E+00  0.00000000000E+00  0.59863485159E+03  0.59865330162E+03  0.47000000000E+01 0. -1.
         -5   -1    0    0    0  501 -0.00000000000E+00 -0.00000000000E+00 -0.16936754709E+03  0.16943274774E+03  0.47000000000E+01 0.  1.
          6    1    1    2  502    0  0.64222283377E+02  0.19895595856E+02  0.52751358253E+03  0.55890510480E+03  0.17200000000E+03 0. -1.
         -6    1    1    2    0  502 -0.64222283377E+02 -0.19895595856E+02 -0.98246278032E+02  0.20918094455E+03  0.17200000000E+03 0.  1.
</event>
<event>
 4    1 -0.7308497E-004  0.1889224E+03  0.7818608E-02  0.1159437E+00
         -5   -1    0    0    0  501 -0.00000000000E+00  0.00000000000E+00  0.12564016003E+04  0.12564103913E+04  0.47000000000E+01 0.  1.
          5   -1    0    0  501    0  0.00000000000E+00 -0.00000000000E+00 -0.12226233709E+03  0.12235264227E+03  0.47000000000E+01 0. -1.
          6    1    1    2  502    0  0.52575412771E+02  0.57823109313E+02 -0.36976337314E+02  0.19250697525E+03  0.17200000000E+03 0. -1.
         -6    1    1    2    0  502 -0.52575412771E+02 -0.57823109313E+02  0.11711156005E+04  0.11862560583E+04  0.17200000000E+03 0.  1.
</event>
<event>
 4    1 -0.7308497E-004  0.1871527E+03  0.7818608E-02  0.1161055E+00
          5   -1    0    0  501    0  0.00000000000E+00  0.00000000000E+00  0.97747609765E+03  0.97748739709E+03  0.47000000000E+01 0. -1.
         -5   -1    0    0    0  501 -0.00000000000E+00 -0.00000000000E+00 -0.45049130715E+02  0.45293643905E+02  0.47000000000E+01 0.  1.
          6    1    1    2  502    0 -0.72207018664E+02  0.15109391458E+02  0.69884264207E+03  0.72346885602E+03  0.17200000000E+03 0. -1.
         -6    1    1    2    0  502  0.72207018664E+02 -0.15109391458E+02  0.23358432487E+03  0.29931218498E+03  0.17200000000E+03 0.  1.
</event>
<event>
 4    1 -0.7308497E-004  0.3100772E+03  0.7818608E-02  0.1080309E+00
         -5   -1    0    0    0  501 -0.00000000000E+00  0.00000000000E+00  0.68008975842E+03  0.68010599873E+03  0.47000000000E+01 0.  1.
          5   -1    0    0  501    0  0.00000000000E+00 -0.00000000000E+00 -0.16316036978E+03  0.16322804987E+03  0.47000000000E+01 0. -1.
          6    1    1    2  502    0 -0.10796819570E+03 -0.23432191630E+03  0.10422698521E+03  0.32712559696E+03  0.17200000000E+03 0. -1.
         -6    1    1    2    0  502  0.10796819570E+03  0.23432191630E+03  0.41270240344E+03  0.51620845164E+03  0.17200000000E+03 0.  1.
</event>
<event>
 4    1 -0.7308497E-004  0.2010138E+03  0.7818608E-02  0.1148886E+00
         -5   -1    0    0    0  501 -0.00000000000E+00  0.00000000000E+00  0.16444391951E+04  0.16444459117E+04  0.47000000000E+01 0.  1.
          5   -1    0    0  501    0  0.00000000000E+00 -0.00000000000E+00 -0.33306120517E+02  0.33636106550E+02  0.47000000000E+01 0. -1.
          6    1    1    2  502    0  0.42768592647E+02  0.94833581878E+02  0.37280181303E+03  0.42354191359E+03  0.17200000000E+03 0.  1.
         -6    1    1    2    0  502 -0.42768592647E+02 -0.94833581878E+02  0.12383312616E+04  0.12545401047E+04  0.17200000000E+03 0.  1.
</event>
<event>
 4    1 -0.7308497E-004  0.2095567E+03  0.7818608E-02  0.1141918E+00
          5   -1    0    0  501    0  0.00000000000E+00  0.00000000000E+00  0.55323050489E+02  0.55522337085E+02  0.47000000000E+01 0. -1.
         -5   -1    0    0    0  501 -0.00000000000E+00 -0.00000000000E+00 -0.14760847813E+04  0.14760922639E+04  0.47000000000E+01 0.  1.
          6    1    1    2  502    0 -0.45915985849E+02  0.11055187672E+03 -0.18913418454E+03  0.28228661846E+03  0.17200000000E+03 0. -1.
         -6    1    1    2    0  502  0.45915985849E+02 -0.11055187672E+03 -0.12316275463E+04  0.12493279826E+04  0.17200000000E+03 0.  1.
</event>
<event>
 4    1 -0.7308497E-004  0.1823006E+03  0.7818608E-02  0.1165595E+00
          5   -1    0    0  501    0  0.00000000000E+00  0.00000000000E+00  0.43785786740E+02  0.44037315091E+02  0.47000000000E+01 0. -1.
         -5   -1    0    0    0  501 -0.00000000000E+00 -0.00000000000E+00 -0.11503771015E+04  0.11503867026E+04  0.47000000000E+01 0.  1.
          6    1    1    2  502    0  0.36918080775E+02  0.47817842323E+02 -0.20391335699E+03  0.27352175030E+03  0.17200000000E+03 0. -1.
         -6    1    1    2    0  502 -0.36918080775E+02 -0.47817842323E+02 -0.90267795773E+03  0.92090226740E+03  0.17200000000E+03 0.  1.
</event>
<event>
 4    1 -0.7308497E-004  0.2838859E+03  0.7818608E-02  0.1093585E+00
          5   -1    0    0  501    0  0.00000000000E+00  0.00000000000E+00  0.27422131577E+03  0.27426159050E+03  0.47000000000E+01 0. -1.
         -5   -1    0    0    0  501 -0.00000000000E+00 -0.00000000000E+00 -0.12255947675E+04  0.12256037794E+04  0.47000000000E+01 0.  1.
          6    1    1    2  502    0  0.16320607753E+03  0.15611207907E+03  0.17818907786E+03  0.33517540549E+03  0.17200000000E+03 0. -1.
         -6    1    1    2    0  502 -0.16320607753E+03 -0.15611207907E+03 -0.11295625296E+04  0.11646899644E+04  0.17200000000E+03 0.  1.
</event>
<event>
 4    1 -0.7308497E-004  0.2210964E+03  0.7818608E-02  0.1133068E+00
          5   -1    0    0  501    0  0.00000000000E+00  0.00000000000E+00  0.79280086789E+03  0.79281479939E+03  0.47000000000E+01 0. -1.
         -5   -1    0    0    0  501 -0.00000000000E+00 -0.00000000000E+00 -0.87893408393E+02  0.88018982265E+02  0.47000000000E+01 0.  1.
          6    1    1    2  502    0  0.11330866759E+03  0.80378759943E+02  0.59331531030E+03  0.63317190134E+03  0.17200000000E+03 0. -1.
         -6    1    1    2    0  502 -0.11330866759E+03 -0.80378759943E+02  0.11159214920E+03  0.24766188032E+03  0.17200000000E+03 0.  1.
</event>
<event>
 4    1 -0.7308497E-004  0.1934206E+03  0.7818608E-02  0.1155412E+00
         -5   -1    0    0    0  501 -0.00000000000E+00  0.00000000000E+00  0.37915465984E+02  0.38205661370E+02  0.47000000000E+01 0.  1.
          5   -1    0    0  501    0  0.00000000000E+00 -0.00000000000E+00 -0.10146044794E+04  0.10146153654E+04  0.47000000000E+01 0. -1.
          6    1    1    2  502    0  0.76084823452E+02 -0.45151063512E+02 -0.58174932947E+03  0.61306100939E+03  0.17200000000E+03 0.  1.
         -6    1    1    2    0  502 -0.76084823452E+02  0.45151063512E+02 -0.39493968398E+03  0.43976001737E+03  0.17200000000E+03 0. -1.
</event>
<event>
 4    1 -0.7308497E-004  0.1764561E+03  0.7818608E-02  0.1171278E+00
          5   -1    0    0  501    0  0.00000000000E+00  0.00000000000E+00  0.45028196996E+03  0.45030649837E+03  0.47000000000E+01 0. -1.
         -5   -1    0    0    0  501 -0.00000000000E+00 -0.00000000000E+00 -0.18491650661E+03  0.18497622663E+03  0.47000000000E+01 0.  1.
          6    1    1    2  502    0  0.21008935191E+02  0.33337161569E+02  0.38403534745E+03  0.42263446356E+03  0.17200000000E+03 0. -1.
         -6    1    1    2    0  502 -0.21008935191E+02 -0.33337161569E+02 -0.11866988410E+03  0.21264826144E+03  0.17200000000E+03 0.  1.
</event>
<event>
 4    1 -0.7308497E-004  0.1829718E+03  0.7818608E-02  0.1164957E+00
          5   -1    0    0  501    0  0.00000000000E+00  0.00000000000E+00  0.42893700999E+03  0.42896275891E+03  0.47000000000E+01 0. -1.
         -5   -1    0    0    0  501 -0.00000000000E+00 -0.00000000000E+00 -0.13985011825E+03  0.13992907337E+03  0.47000000000E+01 0.  1.
          6    1    1    2  502    0  0.54847883660E+02 -0.29772487208E+02  0.33368967274E+03  0.38056206988E+03  0.17200000000E+03 0. -1.
         -6    1    1    2    0  502 -0.54847883660E+02  0.29772487208E+02 -0.44602781006E+02  0.18832976241E+03  0.17200000000E+03 0.  1.
</event>
<event>
 4    1 -0.7308497E-004  0.2534270E+03  0.7818608E-02  0.1111158E+00
          5   -1    0    0  501    0  0.00000000000E+00  0.00000000000E+00  0.20055224958E+03  0.20060731495E+03  0.47000000000E+01 0. -1.
         -5   -1    0    0    0  501 -0.00000000000E+00 -0.00000000000E+00 -0.37005071215E+03  0.37008055821E+03  0.47000000000E+01 0.  1.
          6    1    1    2  502    0 -0.12430612611E+03 -0.13852528510E+03  0.20046964158E+02  0.25421870185E+03  0.17200000000E+03 0. -1.
         -6    1    1    2    0  502  0.12430612611E+03  0.13852528510E+03 -0.18954542673E+03  0.31646917131E+03  0.17200000000E+03 0. -1.
</event>
<event>
 4    1 -0.7308497E-004  0.2134329E+03  0.7818608E-02  0.1138876E+00
         -5   -1    0    0    0  501 -0.00000000000E+00  0.00000000000E+00  0.78301177423E+03  0.78302587990E+03  0.47000000000E+01 0.  1.
          5   -1    0    0  501    0  0.00000000000E+00 -0.00000000000E+00 -0.95033344099E+02  0.95149495483E+02  0.47000000000E+01 0. -1.
          6    1    1    2  502    0  0.23085370724E+02  0.12424443672E+03  0.70380510474E+02  0.22473769299E+03  0.17200000000E+03 0. -1.
         -6    1    1    2    0  502 -0.23085370724E+02 -0.12424443672E+03  0.61759791966E+03  0.65343768239E+03  0.17200000000E+03 0.  1.
</event>
<event>
 4    1 -0.7308497E-004  0.1744035E+03  0.7818608E-02  0.1173332E+00
          5   -1    0    0  501    0  0.00000000000E+00  0.00000000000E+00  0.38074481594E+03  0.38077382377E+03  0.47000000000E+01 0. -1.
         -5   -1    0    0    0  501 -0.00000000000E+00 -0.00000000000E+00 -0.35793777505E+03  0.35796863104E+03  0.47000000000E+01 0.  1.
          6    1    1    2  502    0 -0.18994455480E+02 -0.21720990599E+02  0.33696379791E+03  0.37942218158E+03  0.17200000000E+03 0. -1.
         -6    1    1    2    0  502  0.18994455480E+02  0.21720990599E+02 -0.31415675702E+03  0.35932027323E+03  0.17200000000E+03 0.  1.
</event>
<event>
 4    1 -0.7308497E-004  0.2473142E+03  0.7818608E-02  0.1115014E+00
          5   -1    0    0  501    0  0.00000000000E+00  0.00000000000E+00  0.18377328899E+03  0.18383338039E+03  0.47000000000E+01 0. -1.
         -5   -1    0    0    0  501 -0.00000000000E+00 -0.00000000000E+00 -0.38219287258E+03  0.38222177051E+03  0.47000000000E+01 0.  1.
          6    1    1    2  502    0 -0.17418795757E+03  0.35197803652E+02  0.26338971622E+01  0.24732825831E+03  0.17200000000E+03 0. -1.
         -6    1    1    2    0  502  0.17418795757E+03 -0.35197803652E+02 -0.20105348075E+03  0.31872689260E+03  0.17200000000E+03 0.  1.
</event>
<event>
 4    1 -0.7308497E-004  0.1983583E+03  0.7818608E-02  0.1151132E+00
          5   -1    0    0  501    0  0.00000000000E+00  0.00000000000E+00  0.28817006703E+03  0.28820839254E+03  0.47000000000E+01 0. -1.
         -5   -1    0    0    0  501 -0.00000000000E+00 -0.00000000000E+00 -0.44421224257E+03  0.44423710611E+03  0.47000000000E+01 0.  1.
          6    1    1    2  502    0  0.97964980186E+02 -0.12840836201E+02  0.22677780586E+03  0.30128756637E+03  0.17200000000E+03 0. -1.
         -6    1    1    2    0  502 -0.97964980186E+02  0.12840836201E+02 -0.38281998140E+03  0.43115793229E+03  0.17200000000E+03 0.  1.
</event>
<event>
 4    1 -0.7308497E-004  0.1821886E+03  0.7818608E-02  0.1165702E+00
          5   -1    0    0  501    0  0.00000000000E+00  0.00000000000E+00  0.57709552964E+03  0.57711466827E+03  0.47000000000E+01 0. -1.
         -5   -1    0    0    0  501 -0.00000000000E+00 -0.00000000000E+00 -0.94246550528E+02  0.94363670374E+02  0.47000000000E+01 0.  1.
          6    1    1    2  502    0  0.49095432263E+02 -0.34616638707E+02  0.45115614110E+03  0.48655373474E+03  0.17200000000E+03 0. -1.
         -6    1    1    2    0  502 -0.49095432263E+02  0.34616638707E+02  0.31692838013E+02  0.18492460390E+03  0.17200000000E+03 0.  1.
</event>
<event>
 4    1 -0.7308497E-004  0.2054296E+03  0.7818608E-02  0.1145237E+00
         -5   -1    0    0    0  501 -0.00000000000E+00  0.00000000000E+00  0.12065111134E+04  0.12065202679E+04  0.47000000000E+01 0.  1.
          5   -1    0    0  501    0  0.00000000000E+00 -0.00000000000E+00 -0.64966641802E+02  0.65136430260E+02  0.47000000000E+01 0. -1.
          6    1    1    2  502    0  0.10864604175E+03 -0.28519789743E+02  0.13841783914E+03  0.24771120077E+03  0.17200000000E+03 0. -1.
         -6    1    1    2    0  502 -0.10864604175E+03  0.28519789743E+02  0.10031266325E+04  0.10239454973E+04  0.17200000000E+03 0.  1.
</event>
<event>
 4    1 -0.7308497E-004  0.2561637E+03  0.7818608E-02  0.1109470E+00
         -5   -1    0    0    0  501 -0.00000000000E+00  0.00000000000E+00  0.53382928723E+03  0.53384997696E+03  0.47000000000E+01 0.  1.
          5   -1    0    0  501    0  0.00000000000E+00 -0.00000000000E+00 -0.17552818090E+03  0.17559109400E+03  0.47000000000E+01 0. -1.
          6    1    1    2  502    0  0.16049762616E+03 -0.10137244856E+03 -0.15111472783E+02  0.25660907610E+03  0.17200000000E+03 0. -1.
         -6    1    1    2    0  502 -0.16049762616E+03  0.10137244856E+03  0.37341257911E+03  0.45283199486E+03  0.17200000000E+03 0.  1.
</event>
<event>
 4    1 -0.7308497E-004  0.2190380E+03  0.7818608E-02  0.1134602E+00
          5   -1    0    0  501    0  0.00000000000E+00  0.00000000000E+00  0.21763620148E+03  0.21768694539E+03  0.47000000000E+01 0. -1.
         -5   -1    0    0    0  501 -0.00000000000E+00 -0.00000000000E+00 -0.28646788221E+03  0.28650643542E+03  0.47000000000E+01 0.  1.
          6    1    1    2  502    0 -0.26274847776E+02 -0.13305358362E+03  0.86679014463E+02  0.23556501287E+03  0.17200000000E+03 0. -1.
         -6    1    1    2    0  502  0.26274847776E+02  0.13305358362E+03 -0.15551069520E+03  0.26862836794E+03  0.17200000000E+03 0.  1.
</event>
<event>
 4    1 -0.7308497E-004  0.1733690E+03  0.7818608E-02  0.1174379E+00
          5   -1    0    0  501    0  0.00000000000E+00  0.00000000000E+00  0.35984834007E+03  0.35987903225E+03  0.47000000000E+01 0. -1.
         -5   -1    0    0    0  501 -0.00000000000E+00 -0.00000000000E+00 -0.45085427581E+03  0.45087877308E+03  0.47000000000E+01 0.  1.
          6    1    1    2  502    0 -0.21317399600E+01 -0.21639277707E+02  0.32040920140E+03  0.36430599637E+03  0.17200000000E+03 0. -1.
         -6    1    1    2    0  502  0.21317399600E+01  0.21639277707E+02 -0.41141513713E+03  0.44645180895E+03  0.17200000000E+03 0.  1.
</event>
<event>
 4    1 -0.7308497E-004  0.1922519E+03  0.7818608E-02  0.1156446E+00
          5   -1    0    0  501    0  0.00000000000E+00  0.00000000000E+00  0.16029814794E+03  0.16036703599E+03  0.47000000000E+01 0. -1.
         -5   -1    0    0    0  501 -0.00000000000E+00 -0.00000000000E+00 -0.48120472770E+03  0.48122767996E+03  0.47000000000E+01 0.  1.
          6    1    1    2  502    0  0.54039479068E+02  0.66757358511E+02  0.71103775105E+02  0.20497940640E+03  0.17200000000E+03 0. -1.
         -6    1    1    2    0  502 -0.54039479068E+02 -0.66757358511E+02 -0.39201035486E+03  0.43661530955E+03  0.17200000000E+03 0.  1.
</event>
<event>
 4    1 -0.7308497E-004  0.1776207E+03  0.7818608E-02  0.1170126E+00
          5   -1    0    0  501    0  0.00000000000E+00  0.00000000000E+00  0.14085171937E+03  0.14093011335E+03  0.47000000000E+01 0. -1.
         -5   -1    0    0    0  501 -0.00000000000E+00 -0.00000000000E+00 -0.32998098985E+03  0.33001445978E+03  0.47000000000E+01 0.  1.
          6    1    1    2  502    0  0.44229992024E+02  0.29717506117E+01  0.38969785790E+02  0.18184545004E+03  0.17200000000E+03 0. -1.
         -6    1    1    2    0  502 -0.44229992024E+02 -0.29717506117E+01 -0.22809905628E+03  0.28909912309E+03  0.17200000000E+03 0.  1.
</event>
<event>
 4    1 -0.7308497E-004  0.1871096E+03  0.7818608E-02  0.1161094E+00
          5   -1    0    0  501    0  0.00000000000E+00  0.00000000000E+00  0.16642013356E+03  0.16648648850E+03  0.47000000000E+01 0. -1.
         -5   -1    0    0    0  501 -0.00000000000E+00 -0.00000000000E+00 -0.13953972313E+04  0.13954051466E+04  0.47000000000E+01 0.  1.
          6    1    1    2  502    0 -0.41827404003E+02  0.60634013279E+02  0.10520155702E+03  0.21465642989E+03  0.17200000000E+03 0. -1.
         -6    1    1    2    0  502  0.41827404003E+02 -0.60634013279E+02 -0.13341786548E+04  0.13472352052E+04  0.17200000000E+03 0.  1.
</event>
<event>
 4    1 -0.7308497E-004  0.2127857E+03  0.7818608E-02  0.1139379E+00
         -5   -1    0    0    0  501 -0.00000000000E+00  0.00000000000E+00  0.10736375646E+03  0.10746658179E+03  0.47000000000E+01 0.  1.
          5   -1    0    0  501    0  0.00000000000E+00 -0.00000000000E+00 -0.45722253380E+03  0.45724668989E+03  0.47000000000E+01 0. -1.
          6    1    1    2  502    0 -0.40358028878E+02 -0.11859588423E+03 -0.25394639604E+03  0.33131031725E+03  0.17200000000E+03 0. -1.
         -6    1    1    2    0  502  0.40358028878E+02  0.11859588423E+03 -0.95912381295E+02  0.23340295443E+03  0.17200000000E+03 0.  1.
</event>
<event>
 4    1 -0.7308497E-004  0.2086995E+03  0.7818608E-02  0.1142600E+00
         -5   -1    0    0    0  501 -0.00000000000E+00  0.00000000000E+00  0.45855439366E+03  0.45857847959E+03  0.47000000000E+01 0.  1.
          5   -1    0    0  501    0  0.00000000000E+00 -0.00000000000E+00 -0.11652721334E+03  0.11662195955E+03  0.47000000000E+01 0. -1.
          6    1    1    2  502    0  0.29604342123E+02 -0.11443369245E+03  0.47180024085E+02  0.21396598261E+03  0.17200000000E+03 0. -1.
         -6    1    1    2    0  502 -0.29604342123E+02  0.11443369245E+03  0.29484715624E+03  0.36123445653E+03  0.17200000000E+03 0.  1.
</event>
<event>
 4    1 -0.7308497E-004  0.1850069E+03  0.7818608E-02  0.1163043E+00
          5   -1    0    0  501    0  0.00000000000E+00  0.00000000000E+00  0.69098088986E+03  0.69099687419E+03  0.47000000000E+01 0. -1.
         -5   -1    0    0    0  501 -0.00000000000E+00 -0.00000000000E+00 -0.14296745447E+03  0.14304468896E+03  0.47000000000E+01 0.  1.
          6    1    1    2  502    0  0.26297966932E+02  0.62864806310E+02  0.61116500476E+03  0.63855323191E+03  0.17200000000E+03 0. -1.
         -6    1    1    2    0  502 -0.26297966932E+02 -0.62864806310E+02 -0.63151569377E+02  0.19548833124E+03  0.17200000000E+03 0.  1.
</event>
<event>
 4    1 -0.7308497E-004  0.1816168E+03  0.7818608E-02  0.1166247E+00
          5   -1    0    0  501    0  0.00000000000E+00  0.00000000000E+00  0.33367546443E+03  0.33370856382E+03  0.47000000000E+01 0. -1.
         -5   -1    0    0    0  501 -0.00000000000E+00 -0.00000000000E+00 -0.21353636455E+03  0.21358808250E+03  0.47000000000E+01 0.  1.
          6    1    1    2  502    0 -0.50006173696E+02  0.30000971396E+02  0.26064087432E+03  0.31767647231E+03  0.17200000000E+03 0. -1.
         -6    1    1    2    0  502  0.50006173696E+02 -0.30000971396E+02 -0.14050177444E+03  0.22962017401E+03  0.17200000000E+03 0.  1.
</event>
<event>
 4    1 -0.7308497E-004  0.1817239E+03  0.7818608E-02  0.1166145E+00
         -5   -1    0    0    0  501 -0.00000000000E+00  0.00000000000E+00  0.83197053556E+02  0.83329704910E+02  0.47000000000E+01 0.  1.
          5   -1    0    0  501    0  0.00000000000E+00 -0.00000000000E+00 -0.62248242652E+03  0.62250016974E+03  0.47000000000E+01 0. -1.
          6    1    1    2  502    0  0.52846454475E+02  0.25432934506E+02 -0.48227000707E+03  0.51537165389E+03  0.17200000000E+03 0. -1.
         -6    1    1    2    0  502 -0.52846454475E+02 -0.25432934506E+02 -0.57015365889E+02  0.19045822076E+03  0.17200000000E+03 0.  1.
</event>
<event>
 4    1 -0.7308497E-004  0.1741361E+03  0.7818608E-02  0.1173602E+00
          5   -1    0    0  501    0  0.00000000000E+00  0.00000000000E+00  0.62392575390E+03  0.62394345607E+03  0.47000000000E+01 0. -1.
         -5   -1    0    0    0  501 -0.00000000000E+00 -0.00000000000E+00 -0.11027557974E+03  0.11037569246E+03  0.47000000000E+01 0.  1.
          6    1    1    2  502    0  0.80766294677E+01 -0.25964374921E+02  0.53147278111E+03  0.55927336587E+03  0.17200000000E+03 0. -1.
         -6    1    1    2    0  502 -0.80766294677E+01  0.25964374921E+02 -0.17822606955E+02  0.17504578266E+03  0.17200000000E+03 0.  1.
</event>
<event>
 4    1 -0.7308497E-004  0.1903814E+03  0.7818608E-02  0.1158118E+00
         -5   -1    0    0    0  501 -0.00000000000E+00  0.00000000000E+00  0.17219188048E+03  0.17225601209E+03  0.47000000000E+01 0.  1.
          5   -1    0    0  501    0  0.00000000000E+00 -0.00000000000E+00 -0.27146174241E+03  0.27150242650E+03  0.47000000000E+01 0. -1.
          6    1    1    2  502    0  0.81607538952E+02  0.11369344422E+01 -0.15487727076E+03  0.24542219140E+03  0.17200000000E+03 0. -1.
         -6    1    1    2    0  502 -0.81607538952E+02 -0.11369344422E+01  0.55607408819E+02  0.19833624719E+03  0.17200000000E+03 0.  1.
</event>
<event>
 4    1 -0.7308497E-004  0.1846893E+03  0.7818608E-02  0.1163340E+00
          5   -1    0    0  501    0  0.00000000000E+00  0.00000000000E+00  0.11781185967E+03  0.11790557357E+03  0.47000000000E+01 0. -1.
         -5   -1    0    0    0  501 -0.00000000000E+00 -0.00000000000E+00 -0.70849877689E+03  0.70851436602E+03  0.47000000000E+01 0.  1.
          6    1    1    2  502    0 -0.70903468810E+01  0.66901935614E+02  0.22470431963E+02  0.18605123574E+03  0.17200000000E+03 0. -1.
         -6    1    1    2    0  502  0.70903468810E+01 -0.66901935614E+02 -0.61315734919E+03  0.64036870385E+03  0.17200000000E+03 0.  1.
</event>
<event>
 4    1 -0.7308497E-004  0.1933211E+03  0.7818608E-02  0.1155500E+00
          5   -1    0    0  501    0  0.00000000000E+00  0.00000000000E+00  0.84148568643E+03  0.84149881192E+03  0.47000000000E+01 0. -1.
         -5   -1    0    0    0  501 -0.00000000000E+00 -0.00000000000E+00 -0.17476681461E+03  0.17483000169E+03  0.47000000000E+01 0.  1.
          6    1    1    2  502    0 -0.17536804483E+02 -0.86495730505E+02  0.77224959267E+03  0.79607944596E+03  0.17200000000E+03 0. -1.
         -6    1    1    2    0  502  0.17536804483E+02  0.86495730505E+02 -0.10553072085E+03  0.22024936765E+03  0.17200000000E+03 0.  1.
</event>
<event>
 4    1 -0.7308497E-004  0.1989214E+03  0.7818608E-02  0.1150652E+00
         -5   -1    0    0    0  501 -0.00000000000E+00  0.00000000000E+00  0.38227283821E+03  0.38230173009E+03  0.47000000000E+01 0.  1.
          5   -1    0    0  501    0  0.00000000000E+00 -0.00000000000E+00 -0.12578529753E+03  0.12587307526E+03  0.47000000000E+01 0. -1.
          6    1    1    2  502    0 -0.25847433188E+02 -0.96527959215E+02  0.21169891992E+02  0.20004474759E+03  0.17200000000E+03 0. -1.
         -6    1    1    2    0  502  0.25847433188E+02  0.96527959215E+02  0.23531764869E+03  0.30813005776E+03  0.17200000000E+03 0.  1.
</event>
<event>
 4    1 -0.7308497E-004  0.1749643E+03  0.7818608E-02  0.1172768E+00
         -5   -1    0    0    0  501 -0.00000000000E+00  0.00000000000E+00  0.23344538227E+03  0.23349269047E+03  0.47000000000E+01 0.  1.
          5   -1    0    0  501    0  0.00000000000E+00 -0.00000000000E+00 -0.57059134745E+03  0.57061070423E+03  0.47000000000E+01 0. -1.
          6    1    1    2  502    0 -0.13765239226E+02  0.28966168011E+02 -0.52142364194E+03  0.54999557732E+03  0.17200000000E+03 0. -1.
         -6    1    1    2    0  502  0.13765239226E+02 -0.28966168011E+02  0.18427767676E+03  0.25410781738E+03  0.17200000000E+03 0.  1.
</event>
<event>
 4    1 -0.7308497E-004  0.2978975E+03  0.7818608E-02  0.1086296E+00
         -5   -1    0    0    0  501 -0.00000000000E+00  0.00000000000E+00  0.27026672618E+04  0.27026713485E+04  0.47000000000E+01 0.  1.
          5   -1    0    0  501    0  0.00000000000E+00 -0.00000000000E+00 -0.12021448346E+04  0.12021540223E+04  0.47000000000E+01 0. -1.
          6    1    1    2  502    0 -0.10203814456E+03  0.22078756175E+03 -0.11753030387E+04  0.12124686236E+04  0.17200000000E+03 0. -1.
         -6    1    1    2    0  502  0.10203814456E+03 -0.22078756175E+03  0.26758254659E+04  0.26923567472E+04  0.17200000000E+03 0.  1.
</event>
<event>
 4    1 -0.7308497E-004  0.2273596E+03  0.7818608E-02  0.1128512E+00
          5   -1    0    0  501    0  0.00000000000E+00  0.00000000000E+00  0.14195552817E+03  0.14203331292E+03  0.47000000000E+01 0. -1.
         -5   -1    0    0    0  501 -0.00000000000E+00 -0.00000000000E+00 -0.36595229286E+03  0.36598247314E+03  0.47000000000E+01 0.  1.
          6    1    1    2  502    0  0.12603925991E+03  0.78882703708E+02 -0.93222497495E+02  0.24572913954E+03  0.17200000000E+03 0.  1.
         -6    1    1    2    0  502 -0.12603925991E+03 -0.78882703708E+02 -0.13077426719E+03  0.26228664652E+03  0.17200000000E+03 0.  1.
</event>
<event>
 4    1 -0.7308497E-004  0.2709927E+03  0.7818608E-02  0.1100713E+00
          5   -1    0    0  501    0  0.00000000000E+00  0.00000000000E+00  0.49737905586E+03  0.49740126177E+03  0.47000000000E+01 0. -1.
         -5   -1    0    0    0  501 -0.00000000000E+00 -0.00000000000E+00 -0.45740137604E+03  0.45742552269E+03  0.47000000000E+01 0.  1.
          6    1    1    2  502    0 -0.20460798933E+03 -0.44593842158E+02  0.41287246722E+03  0.49386305212E+03  0.17200000000E+03 0. -1.
         -6    1    1    2    0  502  0.20460798933E+03  0.44593842158E+02 -0.37289478741E+03  0.46096373234E+03  0.17200000000E+03 0.  1.
</event>
<event>
 4    1 -0.7308497E-004  0.1774042E+03  0.7818608E-02  0.1170339E+00
         -5   -1    0    0    0  501 -0.00000000000E+00  0.00000000000E+00  0.13389395731E+03  0.13397642257E+03  0.47000000000E+01 0.  1.
          5   -1    0    0  501    0  0.00000000000E+00 -0.00000000000E+00 -0.23553221959E+03  0.23557910872E+03  0.47000000000E+01 0. -1.
          6    1    1    2  502    0 -0.25756454805E+01  0.43377689280E+02 -0.41063097204E+02  0.18209457935E+03  0.17200000000E+03 0. -1.
         -6    1    1    2    0  502  0.25756454805E+01 -0.43377689280E+02 -0.60575165073E+02  0.18746095194E+03  0.17200000000E+03 0. -1.
</event>
<event>
 4    1 -0.7308497E-004  0.1742482E+03  0.7818608E-02  0.1173489E+00
          5   -1    0    0  501    0  0.00000000000E+00  0.00000000000E+00  0.10327741804E+03  0.10338430770E+03  0.47000000000E+01 0. -1.
         -5   -1    0    0    0  501 -0.00000000000E+00 -0.00000000000E+00 -0.86799433768E+03  0.86800706233E+03  0.47000000000E+01 0.  1.
          6    1    1    2  502    0  0.27882716763E+02 -0.99045504887E+00  0.12676717534E+02  0.17470868914E+03  0.17200000000E+03 0. -1.
         -6    1    1    2    0  502 -0.27882716763E+02  0.99045504887E+00 -0.77739363717E+03  0.79668268088E+03  0.17200000000E+03 0.  1.
</event>
<event>
 4    1 -0.7308497E-004  0.3178650E+03  0.7818608E-02  0.1076636E+00
          5   -1    0    0  501    0  0.00000000000E+00  0.00000000000E+00  0.24299155298E+03  0.24303700298E+03  0.47000000000E+01 0. -1.
         -5   -1    0    0    0  501 -0.00000000000E+00 -0.00000000000E+00 -0.69975999768E+03  0.69977578149E+03  0.47000000000E+01 0.  1.
          6    1    1    2  502    0 -0.23878800368E+03 -0.12014356571E+03  0.71944052654E+02  0.32590509937E+03  0.17200000000E+03 0. -1.
         -6    1    1    2    0  502  0.23878800368E+03  0.12014356571E+03 -0.52871249736E+03  0.61690768510E+03  0.17200000000E+03 0.  1.
</event>
<event>
 4    1 -0.7308497E-004  0.1758064E+03  0.7818608E-02  0.1171924E+00
         -5   -1    0    0    0  501 -0.00000000000E+00  0.00000000000E+00  0.97661528604E+03  0.97662659545E+03  0.47000000000E+01 0.  1.
          5   -1    0    0  501    0  0.00000000000E+00 -0.00000000000E+00 -0.41863514541E+03  0.41866152793E+03  0.47000000000E+01 0. -1.
          6    1    1    2  502    0 -0.14757125723E+02 -0.33258397796E+02 -0.39176735061E+03  0.42940604419E+03  0.17200000000E+03 0. -1.
         -6    1    1    2    0  502  0.14757125723E+02  0.33258397796E+02  0.94974749124E+03  0.96588207919E+03  0.17200000000E+03 0.  1.
</event>
<event>
 4    1 -0.7308497E-004  0.2170017E+03  0.7818608E-02  0.1136138E+00
          5   -1    0    0  501    0  0.00000000000E+00  0.00000000000E+00  0.17867680958E+03  0.17873861441E+03  0.47000000000E+01 0. -1.
         -5   -1    0    0    0  501 -0.00000000000E+00 -0.00000000000E+00 -0.42366800849E+03  0.42369407763E+03  0.47000000000E+01 0.  1.
          6    1    1    2  502    0  0.12100158693E+03 -0.53519672568E+02  0.62735849405E+02  0.22588830468E+03  0.17200000000E+03 0. -1.
         -6    1    1    2    0  502 -0.12100158693E+03  0.53519672568E+02 -0.30772704832E+03  0.37654438737E+03  0.17200000000E+03 0.  1.
</event>
<event>
 4    1 -0.7308497E-004  0.1721849E+03  0.7818608E-02  0.1175588E+00
          5   -1    0    0  501    0  0.00000000000E+00  0.00000000000E+00  0.11176567651E+03  0.11186445569E+03  0.47000000000E+01 0. -1.
         -5   -1    0    0    0  501 -0.00000000000E+00 -0.00000000000E+00 -0.40246233499E+03  0.40248977762E+03  0.47000000000E+01 0.  1.
          6    1    1    2  502    0  0.15569411818E+01  0.78240839853E+01  0.49116720572E+01  0.17225494152E+03  0.17200000000E+03 0. -1.
         -6    1    1    2    0  502 -0.15569411818E+01 -0.78240839853E+01 -0.29560833054E+03  0.34209929178E+03  0.17200000000E+03 0.  1.
</event>
<event>
 4    1 -0.7308497E-004  0.2618893E+03  0.7818608E-02  0.1106013E+00
          5   -1    0    0  501    0  0.00000000000E+00  0.00000000000E+00  0.50591847662E+03  0.50594030772E+03  0.47000000000E+01 0. -1.
         -5   -1    0    0    0  501 -0.00000000000E+00 -0.00000000000E+00 -0.13561329944E+03  0.13569471981E+03  0.47000000000E+01 0.  1.
          6    1    1    2  502    0  0.12209914461E+03  0.15522170925E+03  0.19434994001E+03  0.32612555759E+03  0.17200000000E+03 0. -1.
         -6    1    1    2    0  502 -0.12209914461E+03 -0.15522170925E+03  0.17595523717E+03  0.31550946994E+03  0.17200000000E+03 0.  1.
</event>
<event>
 4    1 -0.7308497E-004  0.4031799E+03  0.7818608E-02  0.1042684E+00
         -5   -1    0    0    0  501 -0.00000000000E+00  0.00000000000E+00  0.20187090065E+04  0.20187144778E+04  0.47000000000E+01 0.  1.
          5   -1    0    0  501    0  0.00000000000E+00 -0.00000000000E+00 -0.92572851909E+02  0.92692086558E+02  0.47000000000E+01 0. -1.
          6    1    1    2  502    0  0.36461664978E+03  0.49734751234E+01  0.58130279686E+03  0.70743690771E+03  0.17200000000E+03 0. -1.
         -6    1    1    2    0  502 -0.36461664978E+03 -0.49734751234E+01  0.13448333577E+04  0.14039696567E+04  0.17200000000E+03 0.  1.
</event>
<event>
 4    1 -0.7308497E-004  0.1880645E+03  0.7818608E-02  0.1160219E+00
         -5   -1    0    0    0  501 -0.00000000000E+00  0.00000000000E+00  0.82787112913E+03  0.82788447047E+03  0.47000000000E+01 0.  1.
          5   -1    0    0  501    0  0.00000000000E+00 -0.00000000000E+00 -0.25132251805E+03  0.25136646173E+03  0.47000000000E+01 0. -1.
          6    1    1    2  502    0  0.16043082096E+02 -0.74343004847E+02 -0.20335876959E+03  0.27698926337E+03  0.17200000000E+03 0. -1.
         -6    1    1    2    0  502 -0.16043082096E+02  0.74343004847E+02  0.77990738066E+03  0.80226166883E+03  0.17200000000E+03 0.  1.
</event>
<event>
 4    1 -0.7308497E-004  0.1721200E+03  0.7818608E-02  0.1175655E+00
         -5   -1    0    0    0  501 -0.00000000000E+00  0.00000000000E+00  0.20264015949E+03  0.20269465765E+03  0.47000000000E+01 0.  1.
          5   -1    0    0  501    0  0.00000000000E+00 -0.00000000000E+00 -0.14874973130E+03  0.14882396501E+03  0.47000000000E+01 0. -1.
          6    1    1    2  502    0 -0.14800746983E+01 -0.62535062706E+01  0.34294525388E+01  0.17215416959E+03  0.17200000000E+03 0. -1.
         -6    1    1    2    0  502  0.14800746983E+01  0.62535062706E+01  0.50460975655E+02  0.17936445307E+03  0.17200000000E+03 0.  1.
</event>
<event>
 4    1 -0.7308497E-004  0.2034922E+03  0.7818608E-02  0.1146826E+00
         -5   -1    0    0    0  501 -0.00000000000E+00  0.00000000000E+00  0.51400373744E+03  0.51402522516E+03  0.47000000000E+01 0.  1.
          5   -1    0    0  501    0  0.00000000000E+00 -0.00000000000E+00 -0.81136959081E+02  0.81272972930E+02  0.47000000000E+01 0. -1.
          6    1    1    2  502    0 -0.34710514471E+02 -0.10305466523E+03  0.24339167838E+03  0.31725162402E+03  0.17200000000E+03 0. -1.
         -6    1    1    2    0  502  0.34710514471E+02  0.10305466523E+03  0.18947509998E+03  0.27804657407E+03  0.17200000000E+03 0. -1.
</event>
<event>
 4    1 -0.7308497E-004  0.2058108E+03  0.7818608E-02  0.1144927E+00
          5   -1    0    0  501    0  0.00000000000E+00  0.00000000000E+00  0.77960302434E+02  0.78101848605E+02  0.47000000000E+01 0. -1.
         -5   -1    0    0    0  501 -0.00000000000E+00 -0.00000000000E+00 -0.85088096412E+03  0.85089394469E+03  0.47000000000E+01 0.  1.
          6    1    1    2  502    0  0.11235528567E+03  0.12262279778E+02 -0.10693382945E+03  0.23193300240E+03  0.17200000000E+03 0. -1.
         -6    1    1    2    0  502 -0.11235528567E+03 -0.12262279778E+02 -0.66598683224E+03  0.69706279089E+03  0.17200000000E+03 0. -1.
</event>
<event>
 4    1 -0.7308497E-004  0.2697679E+03  0.7818608E-02  0.1101413E+00
         -5   -1    0    0    0  501 -0.00000000000E+00  0.00000000000E+00  0.64002444708E+03  0.64004170400E+03  0.47000000000E+01 0.  1.
          5   -1    0    0  501    0  0.00000000000E+00 -0.00000000000E+00 -0.57477357487E+03  0.57479279081E+03  0.47000000000E+01 0. -1.
          6    1    1    2  502    0 -0.83251152935E+02 -0.19042046191E+03 -0.51140622360E+03  0.57819636139E+03  0.17200000000E+03 0. -1.
         -6    1    1    2    0  502  0.83251152935E+02  0.19042046191E+03  0.57665709581E+03  0.63663813342E+03  0.17200000000E+03 0.  1.
</event>
<event>
 4    1 -0.7308497E-004  0.2478590E+03  0.7818608E-02  0.1114665E+00
         -5   -1    0    0    0  501 -0.00000000000E+00  0.00000000000E+00  0.66307819819E+03  0.66309485515E+03  0.47000000000E+01 0.  1.
          5   -1    0    0  501    0  0.00000000000E+00 -0.00000000000E+00 -0.45851993927E+03  0.45854402701E+03  0.47000000000E+01 0. -1.
          6    1    1    2  502    0  0.96828138991E+02 -0.14991468553E+03 -0.39869064909E+03  0.46945536008E+03  0.17200000000E+03 0. -1.
         -6    1    1    2    0  502 -0.96828138991E+02  0.14991468553E+03  0.60324890802E+03  0.65218352207E+03  0.17200000000E+03 0.  1.
</event>
<event>
 4    1 -0.7308497E-004  0.1865906E+03  0.7818608E-02  0.1161573E+00
          5   -1    0    0  501    0  0.00000000000E+00  0.00000000000E+00  0.28510496326E+03  0.28514370075E+03  0.47000000000E+01 0. -1.
         -5   -1    0    0    0  501 -0.00000000000E+00 -0.00000000000E+00 -0.21165806863E+03  0.21171024542E+03  0.47000000000E+01 0.  1.
          6    1    1    2  502    0 -0.69902617317E+02 -0.18592097598E+02  0.19834685433E+03  0.27231877758E+03  0.17200000000E+03 0. -1.
         -6    1    1    2    0  502  0.69902617317E+02  0.18592097598E+02 -0.12489995970E+03  0.22453516859E+03  0.17200000000E+03 0.  1.
</event>
<event>
 4    1 -0.7308497E-004  0.1725521E+03  0.7818608E-02  0.1175212E+00
          5   -1    0    0  501    0  0.00000000000E+00  0.00000000000E+00  0.26704176551E+03  0.26708312288E+03  0.47000000000E+01 0. -1.
         -5   -1    0    0    0  501 -0.00000000000E+00 -0.00000000000E+00 -0.11184975823E+03  0.11194846321E+03  0.47000000000E+01 0.  1.
          6    1    1    2  502    0 -0.77421690143E+01  0.11414224563E+02  0.65545497602E+02  0.18458179206E+03  0.17200000000E+03 0. -1.
         -6    1    1    2    0  502  0.77421690143E+01 -0.11414224563E+02  0.89646509680E+02  0.19444979404E+03  0.17200000000E+03 0. -1.
</event>
<event>
 4    1 -0.7308497E-004  0.1848734E+03  0.7818608E-02  0.1163168E+00
         -5   -1    0    0    0  501 -0.00000000000E+00  0.00000000000E+00  0.32144209822E+03  0.32147645716E+03  0.47000000000E+01 0.  1.
          5   -1    0    0  501    0  0.00000000000E+00 -0.00000000000E+00 -0.11211003653E+03  0.11220851256E+03  0.47000000000E+01 0. -1.
          6    1    1    2  502    0  0.25254515581E+02 -0.62899762437E+02  0.55059091116E+02  0.19289809275E+03  0.17200000000E+03 0. -1.
         -6    1    1    2    0  502 -0.25254515581E+02  0.62899762437E+02  0.15427297057E+03  0.24078687697E+03  0.17200000000E+03 0.  1.
</event>
<event>
 4    1 -0.7308497E-004  0.1909017E+03  0.7818608E-02  0.1157651E+00
          5   -1    0    0  501    0  0.00000000000E+00  0.00000000000E+00  0.14026560570E+03  0.14034432708E+03  0.47000000000E+01 0. -1.
         -5   -1    0    0    0  501 -0.00000000000E+00 -0.00000000000E+00 -0.34391381649E+03  0.34394593059E+03  0.47000000000E+01 0.  1.
          6    1    1    2  502    0 -0.29634066197E+02 -0.77338693794E+02 -0.22166698353E+03  0.29254008789E+03  0.17200000000E+03 0.  1.
         -6    1    1    2    0  502  0.29634066197E+02  0.77338693794E+02  0.18018772750E+02  0.19175016977E+03  0.17200000000E+03 0. -1.
</event>
<event>
 4    1 -0.7308497E-004  0.1824689E+03  0.7818608E-02  0.1165435E+00
         -5   -1    0    0    0  501 -0.00000000000E+00  0.00000000000E+00  0.40424754408E+03  0.40427486553E+03  0.47000000000E+01 0.  1.
          5   -1    0    0  501    0  0.00000000000E+00 -0.00000000000E+00 -0.13746823707E+03  0.13754855943E+03  0.47000000000E+01 0. -1.
          6    1    1    2  502    0  0.60513947294E+02 -0.69970578270E+01 -0.38201377193E+02  0.18642489602E+03  0.17200000000E+03 0. -1.
         -6    1    1    2    0  502 -0.60513947294E+02  0.69970578270E+01  0.30498068421E+03  0.35539852894E+03  0.17200000000E+03 0.  1.
</event>
<event>
 4    1 -0.7308497E-004  0.1872358E+03  0.7818608E-02  0.1160978E+00
         -5   -1    0    0    0  501 -0.00000000000E+00  0.00000000000E+00  0.12147134360E+03  0.12156223639E+03  0.47000000000E+01 0.  1.
          5   -1    0    0  501    0  0.00000000000E+00 -0.00000000000E+00 -0.32458789603E+03  0.32462192201E+03  0.47000000000E+01 0. -1.
          6    1    1    2  502    0  0.36648038176E+02 -0.64266286828E+02 -0.17604737177E+03  0.25700177321E+03  0.17200000000E+03 0. -1.
         -6    1    1    2    0  502 -0.36648038176E+02  0.64266286828E+02 -0.27069180664E+02  0.18918238519E+03  0.17200000000E+03 0. -1.
</event>
<event>
 4    1 -0.7308497E-004  0.2269677E+03  0.7818608E-02  0.1128792E+00
          5   -1    0    0  501    0  0.00000000000E+00  0.00000000000E+00  0.14756844697E+04  0.14756919544E+04  0.47000000000E+01 0. -1.
         -5   -1    0    0    0  501 -0.00000000000E+00 -0.00000000000E+00 -0.42949158470E+02  0.43205557667E+02  0.47000000000E+01 0.  1.
          6    1    1    2  502    0 -0.94701368343E+02 -0.11385068305E+03  0.10472023107E+04  0.10715162186E+04  0.17200000000E+03 0. -1.
         -6    1    1    2    0  502  0.94701368343E+02  0.11385068305E+03  0.38553300057E+03  0.44738129344E+03  0.17200000000E+03 0.  1.
</event>
<event>
 4    1 -0.7308497E-004  0.1976768E+03  0.7818608E-02  0.1151714E+00
          5   -1    0    0  501    0  0.00000000000E+00  0.00000000000E+00  0.11826491742E+03  0.11835827260E+03  0.47000000000E+01 0. -1.
         -5   -1    0    0    0  501 -0.00000000000E+00 -0.00000000000E+00 -0.33375747010E+03  0.33379056135E+03  0.47000000000E+01 0.  1.
          6    1    1    2  502    0  0.92563890005E+02  0.30398376313E+02 -0.84316932487E+02  0.21490807365E+03  0.17200000000E+03 0. -1.
         -6    1    1    2    0  502 -0.92563890005E+02 -0.30398376313E+02 -0.13117562020E+03  0.23724076030E+03  0.17200000000E+03 0.  1.
</event>
<event>
 4    1 -0.7308497E-004  0.1848084E+03  0.7818608E-02  0.1163229E+00
         -5   -1    0    0    0  501 -0.00000000000E+00  0.00000000000E+00  0.14615405813E+03  0.14622960955E+03  0.47000000000E+01 0.  1.
          5   -1    0    0  501    0  0.00000000000E+00 -0.00000000000E+00 -0.47610865307E+03  0.47613185099E+03  0.47000000000E+01 0. -1.
          6    1    1    2  502    0 -0.60897403028E+02 -0.29353865367E+02 -0.38707226272E+03  0.42892782572E+03  0.17200000000E+03 0. -1.
         -6    1    1    2    0  502  0.60897403028E+02  0.29353865367E+02  0.57117667780E+02  0.19343363482E+03  0.17200000000E+03 0.  1.
</event>
<event>
 4    1 -0.7308497E-004  0.2211467E+03  0.7818608E-02  0.1133031E+00
          5   -1    0    0  501    0  0.00000000000E+00  0.00000000000E+00  0.84606859790E+03  0.84608165230E+03  0.47000000000E+01 0. -1.
         -5   -1    0    0    0  501 -0.00000000000E+00 -0.00000000000E+00 -0.11945328636E+03  0.11954571352E+03  0.47000000000E+01 0.  1.
          6    1    1    2  502    0  0.13774559158E+03 -0.18654884787E+02  0.71024279884E+03  0.74387545062E+03  0.17200000000E+03 0. -1.
         -6    1    1    2    0  502 -0.13774559158E+03  0.18654884787E+02  0.16372512709E+02  0.22175191521E+03  0.17200000000E+03 0.  1.
</event>
<event>
 4    1 -0.7308497E-004  0.1927544E+03  0.7818608E-02  0.1156000E+00
          5   -1    0    0  501    0  0.00000000000E+00  0.00000000000E+00  0.13655090781E+03  0.13663176946E+03  0.47000000000E+01 0. -1.
         -5   -1    0    0    0  501 -0.00000000000E+00 -0.00000000000E+00 -0.58993037980E+03  0.58994910206E+03  0.47000000000E+01 0.  1.
          6    1    1    2  502    0 -0.69726346157E+02  0.52043029408E+02  0.40021324149E+02  0.19686530076E+03  0.17200000000E+03 0. -1.
         -6    1    1    2    0  502  0.69726346157E+02 -0.52043029408E+02 -0.49340079614E+03  0.52971557075E+03  0.17200000000E+03 0.  1.
</event>
<event>
 4    1 -0.7308497E-004  0.1820071E+03  0.7818608E-02  0.1165875E+00
          5   -1    0    0  501    0  0.00000000000E+00  0.00000000000E+00  0.67306008002E+03  0.67307648994E+03  0.47000000000E+01 0. -1.
         -5   -1    0    0    0  501 -0.00000000000E+00 -0.00000000000E+00 -0.76144982815E+03  0.76146433323E+03  0.47000000000E+01 0.  1.
          6    1    1    2  502    0  0.18860807470E+02 -0.56452164769E+02  0.64950824948E+03  0.67452764444E+03  0.17200000000E+03 0. -1.
         -6    1    1    2    0  502 -0.18860807470E+02  0.56452164769E+02 -0.73789799761E+03  0.76001317873E+03  0.17200000000E+03 0.  1.
</event>
<event>
 4    1 -0.7308497E-004  0.2028532E+03  0.7818608E-02  0.1147354E+00
          5   -1    0    0  501    0  0.00000000000E+00  0.00000000000E+00  0.16832651212E+03  0.16839211586E+03  0.47000000000E+01 0. -1.
         -5   -1    0    0    0  501 -0.00000000000E+00 -0.00000000000E+00 -0.58950778084E+03  0.58952651652E+03  0.47000000000E+01 0.  1.
          6    1    1    2  502    0  0.82228318287E+01 -0.10722788569E+03  0.79367777002E+02  0.21782717567E+03  0.17200000000E+03 0. -1.
         -6    1    1    2    0  502 -0.82228318287E+01  0.10722788569E+03 -0.50054904572E+03  0.54009145671E+03  0.17200000000E+03 0.  1.
</event>
<event>
 4    1 -0.7308497E-004  0.3047960E+03  0.7818608E-02  0.1082867E+00
         -5   -1    0    0    0  501 -0.00000000000E+00  0.00000000000E+00  0.23240139467E+04  0.23240186993E+04  0.47000000000E+01 0.  1.
          5   -1    0    0  501    0  0.00000000000E+00 -0.00000000000E+00 -0.41521153348E+02  0.41786315647E+02  0.47000000000E+01 0. -1.
          6    1    1    2  502    0 -0.19238420424E+03  0.16218790861E+03  0.13791004007E+04  0.14123804428E+04  0.17200000000E+03 0. -1.
         -6    1    1    2    0  502  0.19238420424E+03 -0.16218790861E+03  0.90339239262E+03  0.95342457215E+03  0.17200000000E+03 0.  1.
</event>
<event>
 4    1 -0.7308497E-004  0.2036662E+03  0.7818608E-02  0.1146682E+00
          5   -1    0    0  501    0  0.00000000000E+00  0.00000000000E+00  0.21576850427E+03  0.21581968732E+03  0.47000000000E+01 0. -1.
         -5   -1    0    0    0  501 -0.00000000000E+00 -0.00000000000E+00 -0.44105609201E+03  0.44108113346E+03  0.47000000000E+01 0.  1.
          6    1    1    2  502    0  0.58490143289E+01 -0.10891153573E+03  0.13407591054E+03  0.24383659153E+03  0.17200000000E+03 0. -1.
         -6    1    1    2    0  502 -0.58490143289E+01  0.10891153573E+03 -0.35936349828E+03  0.41306422924E+03  0.17200000000E+03 0.  1.
</event>
<event>
 4    1 -0.7308497E-004  0.1897086E+03  0.7818608E-02  0.1158724E+00
          5   -1    0    0  501    0  0.00000000000E+00  0.00000000000E+00  0.12624666923E+03  0.12633412640E+03  0.47000000000E+01 0. -1.
         -5   -1    0    0    0  501 -0.00000000000E+00 -0.00000000000E+00 -0.54582840105E+03  0.54584863598E+03  0.47000000000E+01 0.  1.
          6    1    1    2  502    0 -0.51000069786E+02 -0.61679532184E+02  0.22574557239E+02  0.19104706866E+03  0.17200000000E+03 0. -1.
         -6    1    1    2    0  502  0.51000069786E+02  0.61679532184E+02 -0.44215628906E+03  0.48113569371E+03  0.17200000000E+03 0.  1.
</event>
<event>
 4    1 -0.7308497E-004  0.2206832E+03  0.7818608E-02  0.1133375E+00
         -5   -1    0    0    0  501 -0.00000000000E+00  0.00000000000E+00  0.21125620424E+03  0.21130848026E+03  0.47000000000E+01 0.  1.
          5   -1    0    0  501    0  0.00000000000E+00 -0.00000000000E+00 -0.23907806410E+03  0.23912425794E+03  0.47000000000E+01 0. -1.
          6    1    1    2  502    0  0.11171161234E+03 -0.81471317341E+02 -0.56745953669E+02  0.22786215820E+03  0.17200000000E+03 0. -1.
         -6    1    1    2    0  502 -0.11171161234E+03  0.81471317341E+02  0.28924093807E+02  0.22257058001E+03  0.17200000000E+03 0.  1.
</event>
<event>
 4    1 -0.7308497E-004  0.2961306E+03  0.7818608E-02  0.1087191E+00
          5   -1    0    0  501    0  0.00000000000E+00  0.00000000000E+00  0.14253811182E+04  0.14253888670E+04  0.47000000000E+01 0. -1.
         -5   -1    0    0    0  501 -0.00000000000E+00 -0.00000000000E+00 -0.10619821358E+03  0.10630216633E+03  0.47000000000E+01 0.  1.
          6    1    1    2  502    0 -0.21954499370E+03  0.99545542634E+02  0.11565110095E+04  0.11938220280E+04  0.17200000000E+03 0. -1.
         -6    1    1    2    0  502  0.21954499370E+03 -0.99545542634E+02  0.16267189509E+03  0.33786900534E+03  0.17200000000E+03 0.  1.
</event>
<event>
 4    1 -0.7308497E-004  0.1900367E+03  0.7818608E-02  0.1158428E+00
          5   -1    0    0  501    0  0.00000000000E+00  0.00000000000E+00  0.70262785962E+02  0.70419806100E+02  0.47000000000E+01 0. -1.
         -5   -1    0    0    0  501 -0.00000000000E+00 -0.00000000000E+00 -0.83166925276E+03  0.83168253318E+03  0.47000000000E+01 0.  1.
          6    1    1    2  502    0 -0.79897130116E+02  0.12099890314E+02 -0.10163552067E+03  0.21550809221E+03  0.17200000000E+03 0. -1.
         -6    1    1    2    0  502  0.79897130116E+02 -0.12099890314E+02 -0.65977094613E+03  0.68659424707E+03  0.17200000000E+03 0.  1.
</event>
<event>
 4    1 -0.7308497E-004  0.2087187E+03  0.7818608E-02  0.1142585E+00
         -5   -1    0    0    0  501 -0.00000000000E+00  0.00000000000E+00  0.21239109976E+03  0.21244309652E+03  0.47000000000E+01 0.  1.
          5   -1    0    0  501    0  0.00000000000E+00 -0.00000000000E+00 -0.21393782601E+03  0.21398944693E+03  0.47000000000E+01 0. -1.
          6    1    1    2  502    0  0.58204036296E+02  0.10291634787E+03 -0.44329314461E+02  0.21337425482E+03  0.17200000000E+03 0. -1.
         -6    1    1    2    0  502 -0.58204036296E+02 -0.10291634787E+03  0.42782588206E+02  0.21305828863E+03  0.17200000000E+03 0. -1.
</event>
<event>
 4    1 -0.7308497E-004  0.1741840E+03  0.7818608E-02  0.1173554E+00
          5   -1    0    0  501    0  0.00000000000E+00  0.00000000000E+00  0.20252182685E+04  0.20252237222E+04  0.47000000000E+01 0. -1.
         -5   -1    0    0    0  501 -0.00000000000E+00 -0.00000000000E+00 -0.22335170237E+02  0.22824325390E+02  0.47000000000E+01 0.  1.
          6    1    1    2  502    0 -0.12796495754E+02  0.24337564696E+02  0.15956265844E+04  0.16051056863E+04  0.17200000000E+03 0. -1.
         -6    1    1    2    0  502  0.12796495754E+02 -0.24337564696E+02  0.40725651384E+03  0.44294236129E+03  0.17200000000E+03 0.  1.
</event>
<event>
 4    1 -0.7308497E-004  0.1795309E+03  0.7818608E-02  0.1168258E+00
          5   -1    0    0  501    0  0.00000000000E+00  0.00000000000E+00  0.52262368490E+03  0.52264481822E+03  0.47000000000E+01 0. -1.
         -5   -1    0    0    0  501 -0.00000000000E+00 -0.00000000000E+00 -0.43410419518E+03  0.43412963763E+03  0.47000000000E+01 0.  1.
          6    1    1    2  502    0  0.34364642094E+02  0.38294020414E+02  0.48736775250E+03  0.51938298663E+03  0.17200000000E+03 0. -1.
         -6    1    1    2    0  502 -0.34364642094E+02 -0.38294020414E+02 -0.39884826278E+03  0.43739146922E+03  0.17200000000E+03 0.  1.
</event>
<event>
 4    1 -0.7308497E-004  0.1935752E+03  0.7818608E-02  0.1155276E+00
         -5   -1    0    0    0  501 -0.00000000000E+00  0.00000000000E+00  0.14516903246E+03  0.14524509626E+03  0.47000000000E+01 0.  1.
          5   -1    0    0  501    0  0.00000000000E+00 -0.00000000000E+00 -0.26075227248E+03  0.26079462725E+03  0.47000000000E+01 0. -1.
          6    1    1    2  502    0 -0.87502038786E+02  0.15190950419E+02 -0.36777220856E+02  0.19703790432E+03  0.17200000000E+03 0.  1.
         -6    1    1    2    0  502  0.87502038786E+02 -0.15190950419E+02 -0.78806019160E+02  0.20900181918E+03  0.17200000000E+03 0. -1.
</event>
<event>
 4    1 -0.7308497E-004  0.1823138E+03  0.7818608E-02  0.1165582E+00
         -5   -1    0    0    0  501 -0.00000000000E+00  0.00000000000E+00  0.49780237946E+03  0.49782456649E+03  0.47000000000E+01 0.  1.
          5   -1    0    0  501    0  0.00000000000E+00 -0.00000000000E+00 -0.48787181794E+03  0.48789445656E+03  0.47000000000E+01 0. -1.
          6    1    1    2  502    0  0.23227678421E+02 -0.55810490952E+02 -0.45293076455E+03  0.48824646791E+03  0.17200000000E+03 0. -1.
         -6    1    1    2    0  502 -0.23227678421E+02  0.55810490952E+02  0.46286132607E+03  0.49747255514E+03  0.17200000000E+03 0.  1.
</event>
<event>
 4    1 -0.7308497E-004  0.1865190E+03  0.7818608E-02  0.1161639E+00
         -5   -1    0    0    0  501 -0.00000000000E+00  0.00000000000E+00  0.37819132919E+02  0.38110061857E+02  0.47000000000E+01 0.  1.
          5   -1    0    0  501    0  0.00000000000E+00 -0.00000000000E+00 -0.12794731070E+04  0.12794817394E+04  0.47000000000E+01 0. -1.
          6    1    1    2  502    0 -0.40007621360E+02 -0.60039248071E+02 -0.97188699957E+03  0.98962298933E+03  0.17200000000E+03 0. -1.
         -6    1    1    2    0  502  0.40007621360E+02  0.60039248071E+02 -0.26976697447E+03  0.32796881192E+03  0.17200000000E+03 0.  1.
</event>
<event>
 4    1 -0.7308497E-004  0.2968338E+03  0.7818608E-02  0.1086834E+00
          5   -1    0    0  501    0  0.00000000000E+00  0.00000000000E+00  0.65587261544E+03  0.65588945539E+03  0.47000000000E+01 0. -1.
         -5   -1    0    0    0  501 -0.00000000000E+00 -0.00000000000E+00 -0.49256192634E+03  0.49258434941E+03  0.47000000000E+01 0.  1.
          6    1    1    2  502    0  0.24187234912E+03 -0.49069646603E+01  0.57136885842E+03  0.64387318934E+03  0.17200000000E+03 0. -1.
         -6    1    1    2    0  502 -0.24187234912E+03  0.49069646603E+01 -0.40805816932E+03  0.50460061546E+03  0.17200000000E+03 0.  1.
</event>
<event>
 4    1 -0.7308497E-004  0.1804179E+03  0.7818608E-02  0.1167399E+00
          5   -1    0    0  501    0  0.00000000000E+00  0.00000000000E+00  0.20042576097E+03  0.20048086108E+03  0.47000000000E+01 0. -1.
         -5   -1    0    0    0  501 -0.00000000000E+00 -0.00000000000E+00 -0.77402124898E+03  0.77403551848E+03  0.47000000000E+01 0.  1.
          6    1    1    2  502    0  0.46963933418E+02  0.27586379792E+02  0.14634788271E+03  0.23231083093E+03  0.17200000000E+03 0. -1.
         -6    1    1    2    0  502 -0.46963933418E+02 -0.27586379792E+02 -0.71994337072E+03  0.74220554864E+03  0.17200000000E+03 0.  1.
</event>
<event>
 4    1 -0.7308497E-004  0.1741231E+03  0.7818608E-02  0.1173615E+00
          5   -1    0    0  501    0  0.00000000000E+00  0.00000000000E+00  0.32477690004E+03  0.32481090622E+03  0.47000000000E+01 0. -1.
         -5   -1    0    0    0  501 -0.00000000000E+00 -0.00000000000E+00 -0.17022361443E+03  0.17028848731E+03  0.47000000000E+01 0.  1.
          6    1    1    2  502    0  0.14619385162E+02  0.22828295098E+02  0.24367524940E+03  0.29949371388E+03  0.17200000000E+03 0. -1.
         -6    1    1    2    0  502 -0.14619385162E+02 -0.22828295098E+02 -0.89121963796E+02  0.19560567965E+03  0.17200000000E+03 0.  1.
</event>
<event>
 4    1 -0.7308497E-004  0.1891640E+03  0.7818608E-02  0.1159217E+00
         -5   -1    0    0    0  501 -0.00000000000E+00  0.00000000000E+00  0.17716985891E+03  0.17723218925E+03  0.47000000000E+01 0.  1.
          5   -1    0    0  501    0  0.00000000000E+00 -0.00000000000E+00 -0.49892123476E+03  0.49894337203E+03  0.47000000000E+01 0. -1.
          6    1    1    2  502    0 -0.36422137614E+02  0.69803037646E+02 -0.42173333655E+03  0.46221428292E+03  0.17200000000E+03 0. -1.
         -6    1    1    2    0  502  0.36422137614E+02 -0.69803037646E+02  0.99981960699E+02  0.21396127836E+03  0.17200000000E+03 0.  1.
</event>
<event>
 4    1 -0.7308497E-004  0.2190544E+03  0.7818608E-02  0.1134590E+00
         -5   -1    0    0    0  501 -0.00000000000E+00  0.00000000000E+00  0.56728426215E+03  0.56730373178E+03  0.47000000000E+01 0.  1.
          5   -1    0    0  501    0  0.00000000000E+00 -0.00000000000E+00 -0.36361221309E+03  0.36364258759E+03  0.47000000000E+01 0. -1.
          6    1    1    2  502    0  0.93706677521E+02 -0.98081046403E+02 -0.30592395232E+03  0.37626360132E+03  0.17200000000E+03 0. -1.
         -6    1    1    2    0  502 -0.93706677521E+02  0.98081046403E+02  0.50959600138E+03  0.55468271805E+03  0.17200000000E+03 0.  1.
</event>
<event>
 4    1 -0.7308497E-004  0.2188891E+03  0.7818608E-02  0.1134714E+00
         -5   -1    0    0    0  501 -0.00000000000E+00  0.00000000000E+00  0.70400408372E+02  0.70557122241E+02  0.47000000000E+01 0.  1.
          5   -1    0    0  501    0  0.00000000000E+00 -0.00000000000E+00 -0.94567467458E+03  0.94568635400E+03  0.47000000000E+01 0. -1.
          6    1    1    2  502    0  0.55139258855E+02 -0.12364508936E+03 -0.70711271519E+03  0.74021675067E+03  0.17200000000E+03 0. -1.
         -6    1    1    2    0  502 -0.55139258855E+02  0.12364508936E+03 -0.16816155102E+03  0.27602672557E+03  0.17200000000E+03 0.  1.
</event>
<event>
 4    1 -0.7308497E-004  0.2067523E+03  0.7818608E-02  0.1144164E+00
          5   -1    0    0  501    0  0.00000000000E+00  0.00000000000E+00  0.40157190434E+03  0.40159940781E+03  0.47000000000E+01 0. -1.
         -5   -1    0    0    0  501 -0.00000000000E+00 -0.00000000000E+00 -0.30268020727E+03  0.30271669573E+03  0.47000000000E+01 0.  1.
          6    1    1    2  502    0  0.81410539804E+02 -0.80838306542E+02  0.33301085743E+03  0.39197288039E+03  0.17200000000E+03 0. -1.
         -6    1    1    2    0  502 -0.81410539804E+02  0.80838306542E+02 -0.23411916036E+03  0.31234322315E+03  0.17200000000E+03 0.  1.
</event>
<event>
 4    1 -0.7308497E-004  0.1722771E+03  0.7818608E-02  0.1175494E+00
         -5   -1    0    0    0  501 -0.00000000000E+00  0.00000000000E+00  0.19117342309E+03  0.19123118913E+03  0.47000000000E+01 0.  1.
          5   -1    0    0  501    0  0.00000000000E+00 -0.00000000000E+00 -0.58738005117E+03  0.58739885471E+03  0.47000000000E+01 0. -1.
          6    1    1    2  502    0  0.83648996708E+01 -0.50408913690E+01 -0.53204471822E+03  0.55924141864E+03  0.17200000000E+03 0. -1.
         -6    1    1    2    0  502 -0.83648996708E+01  0.50408913690E+01  0.13583809014E+03  0.21938862520E+03  0.17200000000E+03 0.  1.
</event>
<event>
 4    1 -0.7308497E-004  0.2520935E+03  0.7818608E-02  0.1111989E+00
          5   -1    0    0  501    0  0.00000000000E+00  0.00000000000E+00  0.36723951950E+03  0.36726959400E+03  0.47000000000E+01 0. -1.
         -5   -1    0    0    0  501 -0.00000000000E+00 -0.00000000000E+00 -0.53425937836E+03  0.53428005144E+03  0.47000000000E+01 0.  1.
          6    1    1    2  502    0  0.13500014859E+03  0.12546753286E+03  0.28714915504E+03  0.38210702579E+03  0.17200000000E+03 0. -1.
         -6    1    1    2    0  502 -0.13500014859E+03 -0.12546753286E+03 -0.45416901390E+03  0.51944261965E+03  0.17200000000E+03 0.  1.
</event>
<event>
 4    1 -0.7308497E-004  0.1869188E+03  0.7818608E-02  0.1161270E+00
          5   -1    0    0  501    0  0.00000000000E+00  0.00000000000E+00  0.10250695421E+03  0.10261464642E+03  0.47000000000E+01 0. -1.
         -5   -1    0    0    0  501 -0.00000000000E+00 -0.00000000000E+00 -0.18823931893E+04  0.18823990568E+04  0.47000000000E+01 0.  1.
          6    1    1    2  502    0 -0.42143343282E+02 -0.59821224370E+02  0.82824042833E+01  0.18710221401E+03  0.17200000000E+03 0. -1.
         -6    1    1    2    0  502  0.42143343282E+02  0.59821224370E+02 -0.17881686394E+04  0.17979114892E+04  0.17200000000E+03 0.  1.
</event>
<event>
 4    1 -0.7308497E-004  0.2163241E+03  0.7818608E-02  0.1136654E+00
         -5   -1    0    0    0  501 -0.00000000000E+00  0.00000000000E+00  0.10021994217E+04  0.10022104424E+04  0.47000000000E+01 0.  1.
          5   -1    0    0  501    0  0.00000000000E+00 -0.00000000000E+00 -0.63503041859E+02  0.63676732998E+02  0.47000000000E+01 0. -1.
          6    1    1    2  502    0 -0.39831169295E+02  0.12500244670E+03  0.19456368752E+03  0.29094872784E+03  0.17200000000E+03 0. -1.
         -6    1    1    2    0  502  0.39831169295E+02 -0.12500244670E+03  0.74413269234E+03  0.77493844758E+03  0.17200000000E+03 0.  1.
</event>
<event>
 4    1 -0.7308497E-004  0.1895893E+03  0.7818608E-02  0.1158832E+00
         -5   -1    0    0    0  501 -0.00000000000E+00  0.00000000000E+00  0.28920588809E+03  0.28924407635E+03  0.47000000000E+01 0.  1.
          5   -1    0    0  501    0  0.00000000000E+00 -0.00000000000E+00 -0.55177070521E+03  0.55179072222E+03  0.47000000000E+01 0. -1.
          6    1    1    2  502    0  0.41395106310E+01 -0.79642773331E+02 -0.50142994339E+03  0.53607471030E+03  0.17200000000E+03 0. -1.
         -6    1    1    2    0  502 -0.41395106310E+01  0.79642773331E+02  0.23886512627E+03  0.30496008827E+03  0.17200000000E+03 0.  1.
</event>
<event>
 4    1 -0.7308497E-004  0.2255238E+03  0.7818608E-02  0.1129831E+00
         -5   -1    0    0    0  501 -0.00000000000E+00  0.00000000000E+00  0.31141021375E+03  0.31144567942E+03  0.47000000000E+01 0.  1.
          5   -1    0    0  501    0  0.00000000000E+00 -0.00000000000E+00 -0.94595584450E+03  0.94596752045E+03  0.47000000000E+01 0. -1.
          6    1    1    2  502    0 -0.11418052081E+03  0.90773407669E+02 -0.88914067442E+03  0.91729610366E+03  0.17200000000E+03 0. -1.
         -6    1    1    2    0  502  0.11418052081E+03 -0.90773407669E+02  0.25459504368E+03  0.34011709621E+03  0.17200000000E+03 0.  1.
</event>
<event>
 4    1 -0.7308497E-004  0.1756685E+03  0.7818608E-02  0.1172062E+00
          5   -1    0    0  501    0  0.00000000000E+00  0.00000000000E+00  0.10220512469E+04  0.10220620536E+04  0.47000000000E+01 0. -1.
         -5   -1    0    0    0  501 -0.00000000000E+00 -0.00000000000E+00 -0.49518428623E+02  0.49740976803E+02  0.47000000000E+01 0.  1.
          6    1    1    2  502    0 -0.34344488973E+02  0.97922137780E+01  0.82169005901E+03  0.84025828437E+03  0.17200000000E+03 0. -1.
         -6    1    1    2    0  502  0.34344488973E+02 -0.97922137780E+01  0.15084275931E+03  0.23154474602E+03  0.17200000000E+03 0.  1.
</event>
<event>
 4    1 -0.7308497E-004  0.2053222E+03  0.7818608E-02  0.1145325E+00
         -5   -1    0    0    0  501 -0.00000000000E+00  0.00000000000E+00  0.90068491328E+03  0.90069717608E+03  0.47000000000E+01 0.  1.
          5   -1    0    0  501    0  0.00000000000E+00 -0.00000000000E+00 -0.88912205135E+02  0.89036342141E+02  0.47000000000E+01 0. -1.
          6    1    1    2  502    0 -0.95614691460E+02  0.58575124697E+02  0.65176092409E+02  0.21541851703E+03  0.17200000000E+03 0. -1.
         -6    1    1    2    0  502  0.95614691460E+02 -0.58575124697E+02  0.74659661573E+03  0.77431500120E+03  0.17200000000E+03 0.  1.
</event>
<event>
 4    1 -0.7308497E-004  0.1960670E+03  0.7818608E-02  0.1153100E+00
         -5   -1    0    0    0  501 -0.00000000000E+00  0.00000000000E+00  0.13327663149E+03  0.13335947848E+03  0.47000000000E+01 0.  1.
          5   -1    0    0  501    0  0.00000000000E+00 -0.00000000000E+00 -0.13775372483E+04  0.13775452662E+04  0.47000000000E+01 0. -1.
          6    1    1    2  502    0  0.91888996651E+02  0.20363265151E+02 -0.12938844130E+04  0.13086554644E+04  0.17200000000E+03 0. -1.
         -6    1    1    2    0  502 -0.91888996651E+02 -0.20363265151E+02  0.49623796112E+02  0.20224928038E+03  0.17200000000E+03 0.  1.
</event>
<event>
 4    1 -0.7308497E-004  0.1950033E+03  0.7818608E-02  0.1154025E+00
         -5   -1    0    0    0  501 -0.00000000000E+00  0.00000000000E+00  0.10370088937E+03  0.10380734297E+03  0.47000000000E+01 0.  1.
          5   -1    0    0  501    0  0.00000000000E+00 -0.00000000000E+00 -0.37240532125E+03  0.37243497861E+03  0.47000000000E+01 0. -1.
          6    1    1    2  502    0 -0.88301216948E+02 -0.25400146550E+02 -0.16462977556E+03  0.25520430122E+03  0.17200000000E+03 0.  1.
         -6    1    1    2    0  502  0.88301216948E+02  0.25400146550E+02 -0.10407465632E+03  0.22103802036E+03  0.17200000000E+03 0. -1.
</event>
<event>
 4    1 -0.7308497E-004  0.1994721E+03  0.7818608E-02  0.1150185E+00
         -5   -1    0    0    0  501 -0.00000000000E+00  0.00000000000E+00  0.18670123315E+03  0.18676038246E+03  0.47000000000E+01 0.  1.
          5   -1    0    0  501    0  0.00000000000E+00 -0.00000000000E+00 -0.23541301786E+03  0.23545993072E+03  0.47000000000E+01 0. -1.
          6    1    1    2  502    0 -0.10098289149E+03  0.27546256525E+01 -0.89483565428E+02  0.21862397128E+03  0.17200000000E+03 0. -1.
         -6    1    1    2    0  502  0.10098289149E+03 -0.27546256525E+01  0.40771780720E+02  0.20359634191E+03  0.17200000000E+03 0.  1.
</event>
<event>
 4    1 -0.7308497E-004  0.1812510E+03  0.7818608E-02  0.1166598E+00
         -5   -1    0    0    0  501 -0.00000000000E+00  0.00000000000E+00  0.17526531320E+03  0.17532832062E+03  0.47000000000E+01 0.  1.
          5   -1    0    0  501    0  0.00000000000E+00 -0.00000000000E+00 -0.32526918868E+03  0.32530314340E+03  0.47000000000E+01 0. -1.
          6    1    1    2  502    0  0.49356147489E+02  0.28842911752E+02 -0.23799195200E+03  0.29915232252E+03  0.17200000000E+03 0. -1.
         -6    1    1    2    0  502 -0.49356147489E+02 -0.28842911752E+02  0.87988076517E+02  0.20147914151E+03  0.17200000000E+03 0.  1.
</event>
<event>
 4    1 -0.7308497E-004  0.1953965E+03  0.7818608E-02  0.1153682E+00
         -5   -1    0    0    0  501 -0.00000000000E+00  0.00000000000E+00  0.17165902943E+03  0.17172336005E+03  0.47000000000E+01 0.  1.
          5   -1    0    0  501    0  0.00000000000E+00 -0.00000000000E+00 -0.23041787713E+03  0.23046580679E+03  0.47000000000E+01 0. -1.
          6    1    1    2  502    0  0.84189293210E+02  0.38832488507E+02 -0.67148859126E+02  0.20661260498E+03  0.17200000000E+03 0. -1.
         -6    1    1    2    0  502 -0.84189293210E+02 -0.38832488507E+02  0.83900114319E+01  0.19557656185E+03  0.17200000000E+03 0. -1.
</event>
<event>
 4    1 -0.7308497E-004  0.2602591E+03  0.7818608E-02  0.1106988E+00
          5   -1    0    0  501    0  0.00000000000E+00  0.00000000000E+00  0.22798648108E+03  0.22803492179E+03  0.47000000000E+01 0. -1.
         -5   -1    0    0    0  501 -0.00000000000E+00 -0.00000000000E+00 -0.40817968400E+03  0.40820674227E+03  0.47000000000E+01 0.  1.
          6    1    1    2  502    0  0.17503883605E+03  0.86673043765E+02  0.75913035985E+02  0.27110440733E+03  0.17200000000E+03 0. -1.
         -6    1    1    2    0  502 -0.17503883605E+03 -0.86673043765E+02 -0.25610623890E+03  0.36513725673E+03  0.17200000000E+03 0. -1.
</event>
<event>
 4    1 -0.7308497E-004  0.1807680E+03  0.7818608E-02  0.1167062E+00
         -5   -1    0    0    0  501 -0.00000000000E+00  0.00000000000E+00  0.41484043539E+02  0.41749441533E+02  0.47000000000E+01 0.  1.
          5   -1    0    0  501    0  0.00000000000E+00 -0.00000000000E+00 -0.83494620220E+03  0.83495943049E+03  0.47000000000E+01 0. -1.
          6    1    1    2  502    0  0.39089566129E+02  0.39561086259E+02 -0.50401398991E+03  0.53545044191E+03  0.17200000000E+03 0. -1.
         -6    1    1    2    0  502 -0.39089566129E+02 -0.39561086259E+02 -0.28944816876E+03  0.34125843011E+03  0.17200000000E+03 0. -1.
</event>
<event>
 4    1 -0.7308497E-004  0.1763366E+03  0.7818608E-02  0.1171396E+00
         -5   -1    0    0    0  501 -0.00000000000E+00  0.00000000000E+00  0.38394345702E+02  0.38680948565E+02  0.47000000000E+01 0.  1.
          5   -1    0    0  501    0  0.00000000000E+00 -0.00000000000E+00 -0.81235477692E+03  0.81236837308E+03  0.47000000000E+01 0. -1.
          6    1    1    2  502    0 -0.28029649978E+02  0.26924794128E+02 -0.42288304072E+03  0.45817537248E+03  0.17200000000E+03 0. -1.
         -6    1    1    2    0  502  0.28029649978E+02 -0.26924794128E+02 -0.35107739050E+03  0.39287394917E+03  0.17200000000E+03 0.  1.
</event>
<event>
 4    1 -0.7308497E-004  0.1904194E+03  0.7818608E-02  0.1158084E+00
          5   -1    0    0  501    0  0.00000000000E+00  0.00000000000E+00  0.80442978475E+02  0.80580163725E+02  0.47000000000E+01 0. -1.
         -5   -1    0    0    0  501 -0.00000000000E+00 -0.00000000000E+00 -0.96897684685E+03  0.96898824540E+03  0.47000000000E+01 0.  1.
          6    1    1    2  502    0  0.46112973253E+02  0.67447344695E+02 -0.60318149485E+02  0.19974441110E+03  0.17200000000E+03 0. -1.
         -6    1    1    2    0  502 -0.46112973253E+02 -0.67447344695E+02 -0.82821571889E+03  0.84982399803E+03  0.17200000000E+03 0.  1.
</event>
<event>
 4    1 -0.7308497E-004  0.1910329E+03  0.7818608E-02  0.1157533E+00
         -5   -1    0    0    0  501 -0.00000000000E+00  0.00000000000E+00  0.43655925124E+03  0.43658455062E+03  0.47000000000E+01 0.  1.
          5   -1    0    0  501    0  0.00000000000E+00 -0.00000000000E+00 -0.15695945738E+03  0.15702981010E+03  0.47000000000E+01 0. -1.
          6    1    1    2  502    0 -0.66503194852E+02  0.49868740772E+02 -0.63169259978E+02  0.20120616700E+03  0.17200000000E+03 0. -1.
         -6    1    1    2    0  502  0.66503194852E+02 -0.49868740772E+02  0.34276905384E+03  0.39240819372E+03  0.17200000000E+03 0.  1.
</event>
<event>
 4    1 -0.7308497E-004  0.1728637E+03  0.7818608E-02  0.1174894E+00
         -5   -1    0    0    0  501 -0.00000000000E+00  0.00000000000E+00  0.23744315682E+03  0.23748966866E+03  0.47000000000E+01 0.  1.
          5   -1    0    0  501    0  0.00000000000E+00 -0.00000000000E+00 -0.24917265599E+03  0.24921697874E+03  0.47000000000E+01 0. -1.
          6    1    1    2  502    0  0.15356848091E+02  0.78756315865E+01 -0.17710030787E+03  0.24748005456E+03  0.17200000000E+03 0. -1.
         -6    1    1    2    0  502 -0.15356848091E+02 -0.78756315865E+01  0.16537080870E+03  0.23922659285E+03  0.17200000000E+03 0.  1.
</event>
<event>
 4    1 -0.7308497E-004  0.1897177E+03  0.7818608E-02  0.1158716E+00
         -5   -1    0    0    0  501 -0.00000000000E+00  0.00000000000E+00  0.30954372404E+03  0.30957940353E+03  0.47000000000E+01 0.  1.
          5   -1    0    0  501    0  0.00000000000E+00 -0.00000000000E+00 -0.23469483922E+03  0.23474189561E+03  0.47000000000E+01 0. -1.
          6    1    1    2  502    0  0.97817152472E+01 -0.79455249984E+02 -0.15592733262E+03  0.24557310879E+03  0.17200000000E+03 0. -1.
         -6    1    1    2    0  502 -0.97817152472E+01  0.79455249984E+02  0.23077621744E+03  0.29874819035E+03  0.17200000000E+03 0.  1.
</event>
<event>
 4    1 -0.7308497E-004  0.2433519E+03  0.7818608E-02  0.1117580E+00
          5   -1    0    0  501    0  0.00000000000E+00  0.00000000000E+00  0.40311455529E+03  0.40314195352E+03  0.47000000000E+01 0. -1.
         -5   -1    0    0    0  501 -0.00000000000E+00 -0.00000000000E+00 -0.12737920817E+04  0.12738007526E+04  0.47000000000E+01 0.  1.
          6    1    1    2  502    0 -0.91072627745E+02  0.14608870234E+03  0.35330439994E+03  0.42900364975E+03  0.17200000000E+03 0. -1.
         -6    1    1    2    0  502  0.91072627745E+02 -0.14608870234E+03 -0.12239819263E+04  0.12479390564E+04  0.17200000000E+03 0.  1.
</event>
<event>
 4    1 -0.7308497E-004  0.1757562E+03  0.7818608E-02  0.1171975E+00
         -5   -1    0    0    0  501 -0.00000000000E+00  0.00000000000E+00  0.21921552840E+03  0.21926590682E+03  0.47000000000E+01 0.  1.
          5   -1    0    0  501    0  0.00000000000E+00 -0.00000000000E+00 -0.80365150378E+03  0.80366524718E+03  0.47000000000E+01 0. -1.
          6    1    1    2  502    0 -0.29314066891E+02 -0.21140295004E+02 -0.75669300510E+03  0.77683623149E+03  0.17200000000E+03 0. -1.
         -6    1    1    2    0  502  0.29314066891E+02  0.21140295004E+02  0.17225702973E+03  0.24609492250E+03  0.17200000000E+03 0.  1.
</event>
<event>
 4    1 -0.7308497E-004  0.2051525E+03  0.7818608E-02  0.1145463E+00
         -5   -1    0    0    0  501 -0.00000000000E+00  0.00000000000E+00  0.54409041324E+03  0.54411071280E+03  0.47000000000E+01 0.  1.
          5   -1    0    0  501    0  0.00000000000E+00 -0.00000000000E+00 -0.12832735119E+03  0.12841339130E+03  0.47000000000E+01 0. -1.
          6    1    1    2  502    0 -0.11110477949E+03  0.12620839209E+02 -0.41295353489E+01  0.20519408050E+03  0.17200000000E+03 0. -1.
         -6    1    1    2    0  502  0.11110477949E+03 -0.12620839209E+02  0.41989259740E+03  0.46733002360E+03  0.17200000000E+03 0.  1.
</event>
<event>
 4    1 -0.7308497E-004  0.1795533E+03  0.7818608E-02  0.1168236E+00
          5   -1    0    0  501    0  0.00000000000E+00  0.00000000000E+00  0.16033002237E+04  0.16033071126E+04  0.47000000000E+01 0. -1.
         -5   -1    0    0    0  501 -0.00000000000E+00 -0.00000000000E+00 -0.90303872906E+02  0.90426099451E+02  0.47000000000E+01 0.  1.
          6    1    1    2  502    0 -0.10011363771E+02 -0.50548449254E+02  0.15032290954E+04  0.15139144911E+04  0.17200000000E+03 0. -1.
         -6    1    1    2    0  502  0.10011363771E+02  0.50548449254E+02  0.97672554004E+01  0.17981872095E+03  0.17200000000E+03 0.  1.
</event>
<event>
 4    1 -0.7308497E-004  0.1788235E+03  0.7818608E-02  0.1168947E+00
         -5   -1    0    0    0  501 -0.00000000000E+00  0.00000000000E+00  0.18131597870E+03  0.18137688423E+03  0.47000000000E+01 0.  1.
          5   -1    0    0  501    0  0.00000000000E+00 -0.00000000000E+00 -0.18451247285E+03  0.18457232360E+03  0.47000000000E+01 0. -1.
          6    1    1    2  502    0 -0.23940485535E+02 -0.42669692582E+02  0.37124048459E+02  0.18263637230E+03  0.17200000000E+03 0.  1.
         -6    1    1    2    0  502  0.23940485535E+02  0.42669692582E+02 -0.40320542612E+02  0.18331283553E+03  0.17200000000E+03 0.  1.
</event>
<event>
 4    1 -0.7308497E-004  0.1860272E+03  0.7818608E-02  0.1162094E+00
          5   -1    0    0  501    0  0.00000000000E+00  0.00000000000E+00  0.55454770516E+03  0.55456762194E+03  0.47000000000E+01 0. -1.
         -5   -1    0    0    0  501 -0.00000000000E+00 -0.00000000000E+00 -0.19462125947E+03  0.19467800245E+03  0.47000000000E+01 0.  1.
          6    1    1    2  502    0 -0.70691140770E+02  0.49893458757E+01  0.48875804863E+03  0.52296325019E+03  0.17200000000E+03 0. -1.
         -6    1    1    2    0  502  0.70691140770E+02 -0.49893458757E+01 -0.12883160293E+03  0.22628237419E+03  0.17200000000E+03 0.  1.
</event>
<event>
 4    1 -0.7308497E-004  0.3476471E+03  0.7818608E-02  0.1063585E+00
         -5   -1    0    0    0  501 -0.00000000000E+00  0.00000000000E+00  0.52928127567E+03  0.52930214318E+03  0.47000000000E+01 0.  1.
          5   -1    0    0  501    0  0.00000000000E+00 -0.00000000000E+00 -0.35569818072E+03  0.35572923097E+03  0.47000000000E+01 0. -1.
          6    1    1    2  502    0  0.17087452479E+03  0.24915130507E+03 -0.17802253394E+03  0.39057713531E+03  0.17200000000E+03 0. -1.
         -6    1    1    2    0  502 -0.17087452479E+03 -0.24915130507E+03  0.35160562889E+03  0.49445423884E+03  0.17200000000E+03 0.  1.
</event>
<event>
 4    1 -0.7308497E-004  0.1905410E+03  0.7818608E-02  0.1157974E+00
         -5   -1    0    0    0  501 -0.00000000000E+00  0.00000000000E+00  0.28873718979E+03  0.28877544004E+03  0.47000000000E+01 0.  1.
          5   -1    0    0  501    0  0.00000000000E+00 -0.00000000000E+00 -0.38571816600E+03  0.38574679983E+03  0.47000000000E+01 0. -1.
          6    1    1    2  502    0  0.71815073631E+02  0.39553266926E+02 -0.32538910457E+03  0.37707285118E+03  0.17200000000E+03 0. -1.
         -6    1    1    2    0  502 -0.71815073631E+02 -0.39553266926E+02  0.22840812837E+03  0.29744938868E+03  0.17200000000E+03 0.  1.
</event>
<event>
 4    1 -0.7308497E-004  0.2552617E+03  0.7818608E-02  0.1110024E+00
         -5   -1    0    0    0  501 -0.00000000000E+00  0.00000000000E+00  0.10525484287E+03  0.10535972640E+03  0.47000000000E+01 0.  1.
          5   -1    0    0  501    0  0.00000000000E+00 -0.00000000000E+00 -0.66832766627E+03  0.66834419239E+03  0.47000000000E+01 0. -1.
          6    1    1    2  502    0 -0.19400025630E+02 -0.18761173180E+03 -0.38701548487E+03  0.46361569045E+03  0.17200000000E+03 0. -1.
         -6    1    1    2    0  502  0.19400025630E+02  0.18761173180E+03 -0.17605733853E+03  0.31008822834E+03  0.17200000000E+03 0.  1.
</event>
<event>
 4    1 -0.7308497E-004  0.1835957E+03  0.7818608E-02  0.1164368E+00
         -5   -1    0    0    0  501 -0.00000000000E+00  0.00000000000E+00  0.32208898357E+02  0.32550009729E+02  0.47000000000E+01 0.  1.
          5   -1    0    0  501    0  0.00000000000E+00 -0.00000000000E+00 -0.12232890369E+04  0.12232980658E+04  0.47000000000E+01 0. -1.
          6    1    1    2  502    0  0.60107367330E+02  0.22593810241E+02 -0.83812257434E+03  0.85799581903E+03  0.17200000000E+03 0. -1.
         -6    1    1    2    0  502 -0.60107367330E+02 -0.22593810241E+02 -0.35295756419E+03  0.39785225648E+03  0.17200000000E+03 0.  1.
</event>
<event>
 4    1 -0.7308497E-004  0.1985601E+03  0.7818608E-02  0.1150960E+00
         -5   -1    0    0    0  501 -0.00000000000E+00  0.00000000000E+00  0.53256044010E+02  0.53463036049E+02  0.47000000000E+01 0.  1.
          5   -1    0    0  501    0  0.00000000000E+00 -0.00000000000E+00 -0.10331871142E+04  0.10331978044E+04  0.47000000000E+01 0. -1.
          6    1    1    2  502    0 -0.16383857471E+02 -0.97845138694E+02 -0.78002670810E+03  0.80490233401E+03  0.17200000000E+03 0. -1.
         -6    1    1    2    0  502  0.16383857471E+02  0.97845138694E+02 -0.19990436211E+03  0.28175850643E+03  0.17200000000E+03 0.  1.
</event>
<event>
 4    1 -0.7308497E-004  0.1783609E+03  0.7818608E-02  0.1169399E+00
          5   -1    0    0  501    0  0.00000000000E+00  0.00000000000E+00  0.12021936556E+03  0.12031120420E+03  0.47000000000E+01 0. -1.
         -5   -1    0    0    0  501 -0.00000000000E+00 -0.00000000000E+00 -0.98114490065E+03  0.98115615785E+03  0.47000000000E+01 0.  1.
          6    1    1    2  502    0 -0.36955078397E+02  0.29375469012E+02  0.40220666345E+02  0.18283954168E+03  0.17200000000E+03 0. -1.
         -6    1    1    2    0  502  0.36955078397E+02 -0.29375469012E+02 -0.90114620144E+03  0.91862782037E+03  0.17200000000E+03 0.  1.
</event>
<event>
 4    1 -0.7308497E-004  0.1946423E+03  0.7818608E-02  0.1154340E+00
          5   -1    0    0  501    0  0.00000000000E+00  0.00000000000E+00  0.35356441993E+03  0.35359565755E+03  0.47000000000E+01 0. -1.
         -5   -1    0    0    0  501 -0.00000000000E+00 -0.00000000000E+00 -0.16966163047E+03  0.16972671815E+03  0.47000000000E+01 0.  1.
          6    1    1    2  502    0  0.73525588201E+02 -0.53810998559E+02  0.25083251847E+03  0.31749423303E+03  0.17200000000E+03 0. -1.
         -6    1    1    2    0  502 -0.73525588201E+02  0.53810998559E+02 -0.66929729015E+02  0.20582814266E+03  0.17200000000E+03 0.  1.
</event>
<event>
 4    1 -0.7308497E-004  0.4725194E+03  0.7818608E-02  0.1021212E+00
          5   -1    0    0  501    0  0.00000000000E+00  0.00000000000E+00  0.15156722725E+04  0.15156795597E+04  0.47000000000E+01 0. -1.
         -5   -1    0    0    0  501 -0.00000000000E+00 -0.00000000000E+00 -0.19893330138E+03  0.19898881476E+03  0.47000000000E+01 0.  1.
          6    1    1    2  502    0  0.42723926690E+03  0.10562759157E+03  0.10952145113E+04  0.11927989793E+04  0.17200000000E+03 0. -1.
         -6    1    1    2    0  502 -0.42723926690E+03 -0.10562759157E+03  0.22152445983E+03  0.52186939514E+03  0.17200000000E+03 0.  1.
</event>
<event>
 4    1 -0.7308497E-004  0.1852421E+03  0.7818608E-02  0.1162824E+00
          5   -1    0    0  501    0  0.00000000000E+00  0.00000000000E+00  0.14502631693E+04  0.14502707851E+04  0.47000000000E+01 0. -1.
         -5   -1    0    0    0  501 -0.00000000000E+00 -0.00000000000E+00 -0.32829082744E+02  0.33163815731E+02  0.47000000000E+01 0.  1.
          6    1    1    2  502    0 -0.25401271606E+02  0.63917157609E+02  0.11033575121E+04  0.11187995473E+04  0.17200000000E+03 0. -1.
         -6    1    1    2    0  502  0.25401271606E+02 -0.63917157609E+02  0.31407657446E+03  0.36463505353E+03  0.17200000000E+03 0.  1.
</event>
<event>
 4    1 -0.7308497E-004  0.1829993E+03  0.7818608E-02  0.1164931E+00
          5   -1    0    0  501    0  0.00000000000E+00  0.00000000000E+00  0.10281866313E+04  0.10281973735E+04  0.47000000000E+01 0. -1.
         -5   -1    0    0    0  501 -0.00000000000E+00 -0.00000000000E+00 -0.19443929396E+03  0.19449609002E+03  0.47000000000E+01 0.  1.
          6    1    1    2  502    0 -0.29168952432E+02  0.55262361195E+02  0.97468315855E+03  0.99171367637E+03  0.17200000000E+03 0. -1.
         -6    1    1    2    0  502  0.29168952432E+02 -0.55262361195E+02 -0.14093582121E+03  0.23097978710E+03  0.17200000000E+03 0.  1.
</event>
<event>
 4    1 -0.7308497E-004  0.2284655E+03  0.7818608E-02  0.1127725E+00
         -5   -1    0    0    0  501 -0.00000000000E+00  0.00000000000E+00  0.12646765363E+04  0.12646852697E+04  0.47000000000E+01 0.  1.
          5   -1    0    0  501    0  0.00000000000E+00 -0.00000000000E+00 -0.25905134944E+03  0.25909398227E+03  0.47000000000E+01 0. -1.
          6    1    1    2  502    0  0.14285055595E+03 -0.46970134169E+02 -0.19576042377E+03  0.30086312229E+03  0.17200000000E+03 0. -1.
         -6    1    1    2    0  502 -0.14285055595E+03  0.46970134169E+02  0.12013856106E+04  0.12229161297E+04  0.17200000000E+03 0.  1.
</event>
<event>
 4    1 -0.7308497E-004  0.1918489E+03  0.7818608E-02  0.1156804E+00
         -5   -1    0    0    0  501 -0.00000000000E+00  0.00000000000E+00  0.51143122461E+03  0.51145282041E+03  0.47000000000E+01 0.  1.
          5   -1    0    0  501    0  0.00000000000E+00 -0.00000000000E+00 -0.95591418359E+02  0.95706892458E+02  0.47000000000E+01 0. -1.
          6    1    1    2  502    0  0.47080204231E+01  0.84851830417E+02  0.56804437548E+02  0.20008184002E+03  0.17200000000E+03 0. -1.
         -6    1    1    2    0  502 -0.47080204231E+01 -0.84851830417E+02  0.35903536870E+03  0.40707787284E+03  0.17200000000E+03 0.  1.
</event>
<event>
 4    1 -0.7308497E-004  0.1975866E+03  0.7818608E-02  0.1151791E+00
          5   -1    0    0  501    0  0.00000000000E+00  0.00000000000E+00  0.25053776109E+03  0.25058184238E+03  0.47000000000E+01 0. -1.
         -5   -1    0    0    0  501 -0.00000000000E+00 -0.00000000000E+00 -0.18488327677E+03  0.18494300751E+03  0.47000000000E+01 0.  1.
          6    1    1    2  502    0  0.34785657873E+02  0.90809740877E+02  0.11926913146E+03  0.23079336375E+03  0.17200000000E+03 0. -1.
         -6    1    1    2    0  502 -0.34785657873E+02 -0.90809740877E+02 -0.53614647135E+02  0.20473148615E+03  0.17200000000E+03 0.  1.
</event>
<event>
 4    1 -0.7308497E-004  0.1892911E+03  0.7818608E-02  0.1159102E+00
          5   -1    0    0  501    0  0.00000000000E+00  0.00000000000E+00  0.14379223907E+03  0.14386903078E+03  0.47000000000E+01 0. -1.
         -5   -1    0    0    0  501 -0.00000000000E+00 -0.00000000000E+00 -0.25116013004E+03  0.25120410212E+03  0.47000000000E+01 0.  1.
          6    1    1    2  502    0  0.78951671055E+02 -0.37096299234E+01 -0.71908427459E+02  0.20248938159E+03  0.17200000000E+03 0.  1.
         -6    1    1    2    0  502 -0.78951671055E+02  0.37096299234E+01 -0.35459463515E+02  0.19258375131E+03  0.17200000000E+03 0. -1.
</event>
<event>
 4    1 -0.7308497E-004  0.2251907E+03  0.7818608E-02  0.1130071E+00
          5   -1    0    0  501    0  0.00000000000E+00  0.00000000000E+00  0.27978917429E+03  0.27982864766E+03  0.47000000000E+01 0. -1.
         -5   -1    0    0    0  501 -0.00000000000E+00 -0.00000000000E+00 -0.25684885245E+03  0.25689185079E+03  0.47000000000E+01 0.  1.
          6    1    1    2  502    0 -0.14452731063E+03 -0.15450595900E+02  0.15711887630E+03  0.27458551623E+03  0.17200000000E+03 0. -1.
         -6    1    1    2    0  502  0.14452731063E+03  0.15450595900E+02 -0.13417855445E+03  0.26213498223E+03  0.17200000000E+03 0.  1.
</event>
<event>
 4    1 -0.7308497E-004  0.2211349E+03  0.7818608E-02  0.1133040E+00
         -5   -1    0    0    0  501 -0.00000000000E+00  0.00000000000E+00  0.27073527791E+03  0.27077607114E+03  0.47000000000E+01 0.  1.
          5   -1    0    0  501    0  0.00000000000E+00 -0.00000000000E+00 -0.32976661393E+03  0.32980010561E+03  0.47000000000E+01 0. -1.
          6    1    1    2  502    0 -0.13864517564E+03  0.97036143330E+01 -0.23149399771E+03  0.32014077503E+03  0.17200000000E+03 0. -1.
         -6    1    1    2    0  502  0.13864517564E+03 -0.97036143330E+01  0.17246266170E+03  0.28043540172E+03  0.17200000000E+03 0.  1.
</event>
<event>
 4    1 -0.7308497E-004  0.2045487E+03  0.7818608E-02  0.1145957E+00
         -5   -1    0    0    0  501 -0.00000000000E+00  0.00000000000E+00  0.12941132048E+03  0.12949664038E+03  0.47000000000E+01 0.  1.
          5   -1    0    0  501    0  0.00000000000E+00 -0.00000000000E+00 -0.43593229636E+03  0.43595763213E+03  0.47000000000E+01 0. -1.
          6    1    1    2  502    0  0.52404109746E+01 -0.11058352842E+03 -0.29707818099E+03  0.36068771019E+03  0.17200000000E+03 0. -1.
         -6    1    1    2    0  502 -0.52404109746E+01  0.11058352842E+03 -0.94427948918E+01  0.20476656231E+03  0.17200000000E+03 0.  1.
</event>
<event>
 4    1 -0.7308497E-004  0.1829050E+03  0.7818608E-02  0.1165021E+00
         -5   -1    0    0    0  501 -0.00000000000E+00  0.00000000000E+00  0.26304990616E+03  0.26309189104E+03  0.47000000000E+01 0.  1.
          5   -1    0    0  501    0  0.00000000000E+00 -0.00000000000E+00 -0.15595291254E+03  0.15602371912E+03  0.47000000000E+01 0. -1.
          6    1    1    2  502    0  0.60130297062E+02 -0.15955565370E+02 -0.36580373001E+02  0.18652709288E+03  0.17200000000E+03 0. -1.
         -6    1    1    2    0  502 -0.60130297062E+02  0.15955565370E+02  0.14367736663E+03  0.23258851728E+03  0.17200000000E+03 0.  1.
</event>
<event>
 4    1 -0.7308497E-004  0.1949423E+03  0.7818608E-02  0.1154078E+00
          5   -1    0    0  501    0  0.00000000000E+00  0.00000000000E+00  0.19222366944E+03  0.19228111996E+03  0.47000000000E+01 0. -1.
         -5   -1    0    0    0  501 -0.00000000000E+00 -0.00000000000E+00 -0.77182086607E+03  0.77183517625E+03  0.47000000000E+01 0.  1.
          6    1    1    2  502    0 -0.75339304302E+02 -0.52368748466E+02  0.12597844556E+03  0.23210572016E+03  0.17200000000E+03 0. -1.
         -6    1    1    2    0  502  0.75339304302E+02  0.52368748466E+02 -0.70557564219E+03  0.73201057604E+03  0.17200000000E+03 0.  1.
</event>
<event>
 4    1 -0.7308497E-004  0.1723828E+03  0.7818608E-02  0.1175386E+00
         -5   -1    0    0    0  501 -0.00000000000E+00  0.00000000000E+00  0.48852482005E+03  0.48854742841E+03  0.47000000000E+01 0.  1.
          5   -1    0    0  501    0  0.00000000000E+00 -0.00000000000E+00 -0.73950558396E+02  0.74099764420E+02  0.47000000000E+01 0. -1.
          6    1    1    2  502    0 -0.83366866325E+01 -0.78943036430E+01  0.88412033967E+02  0.19373308474E+03  0.17200000000E+03 0. -1.
         -6    1    1    2    0  502  0.83366866325E+01  0.78943036430E+01  0.32616222768E+03  0.36891410808E+03  0.17200000000E+03 0.  1.
</event>
<event>
 4    1 -0.7308497E-004  0.1821712E+03  0.7818608E-02  0.1165718E+00
          5   -1    0    0  501    0  0.00000000000E+00  0.00000000000E+00  0.26914308374E+03  0.26918411827E+03  0.47000000000E+01 0. -1.
         -5   -1    0    0    0  501 -0.00000000000E+00 -0.00000000000E+00 -0.90085428415E+03  0.90086654465E+03  0.47000000000E+01 0.  1.
          6    1    1    2  502    0 -0.22912421516E+02  0.55473912759E+02  0.22766518235E+03  0.29157806727E+03  0.17200000000E+03 0. -1.
         -6    1    1    2    0  502  0.22912421516E+02 -0.55473912759E+02 -0.85937638276E+03  0.87847259565E+03  0.17200000000E+03 0.  1.
</event>
<event>
 4    1 -0.7308497E-004  0.1833073E+03  0.7818608E-02  0.1164640E+00
         -5   -1    0    0    0  501 -0.00000000000E+00  0.00000000000E+00  0.12613328660E+03  0.12622082233E+03  0.47000000000E+01 0.  1.
          5   -1    0    0  501    0  0.00000000000E+00 -0.00000000000E+00 -0.31763734700E+03  0.31767211745E+03  0.47000000000E+01 0. -1.
          6    1    1    2  502    0  0.34459646667E+02 -0.53198796242E+02 -0.18505168056E+03  0.26047207844E+03  0.17200000000E+03 0. -1.
         -6    1    1    2    0  502 -0.34459646667E+02  0.53198796242E+02 -0.64523798377E+01  0.18342086134E+03  0.17200000000E+03 0. -1.
</event>
<event>
 4    1 -0.7308497E-004  0.2789191E+03  0.7818608E-02  0.1096281E+00
          5   -1    0    0  501    0  0.00000000000E+00  0.00000000000E+00  0.22276044313E+03  0.22281002003E+03  0.47000000000E+01 0. -1.
         -5   -1    0    0    0  501 -0.00000000000E+00 -0.00000000000E+00 -0.44551706119E+03  0.44554185191E+03  0.47000000000E+01 0.  1.
          6    1    1    2  502    0 -0.14102723918E+03 -0.16829497842E+03  0.44043291101E+02  0.28237509352E+03  0.17200000000E+03 0. -1.
         -6    1    1    2    0  502  0.14102723918E+03  0.16829497842E+03 -0.26679990915E+03  0.38597677842E+03  0.17200000000E+03 0.  1.
</event>
<event>
 4    1 -0.7308497E-004  0.1826282E+03  0.7818608E-02  0.1165283E+00
         -5   -1    0    0    0  501 -0.00000000000E+00  0.00000000000E+00  0.35868640664E+03  0.35871719823E+03  0.47000000000E+01 0.  1.
          5   -1    0    0  501    0  0.00000000000E+00 -0.00000000000E+00 -0.41677572344E+03  0.41680222367E+03  0.47000000000E+01 0. -1.
          6    1    1    2  502    0  0.57257485130E+02  0.22150106700E+02 -0.37082874388E+03  0.41336062236E+03  0.17200000000E+03 0. -1.
         -6    1    1    2    0  502 -0.57257485130E+02 -0.22150106700E+02  0.31273942708E+03  0.36215879953E+03  0.17200000000E+03 0.  1.
</event>
<event>
 4    1 -0.7308497E-004  0.1865258E+03  0.7818608E-02  0.1161633E+00
          5   -1    0    0  501    0  0.00000000000E+00  0.00000000000E+00  0.51449863872E+03  0.51452010577E+03  0.47000000000E+01 0. -1.
         -5   -1    0    0    0  501 -0.00000000000E+00 -0.00000000000E+00 -0.83536159220E+02  0.83668272942E+02  0.47000000000E+01 0.  1.
          6    1    1    2  502    0  0.68048179510E+02 -0.24027265624E+02  0.34631920710E+03  0.39335589157E+03  0.17200000000E+03 0. -1.
         -6    1    1    2    0  502 -0.68048179510E+02  0.24027265624E+02  0.84643272406E+02  0.20483248715E+03  0.17200000000E+03 0.  1.
</event>
<event>
 4    1 -0.7308497E-004  0.2136902E+03  0.7818608E-02  0.1138677E+00
          5   -1    0    0  501    0  0.00000000000E+00  0.00000000000E+00  0.17334861634E+03  0.17341232017E+03  0.47000000000E+01 0. -1.
         -5   -1    0    0    0  501 -0.00000000000E+00 -0.00000000000E+00 -0.11925342155E+04  0.11925434773E+04  0.47000000000E+01 0.  1.
          6    1    1    2  502    0 -0.75889934139E+02 -0.10158843240E+03  0.93272956818E+02  0.23315946512E+03  0.17200000000E+03 0. -1.
         -6    1    1    2    0  502  0.75889934139E+02  0.10158843240E+03 -0.11124585560E+04  0.11327963323E+04  0.17200000000E+03 0.  1.
</event>
<event>
 4    1 -0.7308497E-004  0.2004437E+03  0.7818608E-02  0.1149365E+00
          5   -1    0    0  501    0  0.00000000000E+00  0.00000000000E+00  0.14847009041E+03  0.14854446387E+03  0.47000000000E+01 0. -1.
         -5   -1    0    0    0  501 -0.00000000000E+00 -0.00000000000E+00 -0.59239466050E+03  0.59241330487E+03  0.47000000000E+01 0.  1.
          6    1    1    2  502    0  0.85742346003E+02 -0.56937959871E+02  0.51131114924E+02  0.20686244726E+03  0.17200000000E+03 0. -1.
         -6    1    1    2    0  502 -0.85742346003E+02  0.56937959871E+02 -0.49505568501E+03  0.53409532149E+03  0.17200000000E+03 0.  1.
</event>
<event>
 4    1 -0.7308497E-004  0.1880716E+03  0.7818608E-02  0.1160212E+00
          5   -1    0    0  501    0  0.00000000000E+00  0.00000000000E+00  0.30445309307E+03  0.30448936907E+03  0.47000000000E+01 0. -1.
         -5   -1    0    0    0  501 -0.00000000000E+00 -0.00000000000E+00 -0.30164087702E+03  0.30167749119E+03  0.47000000000E+01 0.  1.
          6    1    1    2  502    0 -0.76034100048E+02  0.23935244225E+01  0.23907792160E+03  0.30418607122E+03  0.17200000000E+03 0. -1.
         -6    1    1    2    0  502  0.76034100048E+02 -0.23935244225E+01 -0.23626570555E+03  0.30198078904E+03  0.17200000000E+03 0.  1.
</event>
<event>
 4    1 -0.7308497E-004  0.1894036E+03  0.7818608E-02  0.1159000E+00
         -5   -1    0    0    0  501 -0.00000000000E+00  0.00000000000E+00  0.73411563256E+03  0.73413067772E+03  0.47000000000E+01 0.  1.
          5   -1    0    0  501    0  0.00000000000E+00 -0.00000000000E+00 -0.24751546683E+03  0.24756008628E+03  0.47000000000E+01 0. -1.
          6    1    1    2  502    0 -0.33879608364E+02  0.71707039458E+02 -0.19643913853E+03  0.27287737634E+03  0.17200000000E+03 0. -1.
         -6    1    1    2    0  502  0.33879608364E+02 -0.71707039458E+02  0.68303930426E+03  0.70881338767E+03  0.17200000000E+03 0.  1.
</event>
<event>
 4    1 -0.7308497E-004  0.1864227E+03  0.7818608E-02  0.1161728E+00
         -5   -1    0    0    0  501 -0.00000000000E+00  0.00000000000E+00  0.32156464563E+03  0.32159899148E+03  0.47000000000E+01 0.  1.
          5   -1    0    0  501    0  0.00000000000E+00 -0.00000000000E+00 -0.45241041694E+03  0.45243482996E+03  0.47000000000E+01 0. -1.
          6    1    1    2  502    0 -0.26022127238E+02  0.67024284449E+02 -0.40307116522E+03  0.44409432562E+03  0.17200000000E+03 0. -1.
         -6    1    1    2    0  502  0.26022127238E+02 -0.67024284449E+02  0.27222539391E+03  0.32993949582E+03  0.17200000000E+03 0.  1.
</event>
<event>
 4    1 -0.7308497E-004  0.1978534E+03  0.7818608E-02  0.1151563E+00
         -5   -1    0    0    0  501 -0.00000000000E+00  0.00000000000E+00  0.14289683867E+04  0.14289761161E+04  0.47000000000E+01 0.  1.
          5   -1    0    0  501    0  0.00000000000E+00 -0.00000000000E+00 -0.43706757238E+02  0.43958737792E+02  0.47000000000E+01 0. -1.
          6    1    1    2  502    0  0.37507542869E+02  0.90305966445E+02  0.24155896894E+03  0.31224464579E+03  0.17200000000E+03 0. -1.
         -6    1    1    2    0  502 -0.37507542869E+02 -0.90305966445E+02  0.11437026606E+04  0.11606902081E+04  0.17200000000E+03 0.  1.
</event>
<event>
 4    1 -0.7308497E-004  0.1767996E+03  0.7818608E-02  0.1170937E+00
         -5   -1    0    0    0  501 -0.00000000000E+00  0.00000000000E+00  0.16455437656E+03  0.16462148354E+03  0.47000000000E+01 0.  1.
          5   -1    0    0  501    0  0.00000000000E+00 -0.00000000000E+00 -0.25053955660E+03  0.25058363758E+03  0.47000000000E+01 0. -1.
          6    1    1    2  502    0  0.39489673658E+02  0.10707840912E+02 -0.14516944235E+03  0.22876245141E+03  0.17200000000E+03 0. -1.
         -6    1    1    2    0  502 -0.39489673658E+02 -0.10707840912E+02  0.59184262308E+02  0.18644266971E+03  0.17200000000E+03 0.  1.
</event>
<event>
 4    1 -0.7308497E-004  0.2783760E+03  0.7818608E-02  0.1096579E+00
         -5   -1    0    0    0  501 -0.00000000000E+00  0.00000000000E+00  0.14869452659E+03  0.14876878784E+03  0.47000000000E+01 0.  1.
          5   -1    0    0  501    0  0.00000000000E+00 -0.00000000000E+00 -0.97958872865E+03  0.97960000373E+03  0.47000000000E+01 0. -1.
          6    1    1    2  502    0  0.92284624219E+02 -0.19847610695E+03 -0.80147454449E+03  0.84844249207E+03  0.17200000000E+03 0. -1.
         -6    1    1    2    0  502 -0.92284624219E+02  0.19847610695E+03 -0.29419657582E+02  0.27992629950E+03  0.17200000000E+03 0.  1.
</event>
<event>
 4    1 -0.7308497E-004  0.1893361E+03  0.7818608E-02  0.1159062E+00
         -5   -1    0    0    0  501 -0.00000000000E+00  0.00000000000E+00  0.20574710875E+03  0.20580078416E+03  0.47000000000E+01 0.  1.
          5   -1    0    0  501    0  0.00000000000E+00 -0.00000000000E+00 -0.28881356392E+03  0.28885180406E+03  0.47000000000E+01 0. -1.
          6    1    1    2  502    0 -0.16199459407E+02  0.77470777048E+02 -0.19735971783E+03  0.27349406210E+03  0.17200000000E+03 0. -1.
         -6    1    1    2    0  502  0.16199459407E+02 -0.77470777048E+02  0.11429326267E+03  0.22115852611E+03  0.17200000000E+03 0.  1.
</event>
<event>
 4    1 -0.7308497E-004  0.1920128E+03  0.7818608E-02  0.1156658E+00
         -5   -1    0    0    0  501 -0.00000000000E+00  0.00000000000E+00  0.95955519071E+02  0.96070555532E+02  0.47000000000E+01 0.  1.
          5   -1    0    0  501    0  0.00000000000E+00 -0.00000000000E+00 -0.45432197632E+03  0.45434628662E+03  0.47000000000E+01 0. -1.
          6    1    1    2  502    0  0.10755238020E+02 -0.84671456539E+02 -0.28754084507E+03  0.34575810660E+03  0.17200000000E+03 0. -1.
         -6    1    1    2    0  502 -0.10755238020E+02  0.84671456539E+02 -0.70825612179E+02  0.20465873555E+03  0.17200000000E+03 0.  1.
</event>
<event>
 4    1 -0.7308497E-004  0.2047989E+03  0.7818608E-02  0.1145752E+00
         -5   -1    0    0    0  501 -0.00000000000E+00  0.00000000000E+00  0.11488396784E+03  0.11498006813E+03  0.47000000000E+01 0.  1.
          5   -1    0    0  501    0  0.00000000000E+00 -0.00000000000E+00 -0.44597348834E+03  0.44599825369E+03  0.47000000000E+01 0. -1.
          6    1    1    2  502    0  0.10613645083E+03  0.33070218355E+02 -0.28517692287E+03  0.35109608781E+03  0.17200000000E+03 0. -1.
         -6    1    1    2    0  502 -0.10613645083E+03 -0.33070218355E+02 -0.45912597627E+02  0.20988223402E+03  0.17200000000E+03 0.  1.
</event>
<event>
 4    1 -0.7308497E-004  0.1829953E+03  0.7818608E-02  0.1164935E+00
          5   -1    0    0  501    0  0.00000000000E+00  0.00000000000E+00  0.37129199011E+03  0.37132173640E+03  0.47000000000E+01 0. -1.
         -5   -1    0    0    0  501 -0.00000000000E+00 -0.00000000000E+00 -0.92228871303E+02  0.92348550079E+02  0.47000000000E+01 0.  1.
          6    1    1    2  502    0 -0.31369822294E+01  0.62397542749E+02  0.17475300186E+03  0.25303340819E+03  0.17200000000E+03 0.  1.
         -6    1    1    2    0  502  0.31369822294E+01 -0.62397542749E+02  0.10431011695E+03  0.21063687829E+03  0.17200000000E+03 0.  1.
</event>
<event>
 4    1 -0.7308497E-004  0.2997441E+03  0.7818608E-02  0.1085369E+00
         -5   -1    0    0    0  501 -0.00000000000E+00  0.00000000000E+00  0.73603541739E+03  0.73605042331E+03  0.47000000000E+01 0.  1.
          5   -1    0    0  501    0  0.00000000000E+00 -0.00000000000E+00 -0.17019117566E+03  0.17025606090E+03  0.47000000000E+01 0. -1.
          6    1    1    2  502    0 -0.20431242601E+03  0.13608438107E+03  0.41869509921E+02  0.30265422854E+03  0.17200000000E+03 0. -1.
         -6    1    1    2    0  502  0.20431242601E+03 -0.13608438107E+03  0.52397473181E+03  0.60365225567E+03  0.17200000000E+03 0.  1.
</event>
<event>
 4    1 -0.7308497E-004  0.2766146E+03  0.7818608E-02  0.1097552E+00
          5   -1    0    0  501    0  0.00000000000E+00  0.00000000000E+00  0.13682012150E+04  0.13682092876E+04  0.47000000000E+01 0. -1.
         -5   -1    0    0    0  501 -0.00000000000E+00 -0.00000000000E+00 -0.12124826950E+03  0.12133932939E+03  0.47000000000E+01 0.  1.
          6    1    1    2  502    0  0.13022132109E+03  0.17313014167E+03  0.11702481566E+04  0.12024958987E+04  0.17200000000E+03 0. -1.
         -6    1    1    2    0  502 -0.13022132109E+03 -0.17313014167E+03  0.76704788861E+02  0.28705271825E+03  0.17200000000E+03 0.  1.
</event>
<event>
 4    1 -0.7308497E-004  0.2997943E+03  0.7818608E-02  0.1085343E+00
         -5   -1    0    0    0  501 -0.00000000000E+00  0.00000000000E+00  0.10538192406E+04  0.10538297215E+04  0.47000000000E+01 0.  1.
          5   -1    0    0  501    0  0.00000000000E+00 -0.00000000000E+00 -0.34380145036E+03  0.34383357496E+03  0.47000000000E+01 0. -1.
          6    1    1    2  502    0  0.10996544472E+03  0.21954552578E+03 -0.25098376741E+03  0.39098527904E+03  0.17200000000E+03 0. -1.
         -6    1    1    2    0  502 -0.10996544472E+03 -0.21954552578E+03  0.96100155765E+03  0.10066780174E+04  0.17200000000E+03 0.  1.
</event>
<event>
 4    1 -0.7308497E-004  0.2005239E+03  0.7818608E-02  0.1149298E+00
          5   -1    0    0  501    0  0.00000000000E+00  0.00000000000E+00  0.12233528201E+04  0.12233618485E+04  0.47000000000E+01 0. -1.
         -5   -1    0    0    0  501 -0.00000000000E+00 -0.00000000000E+00 -0.24278860205E+03  0.24283409004E+03  0.47000000000E+01 0.  1.
          6    1    1    2  502    0  0.19954753415E+02  0.10113181995E+03  0.11719603049E+04  0.11889915027E+04  0.17200000000E+03 0. -1.
         -6    1    1    2    0  502 -0.19954753415E+02 -0.10113181995E+03 -0.19139608688E+03  0.27720443586E+03  0.17200000000E+03 0.  1.
</event>
<event>
 4    1 -0.7308497E-004  0.1914988E+03  0.7818608E-02  0.1157116E+00
          5   -1    0    0  501    0  0.00000000000E+00  0.00000000000E+00  0.66551652884E+03  0.66553312477E+03  0.47000000000E+01 0. -1.
         -5   -1    0    0    0  501 -0.00000000000E+00 -0.00000000000E+00 -0.90333823572E+02  0.90456009646E+02  0.47000000000E+01 0.  1.
          6    1    1    2  502    0 -0.65931207170E+02  0.52353378209E+02  0.52381266635E+03  0.55771992050E+03  0.17200000000E+03 0. -1.
         -6    1    1    2    0  502  0.65931207170E+02 -0.52353378209E+02  0.51370038920E+02  0.19826921392E+03  0.17200000000E+03 0.  1.
</event>
<event>
 4    1 -0.7308497E-004  0.2076188E+03  0.7818608E-02  0.1143466E+00
         -5   -1    0    0    0  501 -0.00000000000E+00  0.00000000000E+00  0.80825813981E+02  0.80962350544E+02  0.47000000000E+01 0.  1.
          5   -1    0    0  501    0  0.00000000000E+00 -0.00000000000E+00 -0.53494804492E+03  0.53496869138E+03  0.47000000000E+01 0. -1.
          6    1    1    2  502    0  0.22212236043E+02  0.11414107329E+03 -0.24694491678E+03  0.32262572738E+03  0.17200000000E+03 0. -1.
         -6    1    1    2    0  502 -0.22212236043E+02 -0.11414107329E+03 -0.20717731416E+03  0.29330531455E+03  0.17200000000E+03 0.  1.
</event>
<event>
 4    1 -0.7308497E-004  0.1758716E+03  0.7818608E-02  0.1171859E+00
         -5   -1    0    0    0  501 -0.00000000000E+00  0.00000000000E+00  0.34880104833E+03  0.34883271251E+03  0.47000000000E+01 0.  1.
          5   -1    0    0  501    0  0.00000000000E+00 -0.00000000000E+00 -0.21422634795E+03  0.21427789936E+03  0.47000000000E+01 0. -1.
          6    1    1    2  502    0 -0.35993360505E+02 -0.71611923597E+01 -0.14827936770E+03  0.23003820457E+03  0.17200000000E+03 0. -1.
         -6    1    1    2    0  502  0.35993360505E+02  0.71611923597E+01  0.28285406809E+03  0.33307240731E+03  0.17200000000E+03 0.  1.
</event>
<event>
 4    1 -0.7308497E-004  0.1800382E+03  0.7818608E-02  0.1167766E+00
         -5   -1    0    0    0  501 -0.00000000000E+00  0.00000000000E+00  0.11525797790E+03  0.11535376661E+03  0.47000000000E+01 0.  1.
          5   -1    0    0  501    0  0.00000000000E+00 -0.00000000000E+00 -0.28381749683E+03  0.28385641002E+03  0.47000000000E+01 0. -1.
          6    1    1    2  502    0  0.41254724767E+00  0.53193790216E+02 -0.10417837410E+03  0.20800693052E+03  0.17200000000E+03 0.  1.
         -6    1    1    2    0  502 -0.41254724767E+00 -0.53193790216E+02 -0.64381144824E+02  0.19120324611E+03  0.17200000000E+03 0.  1.
</event>
<event>
 4    1 -0.7308497E-004  0.2312935E+03  0.7818608E-02  0.1125733E+00
         -5   -1    0    0    0  501 -0.00000000000E+00  0.00000000000E+00  0.21135249913E+03  0.21140475134E+03  0.47000000000E+01 0.  1.
          5   -1    0    0  501    0  0.00000000000E+00 -0.00000000000E+00 -0.12028359417E+04  0.12028451241E+04  0.47000000000E+01 0. -1.
          6    1    1    2  502    0  0.12759228001E+03  0.87366389062E+02 -0.11240903134E+04  0.11476391892E+04  0.17200000000E+03 0. -1.
         -6    1    1    2    0  502 -0.12759228001E+03 -0.87366389062E+02  0.13260687083E+03  0.26661068630E+03  0.17200000000E+03 0.  1.
</event>
<event>
 4    1 -0.7308497E-004  0.1906418E+03  0.7818608E-02  0.1157884E+00
         -5   -1    0    0    0  501 -0.00000000000E+00  0.00000000000E+00  0.66325635148E+03  0.66327300396E+03  0.47000000000E+01 0.  1.
          5   -1    0    0  501    0  0.00000000000E+00 -0.00000000000E+00 -0.20766243065E+03  0.20771561112E+03  0.47000000000E+01 0. -1.
          6    1    1    2  502    0 -0.33203430010E+02  0.75218527990E+02 -0.14586224886E+03  0.24004185127E+03  0.17200000000E+03 0. -1.
         -6    1    1    2    0  502  0.33203430010E+02 -0.75218527990E+02  0.60145616969E+03  0.63094676382E+03  0.17200000000E+03 0.  1.
</event>
<event>
 4    1 -0.7308497E-004  0.2046682E+03  0.7818608E-02  0.1145859E+00
         -5   -1    0    0    0  501 -0.00000000000E+00  0.00000000000E+00  0.19793328285E+03  0.19798907662E+03  0.47000000000E+01 0.  1.
          5   -1    0    0  501    0  0.00000000000E+00 -0.00000000000E+00 -0.23064050135E+03  0.23068838476E+03  0.47000000000E+01 0. -1.
          6    1    1    2  502    0 -0.60246953136E+02 -0.93141711793E+02  0.45345155451E+02  0.20963124042E+03  0.17200000000E+03 0.  1.
         -6    1    1    2    0  502  0.60246953136E+02  0.93141711793E+02 -0.78052373947E+02  0.21904622096E+03  0.17200000000E+03 0. -1.
</event>
<event>
 4    1 -0.7308497E-004  0.1842763E+03  0.7818608E-02  0.1163727E+00
          5   -1    0    0  501    0  0.00000000000E+00  0.00000000000E+00  0.37104567054E+03  0.37107543657E+03  0.47000000000E+01 0. -1.
         -5   -1    0    0    0  501 -0.00000000000E+00 -0.00000000000E+00 -0.13312146249E+03  0.13320440599E+03  0.47000000000E+01 0.  1.
          6    1    1    2  502    0 -0.18447183799E+02  0.63509417050E+02  0.26000504063E+03  0.31868537117E+03  0.17200000000E+03 0. -1.
         -6    1    1    2    0  502  0.18447183799E+02 -0.63509417050E+02 -0.22080832574E+02  0.18559447139E+03  0.17200000000E+03 0.  1.
</event>
<event>
 4    1 -0.7308497E-004  0.2144632E+03  0.7818608E-02  0.1138080E+00
         -5   -1    0    0    0  501 -0.00000000000E+00  0.00000000000E+00  0.64975374040E+02  0.65145139739E+02  0.47000000000E+01 0.  1.
          5   -1    0    0  501    0  0.00000000000E+00 -0.00000000000E+00 -0.14109016304E+04  0.14109094587E+04  0.47000000000E+01 0. -1.
          6    1    1    2  502    0  0.11547723283E+03  0.55456946670E+02 -0.11943039839E+04  0.12134069680E+04  0.17200000000E+03 0. -1.
         -6    1    1    2    0  502 -0.11547723283E+03 -0.55456946670E+02 -0.15162227250E+03  0.26264763040E+03  0.17200000000E+03 0.  1.
</event>
<event>
 4    1 -0.7308497E-004  0.2030640E+03  0.7818608E-02  0.1147179E+00
         -5   -1    0    0    0  501 -0.00000000000E+00  0.00000000000E+00  0.59799999550E+02  0.59984414194E+02  0.47000000000E+01 0.  1.
          5   -1    0    0  501    0  0.00000000000E+00 -0.00000000000E+00 -0.86784850396E+03  0.86786123074E+03  0.47000000000E+01 0. -1.
          6    1    1    2  502    0 -0.89878037636E+02 -0.59774030049E+02 -0.61501903390E+03  0.64767538812E+03  0.17200000000E+03 0. -1.
         -6    1    1    2    0  502  0.89878037636E+02  0.59774030049E+02 -0.19302947050E+03  0.28017025681E+03  0.17200000000E+03 0.  1.
</event>
<event>
 4    1 -0.7308497E-004  0.1943383E+03  0.7818608E-02  0.1154606E+00
         -5   -1    0    0    0  501 -0.00000000000E+00  0.00000000000E+00  0.72039056050E+03  0.72040589230E+03  0.47000000000E+01 0.  1.
          5   -1    0    0  501    0  0.00000000000E+00 -0.00000000000E+00 -0.11448319788E+03  0.11457963430E+03  0.47000000000E+01 0. -1.
          6    1    1    2  502    0  0.64046256616E+02 -0.63886377980E+02 -0.44980225607E+01  0.19439039196E+03  0.17200000000E+03 0. -1.
         -6    1    1    2    0  502 -0.64046256616E+02  0.63886377980E+02  0.61040538518E+03  0.64059513465E+03  0.17200000000E+03 0.  1.
</event>
<event>
 4    1 -0.7308497E-004  0.2049091E+03  0.7818608E-02  0.1145662E+00
         -5   -1    0    0    0  501 -0.00000000000E+00  0.00000000000E+00  0.85116164976E+03  0.85117462604E+03  0.47000000000E+01 0.  1.
          5   -1    0    0  501    0  0.00000000000E+00 -0.00000000000E+00 -0.57654741594E+02  0.57845995784E+02  0.47000000000E+01 0. -1.
          6    1    1    2  502    0 -0.10894652510E+03 -0.23117129347E+02  0.22308180293E+03  0.30290796919E+03  0.17200000000E+03 0. -1.
         -6    1    1    2    0  502  0.10894652510E+03  0.23117129347E+02  0.57042510524E+03  0.60611265264E+03  0.17200000000E+03 0.  1.
</event>
<event>
 4    1 -0.7308497E-004  0.1948587E+03  0.7818608E-02  0.1154151E+00
         -5   -1    0    0    0  501 -0.00000000000E+00  0.00000000000E+00  0.29287895626E+03  0.29291666566E+03  0.47000000000E+01 0.  1.
          5   -1    0    0  501    0  0.00000000000E+00 -0.00000000000E+00 -0.23514527965E+03  0.23519224593E+03  0.47000000000E+01 0. -1.
          6    1    1    2  502    0 -0.41114277232E+02 -0.81826287890E+02 -0.14803866038E+03  0.24471487521E+03  0.17200000000E+03 0.  1.
         -6    1    1    2    0  502  0.41114277232E+02  0.81826287890E+02  0.20577233699E+03  0.28339403637E+03  0.17200000000E+03 0.  1.
</event>
<event>
 4    1 -0.7308497E-004  0.1983032E+03  0.7818608E-02  0.1151179E+00
          5   -1    0    0  501    0  0.00000000000E+00  0.00000000000E+00  0.16085374419E+03  0.16092239440E+03  0.47000000000E+01 0. -1.
         -5   -1    0    0    0  501 -0.00000000000E+00 -0.00000000000E+00 -0.36605472934E+03  0.36608490118E+03  0.47000000000E+01 0.  1.
          6    1    1    2  502    0  0.12912786810E+02  0.97843859422E+02  0.49329428171E+02  0.20434665002E+03  0.17200000000E+03 0. -1.
         -6    1    1    2    0  502 -0.12912786810E+02 -0.97843859422E+02 -0.25453041332E+03  0.32266064556E+03  0.17200000000E+03 0.  1.
</event>
<event>
 4    1 -0.7308497E-004  0.2090488E+03  0.7818608E-02  0.1142321E+00
          5   -1    0    0  501    0  0.00000000000E+00  0.00000000000E+00  0.57164937535E+03  0.57166869631E+03  0.47000000000E+01 0. -1.
         -5   -1    0    0    0  501 -0.00000000000E+00 -0.00000000000E+00 -0.15379553687E+03  0.15386733624E+03  0.47000000000E+01 0.  1.
          6    1    1    2  502    0 -0.73601947996E+02  0.93274575026E+02  0.46623966471E+03  0.51096068151E+03  0.17200000000E+03 0. -1.
         -6    1    1    2    0  502  0.73601947996E+02 -0.93274575026E+02 -0.48385826237E+02  0.21457535104E+03  0.17200000000E+03 0.  1.
</event>
<event>
 4    1 -0.7308497E-004  0.1868051E+03  0.7818608E-02  0.1161375E+00
         -5   -1    0    0    0  501 -0.00000000000E+00  0.00000000000E+00  0.39755397459E+03  0.39758175601E+03  0.47000000000E+01 0.  1.
          5   -1    0    0  501    0  0.00000000000E+00 -0.00000000000E+00 -0.10160704640E+03  0.10171569141E+03  0.47000000000E+01 0. -1.
          6    1    1    2  502    0 -0.20870762766E+02 -0.69832269653E+02  0.55623758644E+02  0.19491058758E+03  0.17200000000E+03 0.  1.
         -6    1    1    2    0  502  0.20870762766E+02  0.69832269653E+02  0.24032316955E+03  0.30438685984E+03  0.17200000000E+03 0.  1.
</event>
<event>
 4    1 -0.7308497E-004  0.1773925E+03  0.7818608E-02  0.1170351E+00
         -5   -1    0    0    0  501 -0.00000000000E+00  0.00000000000E+00  0.11924411954E+03  0.11933670870E+03  0.47000000000E+01 0.  1.
          5   -1    0    0  501    0  0.00000000000E+00 -0.00000000000E+00 -0.41314708974E+03  0.41317382270E+03  0.47000000000E+01 0. -1.
          6    1    1    2  502    0 -0.12071602404E+02 -0.41693733216E+02 -0.30707360683E+03  0.35462979427E+03  0.17200000000E+03 0. -1.
         -6    1    1    2    0  502  0.12071602404E+02  0.41693733216E+02  0.13170636621E+02  0.17788073713E+03  0.17200000000E+03 0.  1.
</event>
<event>
 4    1 -0.7308497E-004  0.1861408E+03  0.7818608E-02  0.1161989E+00
         -5   -1    0    0    0  501 -0.00000000000E+00  0.00000000000E+00  0.33261777833E+02  0.33592199461E+02  0.47000000000E+01 0.  1.
          5   -1    0    0  501    0  0.00000000000E+00 -0.00000000000E+00 -0.28372378779E+04  0.28372417707E+04  0.47000000000E+01 0. -1.
          6    1    1    2  502    0  0.21166531891E+01  0.71133103300E+02 -0.25455648014E+04  0.25523613687E+04  0.17200000000E+03 0. -1.
         -6    1    1    2    0  502 -0.21166531891E+01 -0.71133103300E+02 -0.25841129864E+03  0.31847260145E+03  0.17200000000E+03 0.  1.
</event>
<event>
 4    1 -0.7308497E-004  0.1721663E+03  0.7818608E-02  0.1175607E+00
          5   -1    0    0  501    0  0.00000000000E+00  0.00000000000E+00  0.50415819298E+03  0.50418010031E+03  0.47000000000E+01 0. -1.
         -5   -1    0    0    0  501 -0.00000000000E+00 -0.00000000000E+00 -0.10996074975E+03  0.11006114885E+03  0.47000000000E+01 0.  1.
          6    1    1    2  502    0 -0.18215818916E+01  0.73438360216E+01  0.40668112908E+03  0.44162290570E+03  0.17200000000E+03 0. -1.
         -6    1    1    2    0  502  0.18215818916E+01 -0.73438360216E+01 -0.12483685851E+02  0.17261834346E+03  0.17200000000E+03 0.  1.
</event>
<event>
 4    1 -0.7308497E-004  0.1769665E+03  0.7818608E-02  0.1170772E+00
         -5   -1    0    0    0  501 -0.00000000000E+00  0.00000000000E+00  0.17089852525E+04  0.17089917154E+04  0.47000000000E+01 0.  1.
          5   -1    0    0  501    0  0.00000000000E+00 -0.00000000000E+00 -0.28389375293E+02  0.28775799373E+02  0.47000000000E+01 0. -1.
          6    1    1    2  502    0 -0.26726398567E+01 -0.41545146953E+02  0.31967644710E+03  0.36539043921E+03  0.17200000000E+03 0. -1.
         -6    1    1    2    0  502  0.26726398567E+01  0.41545146953E+02  0.13609194301E+04  0.13723770755E+04  0.17200000000E+03 0.  1.
</event>
<event>
 4    1 -0.7308497E-004  0.1772553E+03  0.7818608E-02  0.1170486E+00
          5   -1    0    0  501    0  0.00000000000E+00  0.00000000000E+00  0.10743293484E+04  0.10743396292E+04  0.47000000000E+01 0. -1.
         -5   -1    0    0    0  501 -0.00000000000E+00 -0.00000000000E+00 -0.46654653810E+02  0.46890795708E+02  0.47000000000E+01 0.  1.
          6    1    1    2  502    0  0.16068889497E+02  0.39714595498E+02  0.85708267140E+03  0.87522006600E+03  0.17200000000E+03 0. -1.
         -6    1    1    2    0  502 -0.16068889497E+02 -0.39714595498E+02  0.17059202317E+03  0.24601035887E+03  0.17200000000E+03 0.  1.
</event>
<event>
 4    1 -0.7308497E-004  0.2847740E+03  0.7818608E-02  0.1093110E+00
          5   -1    0    0  501    0  0.00000000000E+00  0.00000000000E+00  0.68829404548E+03  0.68831009221E+03  0.47000000000E+01 0. -1.
         -5   -1    0    0    0  501 -0.00000000000E+00 -0.00000000000E+00 -0.12828501032E+03  0.12837107880E+03  0.47000000000E+01 0.  1.
          6    1    1    2  502    0  0.21273454775E+03 -0.79096345749E+02  0.39693098573E+03  0.48851860471E+03  0.17200000000E+03 0. -1.
         -6    1    1    2    0  502 -0.21273454775E+03  0.79096345749E+02  0.16307804943E+03  0.32816256630E+03  0.17200000000E+03 0.  1.
</event>
<event>
 4    1 -0.7308497E-004  0.2008114E+03  0.7818608E-02  0.1149056E+00
          5   -1    0    0  501    0  0.00000000000E+00  0.00000000000E+00  0.17050255531E+03  0.17056732209E+03  0.47000000000E+01 0. -1.
         -5   -1    0    0    0  501 -0.00000000000E+00 -0.00000000000E+00 -0.28485492058E+03  0.28489369207E+03  0.47000000000E+01 0.  1.
          6    1    1    2  502    0 -0.48525440740E+02  0.91577777066E+02  0.36754790663E+02  0.20414730537E+03  0.17200000000E+03 0. -1.
         -6    1    1    2    0  502  0.48525440740E+02 -0.91577777066E+02 -0.15110715594E+03  0.25131370879E+03  0.17200000000E+03 0.  1.
</event>
<event>
 4    1 -0.7308497E-004  0.1763382E+03  0.7818608E-02  0.1171395E+00
         -5   -1    0    0    0  501 -0.00000000000E+00  0.00000000000E+00  0.36948295057E+03  0.36951284249E+03  0.47000000000E+01 0.  1.
          5   -1    0    0  501    0  0.00000000000E+00 -0.00000000000E+00 -0.13404043965E+04  0.13404126365E+04  0.47000000000E+01 0. -1.
          6    1    1    2  502    0 -0.29402542988E+02  0.25429047078E+02 -0.13131504114E+04  0.13249374132E+04  0.17200000000E+03 0. -1.
         -6    1    1    2    0  502  0.29402542988E+02 -0.25429047078E+02  0.34222896549E+03  0.38498806578E+03  0.17200000000E+03 0.  1.
</event>
<event>
 4    1 -0.7308497E-004  0.2195574E+03  0.7818608E-02  0.1134213E+00
         -5   -1    0    0    0  501 -0.00000000000E+00  0.00000000000E+00  0.15838132876E+03  0.15845105017E+03  0.47000000000E+01 0.  1.
          5   -1    0    0  501    0  0.00000000000E+00 -0.00000000000E+00 -0.21887076998E+04  0.21887127461E+04  0.47000000000E+01 0. -1.
          6    1    1    2  502    0  0.10635337442E+03  0.85501027992E+02 -0.21041146766E+04  0.21155387111E+04  0.17200000000E+03 0. -1.
         -6    1    1    2    0  502 -0.10635337442E+03 -0.85501027992E+02  0.73788305581E+02  0.23162508517E+03  0.17200000000E+03 0.  1.
</event>
<event>
 4    1 -0.7308497E-004  0.1786188E+03  0.7818608E-02  0.1169147E+00
         -5   -1    0    0    0  501 -0.00000000000E+00  0.00000000000E+00  0.14874926716E+03  0.14882350111E+03  0.47000000000E+01 0.  1.
          5   -1    0    0  501    0  0.00000000000E+00 -0.00000000000E+00 -0.21485992111E+03  0.21491132055E+03  0.47000000000E+01 0. -1.
          6    1    1    2  502    0 -0.27381954847E+02 -0.39634632366E+02 -0.42061114907E+02  0.18350425859E+03  0.17200000000E+03 0.  1.
         -6    1    1    2    0  502  0.27381954847E+02  0.39634632366E+02 -0.24049539045E+02  0.18023056306E+03  0.17200000000E+03 0.  1.
</event>
<event>
 4    1 -0.7308497E-004  0.1832696E+03  0.7818608E-02  0.1164676E+00
         -5   -1    0    0    0  501 -0.00000000000E+00  0.00000000000E+00  0.28836246497E+02  0.29216760807E+02  0.47000000000E+01 0.  1.
          5   -1    0    0  501    0  0.00000000000E+00 -0.00000000000E+00 -0.12096971267E+04  0.12097062571E+04  0.47000000000E+01 0. -1.
          6    1    1    2  502    0 -0.62985902036E+02 -0.60428009414E+01 -0.46085983449E+03  0.49596323084E+03  0.17200000000E+03 0.  1.
         -6    1    1    2    0  502  0.62985902036E+02  0.60428009414E+01 -0.72000104573E+03  0.74295978704E+03  0.17200000000E+03 0.  1.
</event>
<event>
 4    1 -0.7308497E-004  0.1768045E+03  0.7818608E-02  0.1170932E+00
         -5   -1    0    0    0  501 -0.00000000000E+00  0.00000000000E+00  0.91861247116E+03  0.91862449465E+03  0.47000000000E+01 0.  1.
          5   -1    0    0  501    0  0.00000000000E+00 -0.00000000000E+00 -0.19933310319E+03  0.19938850526E+03  0.47000000000E+01 0. -1.
          6    1    1    2  502    0 -0.39728745144E+02 -0.98725093858E+01 -0.14943045427E+03  0.23149362906E+03  0.17200000000E+03 0. -1.
         -6    1    1    2    0  502  0.39728745144E+02  0.98725093858E+01  0.86870982223E+03  0.88651937084E+03  0.17200000000E+03 0.  1.
</event>
<event>
 4    1 -0.7308497E-004  0.1796716E+03  0.7818608E-02  0.1168121E+00
         -5   -1    0    0    0  501 -0.00000000000E+00  0.00000000000E+00  0.16921369363E+04  0.16921434635E+04  0.47000000000E+01 0.  1.
          5   -1    0    0  501    0  0.00000000000E+00 -0.00000000000E+00 -0.30865614212E+02  0.31221405169E+02  0.47000000000E+01 0. -1.
          6    1    1    2  502    0  0.41422371737E+02 -0.31337986299E+02  0.13657030024E+04  0.13774710788E+04  0.17200000000E+03 0.  1.
         -6    1    1    2    0  502 -0.41422371737E+02  0.31337986299E+02  0.29556831967E+03  0.34589378985E+03  0.17200000000E+03 0. -1.
</event>
<event>
 4    1 -0.7308497E-004  0.1871927E+03  0.7818608E-02  0.1161018E+00
         -5   -1    0    0    0  501 -0.00000000000E+00  0.00000000000E+00  0.54525610889E+02  0.54727801370E+02  0.47000000000E+01 0.  1.
          5   -1    0    0  501    0  0.00000000000E+00 -0.00000000000E+00 -0.86489092959E+03  0.86490369989E+03  0.47000000000E+01 0. -1.
          6    1    1    2  502    0 -0.30870247698E+02  0.67112876252E+02 -0.63896968146E+03  0.66582532557E+03  0.17200000000E+03 0. -1.
         -6    1    1    2    0  502  0.30870247698E+02 -0.67112876252E+02 -0.17139563724E+03  0.25380617569E+03  0.17200000000E+03 0.  1.
</event>
<event>
 4    1 -0.7308497E-004  0.1789078E+03  0.7818608E-02  0.1168864E+00
          5   -1    0    0  501    0  0.00000000000E+00  0.00000000000E+00  0.68261483682E+02  0.68423096645E+02  0.47000000000E+01 0. -1.
         -5   -1    0    0    0  501 -0.00000000000E+00 -0.00000000000E+00 -0.61206685057E+03  0.61208489572E+03  0.47000000000E+01 0.  1.
          6    1    1    2  502    0 -0.49080791930E+02 -0.38846670376E+01 -0.10695092908E+03  0.20843827865E+03  0.17200000000E+03 0. -1.
         -6    1    1    2    0  502  0.49080791930E+02  0.38846670376E+01 -0.43685443781E+03  0.47206971372E+03  0.17200000000E+03 0.  1.
</event>
<event>
 4    1 -0.7308497E-004  0.1813130E+03  0.7818608E-02  0.1166538E+00
          5   -1    0    0  501    0  0.00000000000E+00  0.00000000000E+00  0.17306085745E+03  0.17312466717E+03  0.47000000000E+01 0. -1.
         -5   -1    0    0    0  501 -0.00000000000E+00 -0.00000000000E+00 -0.39975846184E+03  0.39978609007E+03  0.47000000000E+01 0.  1.
          6    1    1    2  502    0 -0.11129980108E+02 -0.56272060150E+02  0.94207058560E+02  0.20432667739E+03  0.17200000000E+03 0. -1.
         -6    1    1    2    0  502  0.11129980108E+02  0.56272060150E+02 -0.32090466295E+03  0.36858407984E+03  0.17200000000E+03 0.  1.
</event>
<event>
 4    1 -0.7308497E-004  0.1949712E+03  0.7818608E-02  0.1154053E+00
          5   -1    0    0  501    0  0.00000000000E+00  0.00000000000E+00  0.28354148068E+03  0.28358043174E+03  0.47000000000E+01 0. -1.
         -5   -1    0    0    0  501 -0.00000000000E+00 -0.00000000000E+00 -0.35142508873E+03  0.35145651650E+03  0.47000000000E+01 0.  1.
          6    1    1    2  502    0  0.52499527666E+02  0.75323054640E+02  0.21578767859E+03  0.29082311668E+03  0.17200000000E+03 0. -1.
         -6    1    1    2    0  502 -0.52499527666E+02 -0.75323054640E+02 -0.28367128665E+03  0.34421383155E+03  0.17200000000E+03 0.  1.
</event>
<event>
 4    1 -0.7308497E-004  0.2828172E+03  0.7818608E-02  0.1094160E+00
          5   -1    0    0  501    0  0.00000000000E+00  0.00000000000E+00  0.22434741402E+04  0.22434790634E+04  0.47000000000E+01 0. -1.
         -5   -1    0    0    0  501 -0.00000000000E+00 -0.00000000000E+00 -0.98932412322E+02  0.99043991276E+02  0.47000000000E+01 0.  1.
          6    1    1    2  502    0 -0.22447156441E+03 -0.37536674708E+01  0.20091692635E+04  0.20289767624E+04  0.17200000000E+03 0. -1.
         -6    1    1    2    0  502  0.22447156441E+03  0.37536674708E+01  0.13537246446E+03  0.31354629225E+03  0.17200000000E+03 0.  1.
</event>
<event>
 4    1 -0.7308497E-004  0.1725152E+03  0.7818608E-02  0.1175250E+00
          5   -1    0    0  501    0  0.00000000000E+00  0.00000000000E+00  0.22080727799E+04  0.22080777820E+04  0.47000000000E+01 0. -1.
         -5   -1    0    0    0  501 -0.00000000000E+00 -0.00000000000E+00 -0.17831572727E+02  0.18440579870E+02  0.47000000000E+01 0.  1.
          6    1    1    2  502    0  0.74048771144E+01 -0.11075291523E+02  0.16595099942E+04  0.16684528507E+04  0.17200000000E+03 0. -1.
         -6    1    1    2    0  502 -0.74048771144E+01  0.11075291523E+02  0.53073121304E+03  0.55806551119E+03  0.17200000000E+03 0.  1.
</event>
<event>
 4    1 -0.7308497E-004  0.3269275E+03  0.7818608E-02  0.1072505E+00
          5   -1    0    0  501    0  0.00000000000E+00  0.00000000000E+00  0.13419421664E+03  0.13427649750E+03  0.47000000000E+01 0. -1.
         -5   -1    0    0    0  501 -0.00000000000E+00 -0.00000000000E+00 -0.92498885498E+03  0.92500079559E+03  0.47000000000E+01 0.  1.
          6    1    1    2  502    0  0.26299445410E+03 -0.90174729065E+02 -0.19772937533E+03  0.38207128984E+03  0.17200000000E+03 0. -1.
         -6    1    1    2    0  502 -0.26299445410E+03  0.90174729065E+02 -0.59306526301E+03  0.67720600325E+03  0.17200000000E+03 0.  1.
</event>
<event>
 4    1 -0.7308497E-004  0.2012563E+03  0.7818608E-02  0.1148683E+00
         -5   -1    0    0    0  501 -0.00000000000E+00  0.00000000000E+00  0.10788034335E+04  0.10788136716E+04  0.47000000000E+01 0.  1.
          5   -1    0    0  501    0  0.00000000000E+00 -0.00000000000E+00 -0.37813126225E+02  0.38104101025E+02  0.47000000000E+01 0. -1.
          6    1    1    2  502    0 -0.35647619314E+02  0.98231125556E+02  0.46150616225E+03  0.50347993464E+03  0.17200000000E+03 0. -1.
         -6    1    1    2    0  502  0.35647619314E+02 -0.98231125556E+02  0.57948414498E+03  0.61343783798E+03  0.17200000000E+03 0.  1.
</event>
<event>
 4    1 -0.7308497E-004  0.1785344E+03  0.7818608E-02  0.1169229E+00
         -5   -1    0    0    0  501 -0.00000000000E+00  0.00000000000E+00  0.76419782135E+02  0.76564176359E+02  0.47000000000E+01 0.  1.
          5   -1    0    0  501    0  0.00000000000E+00 -0.00000000000E+00 -0.97044481552E+03  0.97045619683E+03  0.47000000000E+01 0. -1.
          6    1    1    2  502    0 -0.33312346701E+02 -0.34362863342E+02 -0.84248677852E+03  0.86119596539E+03  0.17200000000E+03 0. -1.
         -6    1    1    2    0  502  0.33312346701E+02  0.34362863342E+02 -0.51538254861E+02  0.18582440780E+03  0.17200000000E+03 0.  1.
</event>
<event>
 4    1 -0.7308497E-004  0.3069001E+03  0.7818608E-02  0.1081841E+00
         -5   -1    0    0    0  501 -0.00000000000E+00  0.00000000000E+00  0.66521705873E+03  0.66523366212E+03  0.47000000000E+01 0.  1.
          5   -1    0    0  501    0  0.00000000000E+00 -0.00000000000E+00 -0.14382229473E+03  0.14389907040E+03  0.47000000000E+01 0. -1.
          6    1    1    2  502    0  0.25413378604E+03 -0.44370788114E+01  0.20966090165E+03  0.37167911235E+03  0.17200000000E+03 0. -1.
         -6    1    1    2    0  502 -0.25413378604E+03  0.44370788114E+01  0.31173386234E+03  0.43745362018E+03  0.17200000000E+03 0.  1.
</event>
<event>
 4    1 -0.7308497E-004  0.1950286E+03  0.7818608E-02  0.1154002E+00
          5   -1    0    0  501    0  0.00000000000E+00  0.00000000000E+00  0.90945768970E+03  0.90946983422E+03  0.47000000000E+01 0. -1.
         -5   -1    0    0    0  501 -0.00000000000E+00 -0.00000000000E+00 -0.47695137761E+03  0.47697453454E+03  0.47000000000E+01 0.  1.
          6    1    1    2  502    0 -0.76780262123E+02 -0.50566277639E+02  0.87838630405E+03  0.89977700361E+03  0.17200000000E+03 0. -1.
         -6    1    1    2    0  502  0.76780262123E+02  0.50566277639E+02 -0.44587999195E+03  0.48666736515E+03  0.17200000000E+03 0.  1.
</event>
<event>
 4    1 -0.7308497E-004  0.1761723E+03  0.7818608E-02  0.1171560E+00
          5   -1    0    0  501    0  0.00000000000E+00  0.00000000000E+00  0.17930534020E+03  0.17936692846E+03  0.47000000000E+01 0. -1.
         -5   -1    0    0    0  501 -0.00000000000E+00 -0.00000000000E+00 -0.17717423065E+03  0.17723655945E+03  0.47000000000E+01 0.  1.
          6    1    1    2  502    0 -0.32618600616E+02 -0.19715267273E+02  0.28519853867E+02  0.17846581447E+03  0.17200000000E+03 0.  1.
         -6    1    1    2    0  502  0.32618600616E+02  0.19715267273E+02 -0.26388744315E+02  0.17813767343E+03  0.17200000000E+03 0.  1.
</event>
<event>
 4    1 -0.7308497E-004  0.2119279E+03  0.7818608E-02  0.1140048E+00
          5   -1    0    0  501    0  0.00000000000E+00  0.00000000000E+00  0.74776462235E+03  0.74777939289E+03  0.47000000000E+01 0. -1.
         -5   -1    0    0    0  501 -0.00000000000E+00 -0.00000000000E+00 -0.72233291128E+03  0.72234820185E+03  0.47000000000E+01 0.  1.
          6    1    1    2  502    0  0.12310776626E+03  0.13187422405E+02  0.71655668370E+03  0.74723952732E+03  0.17200000000E+03 0. -1.
         -6    1    1    2    0  502 -0.12310776626E+03 -0.13187422405E+02 -0.69112497264E+03  0.72288806743E+03  0.17200000000E+03 0.  1.
</event>
<event>
 4    1 -0.7308497E-004  0.3239182E+03  0.7818608E-02  0.1073860E+00
         -5   -1    0    0    0  501 -0.00000000000E+00  0.00000000000E+00  0.53486056245E+03  0.53488121229E+03  0.47000000000E+01 0.  1.
          5   -1    0    0  501    0  0.00000000000E+00 -0.00000000000E+00 -0.73414108890E+03  0.73415613353E+03  0.47000000000E+01 0. -1.
          6    1    1    2  502    0  0.26929979932E+03 -0.53071741380E+02 -0.64281446295E+03  0.71981485496E+03  0.17200000000E+03 0. -1.
         -6    1    1    2    0  502 -0.26929979932E+03  0.53071741380E+02  0.44353393650E+03  0.54922249087E+03  0.17200000000E+03 0.  1.
</event>
<event>
 4    1 -0.7308497E-004  0.1831189E+03  0.7818608E-02  0.1164818E+00
          5   -1    0    0  501    0  0.00000000000E+00  0.00000000000E+00  0.15028746446E+03  0.15036093899E+03  0.47000000000E+01 0. -1.
         -5   -1    0    0    0  501 -0.00000000000E+00 -0.00000000000E+00 -0.56712230652E+03  0.56714178170E+03  0.47000000000E+01 0.  1.
          6    1    1    2  502    0  0.12451440868E+02  0.61591321635E+02  0.71023048115E+02  0.19640978246E+03  0.17200000000E+03 0. -1.
         -6    1    1    2    0  502 -0.12451440868E+02 -0.61591321635E+02 -0.48785789017E+03  0.52109293824E+03  0.17200000000E+03 0.  1.
</event>
<event>
 4    1 -0.7308497E-004  0.3353803E+03  0.7818608E-02  0.1068781E+00
          5   -1    0    0  501    0  0.00000000000E+00  0.00000000000E+00  0.21305268239E+03  0.21310451773E+03  0.47000000000E+01 0. -1.
         -5   -1    0    0    0  501 -0.00000000000E+00 -0.00000000000E+00 -0.16618641986E+04  0.16618708447E+04  0.47000000000E+01 0.  1.
          6    1    1    2  502    0 -0.19711710108E+02 -0.28724096082E+03  0.50010869918E+02  0.33908849611E+03  0.17200000000E+03 0. -1.
         -6    1    1    2    0  502  0.19711710108E+02  0.28724096082E+03 -0.14988223861E+04  0.15358868664E+04  0.17200000000E+03 0.  1.
</event>
<event>
 4    1 -0.7308497E-004  0.1901829E+03  0.7818608E-02  0.1158297E+00
          5   -1    0    0  501    0  0.00000000000E+00  0.00000000000E+00  0.10835534538E+04  0.10835636470E+04  0.47000000000E+01 0. -1.
         -5   -1    0    0    0  501 -0.00000000000E+00 -0.00000000000E+00 -0.17296045154E+03  0.17302429828E+03  0.47000000000E+01 0.  1.
          6    1    1    2  502    0 -0.46590216422E+02 -0.66444480850E+02  0.10197315214E+04  0.10373147512E+04  0.17200000000E+03 0. -1.
         -6    1    1    2    0  502  0.46590216422E+02  0.66444480850E+02 -0.10913851916E+03  0.21927319413E+03  0.17200000000E+03 0.  1.
</event>
<event>
 4    1 -0.7308497E-004  0.1726692E+03  0.7818608E-02  0.1175093E+00
          5   -1    0    0  501    0  0.00000000000E+00  0.00000000000E+00  0.14569427497E+03  0.14577006468E+03  0.47000000000E+01 0. -1.
         -5   -1    0    0    0  501 -0.00000000000E+00 -0.00000000000E+00 -0.40334322997E+03  0.40337061266E+03  0.47000000000E+01 0.  1.
          6    1    1    2  502    0 -0.14523347963E+02  0.44425094735E+01  0.63940445290E+02  0.18412779277E+03  0.17200000000E+03 0. -1.
         -6    1    1    2    0  502  0.14523347963E+02 -0.44425094735E+01 -0.32158940029E+03  0.36501288457E+03  0.17200000000E+03 0.  1.
</event>
<event>
 4    1 -0.7308497E-004  0.2093942E+03  0.7818608E-02  0.1142047E+00
          5   -1    0    0  501    0  0.00000000000E+00  0.00000000000E+00  0.45833555838E+03  0.45835965581E+03  0.47000000000E+01 0. -1.
         -5   -1    0    0    0  501 -0.00000000000E+00 -0.00000000000E+00 -0.99766509528E+02  0.99877156665E+02  0.47000000000E+01 0.  1.
          6    1    1    2  502    0  0.45335116451E+02  0.11048377955E+03  0.23642888673E+03  0.31582361661E+03  0.17200000000E+03 0. -1.
         -6    1    1    2    0  502 -0.45335116451E+02 -0.11048377955E+03  0.12214016212E+03  0.24241319586E+03  0.17200000000E+03 0.  1.
</event>
<event>
 4    1 -0.7308497E-004  0.4828817E+03  0.7818608E-02  0.1018346E+00
         -5   -1    0    0    0  501 -0.00000000000E+00  0.00000000000E+00  0.25861698987E+03  0.25865969429E+03  0.47000000000E+01 0.  1.
          5   -1    0    0  501    0  0.00000000000E+00 -0.00000000000E+00 -0.15829091939E+04  0.15829161715E+04  0.47000000000E+01 0. -1.
          6    1    1    2  502    0  0.39470582803E+03  0.21862770462E+03 -0.12662739331E+04  0.13552211766E+04  0.17200000000E+03 0. -1.
         -6    1    1    2    0  502 -0.39470582803E+03 -0.21862770462E+03 -0.58018270877E+02  0.48635468916E+03  0.17200000000E+03 0.  1.
</event>
<event>
 4    1 -0.7308497E-004  0.2938758E+03  0.7818608E-02  0.1088343E+00
         -5   -1    0    0    0  501 -0.00000000000E+00  0.00000000000E+00  0.53754977443E+03  0.53757032098E+03  0.47000000000E+01 0.  1.
          5   -1    0    0  501    0  0.00000000000E+00 -0.00000000000E+00 -0.52296990323E+03  0.52299102257E+03  0.47000000000E+01 0. -1.
          6    1    1    2  502    0  0.36476271541E+02 -0.23547493940E+03 -0.43409232580E+03  0.52421285065E+03  0.17200000000E+03 0. -1.
         -6    1    1    2    0  502 -0.36476271541E+02  0.23547493940E+03  0.44867219700E+03  0.53634849290E+03  0.17200000000E+03 0.  1.
</event>
<event>
 4    1 -0.7308497E-004  0.1725066E+03  0.7818608E-02  0.1175259E+00
          5   -1    0    0  501    0  0.00000000000E+00  0.00000000000E+00  0.24817725557E+03  0.24822175606E+03  0.47000000000E+01 0. -1.
         -5   -1    0    0    0  501 -0.00000000000E+00 -0.00000000000E+00 -0.24691983561E+03  0.24696456268E+03  0.47000000000E+01 0.  1.
          6    1    1    2  502    0 -0.12794574103E+02 -0.32919204648E+01  0.17823401062E+03  0.24804415012E+03  0.17200000000E+03 0. -1.
         -6    1    1    2    0  502  0.12794574103E+02  0.32919204648E+01 -0.17697659066E+03  0.24714216862E+03  0.17200000000E+03 0.  1.
</event>
<event>
 4    1 -0.7308497E-004  0.2414626E+03  0.7818608E-02  0.1118822E+00
          5   -1    0    0  501    0  0.00000000000E+00  0.00000000000E+00  0.12549559197E+03  0.12558357219E+03  0.47000000000E+01 0. -1.
         -5   -1    0    0    0  501 -0.00000000000E+00 -0.00000000000E+00 -0.51981455148E+03  0.51983579901E+03  0.47000000000E+01 0.  1.
          6    1    1    2  502    0  0.60823486365E+02  0.15817923084E+03 -0.91737085103E+02  0.25830187445E+03  0.17200000000E+03 0. -1.
         -6    1    1    2    0  502 -0.60823486365E+02 -0.15817923084E+03 -0.30258187441E+03  0.38711749674E+03  0.17200000000E+03 0.  1.
</event>
<event>
 4    1 -0.7308497E-004  0.1820992E+03  0.7818608E-02  0.1165787E+00
         -5   -1    0    0    0  501 -0.00000000000E+00  0.00000000000E+00  0.26977473887E+03  0.26981567732E+03  0.47000000000E+01 0.  1.
          5   -1    0    0  501    0  0.00000000000E+00 -0.00000000000E+00 -0.16296964933E+03  0.16303740860E+03  0.47000000000E+01 0. -1.
          6    1    1    2  502    0 -0.20112182209E+02  0.56317185325E+02 -0.53977690039E+02  0.18993081966E+03  0.17200000000E+03 0. -1.
         -6    1    1    2    0  502  0.20112182209E+02 -0.56317185325E+02  0.16078277958E+03  0.24292226626E+03  0.17200000000E+03 0.  1.
</event>
<event>
 4    1 -0.7308497E-004  0.2753019E+03  0.7818608E-02  0.1098283E+00
         -5   -1    0    0    0  501 -0.00000000000E+00  0.00000000000E+00  0.56814837312E+03  0.56816781313E+03  0.47000000000E+01 0.  1.
          5   -1    0    0  501    0  0.00000000000E+00 -0.00000000000E+00 -0.13535907368E+03  0.13544064688E+03  0.47000000000E+01 0. -1.
          6    1    1    2  502    0 -0.13984421215E+03  0.16325049831E+03  0.17341321702E+03  0.32536636690E+03  0.17200000000E+03 0. -1.
         -6    1    1    2    0  502  0.13984421215E+03 -0.16325049831E+03  0.25937608242E+03  0.37824209311E+03  0.17200000000E+03 0.  1.
</event>
<event>
 4    1 -0.7308497E-004  0.2037854E+03  0.7818608E-02  0.1146584E+00
          5   -1    0    0  501    0  0.00000000000E+00  0.00000000000E+00  0.52937204257E+03  0.52939290651E+03  0.47000000000E+01 0. -1.
         -5   -1    0    0    0  501 -0.00000000000E+00 -0.00000000000E+00 -0.18032936196E+03  0.18039060060E+03  0.47000000000E+01 0.  1.
          6    1    1    2  502    0  0.60120417558E+02  0.91268883517E+02  0.44130539958E+03  0.48608531083E+03  0.17200000000E+03 0. -1.
         -6    1    1    2    0  502 -0.60120417558E+02 -0.91268883517E+02 -0.92262718973E+02  0.22369819628E+03  0.17200000000E+03 0. -1.
</event>
<event>
 4    1 -0.7308497E-004  0.2604847E+03  0.7818608E-02  0.1106852E+00
         -5   -1    0    0    0  501 -0.00000000000E+00  0.00000000000E+00  0.17722222179E+03  0.17728453372E+03  0.47000000000E+01 0.  1.
          5   -1    0    0  501    0  0.00000000000E+00 -0.00000000000E+00 -0.52482926311E+03  0.52485030763E+03  0.47000000000E+01 0. -1.
          6    1    1    2  502    0 -0.31668157669E+02 -0.19304245196E+03 -0.35646816146E+03  0.44149950238E+03  0.17200000000E+03 0. -1.
         -6    1    1    2    0  502  0.31668157669E+02  0.19304245196E+03  0.88611201462E+01  0.26063533897E+03  0.17200000000E+03 0.  1.
</event>
<event>
 4    1 -0.7308497E-004  0.1792104E+03  0.7818608E-02  0.1168569E+00
          5   -1    0    0  501    0  0.00000000000E+00  0.00000000000E+00  0.13368513307E+03  0.13376772706E+03  0.47000000000E+01 0. -1.
         -5   -1    0    0    0  501 -0.00000000000E+00 -0.00000000000E+00 -0.26493152488E+03  0.26497321162E+03  0.47000000000E+01 0.  1.
          6    1    1    2  502    0 -0.40762671576E+02  0.29508692676E+02 -0.45500756663E+01  0.17926812747E+03  0.17200000000E+03 0. -1.
         -6    1    1    2    0  502  0.40762671576E+02 -0.29508692676E+02 -0.12669631615E+03  0.21947281122E+03  0.17200000000E+03 0. -1.
</event>
<event>
 4    1 -0.7308497E-004  0.1756208E+03  0.7818608E-02  0.1172110E+00
          5   -1    0    0  501    0  0.00000000000E+00  0.00000000000E+00  0.61178957318E+03  0.61180762650E+03  0.47000000000E+01 0. -1.
         -5   -1    0    0    0  501 -0.00000000000E+00 -0.00000000000E+00 -0.17658417070E+03  0.17664670770E+03  0.47000000000E+01 0.  1.
          6    1    1    2  502    0 -0.84530942127E+01 -0.34456107214E+02  0.55085622081E+03  0.57817406906E+03  0.17200000000E+03 0. -1.
         -6    1    1    2    0  502  0.84530942127E+01  0.34456107214E+02 -0.11565081833E+03  0.21028026514E+03  0.17200000000E+03 0.  1.
</event>
<event>
 4    1 -0.7308497E-004  0.1727631E+03  0.7818608E-02  0.1174997E+00
         -5   -1    0    0    0  501 -0.00000000000E+00  0.00000000000E+00  0.89246953663E+03  0.89248191232E+03  0.47000000000E+01 0.  1.
          5   -1    0    0  501    0  0.00000000000E+00 -0.00000000000E+00 -0.15013305867E+03  0.15020660873E+03  0.47000000000E+01 0. -1.
          6    1    1    2  502    0  0.39653827429E+01 -0.15727705466E+02 -0.88477973556E+02  0.19410161458E+03  0.17200000000E+03 0. -1.
         -6    1    1    2    0  502 -0.39653827429E+01  0.15727705466E+02  0.83081445151E+03  0.84858690646E+03  0.17200000000E+03 0.  1.
</event>
<event>
 4    1 -0.7308497E-004  0.2896123E+03  0.7818608E-02  0.1090552E+00
          5   -1    0    0  501    0  0.00000000000E+00  0.00000000000E+00  0.74661129888E+03  0.74662609224E+03  0.47000000000E+01 0. -1.
         -5   -1    0    0    0  501 -0.00000000000E+00 -0.00000000000E+00 -0.11425339870E+03  0.11435002892E+03  0.47000000000E+01 0.  1.
          6    1    1    2  502    0  0.48625251493E+02  0.22787468689E+03  0.25957656490E+03  0.38891551918E+03  0.17200000000E+03 0. -1.
         -6    1    1    2    0  502 -0.48625251493E+02 -0.22787468689E+03  0.37278133528E+03  0.47206060198E+03  0.17200000000E+03 0.  1.
</event>
<event>
 4    1 -0.7308497E-004  0.1722787E+03  0.7818608E-02  0.1175492E+00
         -5   -1    0    0    0  501 -0.00000000000E+00  0.00000000000E+00  0.49631879392E+03  0.49634104727E+03  0.47000000000E+01 0.  1.
          5   -1    0    0  501    0  0.00000000000E+00 -0.00000000000E+00 -0.18548089017E+03  0.18554042852E+03  0.47000000000E+01 0. -1.
          6    1    1    2  502    0 -0.56072744876E+01 -0.80308324232E+01 -0.12525038529E+03  0.21299670141E+03  0.17200000000E+03 0. -1.
         -6    1    1    2    0  502  0.56072744876E+01  0.80308324232E+01  0.43608828905E+03  0.46888477438E+03  0.17200000000E+03 0.  1.
</event>
<event>
 4    1 -0.7308497E-004  0.1984458E+03  0.7818608E-02  0.1151057E+00
         -5   -1    0    0    0  501 -0.00000000000E+00  0.00000000000E+00  0.87282598083E+02  0.87409049463E+02  0.47000000000E+01 0.  1.
          5   -1    0    0  501    0  0.00000000000E+00 -0.00000000000E+00 -0.85687040584E+03  0.85688329567E+03  0.47000000000E+01 0. -1.
          6    1    1    2  502    0 -0.75678580361E+02  0.63792417073E+02 -0.70982505480E+03  0.73704296240E+03  0.17200000000E+03 0. -1.
         -6    1    1    2    0  502  0.75678580361E+02 -0.63792417073E+02 -0.59762752950E+02  0.20724938273E+03  0.17200000000E+03 0.  1.
</event>
<event>
 4    1 -0.7308497E-004  0.2339634E+03  0.7818608E-02  0.1123881E+00
         -5   -1    0    0    0  501 -0.00000000000E+00  0.00000000000E+00  0.13032241313E+03  0.13040713694E+03  0.47000000000E+01 0.  1.
          5   -1    0    0  501    0  0.00000000000E+00 -0.00000000000E+00 -0.14220949187E+04  0.14221026854E+04  0.47000000000E+01 0. -1.
          6    1    1    2  502    0 -0.15121337710E+03  0.47847371198E+02 -0.12975506833E+04  0.13184751162E+04  0.17200000000E+03 0. -1.
         -6    1    1    2    0  502  0.15121337710E+03 -0.47847371198E+02  0.57781776897E+01  0.23403470615E+03  0.17200000000E+03 0.  1.
</event>
<event>
 4    1 -0.7308497E-004  0.2371447E+03  0.7818608E-02  0.1121710E+00
          5   -1    0    0  501    0  0.00000000000E+00  0.00000000000E+00  0.17389852030E+04  0.17389915544E+04  0.47000000000E+01 0. -1.
         -5   -1    0    0    0  501 -0.00000000000E+00 -0.00000000000E+00 -0.44055350788E+02  0.44305348809E+02  0.47000000000E+01 0.  1.
          6    1    1    2  502    0 -0.10726530822E+03  0.12307629713E+03  0.13091649545E+04  0.13304700294E+04  0.17200000000E+03 0. -1.
         -6    1    1    2    0  502  0.10726530822E+03 -0.12307629713E+03  0.38576489777E+03  0.45282687377E+03  0.17200000000E+03 0.  1.
</event>
<event>
 4    1 -0.7308497E-004  0.2131885E+03  0.7818608E-02  0.1139066E+00
         -5   -1    0    0    0  501 -0.00000000000E+00  0.00000000000E+00  0.12327678459E+03  0.12336634719E+03  0.47000000000E+01 0.  1.
          5   -1    0    0  501    0  0.00000000000E+00 -0.00000000000E+00 -0.38684670490E+03  0.38687525521E+03  0.47000000000E+01 0. -1.
          6    1    1    2  502    0  0.91365263666E+02 -0.86704756180E+02 -0.76141568850E+02  0.22637770353E+03  0.17200000000E+03 0. -1.
         -6    1    1    2    0  502 -0.91365263666E+02  0.86704756180E+02 -0.18742835146E+03  0.28386389887E+03  0.17200000000E+03 0.  1.
</event>
<event>
 4    1 -0.7308497E-004  0.1939666E+03  0.7818608E-02  0.1154932E+00
          5   -1    0    0  501    0  0.00000000000E+00  0.00000000000E+00  0.10784669773E+03  0.10794906304E+03  0.47000000000E+01 0. -1.
         -5   -1    0    0    0  501 -0.00000000000E+00 -0.00000000000E+00 -0.44976793757E+03  0.44979249401E+03  0.47000000000E+01 0.  1.
          6    1    1    2  502    0  0.23229321505E+02 -0.86599366495E+02 -0.38701695277E+02  0.19778997162E+03  0.17200000000E+03 0. -1.
         -6    1    1    2    0  502 -0.23229321505E+02  0.86599366495E+02 -0.30321954456E+03  0.35995158543E+03  0.17200000000E+03 0. -1.
</event>
<event>
 4    1 -0.7308497E-004  0.2130114E+03  0.7818608E-02  0.1139203E+00
         -5   -1    0    0    0  501 -0.00000000000E+00  0.00000000000E+00  0.19668050665E+03  0.19673665570E+03  0.47000000000E+01 0.  1.
          5   -1    0    0  501    0  0.00000000000E+00 -0.00000000000E+00 -0.31840878106E+03  0.31844346729E+03  0.47000000000E+01 0. -1.
          6    1    1    2  502    0 -0.11244086606E+03 -0.56097325124E+02 -0.19612605062E+03  0.28955014415E+03  0.17200000000E+03 0.  1.
         -6    1    1    2    0  502  0.11244086606E+03  0.56097325124E+02  0.74397776216E+02  0.22562997884E+03  0.17200000000E+03 0. -1.
</event>
<event>
 4    1 -0.7308497E-004  0.2323147E+03  0.7818608E-02  0.1125021E+00
         -5   -1    0    0    0  501 -0.00000000000E+00  0.00000000000E+00  0.60476376309E+03  0.60478202614E+03  0.47000000000E+01 0.  1.
          5   -1    0    0  501    0  0.00000000000E+00 -0.00000000000E+00 -0.35819605077E+03  0.35822688452E+03  0.47000000000E+01 0. -1.
          6    1    1    2  502    0  0.73143837160E+02  0.13797131812E+03 -0.29395727742E+03  0.37467450739E+03  0.17200000000E+03 0. -1.
         -6    1    1    2    0  502 -0.73143837160E+02 -0.13797131812E+03  0.54052498974E+03  0.58833440327E+03  0.17200000000E+03 0.  1.
</event>
<event>
 4    1 -0.7308497E-004  0.2330249E+03  0.7818608E-02  0.1124529E+00
         -5   -1    0    0    0  501 -0.00000000000E+00  0.00000000000E+00  0.83136882437E+02  0.83269629646E+02  0.47000000000E+01 0.  1.
          5   -1    0    0  501    0  0.00000000000E+00 -0.00000000000E+00 -0.10254602384E+04  0.10254710091E+04  0.47000000000E+01 0. -1.
          6    1    1    2  502    0  0.11750477687E+03 -0.10444720725E+03 -0.80547197768E+03  0.83850205636E+03  0.17200000000E+03 0.  1.
         -6    1    1    2    0  502 -0.11750477687E+03  0.10444720725E+03 -0.13685137831E+03  0.27023858243E+03  0.17200000000E+03 0.  1.
</event>
<event>
 4    1 -0.7308497E-004  0.3582041E+03  0.7818608E-02  0.1059297E+00
          5   -1    0    0  501    0  0.00000000000E+00  0.00000000000E+00  0.48530609010E+03  0.48532884840E+03  0.47000000000E+01 0. -1.
         -5   -1    0    0    0  501 -0.00000000000E+00 -0.00000000000E+00 -0.62581868470E+03  0.62583633334E+03  0.47000000000E+01 0.  1.
          6    1    1    2  502    0 -0.30271036075E+03  0.84217496993E+02  0.35197198960E+03  0.50218963626E+03  0.17200000000E+03 0. -1.
         -6    1    1    2    0  502  0.30271036075E+03 -0.84217496993E+02 -0.49248458420E+03  0.60897554547E+03  0.17200000000E+03 0.  1.
</event>
<event>
 4    1 -0.7308497E-004  0.2200240E+03  0.7818608E-02  0.1133865E+00
          5   -1    0    0  501    0  0.00000000000E+00  0.00000000000E+00  0.84447736339E+03  0.84449044238E+03  0.47000000000E+01 0. -1.
         -5   -1    0    0    0  501 -0.00000000000E+00 -0.00000000000E+00 -0.65946436319E+02  0.66113708588E+02  0.47000000000E+01 0.  1.
          6    1    1    2  502    0  0.10031504247E+03  0.93613397164E+02  0.55468322544E+03  0.59672779092E+03  0.17200000000E+03 0. -1.
         -6    1    1    2    0  502 -0.10031504247E+03 -0.93613397164E+02  0.22384770163E+03  0.31387636005E+03  0.17200000000E+03 0.  1.
</event>
<event>
 4    1 -0.7308497E-004  0.1876591E+03  0.7818608E-02  0.1160590E+00
          5   -1    0    0  501    0  0.00000000000E+00  0.00000000000E+00  0.16865951718E+03  0.16872499144E+03  0.47000000000E+01 0. -1.
         -5   -1    0    0    0  501 -0.00000000000E+00 -0.00000000000E+00 -0.24078503365E+03  0.24083090007E+03  0.47000000000E+01 0.  1.
          6    1    1    2  502    0  0.81451221576E+00 -0.75041855855E+02  0.38709801938E+02  0.19161000059E+03  0.17200000000E+03 0. -1.
         -6    1    1    2    0  502 -0.81451221576E+00  0.75041855855E+02 -0.11083531841E+03  0.21794589091E+03  0.17200000000E+03 0.  1.
</event>
<event>
 4    1 -0.7308497E-004  0.1946383E+03  0.7818608E-02  0.1154343E+00
          5   -1    0    0  501    0  0.00000000000E+00  0.00000000000E+00  0.39519102122E+03  0.39521896874E+03  0.47000000000E+01 0. -1.
         -5   -1    0    0    0  501 -0.00000000000E+00 -0.00000000000E+00 -0.15404880589E+03  0.15412048727E+03  0.47000000000E+01 0.  1.
          6    1    1    2  502    0 -0.88482878683E+02  0.21698659867E+02  0.28944098651E+03  0.34879813120E+03  0.17200000000E+03 0. -1.
         -6    1    1    2    0  502  0.88482878683E+02 -0.21698659867E+02 -0.48298771181E+02  0.20054132481E+03  0.17200000000E+03 0.  1.
</event>
<event>
 4    1 -0.7308497E-004  0.2109288E+03  0.7818608E-02  0.1140833E+00
          5   -1    0    0  501    0  0.00000000000E+00  0.00000000000E+00  0.55605172289E+03  0.55607158580E+03  0.47000000000E+01 0. -1.
         -5   -1    0    0    0  501 -0.00000000000E+00 -0.00000000000E+00 -0.10717572723E+03  0.10727873279E+03  0.47000000000E+01 0.  1.
          6    1    1    2  502    0 -0.11650558466E+03 -0.36515667305E+02  0.39158326333E+03  0.44477904327E+03  0.17200000000E+03 0. -1.
         -6    1    1    2    0  502  0.11650558466E+03  0.36515667305E+02  0.57292732334E+02  0.21857127532E+03  0.17200000000E+03 0.  1.
</event>
<event>
 4    1 -0.7308497E-004  0.1758321E+03  0.7818608E-02  0.1171899E+00
          5   -1    0    0  501    0  0.00000000000E+00  0.00000000000E+00  0.33785416724E+03  0.33788685728E+03  0.47000000000E+01 0. -1.
         -5   -1    0    0    0  501 -0.00000000000E+00 -0.00000000000E+00 -0.19878879693E+03  0.19884435065E+03  0.47000000000E+01 0.  1.
          6    1    1    2  502    0 -0.34442790881E+02 -0.12108664959E+02  0.26670855953E+03  0.31945325376E+03  0.17200000000E+03 0. -1.
         -6    1    1    2    0  502  0.34442790881E+02  0.12108664959E+02 -0.12764318922E+03  0.21727795416E+03  0.17200000000E+03 0.  1.
</event>
<event>
 4    1 -0.7308497E-004  0.1767892E+03  0.7818608E-02  0.1170947E+00
         -5   -1    0    0    0  501 -0.00000000000E+00  0.00000000000E+00  0.43195883463E+03  0.43198440344E+03  0.47000000000E+01 0.  1.
          5   -1    0    0  501    0  0.00000000000E+00 -0.00000000000E+00 -0.12477809916E+03  0.12486658492E+03  0.47000000000E+01 0. -1.
          6    1    1    2  502    0  0.32002799870E+02 -0.25420966024E+02 -0.26951248576E+02  0.17883169326E+03  0.17200000000E+03 0. -1.
         -6    1    1    2    0  502 -0.32002799870E+02  0.25420966024E+02  0.33413198404E+03  0.37801929511E+03  0.17200000000E+03 0.  1.
</event>
<event>
 4    1 -0.7308497E-004  0.1820200E+03  0.7818608E-02  0.1165862E+00
          5   -1    0    0  501    0  0.00000000000E+00  0.00000000000E+00  0.46443805481E+02  0.46681013995E+02  0.47000000000E+01 0. -1.
         -5   -1    0    0    0  501 -0.00000000000E+00 -0.00000000000E+00 -0.21830244748E+04  0.21830295342E+04  0.47000000000E+01 0.  1.
          6    1    1    2  502    0 -0.56559307512E+02 -0.18663173815E+02 -0.15296019468E+03  0.23775636791E+03  0.17200000000E+03 0. -1.
         -6    1    1    2    0  502  0.56559307512E+02  0.18663173815E+02 -0.19836204746E+04  0.19919541803E+04  0.17200000000E+03 0.  1.
</event>
<event>
 4    1 -0.7308497E-004  0.1736021E+03  0.7818608E-02  0.1174143E+00
         -5   -1    0    0    0  501 -0.00000000000E+00  0.00000000000E+00  0.45115640621E+03  0.45118088708E+03  0.47000000000E+01 0.  1.
          5   -1    0    0  501    0  0.00000000000E+00 -0.00000000000E+00 -0.15192095893E+03  0.15199364383E+03  0.47000000000E+01 0. -1.
          6    1    1    2  502    0  0.22460062418E+02 -0.70177374099E+01 -0.76166006572E+02  0.18957574634E+03  0.17200000000E+03 0. -1.
         -6    1    1    2    0  502 -0.22460062418E+02  0.70177374099E+01  0.37540145385E+03  0.41359878456E+03  0.17200000000E+03 0.  1.
</event>
<event>
 4    1 -0.7308497E-004  0.1758179E+03  0.7818608E-02  0.1171913E+00
         -5   -1    0    0    0  501 -0.00000000000E+00  0.00000000000E+00  0.43727929565E+02  0.43979788813E+02  0.47000000000E+01 0.  1.
          5   -1    0    0  501    0  0.00000000000E+00 -0.00000000000E+00 -0.70462616982E+03  0.70464184462E+03  0.47000000000E+01 0. -1.
          6    1    1    2  502    0 -0.34420774469E+02 -0.11964295608E+02 -0.33083253856E+03  0.37464930623E+03  0.17200000000E+03 0.  1.
         -6    1    1    2    0  502  0.34420774469E+02  0.11964295608E+02 -0.33006570169E+03  0.37397232721E+03  0.17200000000E+03 0.  1.
</event>
<event>
 4    1 -0.7308497E-004  0.1737187E+03  0.7818608E-02  0.1174024E+00
          5   -1    0    0  501    0  0.00000000000E+00  0.00000000000E+00  0.90594258460E+02  0.90716093754E+02  0.47000000000E+01 0. -1.
         -5   -1    0    0    0  501 -0.00000000000E+00 -0.00000000000E+00 -0.88831150325E+03  0.88832393686E+03  0.47000000000E+01 0.  1.
          6    1    1    2  502    0  0.24347195773E+02 -0.11826338053E+01 -0.11763243449E+02  0.17411650830E+03  0.17200000000E+03 0. -1.
         -6    1    1    2    0  502 -0.24347195773E+02  0.11826338053E+01 -0.78595400134E+03  0.80492352232E+03  0.17200000000E+03 0.  1.
</event>
<event>
 4    1 -0.7308497E-004  0.2145552E+03  0.7818608E-02  0.1138009E+00
          5   -1    0    0  501    0  0.00000000000E+00  0.00000000000E+00  0.72080899922E+03  0.72082432212E+03  0.47000000000E+01 0. -1.
         -5   -1    0    0    0  501 -0.00000000000E+00 -0.00000000000E+00 -0.69105105176E+02  0.69264749775E+02  0.47000000000E+01 0.  1.
          6    1    1    2  502    0 -0.72838913698E+02  0.10556714815E+03  0.21614665427E+03  0.30455427475E+03  0.17200000000E+03 0.  1.
         -6    1    1    2    0  502  0.72838913698E+02 -0.10556714815E+03  0.43555723978E+03  0.48553479714E+03  0.17200000000E+03 0.  1.
</event>
<event>
 4    1 -0.7308497E-004  0.1807190E+03  0.7818608E-02  0.1167109E+00
          5   -1    0    0  501    0  0.00000000000E+00  0.00000000000E+00  0.10351305344E+04  0.10351412045E+04  0.47000000000E+01 0. -1.
         -5   -1    0    0    0  501 -0.00000000000E+00 -0.00000000000E+00 -0.36163743298E+03  0.36166797333E+03  0.47000000000E+01 0.  1.
          6    1    1    2  502    0  0.38555171234E+02  0.39860620130E+02  0.10039923517E+04  0.10201274491E+04  0.17200000000E+03 0. -1.
         -6    1    1    2    0  502 -0.38555171234E+02 -0.39860620130E+02 -0.33049925028E+03  0.37668172866E+03  0.17200000000E+03 0.  1.
</event>
<event>
 4    1 -0.7308497E-004  0.1948311E+03  0.7818608E-02  0.1154175E+00
          5   -1    0    0  501    0  0.00000000000E+00  0.00000000000E+00  0.34313089004E+03  0.34316307741E+03  0.47000000000E+01 0. -1.
         -5   -1    0    0    0  501 -0.00000000000E+00 -0.00000000000E+00 -0.16363748295E+03  0.16370496579E+03  0.47000000000E+01 0.  1.
          6    1    1    2  502    0  0.50752509754E+02 -0.76153347072E+02  0.23406211908E+03  0.30453936544E+03  0.17200000000E+03 0. -1.
         -6    1    1    2    0  502 -0.50752509754E+02  0.76153347072E+02 -0.54568711986E+02  0.20232867776E+03  0.17200000000E+03 0.  1.
</event>
<event>
 4    1 -0.7308497E-004  0.1978622E+03  0.7818608E-02  0.1151555E+00
          5   -1    0    0  501    0  0.00000000000E+00  0.00000000000E+00  0.41009591160E+03  0.41012284344E+03  0.47000000000E+01 0. -1.
         -5   -1    0    0    0  501 -0.00000000000E+00 -0.00000000000E+00 -0.27428469536E+03  0.27432496078E+03  0.47000000000E+01 0.  1.
          6    1    1    2  502    0  0.53751916099E+02  0.81707976944E+02  0.34424445356E+03  0.39705630053E+03  0.17200000000E+03 0. -1.
         -6    1    1    2    0  502 -0.53751916099E+02 -0.81707976944E+02 -0.20843323731E+03  0.28739150370E+03  0.17200000000E+03 0.  1.
</event>
<event>
 4    1 -0.7308497E-004  0.1758234E+03  0.7818608E-02  0.1171908E+00
         -5   -1    0    0    0  501 -0.00000000000E+00  0.00000000000E+00  0.15412392499E+03  0.15419557144E+03  0.47000000000E+01 0.  1.
          5   -1    0    0  501    0  0.00000000000E+00 -0.00000000000E+00 -0.42087197748E+03  0.42089821980E+03  0.47000000000E+01 0. -1.
          6    1    1    2  502    0 -0.36467169937E+02  0.17602042764E-01 -0.34144946117E+03  0.38405935651E+03  0.17200000000E+03 0. -1.
         -6    1    1    2    0  502  0.36467169937E+02 -0.17602042764E-01  0.74701408676E+02  0.19103443473E+03  0.17200000000E+03 0.  1.
</event>
<event>
 4    1 -0.7308497E-004  0.1847482E+03  0.7818608E-02  0.1163285E+00
         -5   -1    0    0    0  501 -0.00000000000E+00  0.00000000000E+00  0.36736834946E+03  0.36739841342E+03  0.47000000000E+01 0.  1.
          5   -1    0    0  501    0  0.00000000000E+00 -0.00000000000E+00 -0.94828895592E+02  0.94945297088E+02  0.47000000000E+01 0. -1.
          6    1    1    2  502    0  0.57984651055E+02  0.34433426867E+02  0.10261418041E+03  0.21133279600E+03  0.17200000000E+03 0.  1.
         -6    1    1    2    0  502 -0.57984651055E+02 -0.34433426867E+02  0.16992527346E+03  0.25101091451E+03  0.17200000000E+03 0.  1.
</event>
<event>
 4    1 -0.7308497E-004  0.1807166E+03  0.7818608E-02  0.1167111E+00
          5   -1    0    0  501    0  0.00000000000E+00  0.00000000000E+00  0.50202952024E+03  0.50205152046E+03  0.47000000000E+01 0. -1.
         -5   -1    0    0    0  501 -0.00000000000E+00 -0.00000000000E+00 -0.92433110639E+02  0.92552525316E+02  0.47000000000E+01 0.  1.
          6    1    1    2  502    0  0.28006509777E+02 -0.47855061381E+02  0.36678104155E+03  0.40888482967E+03  0.17200000000E+03 0. -1.
         -6    1    1    2    0  502 -0.28006509777E+02  0.47855061381E+02  0.42815368049E+02  0.18571921611E+03  0.17200000000E+03 0.  1.
</event>
<event>
 4    1 -0.7308497E-004  0.2557985E+03  0.7818608E-02  0.1109694E+00
          5   -1    0    0  501    0  0.00000000000E+00  0.00000000000E+00  0.43594351120E+03  0.43596884631E+03  0.47000000000E+01 0. -1.
         -5   -1    0    0    0  501 -0.00000000000E+00 -0.00000000000E+00 -0.16703706623E+04  0.16703772746E+04  0.47000000000E+01 0.  1.
          6    1    1    2  502    0  0.89147273799E+02  0.16703779719E+03  0.38753061267E+03  0.46434129461E+03  0.17200000000E+03 0. -1.
         -6    1    1    2    0  502 -0.89147273799E+02 -0.16703779719E+03 -0.16219577637E+04  0.16420048263E+04  0.17200000000E+03 0.  1.
</event>
<event>
 4    1 -0.7308497E-004  0.2099629E+03  0.7818608E-02  0.1141595E+00
          5   -1    0    0  501    0  0.00000000000E+00  0.00000000000E+00  0.24946184381E+03  0.24950611519E+03  0.47000000000E+01 0. -1.
         -5   -1    0    0    0  501 -0.00000000000E+00 -0.00000000000E+00 -0.59591498807E+03  0.59593352230E+03  0.47000000000E+01 0.  1.
          6    1    1    2  502    0  0.38224835252E+02  0.11418969857E+03  0.18133022878E+03  0.27742580478E+03  0.17200000000E+03 0. -1.
         -6    1    1    2    0  502 -0.38224835252E+02 -0.11418969857E+03 -0.52778337304E+03  0.56801383271E+03  0.17200000000E+03 0. -1.
</event>
<event>
 4    1 -0.7308497E-004  0.3249867E+03  0.7818608E-02  0.1073377E+00
          5   -1    0    0  501    0  0.00000000000E+00  0.00000000000E+00  0.13223564902E+03  0.13231914779E+03  0.47000000000E+01 0. -1.
         -5   -1    0    0    0  501 -0.00000000000E+00 -0.00000000000E+00 -0.10131640611E+04  0.10131749625E+04  0.47000000000E+01 0.  1.
          6    1    1    2  502    0 -0.95217723466E+02  0.25877782395E+03 -0.17675335055E+03  0.36994340643E+03  0.17200000000E+03 0. -1.
         -6    1    1    2    0  502  0.95217723466E+02 -0.25877782395E+03 -0.70417506148E+03  0.77555070385E+03  0.17200000000E+03 0.  1.
</event>
<event>
 4    1 -0.7308497E-004  0.2621340E+03  0.7818608E-02  0.1105868E+00
         -5   -1    0    0    0  501 -0.00000000000E+00  0.00000000000E+00  0.81171546199E+03  0.81172906886E+03  0.47000000000E+01 0.  1.
          5   -1    0    0  501    0  0.00000000000E+00 -0.00000000000E+00 -0.93978193400E+02  0.94095647268E+02  0.47000000000E+01 0. -1.
          6    1    1    2  502    0  0.30723306664E+02 -0.19541324035E+03  0.21569808009E+03  0.33947005439E+03  0.17200000000E+03 0. -1.
         -6    1    1    2    0  502 -0.30723306664E+02  0.19541324035E+03  0.50203918851E+03  0.56635466174E+03  0.17200000000E+03 0.  1.
</event>
<event>
 4    1 -0.7308497E-004  0.1720864E+03  0.7818608E-02  0.1175689E+00
         -5   -1    0    0    0  501 -0.00000000000E+00  0.00000000000E+00  0.45674276178E+03  0.45676694325E+03  0.47000000000E+01 0.  1.
          5   -1    0    0  501    0  0.00000000000E+00 -0.00000000000E+00 -0.92316625490E+02  0.92436190649E+02  0.47000000000E+01 0. -1.
          6    1    1    2  502    0  0.28328081816E+01  0.46601749742E+01  0.32227807822E+02  0.17507819290E+03  0.17200000000E+03 0. -1.
         -6    1    1    2    0  502 -0.28328081816E+01 -0.46601749742E+01  0.33219832847E+03  0.37412494099E+03  0.17200000000E+03 0.  1.
</event>
<event>
 4    1 -0.7308497E-004  0.1759079E+03  0.7818608E-02  0.1171823E+00
          5   -1    0    0  501    0  0.00000000000E+00  0.00000000000E+00  0.11410125716E+04  0.11410222516E+04  0.47000000000E+01 0. -1.
         -5   -1    0    0    0  501 -0.00000000000E+00 -0.00000000000E+00 -0.29113950739E+02  0.29490882110E+02  0.47000000000E+01 0.  1.
          6    1    1    2  502    0  0.10351836569E+02  0.35389842042E+02  0.71602352949E+03  0.73731492337E+03  0.17200000000E+03 0. -1.
         -6    1    1    2    0  502 -0.10351836569E+02 -0.35389842042E+02  0.39587509141E+03  0.43319821034E+03  0.17200000000E+03 0.  1.
</event>
<event>
 4    1 -0.7308497E-004  0.2064539E+03  0.7818608E-02  0.1144405E+00
          5   -1    0    0  501    0  0.00000000000E+00  0.00000000000E+00  0.25327180217E+03  0.25331540769E+03  0.47000000000E+01 0. -1.
         -5   -1    0    0    0  501 -0.00000000000E+00 -0.00000000000E+00 -0.36948539151E+03  0.36951528323E+03  0.47000000000E+01 0.  1.
          6    1    1    2  502    0  0.10326488916E+03 -0.48739773309E+02  0.17171668997E+03  0.26853272510E+03  0.17200000000E+03 0.  1.
         -6    1    1    2    0  502 -0.10326488916E+03  0.48739773309E+02 -0.28793027931E+03  0.35429796581E+03  0.17200000000E+03 0.  1.
</event>
<event>
 4    1 -0.7308497E-004  0.1962550E+03  0.7818608E-02  0.1152938E+00
         -5   -1    0    0    0  501 -0.00000000000E+00  0.00000000000E+00  0.23140753215E+03  0.23145525688E+03  0.47000000000E+01 0.  1.
          5   -1    0    0  501    0  0.00000000000E+00 -0.00000000000E+00 -0.26536278402E+03  0.26540440302E+03  0.47000000000E+01 0. -1.
          6    1    1    2  502    0  0.15978553177E+02 -0.93148761180E+02 -0.16870319564E+03  0.25879871346E+03  0.17200000000E+03 0. -1.
         -6    1    1    2    0  502 -0.15978553177E+02  0.93148761180E+02  0.13474794377E+03  0.23806094644E+03  0.17200000000E+03 0.  1.
</event>
<event>
 4    1 -0.7308497E-004  0.1768825E+03  0.7818608E-02  0.1170855E+00
          5   -1    0    0  501    0  0.00000000000E+00  0.00000000000E+00  0.35693420721E+03  0.35696514995E+03  0.47000000000E+01 0. -1.
         -5   -1    0    0    0  501 -0.00000000000E+00 -0.00000000000E+00 -0.13491794803E+03  0.13499978778E+03  0.47000000000E+01 0.  1.
          6    1    1    2  502    0 -0.36964589492E+02 -0.18358203305E+02  0.25667375989E+03  0.31171914205E+03  0.17200000000E+03 0. -1.
         -6    1    1    2    0  502  0.36964589492E+02  0.18358203305E+02 -0.34657500708E+02  0.18024579568E+03  0.17200000000E+03 0.  1.
</event>
<event>
 4    1 -0.7308497E-004  0.1720264E+03  0.7818608E-02  0.1175751E+00
          5   -1    0    0  501    0  0.00000000000E+00  0.00000000000E+00  0.24571994414E+04  0.24572039364E+04  0.47000000000E+01 0. -1.
         -5   -1    0    0    0  501 -0.00000000000E+00 -0.00000000000E+00 -0.14253826126E+02  0.15008716109E+02  0.47000000000E+01 0.  1.
          6    1    1    2  502    0 -0.81599646445E+00  0.28990221545E+01  0.17417035785E+04  0.17501783982E+04  0.17200000000E+03 0. -1.
         -6    1    1    2    0  502  0.81599646445E+00 -0.28990221545E+01  0.70124203678E+03  0.72203425426E+03  0.17200000000E+03 0.  1.
</event>
<event>
 4    1 -0.7308497E-004  0.2081847E+03  0.7818608E-02  0.1143012E+00
          5   -1    0    0  501    0  0.00000000000E+00  0.00000000000E+00  0.65512388203E+03  0.65514074122E+03  0.47000000000E+01 0. -1.
         -5   -1    0    0    0  501 -0.00000000000E+00 -0.00000000000E+00 -0.18838632412E+03  0.18844494452E+03  0.47000000000E+01 0.  1.
          6    1    1    2  502    0 -0.24038983717E+02  0.11479989836E+03  0.57314494820E+03  0.60978358542E+03  0.17200000000E+03 0. -1.
         -6    1    1    2    0  502  0.24038983717E+02 -0.11479989836E+03 -0.10640739029E+03  0.23380210031E+03  0.17200000000E+03 0.  1.
</event>
<event>
 4    1 -0.7308497E-004  0.2045368E+03  0.7818608E-02  0.1145967E+00
         -5   -1    0    0    0  501 -0.00000000000E+00  0.00000000000E+00  0.24365862500E+03  0.24370395060E+03  0.47000000000E+01 0.  1.
          5   -1    0    0  501    0  0.00000000000E+00 -0.00000000000E+00 -0.17255014074E+03  0.17261413925E+03  0.47000000000E+01 0. -1.
          6    1    1    2  502    0  0.91096956055E+02 -0.62869963223E+02  0.20135691658E+02  0.20552550634E+03  0.17200000000E+03 0.  1.
         -6    1    1    2    0  502 -0.91096956055E+02  0.62869963223E+02  0.50972792606E+02  0.21079258351E+03  0.17200000000E+03 0. -1.
</event>
<event>
 4    1 -0.7308497E-004  0.2446473E+03  0.7818608E-02  0.1116735E+00
         -5   -1    0    0    0  501 -0.00000000000E+00  0.00000000000E+00  0.10014972447E+03  0.10025994869E+03  0.47000000000E+01 0.  1.
          5   -1    0    0  501    0  0.00000000000E+00 -0.00000000000E+00 -0.10198025758E+04  0.10198134063E+04  0.47000000000E+01 0. -1.
          6    1    1    2  502    0 -0.61384929011E+02 -0.16278877500E+03 -0.82032884244E+03  0.85603253707E+03  0.17200000000E+03 0. -1.
         -6    1    1    2    0  502  0.61384929011E+02  0.16278877500E+03 -0.99324008903E+02  0.26404081791E+03  0.17200000000E+03 0.  1.
</event>
<event>
 4    1 -0.7308497E-004  0.1744018E+03  0.7818608E-02  0.1173334E+00
          5   -1    0    0  501    0  0.00000000000E+00  0.00000000000E+00  0.20168747389E+03  0.20174222940E+03  0.47000000000E+01 0. -1.
         -5   -1    0    0    0  501 -0.00000000000E+00 -0.00000000000E+00 -0.67760698567E+03  0.67762328548E+03  0.47000000000E+01 0.  1.
          6    1    1    2  502    0  0.18944492108E+02 -0.21750651444E+02  0.14973272036E+03  0.22986054939E+03  0.17200000000E+03 0. -1.
         -6    1    1    2    0  502 -0.18944492108E+02  0.21750651444E+02 -0.62565223214E+03  0.64950496549E+03  0.17200000000E+03 0.  1.
</event>
<event>
 4    1 -0.7308497E-004  0.2594657E+03  0.7818608E-02  0.1107465E+00
          5   -1    0    0  501    0  0.00000000000E+00  0.00000000000E+00  0.54027949578E+03  0.54029993852E+03  0.47000000000E+01 0. -1.
         -5   -1    0    0    0  501 -0.00000000000E+00 -0.00000000000E+00 -0.50718339617E+03  0.50720517284E+03  0.47000000000E+01 0.  1.
          6    1    1    2  502    0 -0.19114315927E+03 -0.34680866516E+02  0.47144034213E+03  0.53812495392E+03  0.17200000000E+03 0. -1.
         -6    1    1    2    0  502  0.19114315927E+03  0.34680866516E+02 -0.43834424252E+03  0.50938015744E+03  0.17200000000E+03 0.  1.
</event>
<event>
 4    1 -0.7308497E-004  0.2414194E+03  0.7818608E-02  0.1118851E+00
         -5   -1    0    0    0  501 -0.00000000000E+00  0.00000000000E+00  0.73360672413E+03  0.73362177973E+03  0.47000000000E+01 0.  1.
          5   -1    0    0  501    0  0.00000000000E+00 -0.00000000000E+00 -0.45499841729E+03  0.45502269145E+03  0.47000000000E+01 0. -1.
          6    1    1    2  502    0  0.10476919426E+03  0.13312684907E+03 -0.40064712047E+03  0.46776218012E+03  0.17200000000E+03 0. -1.
         -6    1    1    2    0  502 -0.10476919426E+03 -0.13312684907E+03  0.67925542732E+03  0.72088229105E+03  0.17200000000E+03 0.  1.
</event>
<event>
 4    1 -0.7308497E-004  0.2176696E+03  0.7818608E-02  0.1135632E+00
         -5   -1    0    0    0  501 -0.00000000000E+00  0.00000000000E+00  0.10889134009E+03  0.10899272429E+03  0.47000000000E+01 0.  1.
          5   -1    0    0  501    0  0.00000000000E+00 -0.00000000000E+00 -0.80760974573E+03  0.80762342177E+03  0.47000000000E+01 0. -1.
          6    1    1    2  502    0 -0.10480203025E+03  0.82538456715E+02 -0.66072419705E+03  0.69565546569E+03  0.17200000000E+03 0. -1.
         -6    1    1    2    0  502  0.10480203025E+03 -0.82538456715E+02 -0.37994208584E+02  0.22096068037E+03  0.17200000000E+03 0.  1.
</event>
<event>
 4    1 -0.7308497E-004  0.3267257E+03  0.7818608E-02  0.1072595E+00
         -5   -1    0    0    0  501 -0.00000000000E+00  0.00000000000E+00  0.17310250504E+03  0.17316629941E+03  0.47000000000E+01 0.  1.
          5   -1    0    0  501    0  0.00000000000E+00 -0.00000000000E+00 -0.66581986033E+03  0.66583644869E+03  0.47000000000E+01 0. -1.
          6    1    1    2  502    0  0.15745323464E+03 -0.22885402267E+03 -0.36052719925E+03  0.48654860619E+03  0.17200000000E+03 0.  1.
         -6    1    1    2    0  502 -0.15745323464E+03  0.22885402267E+03 -0.13219015604E+03  0.35245414191E+03  0.17200000000E+03 0.  1.
</event>
<event>
 4    1 -0.7308497E-004  0.1992399E+03  0.7818608E-02  0.1150382E+00
         -5   -1    0    0    0  501 -0.00000000000E+00  0.00000000000E+00  0.31278692891E+03  0.31282223850E+03  0.47000000000E+01 0.  1.
          5   -1    0    0  501    0  0.00000000000E+00 -0.00000000000E+00 -0.26821019085E+03  0.26825136807E+03  0.47000000000E+01 0. -1.
          6    1    1    2  502    0  0.96467843289E+02  0.28398816362E+02 -0.18861467782E+03  0.27435749352E+03  0.17200000000E+03 0. -1.
         -6    1    1    2    0  502 -0.96467843289E+02 -0.28398816362E+02  0.23319141589E+03  0.30671611305E+03  0.17200000000E+03 0.  1.
</event>
<event>
 4    1 -0.7308497E-004  0.1737968E+03  0.7818608E-02  0.1173945E+00
         -5   -1    0    0    0  501 -0.00000000000E+00  0.00000000000E+00  0.53740128809E+02  0.53945263410E+02  0.47000000000E+01 0.  1.
          5   -1    0    0  501    0  0.00000000000E+00 -0.00000000000E+00 -0.22279718100E+04  0.22279767675E+04  0.47000000000E+01 0. -1.
          6    1    1    2  502    0  0.22235081040E+02  0.11265519350E+02 -0.20740495106E+04  0.20813184963E+04  0.17200000000E+03 0. -1.
         -6    1    1    2    0  502 -0.22235081040E+02 -0.11265519350E+02 -0.10018217063E+03  0.20060353453E+03  0.17200000000E+03 0.  1.
</event>
<event>
 4    1 -0.7308497E-004  0.2810316E+03  0.7818608E-02  0.1095127E+00
         -5   -1    0    0    0  501 -0.00000000000E+00  0.00000000000E+00  0.16189888210E+04  0.16189956431E+04  0.47000000000E+01 0.  1.
          5   -1    0    0  501    0  0.00000000000E+00 -0.00000000000E+00 -0.86770519152E+02  0.86897715700E+02  0.47000000000E+01 0. -1.
          6    1    1    2  502    0  0.33570198501E+02 -0.21969937738E+03  0.20145294311E+03  0.34577747604E+03  0.17200000000E+03 0. -1.
         -6    1    1    2    0  502 -0.33570198501E+02  0.21969937738E+03  0.13307653587E+04  0.13601158828E+04  0.17200000000E+03 0. -1.
</event>
<event>
 4    1 -0.7308497E-004  0.1924187E+03  0.7818608E-02  0.1156298E+00
         -5   -1    0    0    0  501 -0.00000000000E+00  0.00000000000E+00  0.15283589511E+03  0.15290814509E+03  0.47000000000E+01 0.  1.
          5   -1    0    0  501    0  0.00000000000E+00 -0.00000000000E+00 -0.66683505008E+03  0.66685161319E+03  0.47000000000E+01 0. -1.
          6    1    1    2  502    0  0.33996170747E+02  0.79279375963E+02 -0.58409345815E+03  0.61497164726E+03  0.17200000000E+03 0. -1.
         -6    1    1    2    0  502 -0.33996170747E+02 -0.79279375963E+02  0.70094303179E+02  0.20478811102E+03  0.17200000000E+03 0.  1.
</event>
<event>
 4    1 -0.7308497E-004  0.1940930E+03  0.7818608E-02  0.1154821E+00
          5   -1    0    0  501    0  0.00000000000E+00  0.00000000000E+00  0.36051855019E+03  0.36054918532E+03  0.47000000000E+01 0. -1.
         -5   -1    0    0    0  501 -0.00000000000E+00 -0.00000000000E+00 -0.20093140454E+03  0.20098636603E+03  0.47000000000E+01 0.  1.
          6    1    1    2  502    0  0.65270474409E+02 -0.61869590399E+02  0.27434023090E+03  0.33605750005E+03  0.17200000000E+03 0. -1.
         -6    1    1    2    0  502 -0.65270474409E+02  0.61869590399E+02 -0.11475308524E+03  0.22547805130E+03  0.17200000000E+03 0.  1.
</event>
<event>
 4    1 -0.7308497E-004  0.1751861E+03  0.7818608E-02  0.1172545E+00
         -5   -1    0    0    0  501 -0.00000000000E+00  0.00000000000E+00  0.58015396621E+03  0.58017300395E+03  0.47000000000E+01 0.  1.
          5   -1    0    0  501    0  0.00000000000E+00 -0.00000000000E+00 -0.11720212364E+03  0.11729632469E+03  0.47000000000E+01 0. -1.
          6    1    1    2  502    0 -0.71941131271E+01  0.32471698210E+02 -0.26894961380E+02  0.17723855505E+03  0.17200000000E+03 0. -1.
         -6    1    1    2    0  502  0.71941131271E+01 -0.32471698210E+02  0.48984680395E+03  0.52023077359E+03  0.17200000000E+03 0.  1.
</event>
<event>
 4    1 -0.7308497E-004  0.1765951E+03  0.7818608E-02  0.1171140E+00
          5   -1    0    0  501    0  0.00000000000E+00  0.00000000000E+00  0.39560202407E+02  0.39838418825E+02  0.47000000000E+01 0. -1.
         -5   -1    0    0    0  501 -0.00000000000E+00 -0.00000000000E+00 -0.13308044677E+04  0.13308127672E+04  0.47000000000E+01 0.  1.
          6    1    1    2  502    0 -0.30836742233E+02  0.25513328288E+02 -0.20688399539E+03  0.27200518771E+03  0.17200000000E+03 0. -1.
         -6    1    1    2    0  502  0.30836742233E+02 -0.25513328288E+02 -0.10843602699E+04  0.10986459983E+04  0.17200000000E+03 0.  1.
</event>
<event>
 4    1 -0.7308497E-004  0.1768411E+03  0.7818608E-02  0.1170896E+00
         -5   -1    0    0    0  501 -0.00000000000E+00  0.00000000000E+00  0.10080475123E+03  0.10091426000E+03  0.47000000000E+01 0.  1.
          5   -1    0    0  501    0  0.00000000000E+00 -0.00000000000E+00 -0.53154223124E+03  0.53156300999E+03  0.47000000000E+01 0. -1.
          6    1    1    2  502    0  0.36953941596E+02  0.17976978474E+02 -0.41953380674E+03  0.45528164970E+03  0.17200000000E+03 0. -1.
         -6    1    1    2    0  502 -0.36953941596E+02 -0.17976978474E+02 -0.11203673265E+02  0.17719562029E+03  0.17200000000E+03 0.  1.
</event>
<event>
 4    1 -0.7308497E-004  0.1823019E+03  0.7818608E-02  0.1165594E+00
         -5   -1    0    0    0  501 -0.00000000000E+00  0.00000000000E+00  0.19755423233E+03  0.19761013312E+03  0.47000000000E+01 0.  1.
          5   -1    0    0  501    0  0.00000000000E+00 -0.00000000000E+00 -0.38312668222E+03  0.38315550972E+03  0.47000000000E+01 0. -1.
          6    1    1    2  502    0 -0.57724647885E+02 -0.17828326997E+02 -0.31029295057E+03  0.35988289678E+03  0.17200000000E+03 0. -1.
         -6    1    1    2    0  502  0.57724647885E+02  0.17828326997E+02  0.12472050068E+03  0.22088274606E+03  0.17200000000E+03 0.  1.
</event>
<event>
 4    1 -0.7308497E-004  0.5719203E+03  0.7818608E-02  0.9965438E-01
         -5   -1    0    0    0  501 -0.00000000000E+00  0.00000000000E+00  0.31743852000E+03  0.31747331224E+03  0.47000000000E+01 0.  1.
          5   -1    0    0  501    0  0.00000000000E+00 -0.00000000000E+00 -0.13207215557E+04  0.13207299185E+04  0.47000000000E+01 0. -1.
          6    1    1    2  502    0 -0.46322090371E+03  0.28798468445E+03 -0.88572622853E+03  0.10543262000E+04  0.17200000000E+03 0. -1.
         -6    1    1    2    0  502  0.46322090371E+03 -0.28798468445E+03 -0.11755680714E+03  0.58387703073E+03  0.17200000000E+03 0.  1.
</event>
<event>
 4    1 -0.7308497E-004  0.2101118E+03  0.7818608E-02  0.1141477E+00
          5   -1    0    0  501    0  0.00000000000E+00  0.00000000000E+00  0.98468883524E+03  0.98470005191E+03  0.47000000000E+01 0. -1.
         -5   -1    0    0    0  501 -0.00000000000E+00 -0.00000000000E+00 -0.58752205318E+02  0.58939898454E+02  0.47000000000E+01 0.  1.
          6    1    1    2  502    0 -0.42264550924E+02  0.11303397296E+03  0.71768545198E+03  0.74780972131E+03  0.17200000000E+03 0. -1.
         -6    1    1    2    0  502  0.42264550924E+02 -0.11303397296E+03  0.20825117794E+03  0.29583022905E+03  0.17200000000E+03 0.  1.
</event>
<event>
 4    1 -0.7308497E-004  0.2049816E+03  0.7818608E-02  0.1145603E+00
         -5   -1    0    0    0  501 -0.00000000000E+00  0.00000000000E+00  0.35671570443E+03  0.35674666612E+03  0.47000000000E+01 0.  1.
          5   -1    0    0  501    0  0.00000000000E+00 -0.00000000000E+00 -0.35291421850E+03  0.35294551367E+03  0.47000000000E+01 0. -1.
          6    1    1    2  502    0  0.10060612269E+03 -0.48081858431E+02 -0.28774919206E+03  0.35329457195E+03  0.17200000000E+03 0. -1.
         -6    1    1    2    0  502 -0.10060612269E+03  0.48081858431E+02  0.29155067800E+03  0.35639760784E+03  0.17200000000E+03 0.  1.
</event>
<event>
 4    1 -0.7308497E-004  0.1780543E+03  0.7818608E-02  0.1169700E+00
         -5   -1    0    0    0  501 -0.00000000000E+00  0.00000000000E+00  0.10997751745E+03  0.11007790125E+03  0.47000000000E+01 0.  1.
          5   -1    0    0  501    0  0.00000000000E+00 -0.00000000000E+00 -0.72630955366E+03  0.72632476052E+03  0.47000000000E+01 0. -1.
          6    1    1    2  502    0  0.16475930820E+02  0.42986832215E+02 -0.63300424320E+03  0.65756953697E+03  0.17200000000E+03 0. -1.
         -6    1    1    2    0  502 -0.16475930820E+02 -0.42986832215E+02  0.16672206981E+02  0.17883312480E+03  0.17200000000E+03 0.  1.
</event>
<event>
 4    1 -0.7308497E-004  0.1947621E+03  0.7818608E-02  0.1154235E+00
         -5   -1    0    0    0  501 -0.00000000000E+00  0.00000000000E+00  0.65535294356E+03  0.65536979686E+03  0.47000000000E+01 0.  1.
          5   -1    0    0  501    0  0.00000000000E+00 -0.00000000000E+00 -0.58057706386E+02  0.58247637470E+02  0.47000000000E+01 0. -1.
          6    1    1    2  502    0  0.11494406753E+02  0.90642976620E+02  0.27347178327E+03  0.33573663316E+03  0.17200000000E+03 0. -1.
         -6    1    1    2    0  502 -0.11494406753E+02 -0.90642976620E+02  0.32382345390E+03  0.37788080117E+03  0.17200000000E+03 0.  1.
</event>
<event>
 4    1 -0.7308497E-004  0.2431846E+03  0.7818608E-02  0.1117689E+00
          5   -1    0    0  501    0  0.00000000000E+00  0.00000000000E+00  0.24666014429E+03  0.24670491844E+03  0.47000000000E+01 0. -1.
         -5   -1    0    0    0  501 -0.00000000000E+00 -0.00000000000E+00 -0.31259681655E+04  0.31259716988E+04  0.47000000000E+01 0.  1.
          6    1    1    2  502    0  0.17078599209E+03  0.19669682380E+02  0.18073134476E+03  0.30298939005E+03  0.17200000000E+03 0. -1.
         -6    1    1    2    0  502 -0.17078599209E+03 -0.19669682380E+02 -0.30600393660E+04  0.30696872272E+04  0.17200000000E+03 0.  1.
</event>
<event>
 4    1 -0.7308497E-004  0.1750915E+03  0.7818608E-02  0.1172640E+00
          5   -1    0    0  501    0  0.00000000000E+00  0.00000000000E+00  0.35425755184E+03  0.35428872835E+03  0.47000000000E+01 0. -1.
         -5   -1    0    0    0  501 -0.00000000000E+00 -0.00000000000E+00 -0.24748650887E+03  0.24753113354E+03  0.47000000000E+01 0.  1.
          6    1    1    2  502    0 -0.28460043781E+02  0.16218974119E+02  0.29606524817E+03  0.34396462084E+03  0.17200000000E+03 0. -1.
         -6    1    1    2    0  502  0.28460043781E+02 -0.16218974119E+02 -0.18929420521E+03  0.25785524105E+03  0.17200000000E+03 0.  1.
</event>
<event>
 4    1 -0.7308497E-004  0.1941706E+03  0.7818608E-02  0.1154753E+00
         -5   -1    0    0    0  501 -0.00000000000E+00  0.00000000000E+00  0.72510166148E+02  0.72662329957E+02  0.47000000000E+01 0.  1.
          5   -1    0    0  501    0  0.00000000000E+00 -0.00000000000E+00 -0.88705976987E+03  0.88707222103E+03  0.47000000000E+01 0. -1.
          6    1    1    2  502    0  0.53516443664E+01  0.89942165278E+02 -0.71624379401E+03  0.74209662824E+03  0.17200000000E+03 0. -1.
         -6    1    1    2    0  502 -0.53516443664E+01 -0.89942165278E+02 -0.98305809710E+02  0.21763792274E+03  0.17200000000E+03 0.  1.
</event>
<event>
 4    1 -0.7308497E-004  0.1883548E+03  0.7818608E-02  0.1159954E+00
         -5   -1    0    0    0  501 -0.00000000000E+00  0.00000000000E+00  0.47766959013E+03  0.47769271224E+03  0.47000000000E+01 0.  1.
          5   -1    0    0  501    0  0.00000000000E+00 -0.00000000000E+00 -0.17162198428E+03  0.17168632878E+03  0.47000000000E+01 0. -1.
          6    1    1    2  502    0 -0.76721124331E+02  0.27216828655E+01 -0.91548246999E+02  0.20942449715E+03  0.17200000000E+03 0. -1.
         -6    1    1    2    0  502  0.76721124331E+02 -0.27216828655E+01  0.39759585284E+03  0.43995454387E+03  0.17200000000E+03 0.  1.
</event>
<event>
 4    1 -0.7308497E-004  0.1811967E+03  0.7818608E-02  0.1166650E+00
         -5   -1    0    0    0  501 -0.00000000000E+00  0.00000000000E+00  0.32798910491E+03  0.32802277808E+03  0.47000000000E+01 0.  1.
          5   -1    0    0  501    0  0.00000000000E+00 -0.00000000000E+00 -0.12342670509E+03  0.12351615898E+03  0.47000000000E+01 0. -1.
          6    1    1    2  502    0  0.17940219107E+02 -0.54096076604E+02  0.39908644130E+01  0.18124062449E+03  0.17200000000E+03 0.  1.
         -6    1    1    2    0  502 -0.17940219107E+02  0.54096076604E+02  0.20057153541E+03  0.27029831258E+03  0.17200000000E+03 0.  1.
</event>
<event>
 4    1 -0.7308497E-004  0.2044551E+03  0.7818608E-02  0.1146034E+00
         -5   -1    0    0    0  501 -0.00000000000E+00  0.00000000000E+00  0.40900743146E+03  0.40903443497E+03  0.47000000000E+01 0.  1.
          5   -1    0    0  501    0  0.00000000000E+00 -0.00000000000E+00 -0.19427264492E+03  0.19432948969E+03  0.47000000000E+01 0. -1.
          6    1    1    2  502    0  0.30319987388E+02  0.10629480518E+03 -0.10035239191E+03  0.22775532882E+03  0.17200000000E+03 0. -1.
         -6    1    1    2    0  502 -0.30319987388E+02 -0.10629480518E+03  0.31508717846E+03  0.37560859584E+03  0.17200000000E+03 0.  1.
</event>
<event>
 4    1 -0.7308497E-004  0.1895508E+03  0.7818608E-02  0.1158867E+00
         -5   -1    0    0    0  501 -0.00000000000E+00  0.00000000000E+00  0.17318745058E+04  0.17318808833E+04  0.47000000000E+01 0.  1.
          5   -1    0    0  501    0  0.00000000000E+00 -0.00000000000E+00 -0.21667229975E+02  0.22171126601E+02  0.47000000000E+01 0. -1.
          6    1    1    2  502    0  0.63203606503E+02 -0.48485102561E+02  0.65168063723E+03  0.67868781776E+03  0.17200000000E+03 0. -1.
         -6    1    1    2    0  502 -0.63203606503E+02  0.48485102561E+02  0.10585266386E+04  0.10753641921E+04  0.17200000000E+03 0.  1.
</event>
<event>
 4    1 -0.7308497E-004  0.3181147E+03  0.7818608E-02  0.1076520E+00
          5   -1    0    0  501    0  0.00000000000E+00  0.00000000000E+00  0.13688949631E+04  0.13689030316E+04  0.47000000000E+01 0. -1.
         -5   -1    0    0    0  501 -0.00000000000E+00 -0.00000000000E+00 -0.16786536164E+03  0.16793114553E+03  0.47000000000E+01 0.  1.
          6    1    1    2  502    0  0.26750509363E+03 -0.73477634163E+01  0.11754016814E+04  0.12176888262E+04  0.17200000000E+03 0. -1.
         -6    1    1    2    0  502 -0.26750509363E+03  0.73477634163E+01  0.25627920033E+02  0.31914535095E+03  0.17200000000E+03 0.  1.
</event>
<event>
 4    1 -0.7308497E-004  0.1867012E+03  0.7818608E-02  0.1161471E+00
          5   -1    0    0  501    0  0.00000000000E+00  0.00000000000E+00  0.21269165091E+03  0.21274357421E+03  0.47000000000E+01 0. -1.
         -5   -1    0    0    0  501 -0.00000000000E+00 -0.00000000000E+00 -0.21368097438E+03  0.21373265734E+03  0.47000000000E+01 0.  1.
          6    1    1    2  502    0 -0.42951461796E+02  0.58553426769E+02  0.10252463054E+03  0.21299913550E+03  0.17200000000E+03 0. -1.
         -6    1    1    2    0  502  0.42951461796E+02 -0.58553426769E+02 -0.10351395402E+03  0.21347709604E+03  0.17200000000E+03 0.  1.
</event>
<event>
 4    1 -0.7308497E-004  0.2472514E+03  0.7818608E-02  0.1115054E+00
          5   -1    0    0  501    0  0.00000000000E+00  0.00000000000E+00  0.14976592010E+04  0.14976665758E+04  0.47000000000E+01 0. -1.
         -5   -1    0    0    0  501 -0.00000000000E+00 -0.00000000000E+00 -0.21347688861E+03  0.21352862096E+03  0.47000000000E+01 0.  1.
          6    1    1    2  502    0  0.11284253819E+02 -0.17726233415E+03  0.14115673513E+04  0.14330581485E+04  0.17200000000E+03 0. -1.
         -6    1    1    2    0  502 -0.11284253819E+02  0.17726233415E+03 -0.12738503897E+03  0.27813704831E+03  0.17200000000E+03 0. -1.
</event>
<event>
 4    1 -0.7308497E-004  0.1997220E+03  0.7818608E-02  0.1149974E+00
         -5   -1    0    0    0  501 -0.00000000000E+00  0.00000000000E+00  0.28853000282E+03  0.28856828052E+03  0.47000000000E+01 0.  1.
          5   -1    0    0  501    0  0.00000000000E+00 -0.00000000000E+00 -0.22563420647E+04  0.22563469597E+04  0.47000000000E+01 0. -1.
          6    1    1    2  502    0  0.89881143975E+02  0.47183325711E+02 -0.22167684283E+04  0.22257473242E+04  0.17200000000E+03 0. -1.
         -6    1    1    2    0  502 -0.89881143975E+02 -0.47183325711E+02  0.24895636647E+03  0.31916791611E+03  0.17200000000E+03 0.  1.
</event>
<event>
 4    1 -0.7308497E-004  0.1734838E+03  0.7818608E-02  0.1174263E+00
         -5   -1    0    0    0  501 -0.00000000000E+00  0.00000000000E+00  0.52118135300E+02  0.52329628579E+02  0.47000000000E+01 0.  1.
          5   -1    0    0  501    0  0.00000000000E+00 -0.00000000000E+00 -0.14123924336E+04  0.14124002536E+04  0.47000000000E+01 0. -1.
          6    1    1    2  502    0 -0.12368270898E+02 -0.18964726722E+02 -0.12436447336E+04  0.12556866083E+04  0.17200000000E+03 0. -1.
         -6    1    1    2    0  502  0.12368270898E+02  0.18964726722E+02 -0.11662956468E+03  0.20904327385E+03  0.17200000000E+03 0.  1.
</event>
<event>
 4    1 -0.7308497E-004  0.1825754E+03  0.7818608E-02  0.1165334E+00
          5   -1    0    0  501    0  0.00000000000E+00  0.00000000000E+00  0.24835884598E+03  0.24840331394E+03  0.47000000000E+01 0. -1.
         -5   -1    0    0    0  501 -0.00000000000E+00 -0.00000000000E+00 -0.19108001826E+03  0.19113781253E+03  0.47000000000E+01 0.  1.
          6    1    1    2  502    0  0.51394996681E+02 -0.33291734731E+02  0.14859549413E+03  0.23540264689E+03  0.17200000000E+03 0. -1.
         -6    1    1    2    0  502 -0.51394996681E+02  0.33291734731E+02 -0.91316666410E+02  0.20413847959E+03  0.17200000000E+03 0.  1.
</event>
<event>
 4    1 -0.7308497E-004  0.1750135E+03  0.7818608E-02  0.1172718E+00
         -5   -1    0    0    0  501 -0.00000000000E+00  0.00000000000E+00  0.74550413829E+03  0.74551895362E+03  0.47000000000E+01 0.  1.
          5   -1    0    0  501    0  0.00000000000E+00 -0.00000000000E+00 -0.45527764624E+02  0.45769720904E+02  0.47000000000E+01 0. -1.
          6    1    1    2  502    0 -0.19774161031E+02  0.25587009961E+02  0.22471419557E+03  0.28482658270E+03  0.17200000000E+03 0. -1.
         -6    1    1    2    0  502  0.19774161031E+02 -0.25587009961E+02  0.47526217810E+03  0.50646209182E+03  0.17200000000E+03 0.  1.
</event>
<event>
 4    1 -0.7308497E-004  0.2099642E+03  0.7818608E-02  0.1141594E+00
         -5   -1    0    0    0  501 -0.00000000000E+00  0.00000000000E+00  0.24215488965E+03  0.24220049666E+03  0.47000000000E+01 0.  1.
          5   -1    0    0  501    0  0.00000000000E+00 -0.00000000000E+00 -0.63994931268E+03  0.63996657163E+03  0.47000000000E+01 0. -1.
          6    1    1    2  502    0  0.11335023220E+03  0.40653271353E+02 -0.57201606419E+03  0.60933352222E+03  0.17200000000E+03 0. -1.
         -6    1    1    2    0  502 -0.11335023220E+03 -0.40653271353E+02  0.17422164116E+03  0.27283354607E+03  0.17200000000E+03 0.  1.
</event>
<event>
 4    1 -0.7308497E-004  0.1800800E+03  0.7818608E-02  0.1167726E+00
          5   -1    0    0  501    0  0.00000000000E+00  0.00000000000E+00  0.81597886010E+03  0.81599239588E+03  0.47000000000E+01 0. -1.
         -5   -1    0    0    0  501 -0.00000000000E+00 -0.00000000000E+00 -0.39713139098E+02  0.39990291534E+02  0.47000000000E+01 0.  1.
          6    1    1    2  502    0 -0.41409880666E+02  0.33615712182E+02  0.41194316663E+03  0.44958421553E+03  0.17200000000E+03 0. -1.
         -6    1    1    2    0  502  0.41409880666E+02 -0.33615712182E+02  0.36432255438E+03  0.40639847189E+03  0.17200000000E+03 0. -1.
</event>
<event>
 4    1 -0.7308497E-004  0.2142856E+03  0.7818608E-02  0.1138216E+00
          5   -1    0    0  501    0  0.00000000000E+00  0.00000000000E+00  0.57791461368E+03  0.57793372519E+03  0.47000000000E+01 0. -1.
         -5   -1    0    0    0  501 -0.00000000000E+00 -0.00000000000E+00 -0.53419624267E+03  0.53421691819E+03  0.47000000000E+01 0.  1.
          6    1    1    2  502    0  0.45266516747E+02  0.11952104487E+03  0.53491898732E+03  0.57624357758E+03  0.17200000000E+03 0. -1.
         -6    1    1    2    0  502 -0.45266516747E+02 -0.11952104487E+03 -0.49120061631E+03  0.53590706579E+03  0.17200000000E+03 0.  1.
</event>
<event>
 4    1 -0.7308497E-004  0.1786400E+03  0.7818608E-02  0.1169126E+00
          5   -1    0    0  501    0  0.00000000000E+00  0.00000000000E+00  0.84518659893E+02  0.84649240221E+02  0.47000000000E+01 0. -1.
         -5   -1    0    0    0  501 -0.00000000000E+00 -0.00000000000E+00 -0.10744540774E+04  0.10744643570E+04  0.47000000000E+01 0.  1.
          6    1    1    2  502    0 -0.26280924692E+02 -0.40466975196E+02 -0.28108480508E+02  0.18083791019E+03  0.17200000000E+03 0. -1.
         -6    1    1    2    0  502  0.26280924692E+02  0.40466975196E+02 -0.96182693697E+03  0.97827568699E+03  0.17200000000E+03 0.  1.
</event>
<event>
 4    1 -0.7308497E-004  0.2584181E+03  0.7818608E-02  0.1108097E+00
          5   -1    0    0  501    0  0.00000000000E+00  0.00000000000E+00  0.65973746010E+03  0.65975420139E+03  0.47000000000E+01 0. -1.
         -5   -1    0    0    0  501 -0.00000000000E+00 -0.00000000000E+00 -0.10244802091E+03  0.10255577501E+03  0.47000000000E+01 0.  1.
          6    1    1    2  502    0  0.11287001765E+03 -0.15638495844E+03  0.23575657081E+03  0.34980145338E+03  0.17200000000E+03 0. -1.
         -6    1    1    2    0  502 -0.11287001765E+03  0.15638495844E+03  0.32153286838E+03  0.41250852302E+03  0.17200000000E+03 0.  1.
</event>
<event>
 4    1 -0.7308497E-004  0.1794702E+03  0.7818608E-02  0.1168317E+00
         -5   -1    0    0    0  501 -0.00000000000E+00  0.00000000000E+00  0.12333592584E+03  0.12342544553E+03  0.47000000000E+01 0.  1.
          5   -1    0    0  501    0  0.00000000000E+00 -0.00000000000E+00 -0.26113788025E+03  0.26118017248E+03  0.47000000000E+01 0. -1.
          6    1    1    2  502    0  0.51088071457E+02  0.39443142885E+01 -0.63711104747E+02  0.19044330791E+03  0.17200000000E+03 0. -1.
         -6    1    1    2    0  502 -0.51088071457E+02 -0.39443142885E+01 -0.74090849656E+02  0.19416231010E+03  0.17200000000E+03 0. -1.
</event>
<event>
 4    1 -0.7308497E-004  0.2083533E+03  0.7818608E-02  0.1142877E+00
         -5   -1    0    0    0  501 -0.00000000000E+00  0.00000000000E+00  0.12846427922E+04  0.12846513899E+04  0.47000000000E+01 0.  1.
          5   -1    0    0  501    0  0.00000000000E+00 -0.00000000000E+00 -0.39811869804E+02  0.40088339667E+02  0.47000000000E+01 0. -1.
          6    1    1    2  502    0  0.11502142312E+03 -0.24436663255E+02  0.36221167718E+03  0.41786167254E+03  0.17200000000E+03 0. -1.
         -6    1    1    2    0  502 -0.11502142312E+03  0.24436663255E+02  0.88261924523E+03  0.90687805704E+03  0.17200000000E+03 0.  1.
</event>
<event>
 4    1 -0.7308497E-004  0.1845948E+03  0.7818608E-02  0.1163429E+00
          5   -1    0    0  501    0  0.00000000000E+00  0.00000000000E+00  0.12583426219E+04  0.12583513993E+04  0.47000000000E+01 0. -1.
         -5   -1    0    0    0  501 -0.00000000000E+00 -0.00000000000E+00 -0.17979350634E+03  0.17985492744E+03  0.47000000000E+01 0.  1.
          6    1    1    2  502    0 -0.45541633951E+02 -0.49165036368E+02  0.12020284342E+04  0.12161198946E+04  0.17200000000E+03 0. -1.
         -6    1    1    2    0  502  0.45541633951E+02  0.49165036368E+02 -0.12347931866E+03  0.22208643219E+03  0.17200000000E+03 0.  1.
</event>
<event>
 4    1 -0.7308497E-004  0.2775256E+03  0.7818608E-02  0.1097048E+00
         -5   -1    0    0    0  501 -0.00000000000E+00  0.00000000000E+00  0.69280602545E+03  0.69282196768E+03  0.47000000000E+01 0.  1.
          5   -1    0    0  501    0  0.00000000000E+00 -0.00000000000E+00 -0.34709035074E+03  0.34712217097E+03  0.47000000000E+01 0. -1.
          6    1    1    2  502    0  0.14209454069E+03 -0.16506234379E+03 -0.25583915232E+03  0.37745742501E+03  0.17200000000E+03 0. -1.
         -6    1    1    2    0  502 -0.14209454069E+03  0.16506234379E+03  0.60155482703E+03  0.66248671364E+03  0.17200000000E+03 0.  1.
</event>
<event>
 4    1 -0.7308497E-004  0.1803254E+03  0.7818608E-02  0.1167489E+00
          5   -1    0    0  501    0  0.00000000000E+00  0.00000000000E+00  0.44661446837E+02  0.44908070918E+02  0.47000000000E+01 0. -1.
         -5   -1    0    0    0  501 -0.00000000000E+00 -0.00000000000E+00 -0.14179149914E+04  0.14179227810E+04  0.47000000000E+01 0.  1.
          6    1    1    2  502    0 -0.54159267435E+02  0.10191311184E+00 -0.17567359478E+03  0.25175076671E+03  0.17200000000E+03 0. -1.
         -6    1    1    2    0  502  0.54159267435E+02 -0.10191311184E+00 -0.11975799498E+04  0.12110800852E+04  0.17200000000E+03 0.  1.
</event>
<event>
 4    1 -0.7308497E-004  0.1847992E+03  0.7818608E-02  0.1163238E+00
          5   -1    0    0  501    0  0.00000000000E+00  0.00000000000E+00  0.11248205147E+03  0.11258020209E+03  0.47000000000E+01 0. -1.
         -5   -1    0    0    0  501 -0.00000000000E+00 -0.00000000000E+00 -0.58943037909E+03  0.58944911722E+03  0.47000000000E+01 0.  1.
          6    1    1    2  502    0  0.63864270201E+02  0.22093259724E+02  0.60364073361E+01  0.18489779703E+03  0.17200000000E+03 0. -1.
         -6    1    1    2    0  502 -0.63864270201E+02 -0.22093259724E+02 -0.48298473496E+03  0.51713152228E+03  0.17200000000E+03 0.  1.
</event>
<event>
 4    1 -0.7308497E-004  0.1964611E+03  0.7818608E-02  0.1152760E+00
          5   -1    0    0  501    0  0.00000000000E+00  0.00000000000E+00  0.11246667644E+03  0.11256484046E+03  0.47000000000E+01 0. -1.
         -5   -1    0    0    0  501 -0.00000000000E+00 -0.00000000000E+00 -0.68792728462E+03  0.68794333991E+03  0.47000000000E+01 0.  1.
          6    1    1    2  502    0 -0.85197712161E+02  0.41884527345E+02 -0.43048122273E+01  0.19650825732E+03  0.17200000000E+03 0. -1.
         -6    1    1    2    0  502  0.85197712161E+02 -0.41884527345E+02 -0.57115579595E+03  0.60399992305E+03  0.17200000000E+03 0.  1.
</event>
<event>
 4    1 -0.7308497E-004  0.1937302E+03  0.7818608E-02  0.1155139E+00
          5   -1    0    0  501    0  0.00000000000E+00  0.00000000000E+00  0.36476195029E+03  0.36479222905E+03  0.47000000000E+01 0. -1.
         -5   -1    0    0    0  501 -0.00000000000E+00 -0.00000000000E+00 -0.10771161874E+03  0.10781411231E+03  0.47000000000E+01 0.  1.
          6    1    1    2  502    0 -0.87658852075E+02  0.16227246413E+02  0.78120104030E+02  0.20888788506E+03  0.17200000000E+03 0. -1.
         -6    1    1    2    0  502  0.87658852075E+02 -0.16227246413E+02  0.17893022751E+03  0.26371845630E+03  0.17200000000E+03 0. -1.
</event>
<event>
 4    1 -0.7308497E-004  0.2492521E+03  0.7818608E-02  0.1113778E+00
         -5   -1    0    0    0  501 -0.00000000000E+00  0.00000000000E+00  0.14450051882E+03  0.14457693433E+03  0.47000000000E+01 0.  1.
          5   -1    0    0  501    0  0.00000000000E+00 -0.00000000000E+00 -0.43777705742E+03  0.43780228643E+03  0.47000000000E+01 0. -1.
          6    1    1    2  502    0  0.16759316282E+02  0.17961556122E+03 -0.18609425785E+03  0.31105899331E+03  0.17200000000E+03 0.  1.
         -6    1    1    2    0  502 -0.16759316282E+02 -0.17961556122E+03 -0.10718228075E+03  0.27132022745E+03  0.17200000000E+03 0. -1.
</event>
<event>
 4    1 -0.7308497E-004  0.2237177E+03  0.7818608E-02  0.1131141E+00
          5   -1    0    0  501    0  0.00000000000E+00  0.00000000000E+00  0.33124650329E+03  0.33127984536E+03  0.47000000000E+01 0. -1.
         -5   -1    0    0    0  501 -0.00000000000E+00 -0.00000000000E+00 -0.53755423508E+03  0.53757478145E+03  0.47000000000E+01 0.  1.
          6    1    1    2  502    0 -0.13039448409E+03 -0.58846432618E+02  0.26520327708E+03  0.34696167265E+03  0.17200000000E+03 0. -1.
         -6    1    1    2    0  502  0.13039448409E+03  0.58846432618E+02 -0.47151100888E+03  0.52189295416E+03  0.17200000000E+03 0.  1.
</event>
<event>
 4    1 -0.7308497E-004  0.1937317E+03  0.7818608E-02  0.1155138E+00
          5   -1    0    0  501    0  0.00000000000E+00  0.00000000000E+00  0.16663007937E+03  0.16669635074E+03  0.47000000000E+01 0. -1.
         -5   -1    0    0    0  501 -0.00000000000E+00 -0.00000000000E+00 -0.36573585397E+03  0.36576605211E+03  0.47000000000E+01 0.  1.
          6    1    1    2  502    0 -0.74460718132E+02 -0.49026411506E+02  0.65510748708E+02  0.20450830244E+03  0.17200000000E+03 0. -1.
         -6    1    1    2    0  502  0.74460718132E+02  0.49026411506E+02 -0.26461652331E+03  0.32795410041E+03  0.17200000000E+03 0.  1.
</event>
<event>
 4    1 -0.7308497E-004  0.1908539E+03  0.7818608E-02  0.1157693E+00
          5   -1    0    0  501    0  0.00000000000E+00  0.00000000000E+00  0.23620239896E+03  0.23624915507E+03  0.47000000000E+01 0. -1.
         -5   -1    0    0    0  501 -0.00000000000E+00 -0.00000000000E+00 -0.64455206842E+03  0.64456920413E+03  0.47000000000E+01 0.  1.
          6    1    1    2  502    0  0.62881695071E+02 -0.53731724308E+02  0.17996446675E+03  0.26232120590E+03  0.17200000000E+03 0. -1.
         -6    1    1    2    0  502 -0.62881695071E+02  0.53731724308E+02 -0.58831413621E+03  0.61849715330E+03  0.17200000000E+03 0.  1.
</event>
<event>
 4    1 -0.7308497E-004  0.1729984E+03  0.7818608E-02  0.1174757E+00
          5   -1    0    0  501    0  0.00000000000E+00  0.00000000000E+00  0.12294924119E+04  0.12295013952E+04  0.47000000000E+01 0. -1.
         -5   -1    0    0    0  501 -0.00000000000E+00 -0.00000000000E+00 -0.26327554423E+03  0.26331749313E+03  0.47000000000E+01 0.  1.
          6    1    1    2  502    0  0.17609949124E+02 -0.58603799413E+01  0.11941793500E+04  0.12066452562E+04  0.17200000000E+03 0. -1.
         -6    1    1    2    0  502 -0.17609949124E+02  0.58603799413E+01 -0.22796248237E+03  0.28617363213E+03  0.17200000000E+03 0.  1.
</event>
<event>
 4    1 -0.7308497E-004  0.1832558E+03  0.7818608E-02  0.1164689E+00
         -5   -1    0    0    0  501 -0.00000000000E+00  0.00000000000E+00  0.47843277850E+03  0.47845586374E+03  0.47000000000E+01 0.  1.
          5   -1    0    0  501    0  0.00000000000E+00 -0.00000000000E+00 -0.88276354288E+02  0.88401384189E+02  0.47000000000E+01 0. -1.
          6    1    1    2  502    0 -0.31303794989E+02 -0.54943352755E+02  0.66551148773E+02  0.19496603549E+03  0.17200000000E+03 0. -1.
         -6    1    1    2    0  502  0.31303794989E+02  0.54943352755E+02  0.32360527544E+03  0.37189121244E+03  0.17200000000E+03 0.  1.
</event>
<event>
 4    1 -0.7308497E-004  0.1824002E+03  0.7818608E-02  0.1165500E+00
          5   -1    0    0  501    0  0.00000000000E+00  0.00000000000E+00  0.16162186876E+03  0.16169019284E+03  0.47000000000E+01 0. -1.
         -5   -1    0    0    0  501 -0.00000000000E+00 -0.00000000000E+00 -0.10779514965E+04  0.10779617427E+04  0.47000000000E+01 0.  1.
          6    1    1    2  502    0  0.60258812738E+02 -0.73970576369E+01  0.99364911799E+02  0.20770947660E+03  0.17200000000E+03 0. -1.
         -6    1    1    2    0  502 -0.60258812738E+02  0.73970576369E+01 -0.10156945396E+04  0.10319424590E+04  0.17200000000E+03 0.  1.
</event>
<event>
 4    1 -0.7308497E-004  0.2007748E+03  0.7818608E-02  0.1149087E+00
         -5   -1    0    0    0  501 -0.00000000000E+00  0.00000000000E+00  0.14402866060E+03  0.14410532633E+03  0.47000000000E+01 0.  1.
          5   -1    0    0  501    0  0.00000000000E+00 -0.00000000000E+00 -0.42200596316E+03  0.42203213496E+03  0.47000000000E+01 0. -1.
          6    1    1    2  502    0  0.12338868685E+02 -0.10283127388E+03 -0.30334113142E+03  0.36376690419E+03  0.17200000000E+03 0. -1.
         -6    1    1    2    0  502 -0.12338868685E+02  0.10283127388E+03  0.25363828868E+02  0.20237055710E+03  0.17200000000E+03 0.  1.
</event>
<event>
 4    1 -0.7308497E-004  0.1854259E+03  0.7818608E-02  0.1162653E+00
          5   -1    0    0  501    0  0.00000000000E+00  0.00000000000E+00  0.16164378637E+03  0.16171210119E+03  0.47000000000E+01 0. -1.
         -5   -1    0    0    0  501 -0.00000000000E+00 -0.00000000000E+00 -0.21410149209E+04  0.21410200797E+04  0.47000000000E+01 0.  1.
          6    1    1    2  502    0 -0.24825678412E+02  0.64671818206E+02  0.10300611751E+03  0.21211557846E+03  0.17200000000E+03 0. -1.
         -6    1    1    2    0  502  0.24825678412E+02 -0.64671818206E+02 -0.20823772520E+04  0.20906166024E+04  0.17200000000E+03 0.  1.
</event>
<event>
 4    1 -0.7308497E-004  0.1936018E+03  0.7818608E-02  0.1155252E+00
          5   -1    0    0  501    0  0.00000000000E+00  0.00000000000E+00  0.37661403601E+03  0.37664336197E+03  0.47000000000E+01 0. -1.
         -5   -1    0    0    0  501 -0.00000000000E+00 -0.00000000000E+00 -0.25197218767E+03  0.25201601806E+03  0.47000000000E+01 0.  1.
          6    1    1    2  502    0 -0.80567215195E+02  0.37504666380E+02  0.30683637564E+03  0.36280881685E+03  0.17200000000E+03 0. -1.
         -6    1    1    2    0  502  0.80567215195E+02 -0.37504666380E+02 -0.18219452731E+03  0.26585056318E+03  0.17200000000E+03 0.  1.
</event>
<event>
 4    1 -0.7308497E-004  0.2067191E+03  0.7818608E-02  0.1144191E+00
         -5   -1    0    0    0  501 -0.00000000000E+00  0.00000000000E+00  0.13083407594E+03  0.13091846862E+03  0.47000000000E+01 0.  1.
          5   -1    0    0  501    0  0.00000000000E+00 -0.00000000000E+00 -0.58317652723E+03  0.58319546630E+03  0.47000000000E+01 0. -1.
          6    1    1    2  502    0 -0.98295019753E+02  0.59049786746E+02 -0.46307071708E+03  0.50711663080E+03  0.17200000000E+03 0. -1.
         -6    1    1    2    0  502  0.98295019753E+02 -0.59049786746E+02  0.10728265786E+02  0.20699730411E+03  0.17200000000E+03 0.  1.
</event>
<event>
 4    1 -0.7308497E-004  0.1949626E+03  0.7818608E-02  0.1154060E+00
          5   -1    0    0  501    0  0.00000000000E+00  0.00000000000E+00  0.10571592261E+04  0.10571696739E+04  0.47000000000E+01 0. -1.
         -5   -1    0    0    0  501 -0.00000000000E+00 -0.00000000000E+00 -0.42502092410E+03  0.42504691026E+03  0.47000000000E+01 0.  1.
          6    1    1    2  502    0 -0.27469079402E+02  0.87589256013E+02  0.10251392614E+04  0.10435137438E+04  0.17200000000E+03 0. -1.
         -6    1    1    2    0  502  0.27469079402E+02 -0.87589256013E+02 -0.39300095939E+03  0.43870284040E+03  0.17200000000E+03 0.  1.
</event>
<event>
 4    1 -0.7308497E-004  0.2619583E+03  0.7818608E-02  0.1105972E+00
         -5   -1    0    0    0  501 -0.00000000000E+00  0.00000000000E+00  0.17079849692E+04  0.17079914359E+04  0.47000000000E+01 0.  1.
          5   -1    0    0  501    0  0.00000000000E+00 -0.00000000000E+00 -0.93931175659E+02  0.94048688246E+02  0.47000000000E+01 0. -1.
          6    1    1    2  502    0 -0.18217393901E+03 -0.76490704381E+02  0.12524181351E+03  0.29035785466E+03  0.17200000000E+03 0. -1.
         -6    1    1    2    0  502  0.18217393901E+03  0.76490704381E+02  0.14888119801E+04  0.15116822695E+04  0.17200000000E+03 0.  1.
</event>
<event>
 4    1 -0.7308497E-004  0.1898711E+03  0.7818608E-02  0.1158578E+00
          5   -1    0    0  501    0  0.00000000000E+00  0.00000000000E+00  0.14413890818E+03  0.14421551530E+03  0.47000000000E+01 0. -1.
         -5   -1    0    0    0  501 -0.00000000000E+00 -0.00000000000E+00 -0.12864469460E+04  0.12864555316E+04  0.47000000000E+01 0.  1.
          6    1    1    2  502    0  0.15844937708E+02 -0.78841538601E+02  0.70913765513E+02  0.20268155417E+03  0.17200000000E+03 0. -1.
         -6    1    1    2    0  502 -0.15844937708E+02  0.78841538601E+02 -0.12132218033E+04  0.12279894927E+04  0.17200000000E+03 0.  1.
</event>
<event>
 4    1 -0.7308497E-004  0.1720851E+03  0.7818608E-02  0.1175691E+00
          5   -1    0    0  501    0  0.00000000000E+00  0.00000000000E+00  0.40751365546E+03  0.40754075794E+03  0.47000000000E+01 0. -1.
         -5   -1    0    0    0  501 -0.00000000000E+00 -0.00000000000E+00 -0.28902721451E+03  0.28906542638E+03  0.47000000000E+01 0.  1.
          6    1    1    2  502    0 -0.42548479041E+01  0.33443852257E+01  0.36060594228E+03  0.39956217821E+03  0.17200000000E+03 0. -1.
         -6    1    1    2    0  502  0.42548479041E+01 -0.33443852257E+01 -0.24211950133E+03  0.29704400612E+03  0.17200000000E+03 0.  1.
</event>
<event>
 4    1 -0.7308497E-004  0.1987732E+03  0.7818608E-02  0.1150778E+00
         -5   -1    0    0    0  501 -0.00000000000E+00  0.00000000000E+00  0.11014255524E+04  0.11014355802E+04  0.47000000000E+01 0.  1.
          5   -1    0    0  501    0  0.00000000000E+00 -0.00000000000E+00 -0.49621147096E+02  0.49843236644E+02  0.47000000000E+01 0. -1.
          6    1    1    2  502    0 -0.91212802240E+02 -0.40087356559E+02  0.22193550801E+03  0.29793647169E+03  0.17200000000E+03 0. -1.
         -6    1    1    2    0  502  0.91212802240E+02  0.40087356559E+02  0.82986889724E+03  0.85334234517E+03  0.17200000000E+03 0.  1.
</event>
<event>
 4    1 -0.7308497E-004  0.1723963E+03  0.7818608E-02  0.1175372E+00
          5   -1    0    0  501    0  0.00000000000E+00  0.00000000000E+00  0.69551402070E+02  0.69710024602E+02  0.47000000000E+01 0. -1.
         -5   -1    0    0    0  501 -0.00000000000E+00 -0.00000000000E+00 -0.42751361817E+03  0.42753945283E+03  0.47000000000E+01 0.  1.
          6    1    1    2  502    0  0.11270839543E+02  0.30753711710E+01 -0.19009750626E+03  0.25662726203E+03  0.17200000000E+03 0.  1.
         -6    1    1    2    0  502 -0.11270839543E+02 -0.30753711710E+01 -0.16786470984E+03  0.24062221540E+03  0.17200000000E+03 0. -1.
</event>
<event>
 4    1 -0.7308497E-004  0.1801670E+03  0.7818608E-02  0.1167641E+00
         -5   -1    0    0    0  501 -0.00000000000E+00  0.00000000000E+00  0.87233580181E+03  0.87234846313E+03  0.47000000000E+01 0.  1.
          5   -1    0    0  501    0  0.00000000000E+00 -0.00000000000E+00 -0.14606191178E+04  0.14606266796E+04  0.47000000000E+01 0. -1.
          6    1    1    2  502    0  0.50129359754E+02  0.19057938704E+02 -0.14456749739E+04  0.14568583624E+04  0.17200000000E+03 0. -1.
         -6    1    1    2    0  502 -0.50129359754E+02 -0.19057938704E+02  0.85739165796E+03  0.87611678039E+03  0.17200000000E+03 0.  1.
</event>
<event>
 4    1 -0.7308497E-004  0.1721671E+03  0.7818608E-02  0.1175607E+00
          5   -1    0    0  501    0  0.00000000000E+00  0.00000000000E+00  0.12380091469E+03  0.12389009839E+03  0.47000000000E+01 0. -1.
         -5   -1    0    0    0  501 -0.00000000000E+00 -0.00000000000E+00 -0.41437774593E+03  0.41440439950E+03  0.47000000000E+01 0.  1.
          6    1    1    2  502    0 -0.51975150826E+01 -0.55223095619E+01  0.29667143346E+02  0.17470446319E+03  0.17200000000E+03 0. -1.
         -6    1    1    2    0  502  0.51975150826E+01  0.55223095619E+01 -0.32024397459E+03  0.36359003469E+03  0.17200000000E+03 0.  1.
</event>
<event>
 4    1 -0.7308497E-004  0.1789295E+03  0.7818608E-02  0.1168843E+00
          5   -1    0    0  501    0  0.00000000000E+00  0.00000000000E+00  0.21060539740E+03  0.21065783493E+03  0.47000000000E+01 0. -1.
         -5   -1    0    0    0  501 -0.00000000000E+00 -0.00000000000E+00 -0.18252718792E+03  0.18258768943E+03  0.47000000000E+01 0.  1.
          6    1    1    2  502    0 -0.20818337198E+02  0.44703190619E+02 -0.66463535455E+02  0.19087477560E+03  0.17200000000E+03 0.  1.
         -6    1    1    2    0  502  0.20818337198E+02 -0.44703190619E+02  0.94541744939E+02  0.20237074875E+03  0.17200000000E+03 0.  1.
</event>
<event>
 4    1 -0.7308497E-004  0.1955293E+03  0.7818608E-02  0.1153567E+00
         -5   -1    0    0    0  501 -0.00000000000E+00  0.00000000000E+00  0.28977760228E+03  0.28981571521E+03  0.47000000000E+01 0.  1.
          5   -1    0    0  501    0  0.00000000000E+00 -0.00000000000E+00 -0.12952866086E+04  0.12952951356E+04  0.47000000000E+01 0. -1.
          6    1    1    2  502    0 -0.72651385184E+02 -0.58047280102E+02 -0.12538664861E+04  0.12690204393E+04  0.17200000000E+03 0. -1.
         -6    1    1    2    0  502  0.72651385184E+02  0.58047280102E+02  0.24835747977E+03  0.31609041152E+03  0.17200000000E+03 0.  1.
</event>
<event>
 4    1 -0.7308497E-004  0.2343369E+03  0.7818608E-02  0.1123624E+00
         -5   -1    0    0    0  501 -0.00000000000E+00  0.00000000000E+00  0.12101910042E+03  0.12111033262E+03  0.47000000000E+01 0.  1.
          5   -1    0    0  501    0  0.00000000000E+00 -0.00000000000E+00 -0.84016227763E+03  0.84017542380E+03  0.47000000000E+01 0. -1.
          6    1    1    2  502    0 -0.67375666001E+02 -0.14418839987E+03 -0.68562278003E+03  0.72456357314E+03  0.17200000000E+03 0. -1.
         -6    1    1    2    0  502  0.67375666001E+02  0.14418839987E+03 -0.33520397180E+02  0.23672218327E+03  0.17200000000E+03 0.  1.
</event>
<event>
 4    1 -0.7308497E-004  0.2027190E+03  0.7818608E-02  0.1147465E+00
          5   -1    0    0  501    0  0.00000000000E+00  0.00000000000E+00  0.54549620652E+03  0.54551645377E+03  0.47000000000E+01 0. -1.
         -5   -1    0    0    0  501 -0.00000000000E+00 -0.00000000000E+00 -0.13213919315E+03  0.13222275283E+03  0.47000000000E+01 0.  1.
          6    1    1    2  502    0  0.38178959771E+02  0.10026651757E+03  0.42893120811E+03  0.47442279541E+03  0.17200000000E+03 0. -1.
         -6    1    1    2    0  502 -0.38178959771E+02 -0.10026651757E+03 -0.15574194744E+02  0.20331641118E+03  0.17200000000E+03 0.  1.
</event>
<event>
 4    1 -0.7308497E-004  0.2849427E+03  0.7818608E-02  0.1093020E+00
          5   -1    0    0  501    0  0.00000000000E+00  0.00000000000E+00  0.11850787681E+04  0.11850880881E+04  0.47000000000E+01 0. -1.
         -5   -1    0    0    0  501 -0.00000000000E+00 -0.00000000000E+00 -0.10803929089E+04  0.10804031320E+04  0.47000000000E+01 0.  1.
          6    1    1    2  502    0  0.73007925920E+02  0.21512361398E+03  0.11485849433E+04  0.11834017486E+04  0.17200000000E+03 0. -1.
         -6    1    1    2    0  502 -0.73007925920E+02 -0.21512361398E+03 -0.10438990841E+04  0.10820894715E+04  0.17200000000E+03 0.  1.
</event>
<event>
 4    1 -0.7308497E-004  0.1796873E+03  0.7818608E-02  0.1168106E+00
         -5   -1    0    0    0  501 -0.00000000000E+00  0.00000000000E+00  0.81514296722E+03  0.81515651688E+03  0.47000000000E+01 0.  1.
          5   -1    0    0  501    0  0.00000000000E+00 -0.00000000000E+00 -0.67078930697E+02  0.67243385872E+02  0.47000000000E+01 0. -1.
          6    1    1    2  502    0  0.17184136477E+02 -0.49073696367E+02  0.91404356139E+02  0.20159930194E+03  0.17200000000E+03 0. -1.
         -6    1    1    2    0  502 -0.17184136477E+02  0.49073696367E+02  0.65665968039E+03  0.68080060081E+03  0.17200000000E+03 0.  1.
</event>
<event>
 4    1 -0.7308497E-004  0.1847479E+03  0.7818608E-02  0.1163286E+00
          5   -1    0    0  501    0  0.00000000000E+00  0.00000000000E+00  0.11625906374E+03  0.11635402830E+03  0.47000000000E+01 0. -1.
         -5   -1    0    0    0  501 -0.00000000000E+00 -0.00000000000E+00 -0.38873492026E+03  0.38876333190E+03  0.47000000000E+01 0.  1.
          6    1    1    2  502    0  0.14286993713E+02  0.65906420734E+02 -0.11153394665E+02  0.18508423135E+03  0.17200000000E+03 0. -1.
         -6    1    1    2    0  502 -0.14286993713E+02 -0.65906420734E+02 -0.26132246186E+03  0.32003312884E+03  0.17200000000E+03 0.  1.
</event>
<event>
 4    1 -0.7308497E-004  0.2972941E+03  0.7818608E-02  0.1086601E+00
         -5   -1    0    0    0  501 -0.00000000000E+00  0.00000000000E+00  0.10820342504E+03  0.10830545319E+03  0.47000000000E+01 0.  1.
          5   -1    0    0  501    0  0.00000000000E+00 -0.00000000000E+00 -0.14383593402E+04  0.14383670190E+04  0.47000000000E+01 0. -1.
          6    1    1    2  502    0 -0.24245515981E+03 -0.39075714579E+01 -0.11736131316E+04  0.12106822689E+04  0.17200000000E+03 0. -1.
         -6    1    1    2    0  502  0.24245515981E+03  0.39075714579E+01 -0.15654278352E+03  0.33599020328E+03  0.17200000000E+03 0.  1.
</event>
<event>
 4    1 -0.7308497E-004  0.1809274E+03  0.7818608E-02  0.1166908E+00
          5   -1    0    0  501    0  0.00000000000E+00  0.00000000000E+00  0.22062116395E+03  0.22067122146E+03  0.47000000000E+01 0. -1.
         -5   -1    0    0    0  501 -0.00000000000E+00 -0.00000000000E+00 -0.41706510941E+03  0.41709159125E+03  0.47000000000E+01 0.  1.
          6    1    1    2  502    0 -0.49724418201E+02 -0.26042558339E+02  0.15774542595E+03  0.24003823032E+03  0.17200000000E+03 0. -1.
         -6    1    1    2    0  502  0.49724418201E+02  0.26042558339E+02 -0.35418937141E+03  0.39772458238E+03  0.17200000000E+03 0.  1.
</event>
<event>
 4    1 -0.7308497E-004  0.1911302E+03  0.7818608E-02  0.1157446E+00
          5   -1    0    0  501    0  0.00000000000E+00  0.00000000000E+00  0.19058075311E+03  0.19063869874E+03  0.47000000000E+01 0. -1.
         -5   -1    0    0    0  501 -0.00000000000E+00 -0.00000000000E+00 -0.38524895611E+03  0.38527762482E+03  0.47000000000E+01 0.  1.
          6    1    1    2  502    0  0.52612008436E+02 -0.64642985693E+02  0.10681535052E+03  0.21895263903E+03  0.17200000000E+03 0. -1.
         -6    1    1    2    0  502 -0.52612008436E+02  0.64642985693E+02 -0.30148355352E+03  0.35696368453E+03  0.17200000000E+03 0.  1.
</event>
<event>
 4    1 -0.7308497E-004  0.3262508E+03  0.7818608E-02  0.1072808E+00
         -5   -1    0    0    0  501 -0.00000000000E+00  0.00000000000E+00  0.33135637305E+03  0.33138970406E+03  0.47000000000E+01 0.  1.
          5   -1    0    0  501    0  0.00000000000E+00 -0.00000000000E+00 -0.63441526428E+03  0.63443267378E+03  0.47000000000E+01 0. -1.
          6    1    1    2  502    0  0.16449091739E+03  0.22315542514E+03 -0.49085085329E+03  0.58938456533E+03  0.17200000000E+03 0. -1.
         -6    1    1    2    0  502 -0.16449091739E+03 -0.22315542514E+03  0.18779196205E+03  0.37643781251E+03  0.17200000000E+03 0.  1.
</event>
<event>
 4    1 -0.7308497E-004  0.1794656E+03  0.7818608E-02  0.1168321E+00
          5   -1    0    0  501    0  0.00000000000E+00  0.00000000000E+00  0.41705270160E+02  0.41969269223E+02  0.47000000000E+01 0. -1.
         -5   -1    0    0    0  501 -0.00000000000E+00 -0.00000000000E+00 -0.13957723963E+04  0.13957803095E+04  0.47000000000E+01 0.  1.
          6    1    1    2  502    0  0.49026870417E+02 -0.14841541794E+02 -0.19557187023E+03  0.26543598439E+03  0.17200000000E+03 0. -1.
         -6    1    1    2    0  502 -0.49026870417E+02  0.14841541794E+02 -0.11584952560E+04  0.11723135943E+04  0.17200000000E+03 0.  1.
</event>
<event>
 4    1 -0.7308497E-004  0.1730525E+03  0.7818608E-02  0.1174701E+00
          5   -1    0    0  501    0  0.00000000000E+00  0.00000000000E+00  0.41421123469E+03  0.41423789897E+03  0.47000000000E+01 0. -1.
         -5   -1    0    0    0  501 -0.00000000000E+00 -0.00000000000E+00 -0.16049281132E+03  0.16056161586E+03  0.47000000000E+01 0.  1.
          6    1    1    2  502    0 -0.21878485506E+01 -0.18931047947E+02  0.33994300075E+03  0.38145565275E+03  0.17200000000E+03 0. -1.
         -6    1    1    2    0  502  0.21878485506E+01  0.18931047947E+02 -0.86224577380E+02  0.19334386208E+03  0.17200000000E+03 0.  1.
</event>
<event>
 4    1 -0.7308497E-004  0.2110946E+03  0.7818608E-02  0.1140702E+00
          5   -1    0    0  501    0  0.00000000000E+00  0.00000000000E+00  0.55878541736E+03  0.55880518310E+03  0.47000000000E+01 0. -1.
         -5   -1    0    0    0  501 -0.00000000000E+00 -0.00000000000E+00 -0.11731611995E+03  0.11741022954E+03  0.47000000000E+01 0.  1.
          6    1    1    2  502    0 -0.40910737494E+02  0.11533962776E+03  0.41219008642E+03  0.46309997356E+03  0.17200000000E+03 0. -1.
         -6    1    1    2    0  502  0.40910737494E+02 -0.11533962776E+03  0.29279210996E+02  0.21311543907E+03  0.17200000000E+03 0.  1.
</event>
<event>
 4    1 -0.7308497E-004  0.2600223E+03  0.7818608E-02  0.1107130E+00
          5   -1    0    0  501    0  0.00000000000E+00  0.00000000000E+00  0.18088381129E+04  0.18088442190E+04  0.47000000000E+01 0. -1.
         -5   -1    0    0    0  501 -0.00000000000E+00 -0.00000000000E+00 -0.36160881412E+03  0.36163935689E+03  0.47000000000E+01 0.  1.
          6    1    1    2  502    0 -0.19487426561E+03  0.71840899005E+01  0.17512413004E+04  0.17704399687E+04  0.17200000000E+03 0. -1.
         -6    1    1    2    0  502  0.19487426561E+03 -0.71840899005E+01 -0.30401200162E+03  0.40004360721E+03  0.17200000000E+03 0.  1.
</event>
<event>
 4    1 -0.7308497E-004  0.3214877E+03  0.7818608E-02  0.1074967E+00
         -5   -1    0    0    0  501 -0.00000000000E+00  0.00000000000E+00  0.61248604535E+03  0.61250407815E+03  0.47000000000E+01 0.  1.
          5   -1    0    0  501    0  0.00000000000E+00 -0.00000000000E+00 -0.16874511885E+03  0.16881055991E+03  0.47000000000E+01 0. -1.
          6    1    1    2  502    0  0.18767728244E+03 -0.19633539121E+03  0.22877444351E+03  0.39457837522E+03  0.17200000000E+03 0. -1.
         -6    1    1    2    0  502 -0.18767728244E+03  0.19633539121E+03  0.21496648298E+03  0.38673626283E+03  0.17200000000E+03 0. -1.
</event>
<event>
 4    1 -0.7308497E-004  0.2480623E+03  0.7818608E-02  0.1114536E+00
         -5   -1    0    0    0  501 -0.00000000000E+00  0.00000000000E+00  0.11304495656E+03  0.11314261887E+03  0.47000000000E+01 0.  1.
          5   -1    0    0  501    0  0.00000000000E+00 -0.00000000000E+00 -0.56869491266E+03  0.56871433399E+03  0.47000000000E+01 0. -1.
          6    1    1    2  502    0 -0.17172023371E+03 -0.49629310760E+02 -0.15678442359E+03  0.29345572516E+03  0.17200000000E+03 0. -1.
         -6    1    1    2    0  502  0.17172023371E+03  0.49629310760E+02 -0.29886553251E+03  0.38840122769E+03  0.17200000000E+03 0. -1.
</event>
<event>
 4    1 -0.7308497E-004  0.1883122E+03  0.7818608E-02  0.1159992E+00
         -5   -1    0    0    0  501 -0.00000000000E+00  0.00000000000E+00  0.78111047867E+03  0.78112461867E+03  0.47000000000E+01 0.  1.
          5   -1    0    0  501    0  0.00000000000E+00 -0.00000000000E+00 -0.89111686960E+02  0.89235546465E+02  0.47000000000E+01 0. -1.
          6    1    1    2  502    0 -0.59880288041E+02  0.47873139142E+02  0.41069028011E+02  0.19273855714E+03  0.17200000000E+03 0. -1.
         -6    1    1    2    0  502  0.59880288041E+02 -0.47873139142E+02  0.65092976370E+03  0.67762160799E+03  0.17200000000E+03 0.  1.
</event>
<event>
 4    1 -0.7308497E-004  0.1770012E+03  0.7818608E-02  0.1170737E+00
         -5   -1    0    0    0  501 -0.00000000000E+00  0.00000000000E+00  0.26279795605E+03  0.26283998118E+03  0.47000000000E+01 0.  1.
          5   -1    0    0  501    0  0.00000000000E+00 -0.00000000000E+00 -0.13519291101E+03  0.13527458441E+03  0.47000000000E+01 0. -1.
          6    1    1    2  502    0  0.61660228630E+01 -0.41320812007E+02 -0.48065640287E+01  0.17706646323E+03  0.17200000000E+03 0. -1.
         -6    1    1    2    0  502 -0.61660228630E+01  0.41320812007E+02  0.13241160907E+03  0.22104810236E+03  0.17200000000E+03 0.  1.
</event>
<event>
 4    1 -0.7308497E-004  0.2132126E+03  0.7818608E-02  0.1139047E+00
         -5   -1    0    0    0  501 -0.00000000000E+00  0.00000000000E+00  0.18936081613E+03  0.18941913495E+03  0.47000000000E+01 0.  1.
          5   -1    0    0  501    0  0.00000000000E+00 -0.00000000000E+00 -0.66271789685E+03  0.66273456286E+03  0.47000000000E+01 0. -1.
          6    1    1    2  502    0 -0.18288436112E+02  0.12466408736E+03 -0.57696526840E+03  0.61510041661E+03  0.17200000000E+03 0. -1.
         -6    1    1    2    0  502  0.18288436112E+02 -0.12466408736E+03  0.10360818769E+03  0.23705328120E+03  0.17200000000E+03 0.  1.
</event>
<event>
 4    1 -0.7308497E-004  0.2182044E+03  0.7818608E-02  0.1135229E+00
          5   -1    0    0  501    0  0.00000000000E+00  0.00000000000E+00  0.13537653871E+03  0.13545810139E+03  0.47000000000E+01 0. -1.
         -5   -1    0    0    0  501 -0.00000000000E+00 -0.00000000000E+00 -0.35441099394E+03  0.35444215696E+03  0.47000000000E+01 0.  1.
          6    1    1    2  502    0  0.12091226136E+03  0.58389875002E+02 -0.87343473857E+02  0.23503624162E+03  0.17200000000E+03 0. -1.
         -6    1    1    2    0  502 -0.12091226136E+03 -0.58389875002E+02 -0.13169098138E+03  0.25486401673E+03  0.17200000000E+03 0.  1.
</event>
<event>
 4    1 -0.7308497E-004  0.3724827E+03  0.7818608E-02  0.1053748E+00
         -5   -1    0    0    0  501 -0.00000000000E+00  0.00000000000E+00  0.94945048796E+03  0.94946212093E+03  0.47000000000E+01 0.  1.
          5   -1    0    0  501    0  0.00000000000E+00 -0.00000000000E+00 -0.89324501303E+03  0.89325737797E+03  0.47000000000E+01 0. -1.
          6    1    1    2  502    0  0.27911863171E+03 -0.17678286991E+03 -0.81453075130E+03  0.89565827104E+03  0.17200000000E+03 0. -1.
         -6    1    1    2    0  502 -0.27911863171E+03  0.17678286991E+03  0.87073622623E+03  0.94706122787E+03  0.17200000000E+03 0.  1.
</event>
<event>
 4    1 -0.7308497E-004  0.2671804E+03  0.7818608E-02  0.1102904E+00
         -5   -1    0    0    0  501 -0.00000000000E+00  0.00000000000E+00  0.11927733562E+03  0.11936989902E+03  0.47000000000E+01 0.  1.
          5   -1    0    0  501    0  0.00000000000E+00 -0.00000000000E+00 -0.14976835700E+04  0.14976909447E+04  0.47000000000E+01 0. -1.
          6    1    1    2  502    0 -0.49438917871E+01 -0.20439401777E+03 -0.13157883503E+04  0.13426408080E+04  0.17200000000E+03 0. -1.
         -6    1    1    2    0  502  0.49438917871E+01  0.20439401777E+03 -0.62617884015E+02  0.27442003565E+03  0.17200000000E+03 0.  1.
</event>
<event>
 4    1 -0.7308497E-004  0.2079842E+03  0.7818608E-02  0.1143172E+00
          5   -1    0    0  501    0  0.00000000000E+00  0.00000000000E+00  0.60408701546E+02  0.60591263582E+02  0.47000000000E+01 0. -1.
         -5   -1    0    0    0  501 -0.00000000000E+00 -0.00000000000E+00 -0.80173504996E+03  0.80174882622E+03  0.47000000000E+01 0.  1.
          6    1    1    2  502    0 -0.11692104254E+03  0.17076090352E+01 -0.22870687325E+03  0.30913472789E+03  0.17200000000E+03 0. -1.
         -6    1    1    2    0  502  0.11692104254E+03 -0.17076090352E+01 -0.51261947517E+03  0.55320536191E+03  0.17200000000E+03 0.  1.
</event>
<event>
 4    1 -0.7308497E-004  0.2852644E+03  0.7818608E-02  0.1092848E+00
          5   -1    0    0  501    0  0.00000000000E+00  0.00000000000E+00  0.20886985073E+03  0.20892272385E+03  0.47000000000E+01 0. -1.
         -5   -1    0    0    0  501 -0.00000000000E+00 -0.00000000000E+00 -0.58784847333E+03  0.58786726189E+03  0.47000000000E+01 0.  1.
          6    1    1    2  502    0  0.12205446317E+03  0.19207942985E+03  0.41922074068E+02  0.28832838856E+03  0.17200000000E+03 0. -1.
         -6    1    1    2    0  502 -0.12205446317E+03 -0.19207942985E+03 -0.42090069668E+03  0.50846159719E+03  0.17200000000E+03 0.  1.
</event>
<event>
 4    1 -0.7308497E-004  0.1763518E+03  0.7818608E-02  0.1171381E+00
          5   -1    0    0  501    0  0.00000000000E+00  0.00000000000E+00  0.12272470307E+03  0.12281466828E+03  0.47000000000E+01 0. -1.
         -5   -1    0    0    0  501 -0.00000000000E+00 -0.00000000000E+00 -0.36358621964E+03  0.36361659631E+03  0.47000000000E+01 0.  1.
          6    1    1    2  502    0  0.15677509194E+02  0.35639268043E+02  0.13553698107E+02  0.17687183058E+03  0.17200000000E+03 0. -1.
         -6    1    1    2    0  502 -0.15677509194E+02 -0.35639268043E+02 -0.25441521467E+03  0.30955943400E+03  0.17200000000E+03 0.  1.
</event>
<event>
 4    1 -0.7308497E-004  0.1775125E+03  0.7818608E-02  0.1170232E+00
          5   -1    0    0  501    0  0.00000000000E+00  0.00000000000E+00  0.14841684005E+03  0.14849124018E+03  0.47000000000E+01 0. -1.
         -5   -1    0    0    0  501 -0.00000000000E+00 -0.00000000000E+00 -0.38792673007E+03  0.38795520090E+03  0.47000000000E+01 0.  1.
          6    1    1    2  502    0  0.16855947975E+02 -0.40528753108E+02  0.60765947541E+02  0.18762516673E+03  0.17200000000E+03 0. -1.
         -6    1    1    2    0  502 -0.16855947975E+02  0.40528753108E+02 -0.30027583757E+03  0.34882127435E+03  0.17200000000E+03 0.  1.
</event>
<event>
 4    1 -0.7308497E-004  0.2374664E+03  0.7818608E-02  0.1121492E+00
         -5   -1    0    0    0  501 -0.00000000000E+00  0.00000000000E+00  0.83332123997E+03  0.83333449406E+03  0.47000000000E+01 0.  1.
          5   -1    0    0  501    0  0.00000000000E+00 -0.00000000000E+00 -0.37967430537E+03  0.37970339498E+03  0.47000000000E+01 0. -1.
          6    1    1    2  502    0  0.12626081465E+03  0.10423289202E+03 -0.32300009844E+03  0.40089818244E+03  0.17200000000E+03 0. -1.
         -6    1    1    2    0  502 -0.12626081465E+03 -0.10423289202E+03  0.77664703304E+03  0.81213970659E+03  0.17200000000E+03 0.  1.
</event>
<event>
 4    1 -0.7308497E-004  0.2581366E+03  0.7818608E-02  0.1108268E+00
         -5   -1    0    0    0  501 -0.00000000000E+00  0.00000000000E+00  0.66023155756E+03  0.66024828633E+03  0.47000000000E+01 0.  1.
          5   -1    0    0  501    0  0.00000000000E+00 -0.00000000000E+00 -0.14629610103E+03  0.14637157913E+03  0.47000000000E+01 0. -1.
          6    1    1    2  502    0 -0.95251665873E+02  0.16726506809E+03  0.32272642708E+02  0.26014612494E+03  0.17200000000E+03 0. -1.
         -6    1    1    2    0  502  0.95251665873E+02 -0.16726506809E+03  0.48166281382E+03  0.54647374052E+03  0.17200000000E+03 0.  1.
</event>
<event>
 4    1 -0.7308497E-004  0.1822697E+03  0.7818608E-02  0.1165624E+00
         -5   -1    0    0    0  501 -0.00000000000E+00  0.00000000000E+00  0.20823808345E+03  0.20829111694E+03  0.47000000000E+01 0.  1.
          5   -1    0    0  501    0  0.00000000000E+00 -0.00000000000E+00 -0.25400501485E+03  0.25404849452E+03  0.47000000000E+01 0. -1.
          6    1    1    2  502    0 -0.31798509937E+02 -0.51255231600E+02 -0.16390994909E+03  0.24512999697E+03  0.17200000000E+03 0. -1.
         -6    1    1    2    0  502  0.31798509937E+02  0.51255231600E+02  0.11814301769E+03  0.21720961450E+03  0.17200000000E+03 0.  1.
</event>
<event>
 4    1 -0.7308497E-004  0.1793035E+03  0.7818608E-02  0.1168479E+00
         -5   -1    0    0    0  501 -0.00000000000E+00  0.00000000000E+00  0.79871114601E+03  0.79872497442E+03  0.47000000000E+01 0.  1.
          5   -1    0    0  501    0  0.00000000000E+00 -0.00000000000E+00 -0.82928178103E+02  0.83061258860E+02  0.47000000000E+01 0. -1.
          6    1    1    2  502    0  0.22041777718E+01  0.50605056800E+02  0.41463461119E+02  0.18403518354E+03  0.17200000000E+03 0. -1.
         -6    1    1    2    0  502 -0.22041777718E+01 -0.50605056800E+02  0.67431950679E+03  0.69775104974E+03  0.17200000000E+03 0.  1.
</event>
<event>
 4    1 -0.7308497E-004  0.2312864E+03  0.7818608E-02  0.1125738E+00
         -5   -1    0    0    0  501 -0.00000000000E+00  0.00000000000E+00  0.49637592652E+03  0.49639817731E+03  0.47000000000E+01 0.  1.
          5   -1    0    0  501    0  0.00000000000E+00 -0.00000000000E+00 -0.19723636637E+03  0.19729235723E+03  0.47000000000E+01 0. -1.
          6    1    1    2  502    0 -0.74846331589E+02  0.13530485518E+03 -0.84071623765E+02  0.24609228982E+03  0.17200000000E+03 0. -1.
         -6    1    1    2    0  502  0.74846331589E+02 -0.13530485518E+03  0.38321118392E+03  0.44759824471E+03  0.17200000000E+03 0.  1.
</event>
<event>
 4    1 -0.7308497E-004  0.2072174E+03  0.7818608E-02  0.1143789E+00
          5   -1    0    0  501    0  0.00000000000E+00  0.00000000000E+00  0.17139923201E+03  0.17146366010E+03  0.47000000000E+01 0. -1.
         -5   -1    0    0    0  501 -0.00000000000E+00 -0.00000000000E+00 -0.99047484127E+03  0.99048599243E+03  0.47000000000E+01 0.  1.
          6    1    1    2  502    0  0.37640223171E+02 -0.10926236551E+03  0.92639417266E+02  0.22698262609E+03  0.17200000000E+03 0. -1.
         -6    1    1    2    0  502 -0.37640223171E+02  0.10926236551E+03 -0.91171502653E+03  0.93496702643E+03  0.17200000000E+03 0.  1.
</event>
<event>
 4    1 -0.7308497E-004  0.3866037E+03  0.7818608E-02  0.1048520E+00
          5   -1    0    0  501    0  0.00000000000E+00  0.00000000000E+00  0.57259125297E+03  0.57261054215E+03  0.47000000000E+01 0. -1.
         -5   -1    0    0    0  501 -0.00000000000E+00 -0.00000000000E+00 -0.48414814539E+03  0.48417095812E+03  0.47000000000E+01 0.  1.
          6    1    1    2  502    0  0.23993358909E+03 -0.24962032901E+03  0.40294164296E+03  0.55841239551E+03  0.17200000000E+03 0. -1.
         -6    1    1    2    0  502 -0.23993358909E+03  0.24962032901E+03 -0.31449853538E+03  0.49836910476E+03  0.17200000000E+03 0.  1.
</event>
<event>
 4    1 -0.7308497E-004  0.3304547E+03  0.7818608E-02  0.1070936E+00
         -5   -1    0    0    0  501 -0.00000000000E+00  0.00000000000E+00  0.96828620145E+03  0.96829760814E+03  0.47000000000E+01 0.  1.
          5   -1    0    0  501    0  0.00000000000E+00 -0.00000000000E+00 -0.68748282999E+03  0.68749889565E+03  0.47000000000E+01 0. -1.
          6    1    1    2  502    0  0.27368329605E+03 -0.68656840488E+02 -0.61655379115E+03  0.69952761609E+03  0.17200000000E+03 0. -1.
         -6    1    1    2    0  502 -0.27368329605E+03  0.68656840488E+02  0.89735716262E+03  0.95626888770E+03  0.17200000000E+03 0.  1.
</event>
<event>
 4    1 -0.7308497E-004  0.2210882E+03  0.7818608E-02  0.1133074E+00
          5   -1    0    0  501    0  0.00000000000E+00  0.00000000000E+00  0.27812688212E+03  0.27816659138E+03  0.47000000000E+01 0. -1.
         -5   -1    0    0    0  501 -0.00000000000E+00 -0.00000000000E+00 -0.19164359111E+03  0.19170121547E+03  0.47000000000E+01 0.  1.
          6    1    1    2  502    0  0.24985261468E+02  0.13664447775E+03 -0.24581345928E+02  0.22245048698E+03  0.17200000000E+03 0. -1.
         -6    1    1    2    0  502 -0.24985261468E+02 -0.13664447775E+03  0.11106463694E+03  0.24741731987E+03  0.17200000000E+03 0. -1.
</event>
<event>
 4    1 -0.7308497E-004  0.1837532E+03  0.7818608E-02  0.1164219E+00
          5   -1    0    0  501    0  0.00000000000E+00  0.00000000000E+00  0.74084699225E+02  0.74233635633E+02  0.47000000000E+01 0. -1.
         -5   -1    0    0    0  501 -0.00000000000E+00 -0.00000000000E+00 -0.77286150328E+03  0.77287579420E+03  0.47000000000E+01 0.  1.
          6    1    1    2  502    0 -0.51846504931E+02  0.38641775101E+02 -0.77850700950E+02  0.19956447203E+03  0.17200000000E+03 0. -1.
         -6    1    1    2    0  502  0.51846504931E+02 -0.38641775101E+02 -0.62092610311E+03  0.64754495781E+03  0.17200000000E+03 0.  1.
</event>
<event>
 4    1 -0.7308497E-004  0.4281879E+03  0.7818608E-02  0.1034434E+00
         -5   -1    0    0    0  501 -0.00000000000E+00  0.00000000000E+00  0.22738234816E+03  0.22743091754E+03  0.47000000000E+01 0.  1.
          5   -1    0    0  501    0  0.00000000000E+00 -0.00000000000E+00 -0.81191130383E+03  0.81192490742E+03  0.47000000000E+01 0. -1.
          6    1    1    2  502    0  0.32608430568E+03 -0.21778404058E+03 -0.24863032514E+03  0.49513826485E+03  0.17200000000E+03 0. -1.
         -6    1    1    2    0  502 -0.32608430568E+03  0.21778404058E+03 -0.33589863053E+03  0.54421756011E+03  0.17200000000E+03 0.  1.
</event>
<event>
 4    1 -0.7308497E-004  0.1834637E+03  0.7818608E-02  0.1164492E+00
          5   -1    0    0  501    0  0.00000000000E+00  0.00000000000E+00  0.20941439797E+04  0.20941492539E+04  0.47000000000E+01 0. -1.
         -5   -1    0    0    0  501 -0.00000000000E+00 -0.00000000000E+00 -0.13208440746E+03  0.13216800177E+03  0.47000000000E+01 0.  1.
          6    1    1    2  502    0 -0.54829608716E+02 -0.32690256111E+02  0.20242898813E+04  0.20325866432E+04  0.17200000000E+03 0. -1.
         -6    1    1    2    0  502  0.54829608716E+02  0.32690256111E+02 -0.62230309043E+02  0.19373061245E+03  0.17200000000E+03 0.  1.
</event>
<event>
 4    1 -0.7308497E-004  0.3984220E+03  0.7818608E-02  0.1044327E+00
          5   -1    0    0  501    0  0.00000000000E+00  0.00000000000E+00  0.55115964235E+03  0.55117968155E+03  0.47000000000E+01 0. -1.
         -5   -1    0    0    0  501 -0.00000000000E+00 -0.00000000000E+00 -0.44677679508E+03  0.44680151591E+03  0.47000000000E+01 0.  1.
          6    1    1    2  502    0 -0.14811791932E+03  0.32744028557E+03  0.34967377504E+03  0.53010546836E+03  0.17200000000E+03 0. -1.
         -6    1    1    2    0  502  0.14811791932E+03 -0.32744028557E+03 -0.24529092777E+03  0.46787572910E+03  0.17200000000E+03 0.  1.
</event>
<event>
 4    1 -0.7308497E-004  0.3044635E+03  0.7818608E-02  0.1083030E+00
         -5   -1    0    0    0  501 -0.00000000000E+00  0.00000000000E+00  0.14599421810E+03  0.14606985219E+03  0.47000000000E+01 0.  1.
          5   -1    0    0  501    0  0.00000000000E+00 -0.00000000000E+00 -0.82364607265E+03  0.82365948242E+03  0.47000000000E+01 0. -1.
          6    1    1    2  502    0 -0.25122275722E+03 -0.10743125868E+01 -0.57104699292E+03  0.64714194425E+03  0.17200000000E+03 0. -1.
         -6    1    1    2    0  502  0.25122275722E+03  0.10743125868E+01 -0.10660486163E+03  0.32258739036E+03  0.17200000000E+03 0.  1.
</event>
<event>
 4    1 -0.7308497E-004  0.1772800E+03  0.7818608E-02  0.1170462E+00
          5   -1    0    0  501    0  0.00000000000E+00  0.00000000000E+00  0.12455046135E+03  0.12463910872E+03  0.47000000000E+01 0. -1.
         -5   -1    0    0    0  501 -0.00000000000E+00 -0.00000000000E+00 -0.27755590660E+03  0.27759569753E+03  0.47000000000E+01 0.  1.
          6    1    1    2  502    0  0.34455265733E+02  0.25632563220E+02 -0.15648940039E+02  0.17796933151E+03  0.17200000000E+03 0. -1.
         -6    1    1    2    0  502 -0.34455265733E+02 -0.25632563220E+02 -0.13735650521E+03  0.22426547473E+03  0.17200000000E+03 0.  1.
</event>
<event>
 4    1 -0.7308497E-004  0.1852816E+03  0.7818608E-02  0.1162787E+00
         -5   -1    0    0    0  501 -0.00000000000E+00  0.00000000000E+00  0.49242980495E+03  0.49245223403E+03  0.47000000000E+01 0.  1.
          5   -1    0    0  501    0  0.00000000000E+00 -0.00000000000E+00 -0.91685945037E+02  0.91806331576E+02  0.47000000000E+01 0. -1.
          6    1    1    2  502    0 -0.59589959167E+02 -0.34558542453E+02  0.57155469489E+02  0.19389688956E+03  0.17200000000E+03 0. -1.
         -6    1    1    2    0  502  0.59589959167E+02  0.34558542453E+02  0.34358839042E+03  0.39036167604E+03  0.17200000000E+03 0.  1.
</event>
<event>
 4    1 -0.7308497E-004  0.2059329E+03  0.7818608E-02  0.1144828E+00
          5   -1    0    0  501    0  0.00000000000E+00  0.00000000000E+00  0.79835805705E+03  0.79837189158E+03  0.47000000000E+01 0. -1.
         -5   -1    0    0    0  501 -0.00000000000E+00 -0.00000000000E+00 -0.18182175355E+03  0.18188248971E+03  0.47000000000E+01 0.  1.
          6    1    1    2  502    0  0.28534261704E+02  0.10959088051E+03  0.72065190074E+03  0.74949818360E+03  0.17200000000E+03 0. -1.
         -6    1    1    2    0  502 -0.28534261704E+02 -0.10959088051E+03 -0.10411559724E+03  0.23075619769E+03  0.17200000000E+03 0.  1.
</event>
<event>
 4    1 -0.7308497E-004  0.3033126E+03  0.7818608E-02  0.1083596E+00
          5   -1    0    0  501    0  0.00000000000E+00  0.00000000000E+00  0.12540011212E+03  0.12548815928E+03  0.47000000000E+01 0. -1.
         -5   -1    0    0    0  501 -0.00000000000E+00 -0.00000000000E+00 -0.11611115783E+04  0.11611210907E+04  0.47000000000E+01 0.  1.
          6    1    1    2  502    0  0.13384409902E+03  0.21095093982E+03 -0.12738021870E+03  0.32897456128E+03  0.17200000000E+03 0. -1.
         -6    1    1    2    0  502 -0.13384409902E+03 -0.21095093982E+03 -0.90833124750E+03  0.95763468872E+03  0.17200000000E+03 0.  1.
</event>
<event>
 4    1 -0.7308497E-004  0.2106970E+03  0.7818608E-02  0.1141015E+00
          5   -1    0    0  501    0  0.00000000000E+00  0.00000000000E+00  0.22843755097E+03  0.22848589605E+03  0.47000000000E+01 0. -1.
         -5   -1    0    0    0  501 -0.00000000000E+00 -0.00000000000E+00 -0.38453286768E+03  0.38456158977E+03  0.47000000000E+01 0.  1.
          6    1    1    2  502    0 -0.91131544385E+02  0.80649039531E+02  0.13755830760E+03  0.25162574182E+03  0.17200000000E+03 0. -1.
         -6    1    1    2    0  502  0.91131544385E+02 -0.80649039531E+02 -0.29365362431E+03  0.36142174399E+03  0.17200000000E+03 0.  1.
</event>
<event>
 4    1 -0.7308497E-004  0.2587281E+03  0.7818608E-02  0.1107910E+00
         -5   -1    0    0    0  501 -0.00000000000E+00  0.00000000000E+00  0.40817496334E+03  0.40820202191E+03  0.47000000000E+01 0.  1.
          5   -1    0    0  501    0  0.00000000000E+00 -0.00000000000E+00 -0.16407629834E+03  0.16414360078E+03  0.47000000000E+01 0. -1.
          6    1    1    2  502    0  0.15553413699E+03  0.11474050716E+03  0.13051174187E+03  0.28978192925E+03  0.17200000000E+03 0. -1.
         -6    1    1    2    0  502 -0.15553413699E+03 -0.11474050716E+03  0.11358692312E+03  0.28256369345E+03  0.17200000000E+03 0. -1.
</event>
<event>
 4    1 -0.7308497E-004  0.2425295E+03  0.7818608E-02  0.1118119E+00
          5   -1    0    0  501    0  0.00000000000E+00  0.00000000000E+00  0.22890486882E+03  0.22895311522E+03  0.47000000000E+01 0. -1.
         -5   -1    0    0    0  501 -0.00000000000E+00 -0.00000000000E+00 -0.10086251870E+04  0.10086361375E+04  0.47000000000E+01 0.  1.
          6    1    1    2  502    0  0.17097646262E+03 -0.18967685966E+01  0.14434018959E+03  0.28223153408E+03  0.17200000000E+03 0. -1.
         -6    1    1    2    0  502 -0.17097646262E+03  0.18967685966E+01 -0.92406050779E+03  0.95535771863E+03  0.17200000000E+03 0.  1.
</event>
<event>
 4    1 -0.7308497E-004  0.2086610E+03  0.7818608E-02  0.1142631E+00
          5   -1    0    0  501    0  0.00000000000E+00  0.00000000000E+00  0.14884459553E+04  0.14884533758E+04  0.47000000000E+01 0. -1.
         -5   -1    0    0    0  501 -0.00000000000E+00 -0.00000000000E+00 -0.29242642767E+02  0.29617936390E+02  0.47000000000E+01 0.  1.
          6    1    1    2  502    0 -0.61767541215E+01 -0.11797145978E+03  0.78996690874E+03  0.81706005564E+03  0.17200000000E+03 0. -1.
         -6    1    1    2    0  502  0.61767541215E+01  0.11797145978E+03  0.66923640381E+03  0.70101125655E+03  0.17200000000E+03 0.  1.
</event>
<event>
 4    1 -0.7308497E-004  0.1812651E+03  0.7818608E-02  0.1166584E+00
          5   -1    0    0  501    0  0.00000000000E+00  0.00000000000E+00  0.20744944098E+03  0.20750267604E+03  0.47000000000E+01 0. -1.
         -5   -1    0    0    0  501 -0.00000000000E+00 -0.00000000000E+00 -0.44330425686E+03  0.44332917133E+03  0.47000000000E+01 0.  1.
          6    1    1    2  502    0 -0.21254424589E+02 -0.53115890701E+02  0.14297704943E+03  0.23086681241E+03  0.17200000000E+03 0. -1.
         -6    1    1    2    0  502  0.21254424589E+02  0.53115890701E+02 -0.37883186531E+03  0.41996503495E+03  0.17200000000E+03 0.  1.
</event>
<event>
 4    1 -0.7308497E-004  0.1919472E+03  0.7818608E-02  0.1156717E+00
          5   -1    0    0  501    0  0.00000000000E+00  0.00000000000E+00  0.25906549611E+03  0.25910812661E+03  0.47000000000E+01 0. -1.
         -5   -1    0    0    0  501 -0.00000000000E+00 -0.00000000000E+00 -0.21692580498E+03  0.21697671503E+03  0.47000000000E+01 0.  1.
          6    1    1    2  502    0 -0.28288791070E+01 -0.85157093895E+02  0.16081793162E+03  0.25041194127E+03  0.17200000000E+03 0. -1.
         -6    1    1    2    0  502  0.28288791070E+01  0.85157093895E+02 -0.11867824050E+03  0.22567290038E+03  0.17200000000E+03 0.  1.
</event>
<event>
 4    1 -0.7308497E-004  0.1723598E+03  0.7818608E-02  0.1175409E+00
         -5   -1    0    0    0  501 -0.00000000000E+00  0.00000000000E+00  0.68461569687E+03  0.68463182982E+03  0.47000000000E+01 0.  1.
          5   -1    0    0  501    0  0.00000000000E+00 -0.00000000000E+00 -0.28004357566E+03  0.28008301317E+03  0.47000000000E+01 0. -1.
          6    1    1    2  502    0 -0.30630577580E+01  0.10700756256E+02 -0.24113368085E+03  0.29640064195E+03  0.17200000000E+03 0. -1.
         -6    1    1    2    0  502  0.30630577580E+01 -0.10700756256E+02  0.64570580206E+03  0.66831420105E+03  0.17200000000E+03 0.  1.
</event>
<event>
 4    1 -0.7308497E-004  0.1769574E+03  0.7818608E-02  0.1170781E+00
         -5   -1    0    0    0  501 -0.00000000000E+00  0.00000000000E+00  0.35701706981E+03  0.35704800536E+03  0.47000000000E+01 0.  1.
          5   -1    0    0  501    0  0.00000000000E+00 -0.00000000000E+00 -0.64357024209E+03  0.64358740393E+03  0.47000000000E+01 0. -1.
          6    1    1    2  502    0 -0.33726977347E+02  0.24339698664E+02 -0.60825664602E+03  0.63347460672E+03  0.17200000000E+03 0. -1.
         -6    1    1    2    0  502  0.33726977347E+02 -0.24339698664E+02  0.32170347374E+03  0.36716080258E+03  0.17200000000E+03 0.  1.
</event>
<event>
 4    1 -0.7308497E-004  0.1885813E+03  0.7818608E-02  0.1159747E+00
         -5   -1    0    0    0  501 -0.00000000000E+00  0.00000000000E+00  0.98857068992E+02  0.98968732889E+02  0.47000000000E+01 0.  1.
          5   -1    0    0  501    0  0.00000000000E+00 -0.00000000000E+00 -0.89464215679E+03  0.89465450243E+03  0.47000000000E+01 0. -1.
          6    1    1    2  502    0  0.64554296167E+02 -0.42563362788E+02 -0.78213526016E+03  0.80454860772E+03  0.17200000000E+03 0. -1.
         -6    1    1    2    0  502 -0.64554296167E+02  0.42563362788E+02 -0.13649827646E+02  0.18907462760E+03  0.17200000000E+03 0.  1.
</event>
<event>
 4    1 -0.7308497E-004  0.1731899E+03  0.7818608E-02  0.1174562E+00
         -5   -1    0    0    0  501 -0.00000000000E+00  0.00000000000E+00  0.19828860628E+03  0.19834430010E+03  0.47000000000E+01 0.  1.
          5   -1    0    0  501    0  0.00000000000E+00 -0.00000000000E+00 -0.18562937062E+03  0.18568886137E+03  0.47000000000E+01 0. -1.
          6    1    1    2  502    0 -0.73190688131E+01  0.18899295028E+02 -0.76392729922E+02  0.18928972847E+03  0.17200000000E+03 0. -1.
         -6    1    1    2    0  502  0.73190688131E+01 -0.18899295028E+02  0.89051965581E+02  0.19474343299E+03  0.17200000000E+03 0.  1.
</event>
<event>
 4    1 -0.7308497E-004  0.1790714E+03  0.7818608E-02  0.1168705E+00
         -5   -1    0    0    0  501 -0.00000000000E+00  0.00000000000E+00  0.11146285479E+03  0.11156190209E+03  0.47000000000E+01 0.  1.
          5   -1    0    0  501    0  0.00000000000E+00 -0.00000000000E+00 -0.10020807285E+04  0.10020917505E+04  0.47000000000E+01 0. -1.
          6    1    1    2  502    0  0.49805898544E+02 -0.13986217667E+01 -0.91551161630E+03  0.93286017348E+03  0.17200000000E+03 0. -1.
         -6    1    1    2    0  502 -0.49805898544E+02  0.13986217667E+01  0.24893742593E+02  0.18079347912E+03  0.17200000000E+03 0.  1.
</event>
<event>
 4    1 -0.7308497E-004  0.1760493E+03  0.7818608E-02  0.1171682E+00
         -5   -1    0    0    0  501 -0.00000000000E+00  0.00000000000E+00  0.29021626095E+03  0.29025431628E+03  0.47000000000E+01 0.  1.
          5   -1    0    0  501    0  0.00000000000E+00 -0.00000000000E+00 -0.20342892679E+03  0.20348321370E+03  0.47000000000E+01 0. -1.
          6    1    1    2  502    0  0.17494059657E+02  0.33215960482E+02 -0.12679065577E+03  0.21695440200E+03  0.17200000000E+03 0. -1.
         -6    1    1    2    0  502 -0.17494059657E+02 -0.33215960482E+02  0.21357798993E+03  0.27678312798E+03  0.17200000000E+03 0.  1.
</event>
<event>
 4    1 -0.7308497E-004  0.2089938E+03  0.7818608E-02  0.1142365E+00
          5   -1    0    0  501    0  0.00000000000E+00  0.00000000000E+00  0.48938654986E+02  0.49163827677E+02  0.47000000000E+01 0. -1.
         -5   -1    0    0    0  501 -0.00000000000E+00 -0.00000000000E+00 -0.92808866718E+03  0.92810056791E+03  0.47000000000E+01 0.  1.
          6    1    1    2  502    0 -0.11868797545E+03 -0.27532639951E+01 -0.34090310477E+03  0.39986665630E+03  0.17200000000E+03 0. -1.
         -6    1    1    2    0  502  0.11868797545E+03  0.27532639951E+01 -0.53824690742E+03  0.57739773928E+03  0.17200000000E+03 0.  1.
</event>
<event>
 4    1 -0.7308497E-004  0.1805247E+03  0.7818608E-02  0.1167296E+00
         -5   -1    0    0    0  501 -0.00000000000E+00  0.00000000000E+00  0.84741645189E+03  0.84742948553E+03  0.47000000000E+01 0.  1.
          5   -1    0    0  501    0  0.00000000000E+00 -0.00000000000E+00 -0.48648380432E+02  0.48874890472E+02  0.47000000000E+01 0. -1.
          6    1    1    2  502    0 -0.52009588379E+02  0.17325314779E+02  0.19326235760E+03  0.26446077720E+03  0.17200000000E+03 0. -1.
         -6    1    1    2    0  502  0.52009588379E+02 -0.17325314779E+02  0.60550571386E+03  0.63184359879E+03  0.17200000000E+03 0.  1.
</event>
<event>
 4    1 -0.7308497E-004  0.2118184E+03  0.7818608E-02  0.1140134E+00
         -5   -1    0    0    0  501 -0.00000000000E+00  0.00000000000E+00  0.13450442812E+03  0.13458651933E+03  0.47000000000E+01 0.  1.
          5   -1    0    0  501    0  0.00000000000E+00 -0.00000000000E+00 -0.92350182392E+03  0.92351378375E+03  0.47000000000E+01 0. -1.
          6    1    1    2  502    0  0.92094650478E+02 -0.82471791641E+02 -0.81738829038E+03  0.84438772985E+03  0.17200000000E+03 0. -1.
         -6    1    1    2    0  502 -0.92094650478E+02  0.82471791641E+02  0.28390894585E+02  0.21371257323E+03  0.17200000000E+03 0.  1.
</event>
<event>
 4    1 -0.7308497E-004  0.3081241E+03  0.7818608E-02  0.1081249E+00
          5   -1    0    0  501    0  0.00000000000E+00  0.00000000000E+00  0.60032701288E+03  0.60034541091E+03  0.47000000000E+01 0. -1.
         -5   -1    0    0    0  501 -0.00000000000E+00 -0.00000000000E+00 -0.24263349019E+03  0.24267900726E+03  0.47000000000E+01 0.  1.
          6    1    1    2  502    0  0.86705894022E+02 -0.24049639966E+03  0.42761868827E+03  0.52706562482E+03  0.17200000000E+03 0. -1.
         -6    1    1    2    0  502 -0.86705894022E+02  0.24049639966E+03 -0.69925165581E+02  0.31595879334E+03  0.17200000000E+03 0.  1.
</event>
<event>
 4    1 -0.7308497E-004  0.1780572E+03  0.7818608E-02  0.1169697E+00
         -5   -1    0    0    0  501 -0.00000000000E+00  0.00000000000E+00  0.36300498651E+03  0.36303541181E+03  0.47000000000E+01 0.  1.
          5   -1    0    0  501    0  0.00000000000E+00 -0.00000000000E+00 -0.32366277543E+03  0.32369689865E+03  0.47000000000E+01 0. -1.
          6    1    1    2  502    0 -0.37927126978E+02  0.26112944058E+02 -0.27374253844E+03  0.32655677938E+03  0.17200000000E+03 0. -1.
         -6    1    1    2    0  502  0.37927126978E+02 -0.26112944058E+02  0.31308474952E+03  0.36017553108E+03  0.17200000000E+03 0.  1.
</event>
<event>
 4    1 -0.7308497E-004  0.1799215E+03  0.7818608E-02  0.1167879E+00
          5   -1    0    0  501    0  0.00000000000E+00  0.00000000000E+00  0.32449000098E+03  0.32452403722E+03  0.47000000000E+01 0. -1.
         -5   -1    0    0    0  501 -0.00000000000E+00 -0.00000000000E+00 -0.11579495893E+03  0.11589030380E+03  0.47000000000E+01 0.  1.
          6    1    1    2  502    0 -0.52497777316E+02  0.56318935718E+01  0.18648023455E+03  0.25912663454E+03  0.17200000000E+03 0. -1.
         -6    1    1    2    0  502  0.52497777316E+02 -0.56318935718E+01  0.22214807495E+02  0.18128770648E+03  0.17200000000E+03 0.  1.
</event>
<event>
 4    1 -0.7308497E-004  0.2221477E+03  0.7818608E-02  0.1132292E+00
         -5   -1    0    0    0  501 -0.00000000000E+00  0.00000000000E+00  0.52738801572E+03  0.52740895814E+03  0.47000000000E+01 0.  1.
          5   -1    0    0  501    0  0.00000000000E+00 -0.00000000000E+00 -0.76482789885E+03  0.76484233987E+03  0.47000000000E+01 0. -1.
          6    1    1    2  502    0 -0.54344709003E+02 -0.12966201074E+03 -0.72403347367E+03  0.75734672074E+03  0.17200000000E+03 0. -1.
         -6    1    1    2    0  502  0.54344709003E+02  0.12966201074E+03  0.48659359054E+03  0.53490457727E+03  0.17200000000E+03 0.  1.
</event>
<event>
 4    1 -0.7308497E-004  0.4057506E+03  0.7818608E-02  0.1041806E+00
          5   -1    0    0  501    0  0.00000000000E+00  0.00000000000E+00  0.12993947416E+04  0.12994032416E+04  0.47000000000E+01 0. -1.
         -5   -1    0    0    0  501 -0.00000000000E+00 -0.00000000000E+00 -0.14052025377E+03  0.14059883257E+03  0.47000000000E+01 0.  1.
          6    1    1    2  502    0  0.52110519674E+02 -0.36377741972E+03  0.35328471253E+03  0.53799963334E+03  0.17200000000E+03 0. -1.
         -6    1    1    2    0  502 -0.52110519674E+02  0.36377741972E+03  0.80558977525E+03  0.90200244087E+03  0.17200000000E+03 0.  1.
</event>
<event>
 4    1 -0.7308497E-004  0.1775983E+03  0.7818608E-02  0.1170148E+00
          5   -1    0    0  501    0  0.00000000000E+00  0.00000000000E+00  0.55027267306E+02  0.55227621234E+02  0.47000000000E+01 0. -1.
         -5   -1    0    0    0  501 -0.00000000000E+00 -0.00000000000E+00 -0.89984863489E+03  0.89986090909E+03  0.47000000000E+01 0.  1.
          6    1    1    2  502    0 -0.40064541558E+02  0.18761161903E+02 -0.13417124096E+03  0.22258272751E+03  0.17200000000E+03 0. -1.
         -6    1    1    2    0  502  0.40064541558E+02 -0.18761161903E+02 -0.71065012662E+03  0.73250580281E+03  0.17200000000E+03 0.  1.
</event>
<event>
 4    1 -0.7308497E-004  0.1915003E+03  0.7818608E-02  0.1157115E+00
         -5   -1    0    0    0  501 -0.00000000000E+00  0.00000000000E+00  0.18592210730E+03  0.18598150442E+03  0.47000000000E+01 0.  1.
          5   -1    0    0  501    0  0.00000000000E+00 -0.00000000000E+00 -0.43383879579E+03  0.43386425380E+03  0.47000000000E+01 0. -1.
          6    1    1    2  502    0 -0.82776747356E+02  0.15374805834E+02 -0.35286018352E+03  0.40147563273E+03  0.17200000000E+03 0. -1.
         -6    1    1    2    0  502  0.82776747356E+02 -0.15374805834E+02  0.10494349504E+03  0.21837012549E+03  0.17200000000E+03 0.  1.
</event>
<event>
 4    1 -0.7308497E-004  0.1887967E+03  0.7818608E-02  0.1159551E+00
         -5   -1    0    0    0  501 -0.00000000000E+00  0.00000000000E+00  0.69548103489E+03  0.69549691580E+03  0.47000000000E+01 0.  1.
          5   -1    0    0  501    0  0.00000000000E+00 -0.00000000000E+00 -0.51228773082E+02  0.51443922785E+02  0.47000000000E+01 0. -1.
          6    1    1    2  502    0  0.72182937848E+01 -0.77511849608E+02  0.33874495726E+03  0.38780450831E+03  0.17200000000E+03 0. -1.
         -6    1    1    2    0  502 -0.72182937848E+01  0.77511849608E+02  0.30550730455E+03  0.35913633028E+03  0.17200000000E+03 0.  1.
</event>
<event>
 4    1 -0.7308497E-004  0.2197810E+03  0.7818608E-02  0.1134046E+00
          5   -1    0    0  501    0  0.00000000000E+00  0.00000000000E+00  0.14774557206E+03  0.14782031005E+03  0.47000000000E+01 0. -1.
         -5   -1    0    0    0  501 -0.00000000000E+00 -0.00000000000E+00 -0.72042960341E+03  0.72044493438E+03  0.47000000000E+01 0.  1.
          6    1    1    2  502    0 -0.13255321850E+03 -0.33901872034E+02 -0.60723515534E+03  0.64578496928E+03  0.17200000000E+03 0.  1.
         -6    1    1    2    0  502  0.13255321850E+03  0.33901872034E+02  0.34551123993E+02  0.22248027515E+03  0.17200000000E+03 0. -1.
</event>
<event>
 4    1 -0.7308497E-004  0.2397788E+03  0.7818608E-02  0.1119940E+00
          5   -1    0    0  501    0  0.00000000000E+00  0.00000000000E+00  0.29633469065E+03  0.29637196035E+03  0.47000000000E+01 0. -1.
         -5   -1    0    0    0  501 -0.00000000000E+00 -0.00000000000E+00 -0.44141929985E+03  0.44144432071E+03  0.47000000000E+01 0.  1.
          6    1    1    2  502    0  0.36121364435E+01 -0.16702349290E+03  0.20365826457E+03  0.31459590499E+03  0.17200000000E+03 0. -1.
         -6    1    1    2    0  502 -0.36121364435E+01  0.16702349290E+03 -0.34874287377E+03  0.42322037607E+03  0.17200000000E+03 0.  1.
</event>
<event>
 4    1 -0.7308497E-004  0.1753694E+03  0.7818608E-02  0.1172361E+00
         -5   -1    0    0    0  501 -0.00000000000E+00  0.00000000000E+00  0.51703487674E+03  0.51705623849E+03  0.47000000000E+01 0.  1.
          5   -1    0    0  501    0  0.00000000000E+00 -0.00000000000E+00 -0.24690079241E+03  0.24694552293E+03  0.47000000000E+01 0. -1.
          6    1    1    2  502    0 -0.34210220308E+02 -0.31036683165E+00 -0.19776332362E+03  0.26431944247E+03  0.17200000000E+03 0. -1.
         -6    1    1    2    0  502  0.34210220308E+02  0.31036683165E+00  0.46789740794E+03  0.49968231894E+03  0.17200000000E+03 0.  1.
</event>
<event>
 4    1 -0.7308497E-004  0.2039441E+03  0.7818608E-02  0.1146453E+00
         -5   -1    0    0    0  501 -0.00000000000E+00  0.00000000000E+00  0.10563565486E+04  0.10563670043E+04  0.47000000000E+01 0.  1.
          5   -1    0    0  501    0  0.00000000000E+00 -0.00000000000E+00 -0.66499323971E+02  0.66665208982E+02  0.47000000000E+01 0. -1.
          6    1    1    2  502    0 -0.10859089161E+03 -0.14738256199E+02  0.13593838036E+03  0.24509679963E+03  0.17200000000E+03 0. -1.
         -6    1    1    2    0  502  0.10859089161E+03  0.14738256199E+02  0.85391884422E+03  0.87793541360E+03  0.17200000000E+03 0.  1.
</event>
<event>
 4    1 -0.7308497E-004  0.2402956E+03  0.7818608E-02  0.1119596E+00
          5   -1    0    0  501    0  0.00000000000E+00  0.00000000000E+00  0.27424665655E+03  0.27428692756E+03  0.47000000000E+01 0. -1.
         -5   -1    0    0    0  501 -0.00000000000E+00 -0.00000000000E+00 -0.29082727343E+03  0.29086524882E+03  0.47000000000E+01 0.  1.
          6    1    1    2  502    0  0.12720263476E+03  0.10944154778E+03  0.14022750017E+03  0.27821882480E+03  0.17200000000E+03 0. -1.
         -6    1    1    2    0  502 -0.12720263476E+03 -0.10944154778E+03 -0.15680811705E+03  0.28693335157E+03  0.17200000000E+03 0.  1.
</event>
<event>
 4    1 -0.7308497E-004  0.1739175E+03  0.7818608E-02  0.1173823E+00
         -5   -1    0    0    0  501 -0.00000000000E+00  0.00000000000E+00  0.11944060602E+03  0.11953304299E+03  0.47000000000E+01 0.  1.
          5   -1    0    0  501    0  0.00000000000E+00 -0.00000000000E+00 -0.65357550705E+03  0.65359240618E+03  0.47000000000E+01 0. -1.
          6    1    1    2  502    0  0.79833346282E+01  0.24486002521E+02 -0.56965965528E+03  0.59561684060E+03  0.17200000000E+03 0. -1.
         -6    1    1    2    0  502 -0.79833346282E+01 -0.24486002521E+02  0.35524754255E+02  0.17750860857E+03  0.17200000000E+03 0.  1.
</event>
<event>
 4    1 -0.7308497E-004  0.6555353E+03  0.7818608E-02  0.9796448E-01
          5   -1    0    0  501    0  0.00000000000E+00  0.00000000000E+00  0.15135557945E+04  0.15135630919E+04  0.47000000000E+01 0. -1.
         -5   -1    0    0    0  501 -0.00000000000E+00 -0.00000000000E+00 -0.67949876894E+03  0.67951502337E+03  0.47000000000E+01 0.  1.
          6    1    1    2  502    0 -0.51853797799E+03  0.36229937275E+03  0.12536923536E+04  0.14147335394E+04  0.17200000000E+03 0. -1.
         -6    1    1    2    0  502  0.51853797799E+03 -0.36229937275E+03 -0.41963532806E+03  0.77834457579E+03  0.17200000000E+03 0.  1.
</event>
<event>
 4    1 -0.7308497E-004  0.3179176E+03  0.7818608E-02  0.1076612E+00
          5   -1    0    0  501    0  0.00000000000E+00  0.00000000000E+00  0.70116988230E+03  0.70118563437E+03  0.47000000000E+01 0. -1.
         -5   -1    0    0    0  501 -0.00000000000E+00 -0.00000000000E+00 -0.15394747377E+03  0.15401920231E+03  0.47000000000E+01 0.  1.
          6    1    1    2  502    0  0.24641668966E+03  0.10376139819E+03  0.38177415194E+03  0.49681295855E+03  0.17200000000E+03 0. -1.
         -6    1    1    2    0  502 -0.24641668966E+03 -0.10376139819E+03  0.16544825660E+03  0.35839187813E+03  0.17200000000E+03 0.  1.
</event>
<event>
 4    1 -0.7308497E-004  0.2616295E+03  0.7818608E-02  0.1106168E+00
         -5   -1    0    0    0  501 -0.00000000000E+00  0.00000000000E+00  0.25382246363E+03  0.25386597457E+03  0.47000000000E+01 0.  1.
          5   -1    0    0  501    0  0.00000000000E+00 -0.00000000000E+00 -0.10750784250E+04  0.10750886986E+04  0.47000000000E+01 0. -1.
          6    1    1    2  502    0  0.10455835021E+03  0.16713336616E+03 -0.98577105129E+03  0.10198992971E+04  0.17200000000E+03 0. -1.
         -6    1    1    2    0  502 -0.10455835021E+03 -0.16713336616E+03  0.16451508990E+03  0.30905537609E+03  0.17200000000E+03 0.  1.
</event>
<event>
 4    1 -0.7308497E-004  0.2685669E+03  0.7818608E-02  0.1102103E+00
         -5   -1    0    0    0  501 -0.00000000000E+00  0.00000000000E+00  0.15527478113E+03  0.15534589680E+03  0.47000000000E+01 0.  1.
          5   -1    0    0  501    0  0.00000000000E+00 -0.00000000000E+00 -0.60938656511E+03  0.60940468962E+03  0.47000000000E+01 0. -1.
          6    1    1    2  502    0  0.19649548032E+03 -0.62719284419E+02 -0.41359886098E+03  0.49314521211E+03  0.17200000000E+03 0. -1.
         -6    1    1    2    0  502 -0.19649548032E+03  0.62719284419E+02 -0.40512923002E+02  0.27160537431E+03  0.17200000000E+03 0.  1.
</event>
<event>
 4    1 -0.7308497E-004  0.1727560E+03  0.7818608E-02  0.1175004E+00
          5   -1    0    0  501    0  0.00000000000E+00  0.00000000000E+00  0.14874600219E+03  0.14882023776E+03  0.47000000000E+01 0. -1.
         -5   -1    0    0    0  501 -0.00000000000E+00 -0.00000000000E+00 -0.34679987301E+03  0.34683171989E+03  0.47000000000E+01 0.  1.
          6    1    1    2  502    0  0.15343988648E+02 -0.50196889742E+01  0.61915603119E+02  0.18351614963E+03  0.17200000000E+03 0. -1.
         -6    1    1    2    0  502 -0.15343988648E+02  0.50196889742E+01 -0.25996947394E+03  0.31213580802E+03  0.17200000000E+03 0.  1.
</event>
<event>
 4    1 -0.7308497E-004  0.1941444E+03  0.7818608E-02  0.1154776E+00
          5   -1    0    0  501    0  0.00000000000E+00  0.00000000000E+00  0.20849771167E+03  0.20855067914E+03  0.47000000000E+01 0. -1.
         -5   -1    0    0    0  501 -0.00000000000E+00 -0.00000000000E+00 -0.18345821302E+03  0.18351840759E+03  0.47000000000E+01 0.  1.
          6    1    1    2  502    0  0.80568126859E+02 -0.40209928237E+02  0.36667524584E+02  0.19757674143E+03  0.17200000000E+03 0. -1.
         -6    1    1    2    0  502 -0.80568126859E+02  0.40209928237E+02 -0.11628025934E+02  0.19449234530E+03  0.17200000000E+03 0.  1.
</event>
<event>
 4    1 -0.7308497E-004  0.2209715E+03  0.7818608E-02  0.1133161E+00
         -5   -1    0    0    0  501 -0.00000000000E+00  0.00000000000E+00  0.33962216158E+03  0.33965468145E+03  0.47000000000E+01 0.  1.
          5   -1    0    0  501    0  0.00000000000E+00 -0.00000000000E+00 -0.62377841026E+03  0.62379611662E+03  0.47000000000E+01 0. -1.
          6    1    1    2  502    0 -0.54805055783E+02 -0.12743942080E+03 -0.56466402015E+03  0.60636115951E+03  0.17200000000E+03 0. -1.
         -6    1    1    2    0  502  0.54805055783E+02  0.12743942080E+03  0.28050777147E+03  0.35708963856E+03  0.17200000000E+03 0.  1.
</event>
<event>
 4    1 -0.7308497E-004  0.3496321E+03  0.7818608E-02  0.1062766E+00
         -5   -1    0    0    0  501 -0.00000000000E+00  0.00000000000E+00  0.62033617327E+03  0.62035397788E+03  0.47000000000E+01 0.  1.
          5   -1    0    0  501    0  0.00000000000E+00 -0.00000000000E+00 -0.19802028533E+03  0.19807605459E+03  0.47000000000E+01 0. -1.
          6    1    1    2  502    0  0.90742397118E+02 -0.29055878274E+03  0.18193344328E+03  0.39413495994E+03  0.17200000000E+03 0. -1.
         -6    1    1    2    0  502 -0.90742397118E+02  0.29055878274E+03  0.24038244467E+03  0.42429507252E+03  0.17200000000E+03 0.  1.
</event>
<event>
 4    1 -0.7308497E-004  0.2156951E+03  0.7818608E-02  0.1137134E+00
         -5   -1    0    0    0  501 -0.00000000000E+00  0.00000000000E+00  0.43179643348E+03  0.43182201191E+03  0.47000000000E+01 0.  1.
          5   -1    0    0  501    0  0.00000000000E+00 -0.00000000000E+00 -0.27100547867E+03  0.27104623124E+03  0.47000000000E+01 0. -1.
          6    1    1    2  502    0  0.21278916507E+02 -0.12840391772E+03 -0.19239083283E+03  0.28903043253E+03  0.17200000000E+03 0. -1.
         -6    1    1    2    0  502 -0.21278916507E+02  0.12840391772E+03  0.35318178764E+03  0.41383781062E+03  0.17200000000E+03 0.  1.
</event>
<event>
 4    1 -0.7308497E-004  0.2860298E+03  0.7818608E-02  0.1092440E+00
          5   -1    0    0  501    0  0.00000000000E+00  0.00000000000E+00  0.16797342004E+03  0.16803916162E+03  0.47000000000E+01 0. -1.
         -5   -1    0    0    0  501 -0.00000000000E+00 -0.00000000000E+00 -0.49154358486E+03  0.49156605438E+03  0.47000000000E+01 0.  1.
          6    1    1    2  502    0 -0.10429755552E+03  0.20334954944E+03 -0.12968761745E+03  0.31405715636E+03  0.17200000000E+03 0. -1.
         -6    1    1    2    0  502  0.10429755552E+03 -0.20334954944E+03 -0.19388254737E+03  0.34554805964E+03  0.17200000000E+03 0.  1.
</event>
<event>
 4    1 -0.7308497E-004  0.1865000E+03  0.7818608E-02  0.1161656E+00
         -5   -1    0    0    0  501 -0.00000000000E+00  0.00000000000E+00  0.62562442099E+03  0.62564207511E+03  0.47000000000E+01 0.  1.
          5   -1    0    0  501    0  0.00000000000E+00 -0.00000000000E+00 -0.66275112551E+02  0.66441557354E+02  0.47000000000E+01 0. -1.
          6    1    1    2  502    0 -0.26262643329E+02 -0.67145601905E+02  0.14021561261E+03  0.23332954444E+03  0.17200000000E+03 0. -1.
         -6    1    1    2    0  502  0.26262643329E+02  0.67145601905E+02  0.41913369584E+03  0.45875408802E+03  0.17200000000E+03 0.  1.
</event>
<event>
 4    1 -0.7308497E-004  0.1722034E+03  0.7818608E-02  0.1175569E+00
         -5   -1    0    0    0  501 -0.00000000000E+00  0.00000000000E+00  0.39295888381E+02  0.39575962953E+02  0.47000000000E+01 0.  1.
          5   -1    0    0  501    0  0.00000000000E+00 -0.00000000000E+00 -0.20549160850E+04  0.20549214599E+04  0.47000000000E+01 0. -1.
          6    1    1    2  502    0 -0.13437288890E+01  0.82590614360E+01 -0.18417521110E+04  0.18497850838E+04  0.17200000000E+03 0. -1.
         -6    1    1    2    0  502  0.13437288890E+01 -0.82590614360E+01 -0.17386808553E+03  0.24471233902E+03  0.17200000000E+03 0.  1.
</event>
<event>
 4    1 -0.7308497E-004  0.1747074E+03  0.7818608E-02  0.1173026E+00
          5   -1    0    0  501    0  0.00000000000E+00  0.00000000000E+00  0.11510051126E+04  0.11510147085E+04  0.47000000000E+01 0. -1.
         -5   -1    0    0    0  501 -0.00000000000E+00 -0.00000000000E+00 -0.30170755875E+03  0.30174416483E+03  0.47000000000E+01 0.  1.
          6    1    1    2  502    0  0.16096465304E+01 -0.30595232942E+02  0.11183751961E+04  0.11319389288E+04  0.17200000000E+03 0. -1.
         -6    1    1    2    0  502 -0.16096465304E+01  0.30595232942E+02 -0.26907764228E+03  0.32081994454E+03  0.17200000000E+03 0.  1.
</event>
<event>
 4    1 -0.7308497E-004  0.2517701E+03  0.7818608E-02  0.1112191E+00
          5   -1    0    0  501    0  0.00000000000E+00  0.00000000000E+00  0.33764257416E+03  0.33767528469E+03  0.47000000000E+01 0. -1.
         -5   -1    0    0    0  501 -0.00000000000E+00 -0.00000000000E+00 -0.48985376811E+03  0.48987631514E+03  0.47000000000E+01 0.  1.
          6    1    1    2  502    0  0.18283905165E+03  0.19340269478E+02  0.24886014707E+03  0.35400499662E+03  0.17200000000E+03 0. -1.
         -6    1    1    2    0  502 -0.18283905165E+03 -0.19340269478E+02 -0.40107134102E+03  0.47354660321E+03  0.17200000000E+03 0.  1.
</event>
<event>
 4    1 -0.7308497E-004  0.1948711E+03  0.7818608E-02  0.1154140E+00
         -5   -1    0    0    0  501 -0.00000000000E+00  0.00000000000E+00  0.38143467313E+03  0.38146362850E+03  0.47000000000E+01 0.  1.
          5   -1    0    0  501    0  0.00000000000E+00 -0.00000000000E+00 -0.11005108438E+03  0.11015140114E+03  0.47000000000E+01 0. -1.
          6    1    1    2  502    0 -0.69344125677E+02  0.59851026485E+02  0.59517456589E+02  0.20375740668E+03  0.17200000000E+03 0. -1.
         -6    1    1    2    0  502  0.69344125677E+02 -0.59851026485E+02  0.21186613216E+03  0.28785762296E+03  0.17200000000E+03 0.  1.
</event>
<event>
 4    1 -0.7308497E-004  0.2558691E+03  0.7818608E-02  0.1109651E+00
         -5   -1    0    0    0  501 -0.00000000000E+00  0.00000000000E+00  0.39517946754E+03  0.39520741588E+03  0.47000000000E+01 0.  1.
          5   -1    0    0  501    0  0.00000000000E+00 -0.00000000000E+00 -0.63361202189E+03  0.63362945345E+03  0.47000000000E+01 0. -1.
          6    1    1    2  502    0 -0.11727047645E+03 -0.14877046785E+03 -0.56130398403E+03  0.61687209310E+03  0.17200000000E+03 0. -1.
         -6    1    1    2    0  502  0.11727047645E+03  0.14877046785E+03  0.32287142969E+03  0.41196477624E+03  0.17200000000E+03 0.  1.
</event>
<event>
 4    1 -0.7308497E-004  0.1842071E+03  0.7818608E-02  0.1163792E+00
         -5   -1    0    0    0  501 -0.00000000000E+00  0.00000000000E+00  0.10008359410E+04  0.10008469767E+04  0.47000000000E+01 0.  1.
          5   -1    0    0  501    0  0.00000000000E+00 -0.00000000000E+00 -0.12821756539E+03  0.12830367912E+03  0.47000000000E+01 0. -1.
          6    1    1    2  502    0  0.34678036410E+02  0.56086587248E+02 -0.47939799922E+02  0.19034310047E+03  0.17200000000E+03 0. -1.
         -6    1    1    2    0  502 -0.34678036410E+02 -0.56086587248E+02  0.92055817551E+03  0.93880755535E+03  0.17200000000E+03 0.  1.
</event>
<event>
 4    1 -0.7308497E-004  0.1800136E+03  0.7818608E-02  0.1167790E+00
         -5   -1    0    0    0  501 -0.00000000000E+00  0.00000000000E+00  0.32056195609E+03  0.32059640936E+03  0.47000000000E+01 0.  1.
          5   -1    0    0  501    0  0.00000000000E+00 -0.00000000000E+00 -0.97258139799E+03  0.97259275430E+03  0.47000000000E+01 0. -1.
          6    1    1    2  502    0 -0.61824499947E+01 -0.52750975516E+02 -0.93808323438E+03  0.95519895453E+03  0.17200000000E+03 0. -1.
         -6    1    1    2    0  502  0.61824499947E+01  0.52750975516E+02  0.28606379248E+03  0.33799020914E+03  0.17200000000E+03 0.  1.
</event>
<event>
 4    1 -0.7308497E-004  0.1736459E+03  0.7818608E-02  0.1174098E+00
          5   -1    0    0  501    0  0.00000000000E+00  0.00000000000E+00  0.46126132908E+02  0.46364966699E+02  0.47000000000E+01 0. -1.
         -5   -1    0    0    0  501 -0.00000000000E+00 -0.00000000000E+00 -0.84888624927E+03  0.84889926034E+03  0.47000000000E+01 0.  1.
          6    1    1    2  502    0  0.46935326577E+01  0.23385474857E+02 -0.18570866752E+03  0.25424519440E+03  0.17200000000E+03 0. -1.
         -6    1    1    2    0  502 -0.46935326577E+01 -0.23385474857E+02 -0.61705144885E+03  0.64101903264E+03  0.17200000000E+03 0.  1.
</event>
<event>
 4    1 -0.7308497E-004  0.1723935E+03  0.7818608E-02  0.1175375E+00
         -5   -1    0    0    0  501 -0.00000000000E+00  0.00000000000E+00  0.76956834108E+02  0.77100222541E+02  0.47000000000E+01 0.  1.
          5   -1    0    0  501    0  0.00000000000E+00 -0.00000000000E+00 -0.65824570210E+03  0.65826248134E+03  0.47000000000E+01 0. -1.
          6    1    1    2  502    0 -0.10706225648E+02 -0.45704584200E+01 -0.52721937092E+03  0.55468890148E+03  0.17200000000E+03 0. -1.
         -6    1    1    2    0  502  0.10706225648E+02  0.45704584200E+01 -0.54069497077E+02  0.18067380240E+03  0.17200000000E+03 0.  1.
</event>
<event>
 4    1 -0.7308497E-004  0.2552981E+03  0.7818608E-02  0.1110002E+00
          5   -1    0    0  501    0  0.00000000000E+00  0.00000000000E+00  0.11136465954E+04  0.11136565132E+04  0.47000000000E+01 0. -1.
         -5   -1    0    0    0  501 -0.00000000000E+00 -0.00000000000E+00 -0.18345986259E+03  0.18352005662E+03  0.47000000000E+01 0.  1.
          6    1    1    2  502    0  0.18737594227E+03 -0.21985513838E+02  0.10003493826E+04  0.10324127052E+04  0.17200000000E+03 0. -1.
         -6    1    1    2    0  502 -0.18737594227E+03  0.21985513838E+02 -0.70162649851E+02  0.26476386459E+03  0.17200000000E+03 0.  1.
</event>
<event>
 4    1 -0.7308497E-004  0.1796065E+03  0.7818608E-02  0.1168184E+00
         -5   -1    0    0    0  501 -0.00000000000E+00  0.00000000000E+00  0.10975195677E+03  0.10985254669E+03  0.47000000000E+01 0.  1.
          5   -1    0    0  501    0  0.00000000000E+00 -0.00000000000E+00 -0.77216717365E+03  0.77218147741E+03  0.47000000000E+01 0. -1.
          6    1    1    2  502    0  0.27963012049E+02  0.43503683898E+02 -0.67834768627E+03  0.70172222711E+03  0.17200000000E+03 0. -1.
         -6    1    1    2    0  502 -0.27963012049E+02 -0.43503683898E+02  0.15932469382E+02  0.18031179700E+03  0.17200000000E+03 0.  1.
</event>
<event>
 4    1 -0.7308497E-004  0.3504079E+03  0.7818608E-02  0.1062448E+00
         -5   -1    0    0    0  501 -0.00000000000E+00  0.00000000000E+00  0.86795963754E+03  0.86797236269E+03  0.47000000000E+01 0.  1.
          5   -1    0    0  501    0  0.00000000000E+00 -0.00000000000E+00 -0.58738053999E+03  0.58739934351E+03  0.47000000000E+01 0. -1.
          6    1    1    2  502    0  0.27543476454E+03 -0.13167139585E+03 -0.49374612726E+03  0.60545099239E+03  0.17200000000E+03 0. -1.
         -6    1    1    2    0  502 -0.27543476454E+03  0.13167139585E+03  0.77432522481E+03  0.84992071382E+03  0.17200000000E+03 0.  1.
</event>
<event>
 4    1 -0.7308497E-004  0.2171149E+03  0.7818608E-02  0.1136052E+00
          5   -1    0    0  501    0  0.00000000000E+00  0.00000000000E+00  0.15983786761E+03  0.15990695395E+03  0.47000000000E+01 0. -1.
         -5   -1    0    0    0  501 -0.00000000000E+00 -0.00000000000E+00 -0.76317533931E+03  0.76318981160E+03  0.47000000000E+01 0.  1.
          6    1    1    2  502    0  0.66305048488E+00 -0.13249313235E+03  0.59900231537E+02  0.22522634724E+03  0.17200000000E+03 0. -1.
         -6    1    1    2    0  502 -0.66305048488E+00  0.13249313235E+03 -0.66323770324E+03  0.69787041831E+03  0.17200000000E+03 0.  1.
</event>
<event>
 4    1 -0.7308497E-004  0.1952802E+03  0.7818608E-02  0.1153783E+00
         -5   -1    0    0    0  501 -0.00000000000E+00  0.00000000000E+00  0.21418891102E+04  0.21418942668E+04  0.47000000000E+01 0.  1.
          5   -1    0    0  501    0  0.00000000000E+00 -0.00000000000E+00 -0.80732899744E+02  0.80869593180E+02  0.47000000000E+01 0. -1.
          6    1    1    2  502    0  0.68316723032E+02  0.62315285649E+02  0.49239707662E+02  0.20139244842E+03  0.17200000000E+03 0. -1.
         -6    1    1    2    0  502 -0.68316723032E+02 -0.62315285649E+02  0.20119165028E+04  0.20213714116E+04  0.17200000000E+03 0.  1.
</event>
<event>
 4    1 -0.7308497E-004  0.2331623E+03  0.7818608E-02  0.1124434E+00
          5   -1    0    0  501    0  0.00000000000E+00  0.00000000000E+00  0.13395518268E+03  0.13403761027E+03  0.47000000000E+01 0. -1.
         -5   -1    0    0    0  501 -0.00000000000E+00 -0.00000000000E+00 -0.11189085252E+04  0.11189183964E+04  0.47000000000E+01 0.  1.
          6    1    1    2  502    0  0.71868632931E+02 -0.14005548643E+03  0.76974441677E+01  0.23328928463E+03  0.17200000000E+03 0. -1.
         -6    1    1    2    0  502 -0.71868632931E+02  0.14005548643E+03 -0.99265078671E+03  0.10196667220E+04  0.17200000000E+03 0.  1.
</event>
<event>
 4    1 -0.7308497E-004  0.1877823E+03  0.7818608E-02  0.1160477E+00
         -5   -1    0    0    0  501 -0.00000000000E+00  0.00000000000E+00  0.49411481600E+02  0.49634509304E+02  0.47000000000E+01 0.  1.
          5   -1    0    0  501    0  0.00000000000E+00 -0.00000000000E+00 -0.11910059942E+04  0.11910152678E+04  0.47000000000E+01 0. -1.
          6    1    1    2  502    0 -0.71874997574E+02 -0.22631090221E+02 -0.96423664578E+03  0.98235151071E+03  0.17200000000E+03 0. -1.
         -6    1    1    2    0  502  0.71874997574E+02  0.22631090221E+02 -0.17735786682E+03  0.25829826644E+03  0.17200000000E+03 0.  1.
</event>
<event>
 4    1 -0.7308497E-004  0.2053046E+03  0.7818608E-02  0.1145339E+00
         -5   -1    0    0    0  501 -0.00000000000E+00  0.00000000000E+00  0.42688391257E+03  0.42690978533E+03  0.47000000000E+01 0.  1.
          5   -1    0    0  501    0  0.00000000000E+00 -0.00000000000E+00 -0.12469733396E+03  0.12478587699E+03  0.47000000000E+01 0. -1.
          6    1    1    2  502    0  0.10680560567E+03  0.34037137059E+02  0.25093242571E+02  0.20683238364E+03  0.17200000000E+03 0. -1.
         -6    1    1    2    0  502 -0.10680560567E+03 -0.34037137059E+02  0.27709333604E+03  0.34486327867E+03  0.17200000000E+03 0.  1.
</event>
<event>
 4    1 -0.7308497E-004  0.1879712E+03  0.7818608E-02  0.1160304E+00
          5   -1    0    0  501    0  0.00000000000E+00  0.00000000000E+00  0.14101845946E+03  0.14109676080E+03  0.47000000000E+01 0. -1.
         -5   -1    0    0    0  501 -0.00000000000E+00 -0.00000000000E+00 -0.61818361553E+03  0.61820148213E+03  0.47000000000E+01 0.  1.
          6    1    1    2  502    0  0.57704641501E+02 -0.49186812805E+02  0.54229540067E+02  0.19563744841E+03  0.17200000000E+03 0. -1.
         -6    1    1    2    0  502 -0.57704641501E+02  0.49186812805E+02 -0.53139469614E+03  0.56366079453E+03  0.17200000000E+03 0.  1.
</event>
<event>
 4    1 -0.7308497E-004  0.1889852E+03  0.7818608E-02  0.1159380E+00
          5   -1    0    0  501    0  0.00000000000E+00  0.00000000000E+00  0.50368684388E+02  0.50587492199E+02  0.47000000000E+01 0. -1.
         -5   -1    0    0    0  501 -0.00000000000E+00 -0.00000000000E+00 -0.84084542877E+03  0.84085856425E+03  0.47000000000E+01 0.  1.
          6    1    1    2  502    0 -0.57444312543E+02 -0.53212455116E+02 -0.21764171668E+03  0.28824179305E+03  0.17200000000E+03 0.  1.
         -6    1    1    2    0  502  0.57444312543E+02  0.53212455116E+02 -0.57283502770E+03  0.60320426340E+03  0.17200000000E+03 0.  1.
</event>
<event>
 4    1 -0.7308497E-004  0.4848437E+03  0.7818608E-02  0.1017812E+00
         -5   -1    0    0    0  501 -0.00000000000E+00  0.00000000000E+00  0.30569442092E+03  0.30573054964E+03  0.47000000000E+01 0.  1.
          5   -1    0    0  501    0  0.00000000000E+00 -0.00000000000E+00 -0.10948300863E+04  0.10948401746E+04  0.47000000000E+01 0. -1.
          6    1    1    2  502    0 -0.26696875369E+03 -0.36635652127E+03 -0.77665197856E+03  0.91556633398E+03  0.17200000000E+03 0. -1.
         -6    1    1    2    0  502  0.26696875369E+03  0.36635652127E+03 -0.12483686826E+02  0.48500439025E+03  0.17200000000E+03 0. -1.
</event>
<event>
 4    1 -0.7308497E-004  0.1763660E+03  0.7818608E-02  0.1171367E+00
         -5   -1    0    0    0  501 -0.00000000000E+00  0.00000000000E+00  0.10217829681E+04  0.10217937776E+04  0.47000000000E+01 0.  1.
          5   -1    0    0  501    0  0.00000000000E+00 -0.00000000000E+00 -0.10274002027E+03  0.10284746845E+03  0.47000000000E+01 0. -1.
          6    1    1    2  502    0  0.16628932765E+01  0.38964250117E+02 -0.12254337245E+02  0.17679125200E+03  0.17200000000E+03 0. -1.
         -6    1    1    2    0  502 -0.16628932765E+01 -0.38964250117E+02  0.93129728511E+03  0.94784999407E+03  0.17200000000E+03 0.  1.
</event>
<event>
 4    1 -0.7308497E-004  0.2702012E+03  0.7818608E-02  0.1101165E+00
         -5   -1    0    0    0  501 -0.00000000000E+00  0.00000000000E+00  0.45911405603E+03  0.45913811261E+03  0.47000000000E+01 0.  1.
          5   -1    0    0  501    0  0.00000000000E+00 -0.00000000000E+00 -0.11934213116E+04  0.11934305665E+04  0.47000000000E+01 0. -1.
          6    1    1    2  502    0  0.20104213054E+03  0.54833605761E+02 -0.11364234175E+04  0.11681039536E+04  0.17200000000E+03 0. -1.
         -6    1    1    2    0  502 -0.20104213054E+03 -0.54833605761E+02  0.40211616192E+03  0.48446472549E+03  0.17200000000E+03 0.  1.
</event>
<event>
 4    1 -0.7308497E-004  0.2106305E+03  0.7818608E-02  0.1141068E+00
          5   -1    0    0  501    0  0.00000000000E+00  0.00000000000E+00  0.50325781584E+03  0.50327976237E+03  0.47000000000E+01 0. -1.
         -5   -1    0    0    0  501 -0.00000000000E+00 -0.00000000000E+00 -0.17044824636E+03  0.17051303378E+03  0.47000000000E+01 0.  1.
          6    1    1    2  502    0 -0.33039964175E+02 -0.11700234915E+03  0.40053571427E+03  0.45254176309E+03  0.17200000000E+03 0. -1.
         -6    1    1    2    0  502  0.33039964175E+02  0.11700234915E+03 -0.67726144782E+02  0.22125103305E+03  0.17200000000E+03 0.  1.
</event>
<event>
 4    1 -0.7308497E-004  0.2003525E+03  0.7818608E-02  0.1149442E+00
         -5   -1    0    0    0  501 -0.00000000000E+00  0.00000000000E+00  0.84445999202E+02  0.84576691713E+02  0.47000000000E+01 0.  1.
          5   -1    0    0  501    0  0.00000000000E+00 -0.00000000000E+00 -0.53521763258E+03  0.53523826865E+03  0.47000000000E+01 0. -1.
          6    1    1    2  502    0 -0.78937373342E+02 -0.65772323031E+02 -0.32946293104E+03  0.38559944283E+03  0.17200000000E+03 0. -1.
         -6    1    1    2    0  502  0.78937373342E+02  0.65772323031E+02 -0.12130870235E+03  0.23421551753E+03  0.17200000000E+03 0.  1.
</event>
<event>
 4    1 -0.7308497E-004  0.1781755E+03  0.7818608E-02  0.1169581E+00
         -5   -1    0    0    0  501 -0.00000000000E+00  0.00000000000E+00  0.38879839418E+03  0.38882680118E+03  0.47000000000E+01 0.  1.
          5   -1    0    0  501    0  0.00000000000E+00 -0.00000000000E+00 -0.82525987437E+02  0.82659715717E+02  0.47000000000E+01 0. -1.
          6    1    1    2  502    0  0.34052330334E+01  0.46377866716E+02  0.12757460126E+03  0.21913872552E+03  0.17200000000E+03 0. -1.
         -6    1    1    2    0  502 -0.34052330334E+01 -0.46377866716E+02  0.17869780548E+03  0.25234779139E+03  0.17200000000E+03 0.  1.
</event>
<event>
 4    1 -0.7308497E-004  0.1877090E+03  0.7818608E-02  0.1160544E+00
         -5   -1    0    0    0  501 -0.00000000000E+00  0.00000000000E+00  0.62075921150E+03  0.62077700398E+03  0.47000000000E+01 0.  1.
          5   -1    0    0  501    0  0.00000000000E+00 -0.00000000000E+00 -0.11611379858E+03  0.11620888185E+03  0.47000000000E+01 0. -1.
          6    1    1    2  502    0  0.61625611116E+02  0.43046096450E+02 -0.11206615681E+02  0.18804326789E+03  0.17200000000E+03 0. -1.
         -6    1    1    2    0  502 -0.61625611116E+02 -0.43046096450E+02  0.51585202860E+03  0.54894261793E+03  0.17200000000E+03 0.  1.
</event>
<event>
 4    1 -0.7308497E-004  0.2322592E+03  0.7818608E-02  0.1125060E+00
          5   -1    0    0  501    0  0.00000000000E+00  0.00000000000E+00  0.22240309125E+03  0.22245274779E+03  0.47000000000E+01 0. -1.
         -5   -1    0    0    0  501 -0.00000000000E+00 -0.00000000000E+00 -0.37153530298E+03  0.37156502979E+03  0.47000000000E+01 0.  1.
          6    1    1    2  502    0 -0.85369458635E+02  0.13066133155E+03  0.10048001557E+03  0.25306236693E+03  0.17200000000E+03 0. -1.
         -6    1    1    2    0  502  0.85369458635E+02 -0.13066133155E+03 -0.24961222729E+03  0.34095541064E+03  0.17200000000E+03 0.  1.
</event>
<event>
 4    1 -0.7308497E-004  0.1762530E+03  0.7818608E-02  0.1171479E+00
         -5   -1    0    0    0  501 -0.00000000000E+00  0.00000000000E+00  0.35915114080E+03  0.35918189255E+03  0.47000000000E+01 0.  1.
          5   -1    0    0  501    0  0.00000000000E+00 -0.00000000000E+00 -0.21109129772E+03  0.21114361457E+03  0.47000000000E+01 0. -1.
          6    1    1    2  502    0 -0.16983499082E+02 -0.34535169664E+02 -0.14507676696E+03  0.22828137352E+03  0.17200000000E+03 0. -1.
         -6    1    1    2    0  502  0.16983499082E+02  0.34535169664E+02  0.29313661004E+03  0.34204413360E+03  0.17200000000E+03 0.  1.
</event>
<event>
 4    1 -0.7308497E-004  0.1750700E+03  0.7818608E-02  0.1172661E+00
         -5   -1    0    0    0  501 -0.00000000000E+00  0.00000000000E+00  0.62837049403E+02  0.63012576345E+02  0.47000000000E+01 0.  1.
          5   -1    0    0  501    0  0.00000000000E+00 -0.00000000000E+00 -0.10014449721E+04  0.10014560011E+04  0.47000000000E+01 0. -1.
          6    1    1    2  502    0  0.32165042876E+02  0.55591767568E+01 -0.85077506821E+03  0.86860100801E+03  0.17200000000E+03 0. -1.
         -6    1    1    2    0  502 -0.32165042876E+02 -0.55591767568E+01 -0.87832854486E+02  0.19586756944E+03  0.17200000000E+03 0.  1.
</event>
<event>
 4    1 -0.7308497E-004  0.1768810E+03  0.7818608E-02  0.1170856E+00
          5   -1    0    0  501    0  0.00000000000E+00  0.00000000000E+00  0.11481662428E+03  0.11491278089E+03  0.47000000000E+01 0. -1.
         -5   -1    0    0    0  501 -0.00000000000E+00 -0.00000000000E+00 -0.28561607560E+03  0.28565474377E+03  0.47000000000E+01 0.  1.
          6    1    1    2  502    0 -0.38755979970E+02  0.14172130706E+02 -0.42105601505E+02  0.18182342245E+03  0.17200000000E+03 0.  1.
         -6    1    1    2    0  502  0.38755979970E+02 -0.14172130706E+02 -0.12869384981E+03  0.21874410221E+03  0.17200000000E+03 0.  1.
</event>
<event>
 4    1 -0.7308497E-004  0.1845926E+03  0.7818608E-02  0.1163431E+00
         -5   -1    0    0    0  501 -0.00000000000E+00  0.00000000000E+00  0.83440516682E+02  0.83572781598E+02  0.47000000000E+01 0.  1.
          5   -1    0    0  501    0  0.00000000000E+00 -0.00000000000E+00 -0.48663863011E+03  0.48666132610E+03  0.47000000000E+01 0. -1.
          6    1    1    2  502    0  0.60676478174E+02  0.28438972234E+02 -0.31626856544E+03  0.36619696289E+03  0.17200000000E+03 0. -1.
         -6    1    1    2    0  502 -0.60676478174E+02 -0.28438972234E+02 -0.86929547989E+02  0.20403714480E+03  0.17200000000E+03 0.  1.
</event>
<event>
 4    1 -0.7308497E-004  0.1720321E+03  0.7818608E-02  0.1175745E+00
          5   -1    0    0  501    0  0.00000000000E+00  0.00000000000E+00  0.12583891707E+03  0.12592665742E+03  0.47000000000E+01 0. -1.
         -5   -1    0    0    0  501 -0.00000000000E+00 -0.00000000000E+00 -0.23842506508E+03  0.23847138540E+03  0.47000000000E+01 0.  1.
          6    1    1    2  502    0  0.58049804057E+00 -0.32708264162E+01 -0.34425629866E+02  0.17544275213E+03  0.17200000000E+03 0. -1.
         -6    1    1    2    0  502 -0.58049804057E+00  0.32708264162E+01 -0.78160518144E+02  0.18895529069E+03  0.17200000000E+03 0.  1.
</event>
<event>
 4    1 -0.7308497E-004  0.4215699E+03  0.7818608E-02  0.1036557E+00
         -5   -1    0    0    0  501 -0.00000000000E+00  0.00000000000E+00  0.95083754987E+03  0.95084916588E+03  0.47000000000E+01 0.  1.
          5   -1    0    0  501    0  0.00000000000E+00 -0.00000000000E+00 -0.47856069634E+03  0.47858377541E+03  0.47000000000E+01 0. -1.
          6    1    1    2  502    0  0.38362817023E+03  0.31089845770E+02 -0.32182314164E+03  0.53036900928E+03  0.17200000000E+03 0. -1.
         -6    1    1    2    0  502 -0.38362817023E+03 -0.31089845770E+02  0.79409999517E+03  0.89906393201E+03  0.17200000000E+03 0.  1.
</event>
<event>
 4    1 -0.7308497E-004  0.2077506E+03  0.7818608E-02  0.1143360E+00
         -5   -1    0    0    0  501 -0.00000000000E+00  0.00000000000E+00  0.29114766297E+03  0.29118559658E+03  0.47000000000E+01 0.  1.
          5   -1    0    0  501    0  0.00000000000E+00 -0.00000000000E+00 -0.10477861781E+04  0.10477967193E+04  0.47000000000E+01 0. -1.
          6    1    1    2  502    0 -0.27787629616E+02 -0.11315552688E+03 -0.99865036010E+03  0.10200308169E+04  0.17200000000E+03 0. -1.
         -6    1    1    2    0  502  0.27787629616E+02  0.11315552688E+03  0.24201184498E+03  0.31895149903E+03  0.17200000000E+03 0.  1.
</event>
<event>
 4    1 -0.7308497E-004  0.2019175E+03  0.7818608E-02  0.1148131E+00
          5   -1    0    0  501    0  0.00000000000E+00  0.00000000000E+00  0.22958932618E+03  0.22963742878E+03  0.47000000000E+01 0. -1.
         -5   -1    0    0    0  501 -0.00000000000E+00 -0.00000000000E+00 -0.28022832988E+03  0.28026774140E+03  0.47000000000E+01 0.  1.
          6    1    1    2  502    0 -0.10513235900E+03 -0.11569733039E+02  0.12903087500E+03  0.23962395192E+03  0.17200000000E+03 0. -1.
         -6    1    1    2    0  502  0.10513235900E+03  0.11569733039E+02 -0.17966987870E+03  0.27028121826E+03  0.17200000000E+03 0.  1.
</event>
<event>
 4    1 -0.7308497E-004  0.1939239E+03  0.7818608E-02  0.1154969E+00
          5   -1    0    0  501    0  0.00000000000E+00  0.00000000000E+00  0.19431170546E+03  0.19436853880E+03  0.47000000000E+01 0. -1.
         -5   -1    0    0    0  501 -0.00000000000E+00 -0.00000000000E+00 -0.67119689765E+03  0.67121335313E+03  0.47000000000E+01 0.  1.
          6    1    1    2  502    0  0.80596276194E+02  0.39073113033E+02  0.12667609285E+03  0.23163182078E+03  0.17200000000E+03 0. -1.
         -6    1    1    2    0  502 -0.80596276194E+02 -0.39073113033E+02 -0.60356128505E+03  0.63395007115E+03  0.17200000000E+03 0.  1.
</event>
<event>
 4    1 -0.7308497E-004  0.1737818E+03  0.7818608E-02  0.1173960E+00
          5   -1    0    0  501    0  0.00000000000E+00  0.00000000000E+00  0.16377517960E+02  0.17038576658E+02  0.47000000000E+01 0. -1.
         -5   -1    0    0    0  501 -0.00000000000E+00 -0.00000000000E+00 -0.18873448737E+04  0.18873507258E+04  0.47000000000E+01 0.  1.
          6    1    1    2  502    0  0.24740771223E+02  0.20061618179E+01 -0.73888000256E+03  0.75904136160E+03  0.17200000000E+03 0. -1.
         -6    1    1    2    0  502 -0.24740771223E+02 -0.20061618179E+01 -0.11320873532E+04  0.11453479409E+04  0.17200000000E+03 0.  1.
</event>
<event>
 4    1 -0.7308497E-004  0.2127416E+03  0.7818608E-02  0.1139413E+00
         -5   -1    0    0    0  501 -0.00000000000E+00  0.00000000000E+00  0.56931383606E+03  0.56933323628E+03  0.47000000000E+01 0.  1.
          5   -1    0    0  501    0  0.00000000000E+00 -0.00000000000E+00 -0.19575577302E+03  0.19581218724E+03  0.47000000000E+01 0. -1.
          6    1    1    2  502    0  0.95013109433E+02  0.81532216858E+02 -0.10807520468E+03  0.23861945272E+03  0.17200000000E+03 0. -1.
         -6    1    1    2    0  502 -0.95013109433E+02 -0.81532216858E+02  0.48163326772E+03  0.52652597080E+03  0.17200000000E+03 0.  1.
</event>
<event>
 4    1 -0.7308497E-004  0.1951000E+03  0.7818608E-02  0.1153940E+00
          5   -1    0    0  501    0  0.00000000000E+00  0.00000000000E+00  0.41953547956E+03  0.41956180547E+03  0.47000000000E+01 0. -1.
         -5   -1    0    0    0  501 -0.00000000000E+00 -0.00000000000E+00 -0.15230068543E+03  0.15237318919E+03  0.47000000000E+01 0.  1.
          6    1    1    2  502    0  0.39874262176E+02 -0.83006255128E+02  0.31550286748E+03  0.37095290073E+03  0.17200000000E+03 0. -1.
         -6    1    1    2    0  502 -0.39874262176E+02  0.83006255128E+02 -0.48268073352E+02  0.20098209393E+03  0.17200000000E+03 0.  1.
</event>
<event>
 4    1 -0.7308497E-004  0.2529966E+03  0.7818608E-02  0.1111426E+00
         -5   -1    0    0    0  501 -0.00000000000E+00  0.00000000000E+00  0.40447621221E+03  0.40450351821E+03  0.47000000000E+01 0.  1.
          5   -1    0    0  501    0  0.00000000000E+00 -0.00000000000E+00 -0.53027085721E+03  0.53029168578E+03  0.47000000000E+01 0. -1.
          6    1    1    2  502    0 -0.79459570117E+02 -0.16765868299E+03 -0.45439800561E+03  0.52008153666E+03  0.17200000000E+03 0. -1.
         -6    1    1    2    0  502  0.79459570117E+02  0.16765868299E+03  0.32860336061E+03  0.41471366733E+03  0.17200000000E+03 0.  1.
</event>
<event>
 4    1 -0.7308497E-004  0.1813201E+03  0.7818608E-02  0.1166531E+00
         -5   -1    0    0    0  501 -0.00000000000E+00  0.00000000000E+00  0.27855562932E+02  0.28249290013E+02  0.47000000000E+01 0.  1.
          5   -1    0    0  501    0  0.00000000000E+00 -0.00000000000E+00 -0.17909357583E+04  0.17909419255E+04  0.47000000000E+01 0. -1.
          6    1    1    2  502    0 -0.53210098832E+02  0.21486680523E+02 -0.14163849920E+04  0.14279437796E+04  0.17200000000E+03 0. -1.
         -6    1    1    2    0  502  0.53210098832E+02 -0.21486680523E+02 -0.34669520337E+03  0.39124743590E+03  0.17200000000E+03 0.  1.
</event>
<event>
 4    1 -0.7308497E-004  0.3366982E+03  0.7818608E-02  0.1068211E+00
          5   -1    0    0  501    0  0.00000000000E+00  0.00000000000E+00  0.25044449788E+03  0.25048859559E+03  0.47000000000E+01 0. -1.
         -5   -1    0    0    0  501 -0.00000000000E+00 -0.00000000000E+00 -0.11472099729E+04  0.11472196006E+04  0.47000000000E+01 0.  1.
          6    1    1    2  502    0  0.24308085666E+03 -0.15714121466E+03  0.95413221511E+02  0.34995620734E+03  0.17200000000E+03 0. -1.
         -6    1    1    2    0  502 -0.24308085666E+03  0.15714121466E+03 -0.99217869652E+03  0.10477519888E+04  0.17200000000E+03 0.  1.
</event>
<event>
 4    1 -0.7308497E-004  0.1874161E+03  0.7818608E-02  0.1160813E+00
         -5   -1    0    0    0  501 -0.00000000000E+00  0.00000000000E+00  0.69092286072E+02  0.69251960222E+02  0.47000000000E+01 0.  1.
          5   -1    0    0  501    0  0.00000000000E+00 -0.00000000000E+00 -0.15484186186E+04  0.15484257517E+04  0.47000000000E+01 0. -1.
          6    1    1    2  502    0 -0.41843409213E+02  0.61562402163E+02 -0.14027603821E+04  0.14152248902E+04  0.17200000000E+03 0. -1.
         -6    1    1    2    0  502  0.41843409213E+02 -0.61562402163E+02 -0.76565950468E+02  0.20245282173E+03  0.17200000000E+03 0.  1.
</event>
<event>
 4    1 -0.7308497E-004  0.2024578E+03  0.7818608E-02  0.1147682E+00
          5   -1    0    0  501    0  0.00000000000E+00  0.00000000000E+00  0.59047312456E+03  0.59049182961E+03  0.47000000000E+01 0. -1.
         -5   -1    0    0    0  501 -0.00000000000E+00 -0.00000000000E+00 -0.31806035155E+03  0.31809507577E+03  0.47000000000E+01 0.  1.
          6    1    1    2  502    0  0.10673871215E+03 -0.34626817542E+01  0.53788394688E+03  0.57472452805E+03  0.17200000000E+03 0. -1.
         -6    1    1    2    0  502 -0.10673871215E+03  0.34626817542E+01 -0.26547117386E+03  0.33386237732E+03  0.17200000000E+03 0.  1.
</event>
<event>
 4    1 -0.7308497E-004  0.2868207E+03  0.7818608E-02  0.1092021E+00
         -5   -1    0    0    0  501 -0.00000000000E+00  0.00000000000E+00  0.14489115980E+03  0.14496736939E+03  0.47000000000E+01 0.  1.
          5   -1    0    0  501    0  0.00000000000E+00 -0.00000000000E+00 -0.73080226575E+03  0.73081737913E+03  0.47000000000E+01 0. -1.
          6    1    1    2  502    0  0.86386901769E+02 -0.21264851548E+03 -0.49991163114E+03  0.57634861576E+03  0.17200000000E+03 0. -1.
         -6    1    1    2    0  502 -0.86386901769E+02  0.21264851548E+03 -0.85999474812E+02  0.29943613276E+03  0.17200000000E+03 0.  1.
</event>
<event>
 4    1 -0.7308497E-004  0.1892569E+03  0.7818608E-02  0.1159133E+00
         -5   -1    0    0    0  501 -0.00000000000E+00  0.00000000000E+00  0.34565594797E+03  0.34568790023E+03  0.47000000000E+01 0.  1.
          5   -1    0    0  501    0  0.00000000000E+00 -0.00000000000E+00 -0.12405285381E+03  0.12414185651E+03  0.47000000000E+01 0. -1.
          6    1    1    2  502    0  0.33766955722E+02 -0.71371924078E+02  0.15311066027E+02  0.18987518950E+03  0.17200000000E+03 0. -1.
         -6    1    1    2    0  502 -0.33766955722E+02  0.71371924078E+02  0.20629202814E+03  0.27995456724E+03  0.17200000000E+03 0.  1.
</event>
<event>
 4    1 -0.7308497E-004  0.2359139E+03  0.7818608E-02  0.1122545E+00
          5   -1    0    0  501    0  0.00000000000E+00  0.00000000000E+00  0.95489046774E+03  0.95490203445E+03  0.47000000000E+01 0. -1.
         -5   -1    0    0    0  501 -0.00000000000E+00 -0.00000000000E+00 -0.41068632732E+03  0.41071322045E+03  0.47000000000E+01 0.  1.
          6    1    1    2  502    0 -0.61485541461E+02  0.14930131316E+03  0.90460813797E+03  0.93486428812E+03  0.17200000000E+03 0. -1.
         -6    1    1    2    0  502  0.61485541461E+02 -0.14930131316E+03 -0.36040399755E+03  0.43075096677E+03  0.17200000000E+03 0.  1.
</event>
<event>
 4    1 -0.7308497E-004  0.2031377E+03  0.7818608E-02  0.1147118E+00
         -5   -1    0    0    0  501 -0.00000000000E+00  0.00000000000E+00  0.15350510681E+04  0.15350582632E+04  0.47000000000E+01 0.  1.
          5   -1    0    0  501    0  0.00000000000E+00 -0.00000000000E+00 -0.22084220036E+03  0.22089220779E+03  0.47000000000E+01 0. -1.
          6    1    1    2  502    0  0.89664235641E+02 -0.60342876867E+02 -0.16571061397E+03  0.26215443068E+03  0.17200000000E+03 0. -1.
         -6    1    1    2    0  502 -0.89664235641E+02  0.60342876867E+02  0.14799194817E+04  0.14937960404E+04  0.17200000000E+03 0.  1.
</event>
<event>
 4    1 -0.7308497E-004  0.3621786E+03  0.7818608E-02  0.1057725E+00
         -5   -1    0    0    0  501 -0.00000000000E+00  0.00000000000E+00  0.94052336173E+03  0.94053510512E+03  0.47000000000E+01 0.  1.
          5   -1    0    0  501    0  0.00000000000E+00 -0.00000000000E+00 -0.14711555245E+04  0.14711630322E+04  0.47000000000E+01 0. -1.
          6    1    1    2  502    0 -0.13279524278E+03  0.28974948970E+03 -0.14125847443E+04  0.14582760380E+04  0.17200000000E+03 0. -1.
         -6    1    1    2    0  502  0.13279524278E+03 -0.28974948970E+03  0.88195258153E+03  0.95342209926E+03  0.17200000000E+03 0.  1.
</event>
<event>
 4    1 -0.7308497E-004  0.1858993E+03  0.7818608E-02  0.1162213E+00
          5   -1    0    0  501    0  0.00000000000E+00  0.00000000000E+00  0.24629964157E+02  0.25074392004E+02  0.47000000000E+01 0. -1.
         -5   -1    0    0    0  501 -0.00000000000E+00 -0.00000000000E+00 -0.15850466568E+04  0.15850536250E+04  0.47000000000E+01 0.  1.
          6    1    1    2  502    0  0.40732495690E+02 -0.57579476863E+02 -0.49792284906E+03  0.53149383437E+03  0.17200000000E+03 0. -1.
         -6    1    1    2    0  502 -0.40732495690E+02  0.57579476863E+02 -0.10624938436E+04  0.10786341826E+04  0.17200000000E+03 0.  1.
</event>
<event>
 4    1 -0.7308497E-004  0.1725185E+03  0.7818608E-02  0.1175247E+00
         -5   -1    0    0    0  501 -0.00000000000E+00  0.00000000000E+00  0.96591835003E+03  0.96592978467E+03  0.47000000000E+01 0.  1.
          5   -1    0    0  501    0  0.00000000000E+00 -0.00000000000E+00 -0.68192529792E+02  0.68354305785E+02  0.47000000000E+01 0. -1.
          6    1    1    2  502    0 -0.48499711135E+01  0.12453878837E+02  0.65771313585E+02  0.18463067732E+03  0.17200000000E+03 0. -1.
         -6    1    1    2    0  502  0.48499711135E+01 -0.12453878837E+02  0.83195450665E+03  0.84965341314E+03  0.17200000000E+03 0.  1.
</event>
<event>
 4    1 -0.7308497E-004  0.2254507E+03  0.7818608E-02  0.1129883E+00
         -5   -1    0    0    0  501 -0.00000000000E+00  0.00000000000E+00  0.31173306949E+03  0.31176849844E+03  0.47000000000E+01 0.  1.
          5   -1    0    0  501    0  0.00000000000E+00 -0.00000000000E+00 -0.12776816175E+04  0.12776902621E+04  0.47000000000E+01 0. -1.
          6    1    1    2  502    0  0.71843603561E+02 -0.12681693421E+03 -0.12252691144E+04  0.12458380476E+04  0.17200000000E+03 0. -1.
         -6    1    1    2    0  502 -0.71843603561E+02  0.12681693421E+03  0.25932056637E+03  0.34362071288E+03  0.17200000000E+03 0.  1.
</event>
<event>
 4    1 -0.7308497E-004  0.2213444E+03  0.7818608E-02  0.1132885E+00
          5   -1    0    0  501    0  0.00000000000E+00  0.00000000000E+00  0.10396112166E+04  0.10396218407E+04  0.47000000000E+01 0. -1.
         -5   -1    0    0    0  501 -0.00000000000E+00 -0.00000000000E+00 -0.10746335552E+03  0.10756608564E+03  0.47000000000E+01 0.  1.
          6    1    1    2  502    0  0.58591751010E+02  0.12639754137E+03  0.89597052808E+03  0.92290656025E+03  0.17200000000E+03 0. -1.
         -6    1    1    2    0  502 -0.58591751010E+02 -0.12639754137E+03  0.36177332970E+02  0.22428136608E+03  0.17200000000E+03 0.  1.
</event>
<event>
 4    1 -0.7308497E-004  0.2811460E+03  0.7818608E-02  0.1095065E+00
          5   -1    0    0  501    0  0.00000000000E+00  0.00000000000E+00  0.14094275680E+03  0.14102110018E+03  0.47000000000E+01 0. -1.
         -5   -1    0    0    0  501 -0.00000000000E+00 -0.00000000000E+00 -0.57441676381E+03  0.57443599169E+03  0.47000000000E+01 0.  1.
          6    1    1    2  502    0  0.69870976759E+02 -0.21113300644E+03 -0.16120672750E+03  0.32408441615E+03  0.17200000000E+03 0. -1.
         -6    1    1    2    0  502 -0.69870976759E+02  0.21113300644E+03 -0.27226727951E+03  0.39137267571E+03  0.17200000000E+03 0.  1.
</event>
<event>
 4    1 -0.7308497E-004  0.1831390E+03  0.7818608E-02  0.1164799E+00
          5   -1    0    0  501    0  0.00000000000E+00  0.00000000000E+00  0.88438594250E+02  0.88563395107E+02  0.47000000000E+01 0. -1.
         -5   -1    0    0    0  501 -0.00000000000E+00 -0.00000000000E+00 -0.68772519402E+03  0.68774125403E+03  0.47000000000E+01 0.  1.
          6    1    1    2  502    0  0.27174823946E+02 -0.56722206020E+02 -0.39538659430E+02  0.18735844070E+03  0.17200000000E+03 0. -1.
         -6    1    1    2    0  502 -0.27174823946E+02  0.56722206020E+02 -0.55974794034E+03  0.58894620843E+03  0.17200000000E+03 0.  1.
</event>
<event>
 4    1 -0.7308497E-004  0.2025879E+03  0.7818608E-02  0.1147574E+00
          5   -1    0    0  501    0  0.00000000000E+00  0.00000000000E+00  0.32844540126E+03  0.32847902765E+03  0.47000000000E+01 0. -1.
         -5   -1    0    0    0  501 -0.00000000000E+00 -0.00000000000E+00 -0.22274048607E+03  0.22279006740E+03  0.47000000000E+01 0.  1.
          6    1    1    2  502    0 -0.93748559078E+02  0.51663174637E+02  0.23551587563E+03  0.31065994852E+03  0.17200000000E+03 0. -1.
         -6    1    1    2    0  502  0.93748559078E+02 -0.51663174637E+02 -0.12981096044E+03  0.24060914653E+03  0.17200000000E+03 0.  1.
</event>
<event>
 4    1 -0.7308497E-004  0.2957067E+03  0.7818608E-02  0.1087407E+00
         -5   -1    0    0    0  501 -0.00000000000E+00  0.00000000000E+00  0.85246578703E+03  0.85247874346E+03  0.47000000000E+01 0.  1.
          5   -1    0    0  501    0  0.00000000000E+00 -0.00000000000E+00 -0.64194116932E+03  0.64195837472E+03  0.47000000000E+01 0. -1.
          6    1    1    2  502    0 -0.23072644172E+03  0.67998327054E+02 -0.57966300413E+03  0.65073163574E+03  0.17200000000E+03 0. -1.
         -6    1    1    2    0  502  0.23072644172E+03 -0.67998327054E+02  0.79018762184E+03  0.84370548244E+03  0.17200000000E+03 0.  1.
</event>
<event>
 4    1 -0.7308497E-004  0.1968919E+03  0.7818608E-02  0.1152388E+00
          5   -1    0    0  501    0  0.00000000000E+00  0.00000000000E+00  0.20274752377E+03  0.20280199308E+03  0.47000000000E+01 0. -1.
         -5   -1    0    0    0  501 -0.00000000000E+00 -0.00000000000E+00 -0.12019014719E+04  0.12019106615E+04  0.47000000000E+01 0.  1.
          6    1    1    2  502    0  0.54581547726E+02  0.78760849769E+02  0.14450462996E+03  0.24422941037E+03  0.17200000000E+03 0. -1.
         -6    1    1    2    0  502 -0.54581547726E+02 -0.78760849769E+02 -0.11436585781E+04  0.11604832442E+04  0.17200000000E+03 0.  1.
</event>
<event>
 4    1 -0.7308497E-004  0.2405477E+03  0.7818608E-02  0.1119429E+00
          5   -1    0    0  501    0  0.00000000000E+00  0.00000000000E+00  0.42217458236E+03  0.42220074372E+03  0.47000000000E+01 0. -1.
         -5   -1    0    0    0  501 -0.00000000000E+00 -0.00000000000E+00 -0.34901747095E+03  0.34904911549E+03  0.47000000000E+01 0.  1.
          6    1    1    2  502    0 -0.36483860311E+02 -0.16415880598E+03  0.33710816915E+03  0.41413174637E+03  0.17200000000E+03 0. -1.
         -6    1    1    2    0  502  0.36483860311E+02  0.16415880598E+03 -0.26395105773E+03  0.35711811284E+03  0.17200000000E+03 0.  1.
</event>
<event>
 4    1 -0.7308497E-004  0.3188210E+03  0.7818608E-02  0.1076193E+00
          5   -1    0    0  501    0  0.00000000000E+00  0.00000000000E+00  0.34596065036E+03  0.34599257448E+03  0.47000000000E+01 0. -1.
         -5   -1    0    0    0  501 -0.00000000000E+00 -0.00000000000E+00 -0.82587662955E+03  0.82589000311E+03  0.47000000000E+01 0.  1.
          6    1    1    2  502    0 -0.46389224652E+02  0.26440662571E+03  0.23035883397E+03  0.39333448396E+03  0.17200000000E+03 0. -1.
         -6    1    1    2    0  502  0.46389224652E+02 -0.26440662571E+03 -0.71027481317E+03  0.77854809363E+03  0.17200000000E+03 0.  1.
</event>
<event>
 4    1 -0.7308497E-004  0.2126005E+03  0.7818608E-02  0.1139523E+00
          5   -1    0    0  501    0  0.00000000000E+00  0.00000000000E+00  0.19016757682E+03  0.19022564830E+03  0.47000000000E+01 0. -1.
         -5   -1    0    0    0  501 -0.00000000000E+00 -0.00000000000E+00 -0.62679164268E+03  0.62680926392E+03  0.47000000000E+01 0.  1.
          6    1    1    2  502    0  0.11435128402E+03  0.50385963876E+02  0.10358778360E+03  0.23649395431E+03  0.17200000000E+03 0. -1.
         -6    1    1    2    0  502 -0.11435128402E+03 -0.50385963876E+02 -0.54021184947E+03  0.58054095791E+03  0.17200000000E+03 0.  1.
</event>
<event>
 4    1 -0.7308497E-004  0.2028514E+03  0.7818608E-02  0.1147355E+00
         -5   -1    0    0    0  501 -0.00000000000E+00  0.00000000000E+00  0.56344468155E+03  0.56346428384E+03  0.47000000000E+01 0.  1.
          5   -1    0    0  501    0  0.00000000000E+00 -0.00000000000E+00 -0.14196326092E+03  0.14204104143E+03  0.47000000000E+01 0. -1.
          6    1    1    2  502    0 -0.52421326629E+02  0.93897339868E+02 -0.35122502471E+02  0.20586960946E+03  0.17200000000E+03 0. -1.
         -6    1    1    2    0  502  0.52421326629E+02 -0.93897339868E+02  0.45660392310E+03  0.49963571581E+03  0.17200000000E+03 0.  1.
</event>
<event>
 4    1 -0.7308497E-004  0.2060594E+03  0.7818608E-02  0.1144725E+00
          5   -1    0    0  501    0  0.00000000000E+00  0.00000000000E+00  0.10319542421E+04  0.10319649450E+04  0.47000000000E+01 0. -1.
         -5   -1    0    0    0  501 -0.00000000000E+00 -0.00000000000E+00 -0.74725919756E+02  0.74873580677E+02  0.47000000000E+01 0.  1.
          6    1    1    2  502    0 -0.42516973604E+02 -0.10520821458E+03  0.84986063507E+03  0.87448474001E+03  0.17200000000E+03 0. -1.
         -6    1    1    2    0  502  0.42516973604E+02  0.10520821458E+03  0.10736768726E+03  0.23235378569E+03  0.17200000000E+03 0. -1.
</event>
<event>
 4    1 -0.7308497E-004  0.1793418E+03  0.7818608E-02  0.1168442E+00
         -5   -1    0    0    0  501 -0.00000000000E+00  0.00000000000E+00  0.23249453484E+02  0.23719761535E+02  0.47000000000E+01 0.  1.
          5   -1    0    0  501    0  0.00000000000E+00 -0.00000000000E+00 -0.20754472726E+04  0.20754525943E+04  0.47000000000E+01 0. -1.
          6    1    1    2  502    0  0.27099587043E+02 -0.42954506531E+02 -0.16383467083E+04  0.16481333119E+04  0.17200000000E+03 0. -1.
         -6    1    1    2    0  502 -0.27099587043E+02  0.42954506531E+02 -0.41385111081E+03  0.45103904395E+03  0.17200000000E+03 0.  1.
</event>
<event>
 4    1 -0.7308497E-004  0.1767307E+03  0.7818608E-02  0.1171005E+00
          5   -1    0    0  501    0  0.00000000000E+00  0.00000000000E+00  0.38394786909E+02  0.38681386503E+02  0.47000000000E+01 0. -1.
         -5   -1    0    0    0  501 -0.00000000000E+00 -0.00000000000E+00 -0.92933937447E+03  0.92935125918E+03  0.47000000000E+01 0.  1.
          6    1    1    2  502    0 -0.15715493018E+02 -0.37453334616E+02 -0.27217796878E+03  0.32452207272E+03  0.17200000000E+03 0. -1.
         -6    1    1    2    0  502  0.15715493018E+02  0.37453334616E+02 -0.61876661879E+03  0.64351057297E+03  0.17200000000E+03 0.  1.
</event>
<event>
 4    1 -0.7308497E-004  0.2005592E+03  0.7818608E-02  0.1149268E+00
          5   -1    0    0  501    0  0.00000000000E+00  0.00000000000E+00  0.49423439989E+03  0.49425674708E+03  0.47000000000E+01 0. -1.
         -5   -1    0    0    0  501 -0.00000000000E+00 -0.00000000000E+00 -0.12242027919E+03  0.12251046795E+03  0.47000000000E+01 0.  1.
          6    1    1    2  502    0 -0.10032478622E+03  0.23977891595E+02  0.36454847797E+03  0.41607642904E+03  0.17200000000E+03 0. -1.
         -6    1    1    2    0  502  0.10032478622E+03 -0.23977891595E+02  0.72656427292E+01  0.20069078599E+03  0.17200000000E+03 0.  1.
</event>
<event>
 4    1 -0.7308497E-004  0.2043370E+03  0.7818608E-02  0.1146131E+00
         -5   -1    0    0    0  501 -0.00000000000E+00  0.00000000000E+00  0.10731038460E+04  0.10731141385E+04  0.47000000000E+01 0.  1.
          5   -1    0    0  501    0  0.00000000000E+00 -0.00000000000E+00 -0.12184103435E+03  0.12193165156E+03  0.47000000000E+01 0. -1.
          6    1    1    2  502    0 -0.97209648845E+02  0.52152420874E+02 -0.17389577730E+02  0.20507556716E+03  0.17200000000E+03 0. -1.
         -6    1    1    2    0  502  0.97209648845E+02 -0.52152420874E+02  0.96865238936E+03  0.98997022291E+03  0.17200000000E+03 0.  1.
</event>
<event>
 4    1 -0.7308497E-004  0.6129384E+03  0.7818608E-02  0.9878921E-01
          5   -1    0    0  501    0  0.00000000000E+00  0.00000000000E+00  0.15625114750E+04  0.15625185437E+04  0.47000000000E+01 0. -1.
         -5   -1    0    0    0  501 -0.00000000000E+00 -0.00000000000E+00 -0.57297730252E+03  0.57299657870E+03  0.47000000000E+01 0.  1.
          6    1    1    2  502    0  0.54318305333E+03  0.22596818340E+03  0.13082112186E+04  0.14446833708E+04  0.17200000000E+03 0. -1.
         -6    1    1    2    0  502 -0.54318305333E+03 -0.22596818340E+03 -0.31867704613E+03  0.69083175163E+03  0.17200000000E+03 0.  1.
</event>
<event>
 4    1 -0.7308497E-004  0.1759138E+03  0.7818608E-02  0.1171817E+00
         -5   -1    0    0    0  501 -0.00000000000E+00  0.00000000000E+00  0.21026496859E+04  0.21026549388E+04  0.47000000000E+01 0.  1.
          5   -1    0    0  501    0  0.00000000000E+00 -0.00000000000E+00 -0.30617943844E+02  0.30976579624E+02  0.47000000000E+01 0. -1.
          6    1    1    2  502    0  0.33656529184E+02 -0.15128978671E+02  0.26509828943E+03  0.31815523100E+03  0.17200000000E+03 0. -1.
         -6    1    1    2    0  502 -0.33656529184E+02  0.15128978671E+02  0.18069334526E+04  0.18154762874E+04  0.17200000000E+03 0.  1.
</event>
<event>
 4    1 -0.7308497E-004  0.1809053E+03  0.7818608E-02  0.1166930E+00
         -5   -1    0    0    0  501 -0.00000000000E+00  0.00000000000E+00  0.52820231440E+03  0.52822322453E+03  0.47000000000E+01 0.  1.
          5   -1    0    0  501    0  0.00000000000E+00 -0.00000000000E+00 -0.13756577198E+04  0.13756657487E+04  0.47000000000E+01 0. -1.
          6    1    1    2  502    0  0.25066653166E+02  0.50143562431E+02 -0.13539885845E+04  0.13660204248E+04  0.17200000000E+03 0. -1.
         -6    1    1    2    0  502 -0.25066653166E+02 -0.50143562431E+02  0.50653317905E+03  0.53786854847E+03  0.17200000000E+03 0.  1.
</event>
<event>
 4    1 -0.7308497E-004  0.3886952E+03  0.7818608E-02  0.1047766E+00
         -5   -1    0    0    0  501 -0.00000000000E+00  0.00000000000E+00  0.66926472488E+03  0.66928122786E+03  0.47000000000E+01 0.  1.
          5   -1    0    0  501    0  0.00000000000E+00 -0.00000000000E+00 -0.37396169537E+03  0.37399122932E+03  0.47000000000E+01 0. -1.
          6    1    1    2  502    0 -0.15041521010E+03  0.31444427048E+03 -0.18077090266E+03  0.42867476473E+03  0.17200000000E+03 0. -1.
         -6    1    1    2    0  502  0.15041521010E+03 -0.31444427048E+03  0.47607393217E+03  0.61459769245E+03  0.17200000000E+03 0.  1.
</event>
<event>
 4    1 -0.7308497E-004  0.1791056E+03  0.7818608E-02  0.1168671E+00
         -5   -1    0    0    0  501 -0.00000000000E+00  0.00000000000E+00  0.12999896313E+03  0.13008389760E+03  0.47000000000E+01 0.  1.
          5   -1    0    0  501    0  0.00000000000E+00 -0.00000000000E+00 -0.37597478007E+03  0.37600415589E+03  0.47000000000E+01 0. -1.
          6    1    1    2  502    0  0.21732241794E+02  0.44972361611E+02 -0.27141548055E+03  0.32518481933E+03  0.17200000000E+03 0. -1.
         -6    1    1    2    0  502 -0.21732241794E+02 -0.44972361611E+02  0.25439663612E+02  0.18090323415E+03  0.17200000000E+03 0.  1.
</event>
<event>
 4    1 -0.7308497E-004  0.2156862E+03  0.7818608E-02  0.1137141E+00
         -5   -1    0    0    0  501 -0.00000000000E+00  0.00000000000E+00  0.12685509980E+03  0.12694213779E+03  0.47000000000E+01 0.  1.
          5   -1    0    0  501    0  0.00000000000E+00 -0.00000000000E+00 -0.47336854286E+03  0.47339187506E+03  0.47000000000E+01 0. -1.
          6    1    1    2  502    0  0.12033867402E+03 -0.49549245919E+02 -0.31586622152E+03  0.38248136442E+03  0.17200000000E+03 0. -1.
         -6    1    1    2    0  502 -0.12033867402E+03  0.49549245919E+02 -0.30647221540E+02  0.21785264842E+03  0.17200000000E+03 0.  1.
</event>
<event>
 4    1 -0.7308497E-004  0.1837478E+03  0.7818608E-02  0.1164224E+00
         -5   -1    0    0    0  501 -0.00000000000E+00  0.00000000000E+00  0.60931346447E+03  0.60933159115E+03  0.47000000000E+01 0.  1.
          5   -1    0    0  501    0  0.00000000000E+00 -0.00000000000E+00 -0.76387126307E+02  0.76531582144E+02  0.47000000000E+01 0. -1.
          6    1    1    2  502    0 -0.48745301248E+02 -0.42463530137E+02  0.86478602917E+02  0.20308078331E+03  0.17200000000E+03 0. -1.
         -6    1    1    2    0  502  0.48745301248E+02  0.42463530137E+02  0.44644773524E+03  0.48278238999E+03  0.17200000000E+03 0.  1.
</event>
<event>
 4    1 -0.7308497E-004  0.2491416E+03  0.7818608E-02  0.1113849E+00
         -5   -1    0    0    0  501 -0.00000000000E+00  0.00000000000E+00  0.15354823823E+03  0.15362015319E+03  0.47000000000E+01 0.  1.
          5   -1    0    0  501    0  0.00000000000E+00 -0.00000000000E+00 -0.44013305211E+03  0.44015814608E+03  0.47000000000E+01 0. -1.
          6    1    1    2  502    0  0.14816116460E+03 -0.10264403023E+03 -0.22826916720E+03  0.33790285635E+03  0.17200000000E+03 0.  1.
         -6    1    1    2    0  502 -0.14816116460E+03  0.10264403023E+03 -0.58315646673E+02  0.25587544291E+03  0.17200000000E+03 0.  1.
</event>
<event>
 4    1 -0.7308497E-004  0.3025777E+03  0.7818608E-02  0.1083959E+00
          5   -1    0    0  501    0  0.00000000000E+00  0.00000000000E+00  0.49858150331E+03  0.49860365566E+03  0.47000000000E+01 0. -1.
         -5   -1    0    0    0  501 -0.00000000000E+00 -0.00000000000E+00 -0.35900406795E+03  0.35903483230E+03  0.47000000000E+01 0.  1.
          6    1    1    2  502    0  0.70878295392E+02 -0.23863264577E+03  0.36952491228E+03  0.47760018130E+03  0.17200000000E+03 0. -1.
         -6    1    1    2    0  502 -0.70878295392E+02  0.23863264577E+03 -0.22994747693E+03  0.38003830666E+03  0.17200000000E+03 0.  1.
</event>
<event>
 4    1 -0.7308497E-004  0.2859723E+03  0.7818608E-02  0.1092471E+00
         -5   -1    0    0    0  501 -0.00000000000E+00  0.00000000000E+00  0.14728073568E+04  0.14728148561E+04  0.47000000000E+01 0.  1.
          5   -1    0    0  501    0  0.00000000000E+00 -0.00000000000E+00 -0.18772975906E+03  0.18778858442E+03  0.47000000000E+01 0. -1.
          6    1    1    2  502    0  0.17903160008E+03  0.14192899240E+03 -0.54261400840E+02  0.29107465079E+03  0.17200000000E+03 0. -1.
         -6    1    1    2    0  502 -0.17903160008E+03 -0.14192899240E+03  0.13393389986E+04  0.13695287897E+04  0.17200000000E+03 0.  1.
</event>
<event>
 4    1 -0.7308497E-004  0.1945722E+03  0.7818608E-02  0.1154401E+00
          5   -1    0    0  501    0  0.00000000000E+00  0.00000000000E+00  0.11588372962E+04  0.11588468273E+04  0.47000000000E+01 0. -1.
         -5   -1    0    0    0  501 -0.00000000000E+00 -0.00000000000E+00 -0.52933932042E+02  0.53142178742E+02  0.47000000000E+01 0.  1.
          6    1    1    2  502    0 -0.89729318696E+02  0.14932366888E+02  0.92854844835E+03  0.94871520866E+03  0.17200000000E+03 0. -1.
         -6    1    1    2    0  502  0.89729318696E+02 -0.14932366888E+02  0.17735491585E+03  0.26327379739E+03  0.17200000000E+03 0.  1.
</event>
<event>
 4    1 -0.7308497E-004  0.2300807E+03  0.7818608E-02  0.1126583E+00
         -5   -1    0    0    0  501 -0.00000000000E+00  0.00000000000E+00  0.38597080490E+03  0.38599942000E+03  0.47000000000E+01 0.  1.
          5   -1    0    0  501    0  0.00000000000E+00 -0.00000000000E+00 -0.67617975862E+03  0.67619609284E+03  0.47000000000E+01 0. -1.
          6    1    1    2  502    0  0.55678970065E+02  0.14231293710E+03 -0.61929572128E+03  0.66065445595E+03  0.17200000000E+03 0. -1.
         -6    1    1    2    0  502 -0.55678970065E+02 -0.14231293710E+03  0.32908676756E+03  0.40154105688E+03  0.17200000000E+03 0.  1.
</event>
<event>
 4    1 -0.7308497E-004  0.1973847E+03  0.7818608E-02  0.1151964E+00
         -5   -1    0    0    0  501 -0.00000000000E+00  0.00000000000E+00  0.17612306587E+03  0.17618576654E+03  0.47000000000E+01 0.  1.
          5   -1    0    0  501    0  0.00000000000E+00 -0.00000000000E+00 -0.35924158015E+03  0.35927232416E+03  0.47000000000E+01 0. -1.
          6    1    1    2  502    0  0.41139237368E+02  0.87660033731E+02 -0.25756539269E+03  0.32450061614E+03  0.17200000000E+03 0. -1.
         -6    1    1    2    0  502 -0.41139237368E+02 -0.87660033731E+02  0.74446878414E+02  0.21095747456E+03  0.17200000000E+03 0.  1.
</event>
<event>
 4    1 -0.7308497E-004  0.1757453E+03  0.7818608E-02  0.1171985E+00
         -5   -1    0    0    0  501 -0.00000000000E+00  0.00000000000E+00  0.20078643078E+03  0.20084143195E+03  0.47000000000E+01 0.  1.
          5   -1    0    0  501    0  0.00000000000E+00 -0.00000000000E+00 -0.78539968268E+03  0.78541374546E+03  0.47000000000E+01 0. -1.
          6    1    1    2  502    0  0.35948621782E+02 -0.31784551915E+01 -0.73452519309E+03  0.75525735036E+03  0.17200000000E+03 0. -1.
         -6    1    1    2    0  502 -0.35948621782E+02  0.31784551915E+01  0.14991194119E+03  0.23099782704E+03  0.17200000000E+03 0.  1.
</event>
<event>
 4    1 -0.7308497E-004  0.1776353E+03  0.7818608E-02  0.1170111E+00
         -5   -1    0    0    0  501 -0.00000000000E+00  0.00000000000E+00  0.22443985410E+03  0.22448906011E+03  0.47000000000E+01 0.  1.
          5   -1    0    0  501    0  0.00000000000E+00 -0.00000000000E+00 -0.32075825931E+04  0.32075860365E+04  0.47000000000E+01 0. -1.
          6    1    1    2  502    0 -0.25802023132E+02 -0.36118460652E+02 -0.31695846124E+04  0.31745583792E+04  0.17200000000E+03 0. -1.
         -6    1    1    2    0  502  0.25802023132E+02  0.36118460652E+02  0.18644187341E+03  0.25751671743E+03  0.17200000000E+03 0.  1.
</event>
<event>
 4    1 -0.7308497E-004  0.1773823E+03  0.7818608E-02  0.1170361E+00
         -5   -1    0    0    0  501 -0.00000000000E+00  0.00000000000E+00  0.22984394648E+03  0.22989199580E+03  0.47000000000E+01 0.  1.
          5   -1    0    0  501    0  0.00000000000E+00 -0.00000000000E+00 -0.21720449398E+03  0.21725533873E+03  0.47000000000E+01 0. -1.
          6    1    1    2  502    0  0.16652605457E+02  0.40039623632E+02 -0.12967859452E+03  0.21972942135E+03  0.17200000000E+03 0. -1.
         -6    1    1    2    0  502 -0.16652605457E+02 -0.40039623632E+02  0.14231804702E+03  0.22741791318E+03  0.17200000000E+03 0.  1.
</event>
<event>
 4    1 -0.7308497E-004  0.2514589E+03  0.7818608E-02  0.1112386E+00
          5   -1    0    0  501    0  0.00000000000E+00  0.00000000000E+00  0.11633227636E+04  0.11633322579E+04  0.47000000000E+01 0. -1.
         -5   -1    0    0    0  501 -0.00000000000E+00 -0.00000000000E+00 -0.15503062898E+04  0.15503134142E+04  0.47000000000E+01 0.  1.
          6    1    1    2  502    0 -0.15968639136E+03  0.90265406855E+02  0.11393338108E+04  0.11667532386E+04  0.17200000000E+03 0. -1.
         -6    1    1    2    0  502  0.15968639136E+03 -0.90265406855E+02 -0.15263173371E+04  0.15468924335E+04  0.17200000000E+03 0.  1.
</event>
<event>
 4    1 -0.7308497E-004  0.1841852E+03  0.7818608E-02  0.1163813E+00
          5   -1    0    0  501    0  0.00000000000E+00  0.00000000000E+00  0.78322135072E+02  0.78463028505E+02  0.47000000000E+01 0. -1.
         -5   -1    0    0    0  501 -0.00000000000E+00 -0.00000000000E+00 -0.53827726144E+03  0.53829778021E+03  0.47000000000E+01 0.  1.
          6    1    1    2  502    0 -0.15573212105E+02 -0.64012956911E+02 -0.93355338876E+02  0.20649310614E+03  0.17200000000E+03 0. -1.
         -6    1    1    2    0  502  0.15573212105E+02  0.64012956911E+02 -0.36659978749E+03  0.41026770258E+03  0.17200000000E+03 0.  1.
</event>
<event>
 4    1 -0.7308497E-004  0.1771663E+03  0.7818608E-02  0.1170574E+00
          5   -1    0    0  501    0  0.00000000000E+00  0.00000000000E+00  0.52105868799E+03  0.52107988479E+03  0.47000000000E+01 0. -1.
         -5   -1    0    0    0  501 -0.00000000000E+00 -0.00000000000E+00 -0.86886471700E+02  0.87013498749E+02  0.47000000000E+01 0.  1.
          6    1    1    2  502    0 -0.17603727444E+02  0.38652302428E+02  0.38565688776E+03  0.42440443775E+03  0.17200000000E+03 0. -1.
         -6    1    1    2    0  502  0.17603727444E+02 -0.38652302428E+02  0.48515328532E+02  0.18368894579E+03  0.17200000000E+03 0.  1.
</event>
<event>
 4    1 -0.7308497E-004  0.2197004E+03  0.7818608E-02  0.1134107E+00
          5   -1    0    0  501    0  0.00000000000E+00  0.00000000000E+00  0.92902357369E+03  0.92903546244E+03  0.47000000000E+01 0. -1.
         -5   -1    0    0    0  501 -0.00000000000E+00 -0.00000000000E+00 -0.12923159372E+03  0.12931703220E+03  0.47000000000E+01 0.  1.
          6    1    1    2  502    0  0.11148437198E+03  0.79091588308E+02  0.80915671975E+03  0.83845264724E+03  0.17200000000E+03 0. -1.
         -6    1    1    2    0  502 -0.11148437198E+03 -0.79091588308E+02 -0.93647397790E+01  0.21989984740E+03  0.17200000000E+03 0.  1.
</event>
<event>
 4    1 -0.7308497E-004  0.2010055E+03  0.7818608E-02  0.1148893E+00
         -5   -1    0    0    0  501 -0.00000000000E+00  0.00000000000E+00  0.16102003076E+03  0.16108861011E+03  0.47000000000E+01 0.  1.
          5   -1    0    0  501    0  0.00000000000E+00 -0.00000000000E+00 -0.77418217766E+03  0.77419644420E+03  0.47000000000E+01 0. -1.
          6    1    1    2  502    0  0.87055189617E+02  0.56926392300E+02 -0.69107036026E+03  0.71970929062E+03  0.17200000000E+03 0. -1.
         -6    1    1    2    0  502 -0.87055189617E+02 -0.56926392300E+02  0.77908213357E+02  0.21557576368E+03  0.17200000000E+03 0.  1.
</event>
<event>
 4    1 -0.7308497E-004  0.2395678E+03  0.7818608E-02  0.1120081E+00
          5   -1    0    0  501    0  0.00000000000E+00  0.00000000000E+00  0.16805032287E+03  0.16811603439E+03  0.47000000000E+01 0. -1.
         -5   -1    0    0    0  501 -0.00000000000E+00 -0.00000000000E+00 -0.63146062868E+03  0.63147811963E+03  0.47000000000E+01 0.  1.
          6    1    1    2  502    0 -0.16515974981E+03  0.23043535503E+02  0.39251769593E+02  0.24276212411E+03  0.17200000000E+03 0. -1.
         -6    1    1    2    0  502  0.16515974981E+03 -0.23043535503E+02 -0.50266207540E+03  0.55683202991E+03  0.17200000000E+03 0.  1.
</event>
<event>
 4    1 -0.7308497E-004  0.1732722E+03  0.7818608E-02  0.1174478E+00
          5   -1    0    0  501    0  0.00000000000E+00  0.00000000000E+00  0.11952374256E+04  0.11952466664E+04  0.47000000000E+01 0. -1.
         -5   -1    0    0    0  501 -0.00000000000E+00 -0.00000000000E+00 -0.29550075307E+02  0.29921513174E+02  0.47000000000E+01 0.  1.
          6    1    1    2  502    0  0.16907615372E+02 -0.12384517315E+02  0.82442567791E+03  0.84243750042E+03  0.17200000000E+03 0. -1.
         -6    1    1    2    0  502 -0.16907615372E+02  0.12384517315E+02  0.34126167237E+03  0.38273067914E+03  0.17200000000E+03 0.  1.
</event>
<event>
 4    1 -0.7308497E-004  0.2019736E+03  0.7818608E-02  0.1148085E+00
         -5   -1    0    0    0  501 -0.00000000000E+00  0.00000000000E+00  0.59596240215E+03  0.59598093491E+03  0.47000000000E+01 0.  1.
          5   -1    0    0  501    0  0.00000000000E+00 -0.00000000000E+00 -0.13688188564E+03  0.13696255187E+03  0.47000000000E+01 0. -1.
          6    1    1    2  502    0  0.88383479223E+02 -0.58289597337E+02 -0.29635949016E+02  0.20413624380E+03  0.17200000000E+03 0. -1.
         -6    1    1    2    0  502 -0.88383479223E+02  0.58289597337E+02  0.48871646552E+03  0.52880724298E+03  0.17200000000E+03 0.  1.
</event>
<event>
 4    1 -0.7308497E-004  0.2028962E+03  0.7818608E-02  0.1147318E+00
          5   -1    0    0  501    0  0.00000000000E+00  0.00000000000E+00  0.30953180444E+03  0.30956748531E+03  0.47000000000E+01 0. -1.
         -5   -1    0    0    0  501 -0.00000000000E+00 -0.00000000000E+00 -0.25665641078E+03  0.25669944136E+03  0.47000000000E+01 0.  1.
          6    1    1    2  502    0 -0.62689854694E+01  0.10744107904E+03  0.22299705891E+03  0.30148726992E+03  0.17200000000E+03 0. -1.
         -6    1    1    2    0  502  0.62689854694E+01 -0.10744107904E+03 -0.17012166525E+03  0.26477965675E+03  0.17200000000E+03 0.  1.
</event>
<event>
 4    1 -0.7308497E-004  0.2076265E+03  0.7818608E-02  0.1143459E+00
          5   -1    0    0  501    0  0.00000000000E+00  0.00000000000E+00  0.23799822875E+03  0.23804463213E+03  0.47000000000E+01 0. -1.
         -5   -1    0    0    0  501 -0.00000000000E+00 -0.00000000000E+00 -0.21271633014E+03  0.21276824741E+03  0.47000000000E+01 0.  1.
          6    1    1    2  502    0  0.73120846266E+02 -0.90432986594E+02  0.99608029840E+02  0.23028361390E+03  0.17200000000E+03 0. -1.
         -6    1    1    2    0  502 -0.73120846266E+02  0.90432986594E+02 -0.74326131225E+02  0.22052926564E+03  0.17200000000E+03 0.  1.
</event>
<event>
 4    1 -0.7308497E-004  0.2844706E+03  0.7818608E-02  0.1093272E+00
         -5   -1    0    0    0  501 -0.00000000000E+00  0.00000000000E+00  0.61164417520E+03  0.61166223282E+03  0.47000000000E+01 0.  1.
          5   -1    0    0  501    0  0.00000000000E+00 -0.00000000000E+00 -0.27404163589E+03  0.27408193702E+03  0.47000000000E+01 0. -1.
          6    1    1    2  502    0 -0.21463562659E+03 -0.72602066444E+02 -0.14972298948E+03  0.32146615037E+03  0.17200000000E+03 0. -1.
         -6    1    1    2    0  502  0.21463562659E+03  0.72602066444E+02  0.48732552879E+03  0.56427801948E+03  0.17200000000E+03 0.  1.
</event>
<event>
 4    1 -0.7308497E-004  0.1745452E+03  0.7818608E-02  0.1173189E+00
         -5   -1    0    0    0  501 -0.00000000000E+00  0.00000000000E+00  0.28425627966E+03  0.28429513279E+03  0.47000000000E+01 0.  1.
          5   -1    0    0  501    0  0.00000000000E+00 -0.00000000000E+00 -0.10724327058E+03  0.10734621132E+03  0.47000000000E+01 0. -1.
          6    1    1    2  502    0  0.20030298815E+02 -0.21927392437E+02  0.80877599805E+02  0.19237258006E+03  0.17200000000E+03 0. -1.
         -6    1    1    2    0  502 -0.20030298815E+02  0.21927392437E+02  0.96135409269E+02  0.19926876405E+03  0.17200000000E+03 0.  1.
</event>
<event>
 4    1 -0.7308497E-004  0.1890438E+03  0.7818608E-02  0.1159327E+00
         -5   -1    0    0    0  501 -0.00000000000E+00  0.00000000000E+00  0.31445115909E+03  0.31448628182E+03  0.47000000000E+01 0.  1.
          5   -1    0    0  501    0  0.00000000000E+00 -0.00000000000E+00 -0.28198432593E+03  0.28202349205E+03  0.47000000000E+01 0. -1.
          6    1    1    2  502    0  0.72884231209E+01 -0.78105181780E+02 -0.21422754182E+03  0.28571135821E+03  0.17200000000E+03 0. -1.
         -6    1    1    2    0  502 -0.72884231209E+01  0.78105181780E+02  0.24669437499E+03  0.31079841567E+03  0.17200000000E+03 0.  1.
</event>
<event>
 4    1 -0.7308497E-004  0.1855270E+03  0.7818608E-02  0.1162559E+00
         -5   -1    0    0    0  501 -0.00000000000E+00  0.00000000000E+00  0.86743148828E+03  0.86744422118E+03  0.47000000000E+01 0.  1.
          5   -1    0    0  501    0  0.00000000000E+00 -0.00000000000E+00 -0.87067177161E+02  0.87193940952E+02  0.47000000000E+01 0. -1.
          6    1    1    2  502    0  0.66836415576E+02 -0.19213985368E+02  0.37917638045E+02  0.18936216876E+03  0.17200000000E+03 0. -1.
         -6    1    1    2    0  502 -0.66836415576E+02  0.19213985368E+02  0.74244667308E+03  0.76527599338E+03  0.17200000000E+03 0.  1.
</event>
<event>
 4    1 -0.7308497E-004  0.3398924E+03  0.7818608E-02  0.1066842E+00
          5   -1    0    0  501    0  0.00000000000E+00  0.00000000000E+00  0.10096797371E+03  0.10107730563E+03  0.47000000000E+01 0. -1.
         -5   -1    0    0    0  501 -0.00000000000E+00 -0.00000000000E+00 -0.12909959735E+04  0.12910045289E+04  0.47000000000E+01 0.  1.
          6    1    1    2  502    0  0.18481245225E+03  0.22756796610E+03 -0.35972467241E+03  0.49490267896E+03  0.17200000000E+03 0. -1.
         -6    1    1    2    0  502 -0.18481245225E+03 -0.22756796610E+03 -0.83030332738E+03  0.89717915555E+03  0.17200000000E+03 0.  1.
</event>
<event>
 4    1 -0.7308497E-004  0.1779852E+03  0.7818608E-02  0.1169767E+00
          5   -1    0    0  501    0  0.00000000000E+00  0.00000000000E+00  0.77774755080E+02  0.77916638324E+02  0.47000000000E+01 0. -1.
         -5   -1    0    0    0  501 -0.00000000000E+00 -0.00000000000E+00 -0.63722967519E+03  0.63724700779E+03  0.47000000000E+01 0.  1.
          6    1    1    2  502    0 -0.73014557748E+01  0.45182235047E+02 -0.64720432581E+02  0.18938711681E+03  0.17200000000E+03 0. -1.
         -6    1    1    2    0  502  0.73014557748E+01 -0.45182235047E+02 -0.49473448753E+03  0.52577652931E+03  0.17200000000E+03 0.  1.
</event>
<event>
 4    1 -0.7308497E-004  0.1757263E+03  0.7818608E-02  0.1172004E+00
         -5   -1    0    0    0  501 -0.00000000000E+00  0.00000000000E+00  0.95879610369E+03  0.95880762328E+03  0.47000000000E+01 0.  1.
          5   -1    0    0  501    0  0.00000000000E+00 -0.00000000000E+00 -0.47556532254E+03  0.47558854696E+03  0.47000000000E+01 0. -1.
          6    1    1    2  502    0  0.19822281317E+02 -0.30046601306E+02 -0.45087291143E+03  0.48390712265E+03  0.17200000000E+03 0. -1.
         -6    1    1    2    0  502 -0.19822281317E+02  0.30046601306E+02  0.93410369259E+03  0.95048904759E+03  0.17200000000E+03 0.  1.
</event>
<event>
 4    1 -0.7308497E-004  0.2014529E+03  0.7818608E-02  0.1148519E+00
         -5   -1    0    0    0  501 -0.00000000000E+00  0.00000000000E+00  0.17023803882E+03  0.17030290620E+03  0.47000000000E+01 0.  1.
          5   -1    0    0  501    0  0.00000000000E+00 -0.00000000000E+00 -0.45862113580E+03  0.45864521823E+03  0.47000000000E+01 0. -1.
          6    1    1    2  502    0  0.98914883572E+02  0.34858683691E+02 -0.36215313126E+03  0.41441304577E+03  0.17200000000E+03 0. -1.
         -6    1    1    2    0  502 -0.98914883572E+02 -0.34858683691E+02  0.73770034280E+02  0.21453507867E+03  0.17200000000E+03 0.  1.
</event>
<event>
 4    1 -0.7308497E-004  0.1782409E+03  0.7818608E-02  0.1169516E+00
          5   -1    0    0  501    0  0.00000000000E+00  0.00000000000E+00  0.36407548162E+03  0.36410581747E+03  0.47000000000E+01 0. -1.
         -5   -1    0    0    0  501 -0.00000000000E+00 -0.00000000000E+00 -0.13998321012E+03  0.14006209021E+03  0.47000000000E+01 0.  1.
          6    1    1    2  502    0 -0.12437797967E+02  0.45067810531E+02  0.26681925485E+03  0.32087742383E+03  0.17200000000E+03 0. -1.
         -6    1    1    2    0  502  0.12437797967E+02 -0.45067810531E+02 -0.42726983348E+02  0.18329048385E+03  0.17200000000E+03 0.  1.
</event>
<event>
 4    1 -0.7308497E-004  0.1850867E+03  0.7818608E-02  0.1162969E+00
         -5   -1    0    0    0  501 -0.00000000000E+00  0.00000000000E+00  0.55915071783E+03  0.55917047066E+03  0.47000000000E+01 0.  1.
          5   -1    0    0  501    0  0.00000000000E+00 -0.00000000000E+00 -0.18886152314E+03  0.18891999609E+03  0.47000000000E+01 0. -1.
          6    1    1    2  502    0  0.25500204515E+02  0.63425829084E+02 -0.12232237057E+03  0.22185549028E+03  0.17200000000E+03 0. -1.
         -6    1    1    2    0  502 -0.25500204515E+02 -0.63425829084E+02  0.49261156526E+03  0.52623497647E+03  0.17200000000E+03 0.  1.
</event>
<event>
 4    1 -0.7308497E-004  0.2014434E+03  0.7818608E-02  0.1148527E+00
          5   -1    0    0  501    0  0.00000000000E+00  0.00000000000E+00  0.17521991959E+04  0.17522054994E+04  0.47000000000E+01 0. -1.
         -5   -1    0    0    0  501 -0.00000000000E+00 -0.00000000000E+00 -0.36704997547E+02  0.37004686797E+02  0.47000000000E+01 0.  1.
          6    1    1    2  502    0 -0.21615904860E+02  0.10260703264E+03  0.14031776610E+04  0.14175637548E+04  0.17200000000E+03 0. -1.
         -6    1    1    2    0  502  0.21615904860E+02 -0.10260703264E+03  0.31231653735E+03  0.37164643143E+03  0.17200000000E+03 0.  1.
</event>
<event>
 4    1 -0.7308497E-004  0.1774428E+03  0.7818608E-02  0.1170301E+00
         -5   -1    0    0    0  501 -0.00000000000E+00  0.00000000000E+00  0.90067831469E+03  0.90069057758E+03  0.47000000000E+01 0.  1.
          5   -1    0    0  501    0  0.00000000000E+00 -0.00000000000E+00 -0.90082935940E+03  0.90084162024E+03  0.47000000000E+01 0. -1.
          6    1    1    2  502    0  0.42832503624E+02 -0.82052777708E+01 -0.88319137816E+03  0.90084014143E+03  0.17200000000E+03 0. -1.
         -6    1    1    2    0  502 -0.42832503624E+02  0.82052777708E+01  0.88304033345E+03  0.90069205639E+03  0.17200000000E+03 0.  1.
</event>
<event>
 4    1 -0.7308497E-004  0.2673426E+03  0.7818608E-02  0.1102810E+00
          5   -1    0    0  501    0  0.00000000000E+00  0.00000000000E+00  0.12361473273E+04  0.12361562623E+04  0.47000000000E+01 0. -1.
         -5   -1    0    0    0  501 -0.00000000000E+00 -0.00000000000E+00 -0.11176184844E+03  0.11186063099E+03  0.47000000000E+01 0.  1.
          6    1    1    2  502    0  0.20213271067E+03  0.32100100960E+02  0.10305854741E+04  0.10646964209E+04  0.17200000000E+03 0. -1.
         -6    1    1    2    0  502 -0.20213271067E+03 -0.32100100960E+02  0.93800004812E+02  0.28332047245E+03  0.17200000000E+03 0.  1.
</event>
<event>
 4    1 -0.7308497E-004  0.1757481E+03  0.7818608E-02  0.1171983E+00
         -5   -1    0    0    0  501 -0.00000000000E+00  0.00000000000E+00  0.18443511549E+03  0.18449499133E+03  0.47000000000E+01 0.  1.
          5   -1    0    0  501    0  0.00000000000E+00 -0.00000000000E+00 -0.10915574500E+04  0.10915675685E+04  0.47000000000E+01 0. -1.
          6    1    1    2  502    0 -0.68461611121E+01  0.35447276600E+02 -0.10406230677E+04  0.10553595352E+04  0.17200000000E+03 0. -1.
         -6    1    1    2    0  502  0.68461611121E+01 -0.35447276600E+02  0.13350073322E+03  0.22070302470E+03  0.17200000000E+03 0.  1.
</event>
<event>
 4    1 -0.7308497E-004  0.4070891E+03  0.7818608E-02  0.1041352E+00
         -5   -1    0    0    0  501 -0.00000000000E+00  0.00000000000E+00  0.29906126952E+03  0.29909819947E+03  0.47000000000E+01 0.  1.
          5   -1    0    0  501    0  0.00000000000E+00 -0.00000000000E+00 -0.99353871114E+03  0.99354982791E+03  0.47000000000E+01 0. -1.
          6    1    1    2  502    0  0.32920371598E+03  0.16662067156E+03 -0.77708815379E+03  0.87726138270E+03  0.17200000000E+03 0. -1.
         -6    1    1    2    0  502 -0.32920371598E+03 -0.16662067156E+03  0.82610712175E+02  0.41538664468E+03  0.17200000000E+03 0.  1.
</event>
<event>
 4    1 -0.7308497E-004  0.2813243E+03  0.7818608E-02  0.1094968E+00
         -5   -1    0    0    0  501 -0.00000000000E+00  0.00000000000E+00  0.22326399605E+03  0.22331346115E+03  0.47000000000E+01 0.  1.
          5   -1    0    0  501    0  0.00000000000E+00 -0.00000000000E+00 -0.76134860342E+03  0.76136311043E+03  0.47000000000E+01 0. -1.
          6    1    1    2  502    0 -0.17963831904E+02  0.22189331888E+03 -0.62898406476E+03  0.68903142014E+03  0.17200000000E+03 0. -1.
         -6    1    1    2    0  502  0.17963831904E+02 -0.22189331888E+03  0.90899457393E+02  0.29564515144E+03  0.17200000000E+03 0.  1.
</event>
<event>
 4    1 -0.7308497E-004  0.3918462E+03  0.7818608E-02  0.1046640E+00
         -5   -1    0    0    0  501 -0.00000000000E+00  0.00000000000E+00  0.79122092292E+03  0.79123488224E+03  0.47000000000E+01 0.  1.
          5   -1    0    0  501    0  0.00000000000E+00 -0.00000000000E+00 -0.31102459063E+03  0.31106010026E+03  0.47000000000E+01 0. -1.
          6    1    1    2  502    0 -0.29274872515E+03  0.19559551651E+03 -0.97919746526E+02  0.40389565350E+03  0.17200000000E+03 0. -1.
         -6    1    1    2    0  502  0.29274872515E+03 -0.19559551651E+03  0.57811607882E+03  0.69839932900E+03  0.17200000000E+03 0.  1.
</event>
<event>
 4    1 -0.7308497E-004  0.3539720E+03  0.7818608E-02  0.1060996E+00
         -5   -1    0    0    0  501 -0.00000000000E+00  0.00000000000E+00  0.16391727226E+04  0.16391794608E+04  0.47000000000E+01 0.  1.
          5   -1    0    0  501    0  0.00000000000E+00 -0.00000000000E+00 -0.67805115014E+03  0.67806743927E+03  0.47000000000E+01 0. -1.
          6    1    1    2  502    0 -0.30574895953E+03  0.47220126386E+02 -0.61080458593E+03  0.70595921185E+03  0.17200000000E+03 0. -1.
         -6    1    1    2    0  502  0.30574895953E+03 -0.47220126386E+02  0.15719261584E+04  0.16112876882E+04  0.17200000000E+03 0.  1.
</event>
<event>
 4    1 -0.7308497E-004  0.1788164E+03  0.7818608E-02  0.1168953E+00
          5   -1    0    0  501    0  0.00000000000E+00  0.00000000000E+00  0.11395702344E+04  0.11395799267E+04  0.47000000000E+01 0. -1.
         -5   -1    0    0    0  501 -0.00000000000E+00 -0.00000000000E+00 -0.52310547312E+02  0.52521265789E+02  0.47000000000E+01 0.  1.
          6    1    1    2  502    0  0.12989740661E+02  0.47144098526E+02  0.94998818658E+03  0.96667101644E+03  0.17200000000E+03 0. -1.
         -6    1    1    2    0  502 -0.12989740661E+02 -0.47144098526E+02  0.13727150056E+03  0.22543017600E+03  0.17200000000E+03 0.  1.
</event>
<event>
 4    1 -0.7308497E-004  0.2737498E+03  0.7818608E-02  0.1099152E+00
         -5   -1    0    0    0  501 -0.00000000000E+00  0.00000000000E+00  0.36907710407E+03  0.36910702886E+03  0.47000000000E+01 0.  1.
          5   -1    0    0  501    0  0.00000000000E+00 -0.00000000000E+00 -0.43103574689E+03  0.43106137046E+03  0.47000000000E+01 0. -1.
          6    1    1    2  502    0 -0.20952027206E+03  0.38160074676E+02 -0.32197143194E+03  0.42261630197E+03  0.17200000000E+03 0. -1.
         -6    1    1    2    0  502  0.20952027206E+03 -0.38160074676E+02  0.26001278912E+03  0.37755209735E+03  0.17200000000E+03 0.  1.
</event>
<event>
 4    1 -0.7308497E-004  0.2237645E+03  0.7818608E-02  0.1131107E+00
         -5   -1    0    0    0  501 -0.00000000000E+00  0.00000000000E+00  0.18847937323E+03  0.18853796470E+03  0.47000000000E+01 0.  1.
          5   -1    0    0  501    0  0.00000000000E+00 -0.00000000000E+00 -0.94038183329E+03  0.94039357844E+03  0.47000000000E+01 0. -1.
          6    1    1    2  502    0  0.13508206157E+03  0.47322055045E+02 -0.85410605640E+03  0.88293130868E+03  0.17200000000E+03 0. -1.
         -6    1    1    2    0  502 -0.13508206157E+03 -0.47322055045E+02  0.10220359635E+03  0.24600023447E+03  0.17200000000E+03 0.  1.
</event>
<event>
 4    1 -0.7308497E-004  0.1784819E+03  0.7818608E-02  0.1169280E+00
         -5   -1    0    0    0  501 -0.00000000000E+00  0.00000000000E+00  0.72402765896E+03  0.72404291374E+03  0.47000000000E+01 0.  1.
          5   -1    0    0  501    0  0.00000000000E+00 -0.00000000000E+00 -0.30831957829E+03  0.30835539943E+03  0.47000000000E+01 0. -1.
          6    1    1    2  502    0  0.18626804923E+02 -0.43872858880E+02 -0.27010127735E+03  0.32374447584E+03  0.17200000000E+03 0. -1.
         -6    1    1    2    0  502 -0.18626804923E+02  0.43872858880E+02  0.68580935802E+03  0.70865383733E+03  0.17200000000E+03 0.  1.
</event>
<event>
 4    1 -0.7308497E-004  0.1804234E+03  0.7818608E-02  0.1167394E+00
          5   -1    0    0  501    0  0.00000000000E+00  0.00000000000E+00  0.77570092867E+02  0.77712349774E+02  0.47000000000E+01 0. -1.
         -5   -1    0    0    0  501 -0.00000000000E+00 -0.00000000000E+00 -0.44836186639E+03  0.44838649983E+03  0.47000000000E+01 0.  1.
          6    1    1    2  502    0 -0.68243053324E+01  0.54055717591E+02 -0.11822379393E+03  0.21570687796E+03  0.17200000000E+03 0. -1.
         -6    1    1    2    0  502  0.68243053324E+01 -0.54055717591E+02 -0.25256797959E+03  0.31039197164E+03  0.17200000000E+03 0.  1.
</event>
<event>
 4    1 -0.7308497E-004  0.1792295E+03  0.7818608E-02  0.1168551E+00
         -5   -1    0    0    0  501 -0.00000000000E+00  0.00000000000E+00  0.55010791378E+02  0.55211205095E+02  0.47000000000E+01 0.  1.
          5   -1    0    0  501    0  0.00000000000E+00 -0.00000000000E+00 -0.75540728692E+03  0.75542190803E+03  0.47000000000E+01 0. -1.
          6    1    1    2  502    0 -0.35932227113E+02  0.35328430497E+02 -0.54398827319E+03  0.57275340620E+03  0.17200000000E+03 0. -1.
         -6    1    1    2    0  502  0.35932227113E+02 -0.35328430497E+02 -0.15640822235E+03  0.23787970692E+03  0.17200000000E+03 0.  1.
</event>
<event>
 4    1 -0.7308497E-004  0.2588419E+03  0.7818608E-02  0.1107841E+00
          5   -1    0    0  501    0  0.00000000000E+00  0.00000000000E+00  0.66223501634E+03  0.66225169450E+03  0.47000000000E+01 0. -1.
         -5   -1    0    0    0  501 -0.00000000000E+00 -0.00000000000E+00 -0.14175531890E+03  0.14183321344E+03  0.47000000000E+01 0.  1.
          6    1    1    2  502    0  0.17552343896E+03  0.81281191436E+02  0.47546813403E+03  0.54135852832E+03  0.17200000000E+03 0. -1.
         -6    1    1    2    0  502 -0.17552343896E+03 -0.81281191436E+02  0.45011563414E+02  0.26272637962E+03  0.17200000000E+03 0.  1.
</event>
<event>
 4    1 -0.7308497E-004  0.1725831E+03  0.7818608E-02  0.1175181E+00
         -5   -1    0    0    0  501 -0.00000000000E+00  0.00000000000E+00  0.12324309185E+04  0.12324398805E+04  0.47000000000E+01 0.  1.
          5   -1    0    0  501    0  0.00000000000E+00 -0.00000000000E+00 -0.29605856487E+02  0.29976603182E+02  0.47000000000E+01 0. -1.
          6    1    1    2  502    0 -0.12789743184E+02  0.61118037070E+01  0.32699009956E+03  0.36973971505E+03  0.17200000000E+03 0. -1.
         -6    1    1    2    0  502  0.12789743184E+02 -0.61118037070E+01  0.87583496249E+03  0.89267676860E+03  0.17200000000E+03 0.  1.
</event>
<event>
 4    1 -0.7308497E-004  0.1853555E+03  0.7818608E-02  0.1162718E+00
         -5   -1    0    0    0  501 -0.00000000000E+00  0.00000000000E+00  0.23329494607E+03  0.23334228477E+03  0.47000000000E+01 0.  1.
          5   -1    0    0  501    0  0.00000000000E+00 -0.00000000000E+00 -0.41321121479E+03  0.41323794360E+03  0.47000000000E+01 0. -1.
          6    1    1    2  502    0 -0.30034063113E+02 -0.62214412922E+02 -0.34933509445E+03  0.39546388753E+03  0.17200000000E+03 0. -1.
         -6    1    1    2    0  502  0.30034063113E+02  0.62214412922E+02  0.16941882573E+03  0.25111634083E+03  0.17200000000E+03 0.  1.
</event>
<event>
 4    1 -0.7308497E-004  0.1723286E+03  0.7818608E-02  0.1175441E+00
         -5   -1    0    0    0  501 -0.00000000000E+00  0.00000000000E+00  0.56324938895E+02  0.56520693039E+02  0.47000000000E+01 0.  1.
          5   -1    0    0  501    0  0.00000000000E+00 -0.00000000000E+00 -0.99723979885E+03  0.99725087436E+03  0.47000000000E+01 0. -1.
          6    1    1    2  502    0  0.62111803552E+01 -0.86354926426E+01 -0.83256154428E+03  0.85020931276E+03  0.17200000000E+03 0. -1.
         -6    1    1    2    0  502 -0.62111803552E+01  0.86354926426E+01 -0.10835331568E+03  0.20356225464E+03  0.17200000000E+03 0.  1.
</event>
<event>
 4    1 -0.7308497E-004  0.2410842E+03  0.7818608E-02  0.1119073E+00
          5   -1    0    0  501    0  0.00000000000E+00  0.00000000000E+00  0.11265931221E+04  0.11266029259E+04  0.47000000000E+01 0. -1.
         -5   -1    0    0    0  501 -0.00000000000E+00 -0.00000000000E+00 -0.18558233396E+03  0.18564183979E+03  0.47000000000E+01 0.  1.
          6    1    1    2  502    0 -0.16786528434E+03  0.18943219854E+02  0.10280424583E+04  0.10559322399E+04  0.17200000000E+03 0. -1.
         -6    1    1    2    0  502  0.16786528434E+03 -0.18943219854E+02 -0.87031670177E+02  0.25631252579E+03  0.17200000000E+03 0.  1.
</event>
<event>
 4    1 -0.7308497E-004  0.4334807E+03  0.7818608E-02  0.1032766E+00
         -5   -1    0    0    0  501 -0.00000000000E+00  0.00000000000E+00  0.22063214650E+04  0.22063264710E+04  0.47000000000E+01 0.  1.
          5   -1    0    0  501    0  0.00000000000E+00 -0.00000000000E+00 -0.11847676166E+03  0.11856995005E+03  0.47000000000E+01 0. -1.
          6    1    1    2  502    0  0.32808930013E+03  0.22511984615E+03  0.42720564509E+03  0.60861333964E+03  0.17200000000E+03 0. -1.
         -6    1    1    2    0  502 -0.32808930013E+03 -0.22511984615E+03  0.16606390582E+04  0.17162830814E+04  0.17200000000E+03 0.  1.
</event>
<event>
 4    1 -0.7308497E-004  0.1814284E+03  0.7818608E-02  0.1166428E+00
         -5   -1    0    0    0  501 -0.00000000000E+00  0.00000000000E+00  0.16907758690E+03  0.16914289933E+03  0.47000000000E+01 0.  1.
          5   -1    0    0  501    0  0.00000000000E+00 -0.00000000000E+00 -0.37700681464E+03  0.37703611005E+03  0.47000000000E+01 0. -1.
          6    1    1    2  502    0  0.49616769667E+02 -0.29503045706E+02 -0.29391841181E+03  0.34540452565E+03  0.17200000000E+03 0. -1.
         -6    1    1    2    0  502 -0.49616769667E+02  0.29503045706E+02  0.85989184077E+02  0.20077448373E+03  0.17200000000E+03 0.  1.
</event>
<event>
 4    1 -0.7308497E-004  0.1911883E+03  0.7818608E-02  0.1157394E+00
          5   -1    0    0  501    0  0.00000000000E+00  0.00000000000E+00  0.56463937250E+03  0.56465893332E+03  0.47000000000E+01 0. -1.
         -5   -1    0    0    0  501 -0.00000000000E+00 -0.00000000000E+00 -0.12507979035E+03  0.12516806284E+03  0.47000000000E+01 0.  1.
          6    1    1    2  502    0 -0.82267649766E+02  0.14176888201E+02  0.45941607679E+03  0.49761037165E+03  0.17200000000E+03 0. -1.
         -6    1    1    2    0  502  0.82267649766E+02 -0.14176888201E+02 -0.19856494645E+02  0.19221662451E+03  0.17200000000E+03 0.  1.
</event>
<event>
 4    1 -0.7308497E-004  0.2220844E+03  0.7818608E-02  0.1132338E+00
         -5   -1    0    0    0  501 -0.00000000000E+00  0.00000000000E+00  0.62557899441E+03  0.62559664981E+03  0.47000000000E+01 0.  1.
          5   -1    0    0  501    0  0.00000000000E+00 -0.00000000000E+00 -0.24297519184E+03  0.24302064490E+03  0.47000000000E+01 0. -1.
          6    1    1    2  502    0  0.12505099162E+03  0.64029293362E+02 -0.16567109358E+03  0.27707113195E+03  0.17200000000E+03 0. -1.
         -6    1    1    2    0  502 -0.12505099162E+03 -0.64029293362E+02  0.54827489615E+03  0.59154616275E+03  0.17200000000E+03 0.  1.
</event>
<event>
 4    1 -0.7308497E-004  0.1837677E+03  0.7818608E-02  0.1164206E+00
         -5   -1    0    0    0  501 -0.00000000000E+00  0.00000000000E+00  0.10390629067E+04  0.10390735365E+04  0.47000000000E+01 0.  1.
          5   -1    0    0  501    0  0.00000000000E+00 -0.00000000000E+00 -0.19700146511E+03  0.19705752271E+03  0.47000000000E+01 0. -1.
          6    1    1    2  502    0 -0.32611572643E+02  0.55884178999E+02 -0.14376582437E+03  0.23332202723E+03  0.17200000000E+03 0. -1.
         -6    1    1    2    0  502  0.32611572643E+02 -0.55884178999E+02  0.98582726601E+03  0.10028090319E+04  0.17200000000E+03 0.  1.
</event>
<event>
 4    1 -0.7308497E-004  0.3457603E+03  0.7818608E-02  0.1064369E+00
         -5   -1    0    0    0  501 -0.00000000000E+00  0.00000000000E+00  0.33687430481E+03  0.33690708993E+03  0.47000000000E+01 0.  1.
          5   -1    0    0  501    0  0.00000000000E+00 -0.00000000000E+00 -0.87894224230E+03  0.87895480845E+03  0.47000000000E+01 0. -1.
          6    1    1    2  502    0  0.78643291689E+02 -0.28945014983E+03 -0.74047274525E+03  0.81722092669E+03  0.17200000000E+03 0. -1.
         -6    1    1    2    0  502 -0.78643291689E+02  0.28945014983E+03  0.19840480776E+03  0.39864097169E+03  0.17200000000E+03 0.  1.
</event>
<event>
 4    1 -0.7308497E-004  0.2214429E+03  0.7818608E-02  0.1132812E+00
          5   -1    0    0  501    0  0.00000000000E+00  0.00000000000E+00  0.23646714135E+03  0.23651384513E+03  0.47000000000E+01 0. -1.
         -5   -1    0    0    0  501 -0.00000000000E+00 -0.00000000000E+00 -0.28545265091E+03  0.28549134122E+03  0.47000000000E+01 0.  1.
          6    1    1    2  502    0 -0.47263937157E+02  0.13122147607E+03  0.11207127879E+03  0.24818728224E+03  0.17200000000E+03 0. -1.
         -6    1    1    2    0  502  0.47263937157E+02 -0.13122147607E+03 -0.16105678835E+03  0.27381790411E+03  0.17200000000E+03 0.  1.
</event>
<event>
 4    1 -0.7308497E-004  0.2100592E+03  0.7818608E-02  0.1141519E+00
         -5   -1    0    0    0  501 -0.00000000000E+00  0.00000000000E+00  0.24484277764E+03  0.24488788407E+03  0.47000000000E+01 0.  1.
          5   -1    0    0  501    0  0.00000000000E+00 -0.00000000000E+00 -0.53767893779E+03  0.53769947940E+03  0.47000000000E+01 0. -1.
          6    1    1    2  502    0 -0.95422300817E+02 -0.73725411058E+02 -0.46548187735E+03  0.51068408030E+03  0.17200000000E+03 0. -1.
         -6    1    1    2    0  502  0.95422300817E+02  0.73725411058E+02  0.17264571720E+03  0.27190328317E+03  0.17200000000E+03 0.  1.
</event>
<event>
 4    1 -0.7308497E-004  0.2140555E+03  0.7818608E-02  0.1138394E+00
          5   -1    0    0  501    0  0.00000000000E+00  0.00000000000E+00  0.77954574675E+03  0.77955991513E+03  0.47000000000E+01 0. -1.
         -5   -1    0    0    0  501 -0.00000000000E+00 -0.00000000000E+00 -0.65862619198E+02  0.66030103799E+02  0.47000000000E+01 0.  1.
          6    1    1    2  502    0 -0.66920887231E+02  0.10843123312E+03  0.49636857114E+03  0.54055665372E+03  0.17200000000E+03 0. -1.
         -6    1    1    2    0  502  0.66920887231E+02 -0.10843123312E+03  0.21731455641E+03  0.30503336521E+03  0.17200000000E+03 0.  1.
</event>
<event>
 4    1 -0.7308497E-004  0.2505987E+03  0.7818608E-02  0.1112927E+00
         -5   -1    0    0    0  501 -0.00000000000E+00  0.00000000000E+00  0.11612608754E+03  0.11622116076E+03  0.47000000000E+01 0.  1.
          5   -1    0    0  501    0  0.00000000000E+00 -0.00000000000E+00 -0.66666363011E+03  0.66668019748E+03  0.47000000000E+01 0. -1.
          6    1    1    2  502    0  0.60831772031E+01  0.18215021377E+03 -0.44557028646E+03  0.51120698900E+03  0.17200000000E+03 0. -1.
         -6    1    1    2    0  502 -0.60831772031E+01 -0.18215021377E+03 -0.10496725611E+03  0.27169436924E+03  0.17200000000E+03 0.  1.
</event>
<event>
 4    1 -0.7308497E-004  0.1847255E+03  0.7818608E-02  0.1163306E+00
          5   -1    0    0  501    0  0.00000000000E+00  0.00000000000E+00  0.39520719505E+03  0.39523514143E+03  0.47000000000E+01 0. -1.
         -5   -1    0    0    0  501 -0.00000000000E+00 -0.00000000000E+00 -0.90682301960E+02  0.90804019122E+02  0.47000000000E+01 0.  1.
          6    1    1    2  502    0  0.66648407093E+02  0.98745682333E+01  0.20595432365E+03  0.27665990077E+03  0.17200000000E+03 0. -1.
         -6    1    1    2    0  502 -0.66648407093E+02 -0.98745682333E+01  0.98570569445E+02  0.20937925978E+03  0.17200000000E+03 0.  1.
</event>
<event>
 4    1 -0.7308497E-004  0.1734301E+03  0.7818608E-02  0.1174317E+00
          5   -1    0    0  501    0  0.00000000000E+00  0.00000000000E+00  0.58264523543E+02  0.58453782629E+02  0.47000000000E+01 0. -1.
         -5   -1    0    0    0  501 -0.00000000000E+00 -0.00000000000E+00 -0.97578222223E+03  0.97579354129E+03  0.47000000000E+01 0.  1.
          6    1    1    2  502    0 -0.86398289922E+01 -0.20478021173E+02 -0.10351358612E+03  0.20197291528E+03  0.17200000000E+03 0. -1.
         -6    1    1    2    0  502  0.86398289922E+01  0.20478021173E+02 -0.81400411256E+03  0.83227440863E+03  0.17200000000E+03 0.  1.
</event>
<event>
 4    1 -0.7308497E-004  0.1879023E+03  0.7818608E-02  0.1160367E+00
         -5   -1    0    0    0  501 -0.00000000000E+00  0.00000000000E+00  0.27237044621E+03  0.27241099458E+03  0.47000000000E+01 0.  1.
          5   -1    0    0  501    0  0.00000000000E+00 -0.00000000000E+00 -0.13053404601E+03  0.13061863255E+03  0.47000000000E+01 0. -1.
          6    1    1    2  502    0 -0.55252991459E+02 -0.51675695137E+02  0.88523474977E+02  0.20771055860E+03  0.17200000000E+03 0.  1.
         -6    1    1    2    0  502  0.55252991459E+02  0.51675695137E+02  0.53312925217E+02  0.19531906852E+03  0.17200000000E+03 0. -1.
</event>
<event>
 4    1 -0.7308497E-004  0.1832284E+03  0.7818608E-02  0.1164715E+00
         -5   -1    0    0    0  501 -0.00000000000E+00  0.00000000000E+00  0.13782974623E+03  0.13790985804E+03  0.47000000000E+01 0.  1.
          5   -1    0    0  501    0  0.00000000000E+00 -0.00000000000E+00 -0.69035097284E+03  0.69036697176E+03  0.47000000000E+01 0. -1.
          6    1    1    2  502    0  0.52567398812E+02 -0.35004591762E+02 -0.60945848756E+03  0.63640576751E+03  0.17200000000E+03 0. -1.
         -6    1    1    2    0  502 -0.52567398812E+02  0.35004591762E+02  0.56937260948E+02  0.19187106230E+03  0.17200000000E+03 0.  1.
</event>
<event>
 4    1 -0.7308497E-004  0.2080226E+03  0.7818608E-02  0.1143142E+00
          5   -1    0    0  501    0  0.00000000000E+00  0.00000000000E+00  0.16166210142E+03  0.16173040850E+03  0.47000000000E+01 0. -1.
         -5   -1    0    0    0  501 -0.00000000000E+00 -0.00000000000E+00 -0.52019394600E+03  0.52021517803E+03  0.47000000000E+01 0.  1.
          6    1    1    2  502    0 -0.80069850824E+02 -0.85312395882E+02  0.58344240251E+02  0.21604961530E+03  0.17200000000E+03 0. -1.
         -6    1    1    2    0  502  0.80069850824E+02  0.85312395882E+02 -0.41687608483E+03  0.46589597123E+03  0.17200000000E+03 0.  1.
</event>
<event>
 4    1 -0.7308497E-004  0.3075354E+03  0.7818608E-02  0.1081533E+00
          5   -1    0    0  501    0  0.00000000000E+00  0.00000000000E+00  0.11832315785E+04  0.11832409130E+04  0.47000000000E+01 0. -1.
         -5   -1    0    0    0  501 -0.00000000000E+00 -0.00000000000E+00 -0.13410281417E+03  0.13418515107E+03  0.47000000000E+01 0.  1.
          6    1    1    2  502    0  0.14018105568E+02  0.25455356214E+03  0.94334057946E+03  0.99220434999E+03  0.17200000000E+03 0. -1.
         -6    1    1    2    0  502 -0.14018105568E+02 -0.25455356214E+03  0.10578818485E+03  0.32522171412E+03  0.17200000000E+03 0.  1.
</event>
<event>
 4    1 -0.7308497E-004  0.1906563E+03  0.7818608E-02  0.1157871E+00
          5   -1    0    0  501    0  0.00000000000E+00  0.00000000000E+00  0.11444849500E+03  0.11454496064E+03  0.47000000000E+01 0. -1.
         -5   -1    0    0    0  501 -0.00000000000E+00 -0.00000000000E+00 -0.40373760858E+03  0.40376496453E+03  0.47000000000E+01 0.  1.
          6    1    1    2  502    0 -0.81089145769E+02  0.13797607636E+02 -0.24794115651E+02  0.19226172710E+03  0.17200000000E+03 0. -1.
         -6    1    1    2    0  502  0.81089145769E+02 -0.13797607636E+02 -0.26449499793E+03  0.32604819807E+03  0.17200000000E+03 0.  1.
</event>
<event>
 4    1 -0.7308497E-004  0.2031951E+03  0.7818608E-02  0.1147071E+00
          5   -1    0    0  501    0  0.00000000000E+00  0.00000000000E+00  0.14510844295E+03  0.14518453848E+03  0.47000000000E+01 0. -1.
         -5   -1    0    0    0  501 -0.00000000000E+00 -0.00000000000E+00 -0.69469403727E+03  0.69470993617E+03  0.47000000000E+01 0.  1.
          6    1    1    2  502    0  0.10789890695E+03  0.78795819271E+01  0.47932046512E+02  0.20877198810E+03  0.17200000000E+03 0. -1.
         -6    1    1    2    0  502 -0.10789890695E+03 -0.78795819271E+01 -0.59751764083E+03  0.63112248656E+03  0.17200000000E+03 0.  1.
</event>
<event>
 4    1 -0.7308497E-004  0.1799521E+03  0.7818608E-02  0.1167849E+00
          5   -1    0    0  501    0  0.00000000000E+00  0.00000000000E+00  0.34975333861E+02  0.35289714914E+02  0.47000000000E+01 0. -1.
         -5   -1    0    0    0  501 -0.00000000000E+00 -0.00000000000E+00 -0.23889303389E+04  0.23889349623E+04  0.47000000000E+01 0.  1.
          6    1    1    2  502    0 -0.52855466092E+02  0.22509941733E+01 -0.22702116567E+03  0.28969186549E+03  0.17200000000E+03 0. -1.
         -6    1    1    2    0  502  0.52855466092E+02 -0.22509941733E+01 -0.21269338394E+04  0.21345328118E+04  0.17200000000E+03 0.  1.
</event>
<event>
 4    1 -0.7308497E-004  0.1838478E+03  0.7818608E-02  0.1164130E+00
         -5   -1    0    0    0  501 -0.00000000000E+00  0.00000000000E+00  0.60425039658E+03  0.60426867515E+03  0.47000000000E+01 0.  1.
          5   -1    0    0  501    0  0.00000000000E+00 -0.00000000000E+00 -0.63628234641E+03  0.63629970482E+03  0.47000000000E+01 0. -1.
          6    1    1    2  502    0 -0.60080695411E+01 -0.64652281353E+02 -0.60840935159E+03  0.63558001344E+03  0.17200000000E+03 0. -1.
         -6    1    1    2    0  502  0.60080695411E+01  0.64652281353E+02  0.57637740175E+03  0.60498836653E+03  0.17200000000E+03 0.  1.
</event>
<event>
 4    1 -0.7308497E-004  0.1876166E+03  0.7818608E-02  0.1160629E+00
         -5   -1    0    0    0  501 -0.00000000000E+00  0.00000000000E+00  0.18031771264E+03  0.18037895524E+03  0.47000000000E+01 0.  1.
          5   -1    0    0  501    0  0.00000000000E+00 -0.00000000000E+00 -0.26554774798E+03  0.26558933800E+03  0.47000000000E+01 0. -1.
          6    1    1    2  502    0 -0.66005969672E+01 -0.74648717406E+02 -0.15745208532E+03  0.24493092508E+03  0.17200000000E+03 0. -1.
         -6    1    1    2    0  502  0.66005969672E+01  0.74648717406E+02  0.72222049982E+02  0.20103736815E+03  0.17200000000E+03 0.  1.
</event>
<event>
 4    1 -0.7308497E-004  0.2106829E+03  0.7818608E-02  0.1141026E+00
         -5   -1    0    0    0  501 -0.00000000000E+00  0.00000000000E+00  0.24943074934E+03  0.24947502624E+03  0.47000000000E+01 0.  1.
          5   -1    0    0  501    0  0.00000000000E+00 -0.00000000000E+00 -0.26776643662E+03  0.26780768208E+03  0.47000000000E+01 0. -1.
          6    1    1    2  502    0  0.11939724893E+03  0.23400555293E+02 -0.15900849680E+03  0.26395263040E+03  0.17200000000E+03 0. -1.
         -6    1    1    2    0  502 -0.11939724893E+03 -0.23400555293E+02  0.14067280952E+03  0.25333007792E+03  0.17200000000E+03 0.  1.
</event>
<event>
 4    1 -0.7308497E-004  0.1763729E+03  0.7818608E-02  0.1171360E+00
         -5   -1    0    0    0  501 -0.00000000000E+00  0.00000000000E+00  0.23268237105E+03  0.23272983435E+03  0.47000000000E+01 0.  1.
          5   -1    0    0  501    0  0.00000000000E+00 -0.00000000000E+00 -0.18366692338E+04  0.18366752474E+04  0.47000000000E+01 0. -1.
          6    1    1    2  502    0  0.72664462802E+01 -0.38348552807E+02 -0.17983318215E+04  0.18069600861E+04  0.17200000000E+03 0. -1.
         -6    1    1    2    0  502 -0.72664462802E+01  0.38348552807E+02  0.19434495872E+03  0.26244499562E+03  0.17200000000E+03 0.  1.
</event>
<event>
 4    1 -0.7308497E-004  0.1948509E+03  0.7818608E-02  0.1154157E+00
         -5   -1    0    0    0  501 -0.00000000000E+00  0.00000000000E+00  0.25582614646E+03  0.25586931667E+03  0.47000000000E+01 0.  1.
          5   -1    0    0  501    0  0.00000000000E+00 -0.00000000000E+00 -0.33749198564E+03  0.33752471076E+03  0.47000000000E+01 0. -1.
          6    1    1    2  502    0  0.20015248298E+02  0.89343540256E+02 -0.26293478665E+03  0.32726377799E+03  0.17200000000E+03 0. -1.
         -6    1    1    2    0  502 -0.20015248298E+02 -0.89343540256E+02  0.18126894748E+03  0.26613024944E+03  0.17200000000E+03 0.  1.
</event>
<event>
 4    1 -0.7308497E-004  0.2103670E+03  0.7818608E-02  0.1141276E+00
         -5   -1    0    0    0  501 -0.00000000000E+00  0.00000000000E+00  0.60483391104E+03  0.60485217198E+03  0.47000000000E+01 0.  1.
          5   -1    0    0  501    0  0.00000000000E+00 -0.00000000000E+00 -0.31282728569E+03  0.31286259072E+03  0.47000000000E+01 0. -1.
          6    1    1    2  502    0 -0.47389910535E+02 -0.11146506216E+03 -0.25563162573E+03  0.33106161326E+03  0.17200000000E+03 0. -1.
         -6    1    1    2    0  502  0.47389910535E+02  0.11146506216E+03  0.54763825108E+03  0.58665314944E+03  0.17200000000E+03 0.  1.
</event>
<event>
 4    1 -0.7308497E-004  0.2033913E+03  0.7818608E-02  0.1146909E+00
          5   -1    0    0  501    0  0.00000000000E+00  0.00000000000E+00  0.64034300400E+02  0.64206554399E+02  0.47000000000E+01 0. -1.
         -5   -1    0    0    0  501 -0.00000000000E+00 -0.00000000000E+00 -0.14264632853E+04  0.14264710282E+04  0.47000000000E+01 0.  1.
          6    1    1    2  502    0  0.35619518475E+02 -0.10254409330E+03 -0.12957553798E+03  0.24115941037E+03  0.17200000000E+03 0. -1.
         -6    1    1    2    0  502 -0.35619518475E+02  0.10254409330E+03 -0.12328534470E+04  0.12495181723E+04  0.17200000000E+03 0.  1.
</event>
<event>
 4    1 -0.7308497E-004  0.1736085E+03  0.7818608E-02  0.1174136E+00
         -5   -1    0    0    0  501 -0.00000000000E+00  0.00000000000E+00  0.34490542583E+02  0.34809302316E+02  0.47000000000E+01 0.  1.
          5   -1    0    0  501    0  0.00000000000E+00 -0.00000000000E+00 -0.16791345078E+04  0.16791410856E+04  0.47000000000E+01 0. -1.
          6    1    1    2  502    0  0.14788988601E+01  0.23531482307E+02 -0.14173307019E+04  0.14279237502E+04  0.17200000000E+03 0. -1.
         -6    1    1    2    0  502 -0.14788988601E+01 -0.23531482307E+02 -0.22731326333E+03  0.28602663773E+03  0.17200000000E+03 0.  1.
</event>
<event>
 4    1 -0.7308497E-004  0.2017646E+03  0.7818608E-02  0.1148259E+00
          5   -1    0    0  501    0  0.00000000000E+00  0.00000000000E+00  0.74697950966E+02  0.74845667066E+02  0.47000000000E+01 0. -1.
         -5   -1    0    0    0  501 -0.00000000000E+00 -0.00000000000E+00 -0.54919086199E+03  0.54921097303E+03  0.47000000000E+01 0.  1.
          6    1    1    2  502    0 -0.10312396771E+03 -0.22145142258E+02 -0.20775918738E+03  0.28960807997E+03  0.17200000000E+03 0. -1.
         -6    1    1    2    0  502  0.10312396771E+03  0.22145142258E+02 -0.26673372365E+03  0.33444856013E+03  0.17200000000E+03 0.  1.
</event>
<event>
 4    1 -0.7308497E-004  0.2431563E+03  0.7818608E-02  0.1117708E+00
          5   -1    0    0  501    0  0.00000000000E+00  0.00000000000E+00  0.41488445688E+03  0.41491107789E+03  0.47000000000E+01 0. -1.
         -5   -1    0    0    0  501 -0.00000000000E+00 -0.00000000000E+00 -0.60059654318E+03  0.60061493295E+03  0.47000000000E+01 0.  1.
          6    1    1    2  502    0 -0.77803572056E+02 -0.15325659793E+03  0.35059924318E+03  0.42666709500E+03  0.17200000000E+03 0. -1.
         -6    1    1    2    0  502  0.77803572056E+02  0.15325659793E+03 -0.53631132949E+03  0.58885891585E+03  0.17200000000E+03 0.  1.
</event>
<event>
 4    1 -0.7308497E-004  0.2636680E+03  0.7818608E-02  0.1104959E+00
         -5   -1    0    0    0  501 -0.00000000000E+00  0.00000000000E+00  0.95458524640E+03  0.95459681680E+03  0.47000000000E+01 0.  1.
          5   -1    0    0  501    0  0.00000000000E+00 -0.00000000000E+00 -0.57757611647E+03  0.57759523918E+03  0.47000000000E+01 0. -1.
          6    1    1    2  502    0  0.72689765995E+01  0.19970970044E+03 -0.52766715271E+03  0.58987577211E+03  0.17200000000E+03 0. -1.
         -6    1    1    2    0  502 -0.72689765995E+01 -0.19970970044E+03  0.90467628264E+03  0.94231628387E+03  0.17200000000E+03 0.  1.
</event>
<event>
 4    1 -0.7308497E-004  0.1993415E+03  0.7818608E-02  0.1150296E+00
         -5   -1    0    0    0  501 -0.00000000000E+00  0.00000000000E+00  0.57332249564E+03  0.57334176021E+03  0.47000000000E+01 0.  1.
          5   -1    0    0  501    0  0.00000000000E+00 -0.00000000000E+00 -0.13586337698E+03  0.13594464757E+03  0.47000000000E+01 0. -1.
          6    1    1    2  502    0  0.10064059807E+03  0.49497265007E+01 -0.29542958820E+02  0.20151877378E+03  0.17200000000E+03 0. -1.
         -6    1    1    2    0  502 -0.10064059807E+03 -0.49497265007E+01  0.46700207748E+03  0.50776763400E+03  0.17200000000E+03 0.  1.
</event>
<event>
 4    1 -0.7308497E-004  0.2402206E+03  0.7818608E-02  0.1119646E+00
         -5   -1    0    0    0  501 -0.00000000000E+00  0.00000000000E+00  0.11332582597E+03  0.11342324643E+03  0.47000000000E+01 0.  1.
          5   -1    0    0  501    0  0.00000000000E+00 -0.00000000000E+00 -0.10231120610E+04  0.10231228565E+04  0.47000000000E+01 0. -1.
          6    1    1    2  502    0  0.11864688921E+03  0.11851103547E+03 -0.85775135596E+03  0.89075436485E+03  0.17200000000E+03 0. -1.
         -6    1    1    2    0  502 -0.11864688921E+03 -0.11851103547E+03 -0.52034879090E+02  0.24579173804E+03  0.17200000000E+03 0.  1.
</event>
<event>
 4    1 -0.7308497E-004  0.1794339E+03  0.7818608E-02  0.1168352E+00
         -5   -1    0    0    0  501 -0.00000000000E+00  0.00000000000E+00  0.49428026399E+03  0.49430260911E+03  0.47000000000E+01 0.  1.
          5   -1    0    0  501    0  0.00000000000E+00 -0.00000000000E+00 -0.23823547809E+03  0.23828183527E+03  0.47000000000E+01 0. -1.
          6    1    1    2  502    0 -0.36858283491E+02  0.35411531623E+02 -0.18421657214E+03  0.25716192386E+03  0.17200000000E+03 0. -1.
         -6    1    1    2    0  502  0.36858283491E+02 -0.35411531623E+02  0.44026135804E+03  0.47542252052E+03  0.17200000000E+03 0.  1.
</event>
<event>
 4    1 -0.7308497E-004  0.1728130E+03  0.7818608E-02  0.1174946E+00
          5   -1    0    0  501    0  0.00000000000E+00  0.00000000000E+00  0.13829062984E+03  0.13837047482E+03  0.47000000000E+01 0. -1.
         -5   -1    0    0    0  501 -0.00000000000E+00 -0.00000000000E+00 -0.17475932645E+04  0.17475995846E+04  0.47000000000E+01 0.  1.
          6    1    1    2  502    0  0.13908886741E+02 -0.93201320766E+01  0.78170885809E+02  0.18967079211E+03  0.17200000000E+03 0. -1.
         -6    1    1    2    0  502 -0.13908886741E+02  0.93201320766E+01 -0.16874735205E+04  0.16962992673E+04  0.17200000000E+03 0.  1.
</event>
<event>
 4    1 -0.7308497E-004  0.2645489E+03  0.7818608E-02  0.1104441E+00
          5   -1    0    0  501    0  0.00000000000E+00  0.00000000000E+00  0.97706860316E+03  0.97707990731E+03  0.47000000000E+01 0. -1.
         -5   -1    0    0    0  501 -0.00000000000E+00 -0.00000000000E+00 -0.17257938680E+03  0.17264337447E+03  0.47000000000E+01 0.  1.
          6    1    1    2  502    0  0.18825771893E+03 -0.70435402553E+02  0.84195135356E+03  0.88253509643E+03  0.17200000000E+03 0. -1.
         -6    1    1    2    0  502 -0.18825771893E+03  0.70435402553E+02 -0.37462137203E+02  0.26718818536E+03  0.17200000000E+03 0.  1.
</event>
<event>
 4    1 -0.7308497E-004  0.2952529E+03  0.7818608E-02  0.1087638E+00
         -5   -1    0    0    0  501 -0.00000000000E+00  0.00000000000E+00  0.40446299660E+03  0.40449030349E+03  0.47000000000E+01 0.  1.
          5   -1    0    0  501    0  0.00000000000E+00 -0.00000000000E+00 -0.97149066177E+03  0.97150203083E+03  0.47000000000E+01 0. -1.
          6    1    1    2  502    0  0.16761582892E+02  0.23939360281E+03 -0.89041818757E+03  0.93809317047E+03  0.17200000000E+03 0. -1.
         -6    1    1    2    0  502 -0.16761582892E+02 -0.23939360281E+03  0.32339052240E+03  0.43789916385E+03  0.17200000000E+03 0.  1.
</event>
<event>
 4    1 -0.7308497E-004  0.1784003E+03  0.7818608E-02  0.1169360E+00
         -5   -1    0    0    0  501 -0.00000000000E+00  0.00000000000E+00  0.32489882214E+03  0.32493281556E+03  0.47000000000E+01 0.  1.
          5   -1    0    0  501    0  0.00000000000E+00 -0.00000000000E+00 -0.72250549664E+03  0.72252078356E+03  0.47000000000E+01 0. -1.
          6    1    1    2  502    0  0.36394735879E+02 -0.30300004128E+02 -0.68573773622E+03  0.70856397730E+03  0.17200000000E+03 0. -1.
         -6    1    1    2    0  502 -0.36394735879E+02  0.30300004128E+02  0.28813106172E+03  0.33888962182E+03  0.17200000000E+03 0.  1.
</event>
<event>
 4    1 -0.7308497E-004  0.2080842E+03  0.7818608E-02  0.1143092E+00
         -5   -1    0    0    0  501 -0.00000000000E+00  0.00000000000E+00  0.78095632006E+03  0.78097046285E+03  0.47000000000E+01 0.  1.
          5   -1    0    0  501    0  0.00000000000E+00 -0.00000000000E+00 -0.46513567621E+03  0.46515942136E+03  0.47000000000E+01 0. -1.
          6    1    1    2  502    0  0.11609573419E+03 -0.15388113294E+02 -0.42684501296E+03  0.47486385271E+03  0.17200000000E+03 0. -1.
         -6    1    1    2    0  502 -0.11609573419E+03  0.15388113294E+02  0.74266565681E+03  0.77126603149E+03  0.17200000000E+03 0.  1.
</event>
<event>
 4    1 -0.7308497E-004  0.2205369E+03  0.7818608E-02  0.1133483E+00
         -5   -1    0    0    0  501 -0.00000000000E+00  0.00000000000E+00  0.25448038200E+03  0.25452378047E+03  0.47000000000E+01 0.  1.
          5   -1    0    0  501    0  0.00000000000E+00 -0.00000000000E+00 -0.10595629411E+04  0.10595733652E+04  0.47000000000E+01 0. -1.
          6    1    1    2  502    0 -0.10393663783E+02  0.13763900040E+03 -0.99739581818E+03  0.10214866327E+04  0.17200000000E+03 0. -1.
         -6    1    1    2    0  502  0.10393663783E+02 -0.13763900040E+03  0.19231325905E+03  0.29261051294E+03  0.17200000000E+03 0.  1.
</event>
<event>
 4    1 -0.7308497E-004  0.2406502E+03  0.7818608E-02  0.1119360E+00
         -5   -1    0    0    0  501 -0.00000000000E+00  0.00000000000E+00  0.30476322676E+03  0.30479946585E+03  0.47000000000E+01 0.  1.
          5   -1    0    0  501    0  0.00000000000E+00 -0.00000000000E+00 -0.22104452819E+04  0.22104502786E+04  0.47000000000E+01 0. -1.
          6    1    1    2  502    0  0.15375005195E+02  0.16760699267E+03 -0.21551987963E+04  0.21685927110E+04  0.17200000000E+03 0. -1.
         -6    1    1    2    0  502 -0.15375005195E+02 -0.16760699267E+03  0.24951674111E+03  0.34665703350E+03  0.17200000000E+03 0.  1.
</event>
<event>
 4    1 -0.7308497E-004  0.2397114E+03  0.7818608E-02  0.1119985E+00
          5   -1    0    0  501    0  0.00000000000E+00  0.00000000000E+00  0.59432803573E+03  0.59434661945E+03  0.47000000000E+01 0. -1.
         -5   -1    0    0    0  501 -0.00000000000E+00 -0.00000000000E+00 -0.26329985023E+03  0.26334179526E+03  0.47000000000E+01 0.  1.
          6    1    1    2  502    0 -0.16561645981E+03 -0.21183152325E+02  0.50667113035E+03  0.56051509528E+03  0.17200000000E+03 0. -1.
         -6    1    1    2    0  502  0.16561645981E+03  0.21183152325E+02 -0.17564294485E+03  0.29717331943E+03  0.17200000000E+03 0.  1.
</event>
<event>
 4    1 -0.7308497E-004  0.1881104E+03  0.7818608E-02  0.1160177E+00
          5   -1    0    0  501    0  0.00000000000E+00  0.00000000000E+00  0.90119559568E+03  0.90120785153E+03  0.47000000000E+01 0. -1.
         -5   -1    0    0    0  501 -0.00000000000E+00 -0.00000000000E+00 -0.61759363166E+02  0.61937944256E+02  0.47000000000E+01 0.  1.
          6    1    1    2  502    0  0.63011029520E+02  0.42791636823E+02  0.71077014782E+03  0.73524126452E+03  0.17200000000E+03 0.  1.
         -6    1    1    2    0  502 -0.63011029520E+02 -0.42791636823E+02  0.12866608469E+03  0.22790453127E+03  0.17200000000E+03 0.  1.
</event>
<event>
 4    1 -0.7308497E-004  0.1946514E+03  0.7818608E-02  0.1154332E+00
         -5   -1    0    0    0  501 -0.00000000000E+00  0.00000000000E+00  0.30633726984E+03  0.30637332275E+03  0.47000000000E+01 0.  1.
          5   -1    0    0  501    0  0.00000000000E+00 -0.00000000000E+00 -0.20952631231E+03  0.20957901983E+03  0.47000000000E+01 0. -1.
          6    1    1    2  502    0 -0.90209752586E+02 -0.12937144716E+02 -0.11676077187E+03  0.22698512511E+03  0.17200000000E+03 0. -1.
         -6    1    1    2    0  502  0.90209752586E+02  0.12937144716E+02  0.21357172940E+03  0.28896721747E+03  0.17200000000E+03 0.  1.
</event>
<event>
 4    1 -0.7308497E-004  0.1839852E+03  0.7818608E-02  0.1164001E+00
          5   -1    0    0  501    0  0.00000000000E+00  0.00000000000E+00  0.52273163730E+03  0.52275276626E+03  0.47000000000E+01 0. -1.
         -5   -1    0    0    0  501 -0.00000000000E+00 -0.00000000000E+00 -0.20520299011E+03  0.20525680780E+03  0.47000000000E+01 0.  1.
          6    1    1    2  502    0 -0.54390425592E+02 -0.36169713021E+02  0.45992293040E+03  0.49535812140E+03  0.17200000000E+03 0. -1.
         -6    1    1    2    0  502  0.54390425592E+02  0.36169713021E+02 -0.14239428321E+03  0.23265145266E+03  0.17200000000E+03 0.  1.
</event>
<event>
 4    1 -0.7308497E-004  0.1782523E+03  0.7818608E-02  0.1169505E+00
          5   -1    0    0  501    0  0.00000000000E+00  0.00000000000E+00  0.29119015678E+03  0.29122808485E+03  0.47000000000E+01 0. -1.
         -5   -1    0    0    0  501 -0.00000000000E+00 -0.00000000000E+00 -0.24018823143E+03  0.24023421180E+03  0.47000000000E+01 0.  1.
          6    1    1    2  502    0  0.38714158889E+02  0.26288900219E+02  0.22182674952E+03  0.28457160641E+03  0.17200000000E+03 0. -1.
         -6    1    1    2    0  502 -0.38714158889E+02 -0.26288900219E+02 -0.17082482417E+03  0.24689069024E+03  0.17200000000E+03 0.  1.
</event>
<event>
 4    1 -0.7308497E-004  0.1938880E+03  0.7818608E-02  0.1155001E+00
          5   -1    0    0  501    0  0.00000000000E+00  0.00000000000E+00  0.11872534364E+04  0.11872627394E+04  0.47000000000E+01 0. -1.
         -5   -1    0    0    0  501 -0.00000000000E+00 -0.00000000000E+00 -0.69278790840E+02  0.69438036120E+02  0.47000000000E+01 0.  1.
          6    1    1    2  502    0  0.25323947310E+02 -0.85832692336E+02  0.10222412245E+04  0.10404660852E+04  0.17200000000E+03 0. -1.
         -6    1    1    2    0  502 -0.25323947310E+02  0.85832692336E+02  0.95733421114E+02  0.21623469032E+03  0.17200000000E+03 0.  1.
</event>
<event>
 4    1 -0.7308497E-004  0.2475464E+03  0.7818608E-02  0.1114865E+00
          5   -1    0    0  501    0  0.00000000000E+00  0.00000000000E+00  0.56156387364E+03  0.56158354158E+03  0.47000000000E+01 0. -1.
         -5   -1    0    0    0  501 -0.00000000000E+00 -0.00000000000E+00 -0.13954104667E+03  0.13962017657E+03  0.47000000000E+01 0.  1.
          6    1    1    2  502    0 -0.15520706513E+03  0.87212282110E+02  0.37483515485E+03  0.44919996497E+03  0.17200000000E+03 0. -1.
         -6    1    1    2    0  502  0.15520706513E+03 -0.87212282110E+02  0.47187672117E+02  0.25200375318E+03  0.17200000000E+03 0.  1.
</event>
<event>
 4    1 -0.7308497E-004  0.2427608E+03  0.7818608E-02  0.1117967E+00
          5   -1    0    0  501    0  0.00000000000E+00  0.00000000000E+00  0.12940097454E+03  0.12948630125E+03  0.47000000000E+01 0. -1.
         -5   -1    0    0    0  501 -0.00000000000E+00 -0.00000000000E+00 -0.77506444810E+03  0.77507869839E+03  0.47000000000E+01 0.  1.
          6    1    1    2  502    0 -0.16955920557E+03 -0.24463499728E+02 -0.32290317275E+02  0.24489885995E+03  0.17200000000E+03 0. -1.
         -6    1    1    2    0  502  0.16955920557E+03  0.24463499728E+02 -0.61337315628E+03  0.65966613970E+03  0.17200000000E+03 0.  1.
</event>
<event>
 4    1 -0.7308497E-004  0.1734808E+03  0.7818608E-02  0.1174266E+00
         -5   -1    0    0    0  501 -0.00000000000E+00  0.00000000000E+00  0.16464671284E+04  0.16464738367E+04  0.47000000000E+01 0.  1.
          5   -1    0    0  501    0  0.00000000000E+00 -0.00000000000E+00 -0.66567454496E+02  0.66733170149E+02  0.47000000000E+01 0. -1.
          6    1    1    2  502    0  0.94330701085E+01  0.20557665518E+02  0.60187271330E+02  0.18362491131E+03  0.17200000000E+03 0. -1.
         -6    1    1    2    0  502 -0.94330701085E+01 -0.20557665518E+02  0.15197124026E+04  0.15295820955E+04  0.17200000000E+03 0.  1.
</event>
<event>
 4    1 -0.7308497E-004  0.2471232E+03  0.7818608E-02  0.1115136E+00
          5   -1    0    0  501    0  0.00000000000E+00  0.00000000000E+00  0.45306492304E+03  0.45308930079E+03  0.47000000000E+01 0. -1.
         -5   -1    0    0    0  501 -0.00000000000E+00 -0.00000000000E+00 -0.21282741277E+03  0.21287930296E+03  0.47000000000E+01 0.  1.
          6    1    1    2  502    0 -0.14924046177E+03 -0.95985296257E+02  0.32179387980E+03  0.40573537386E+03  0.17200000000E+03 0. -1.
         -6    1    1    2    0  502  0.14924046177E+03  0.95985296257E+02 -0.81556369526E+02  0.26023322989E+03  0.17200000000E+03 0.  1.
</event>
<event>
 4    1 -0.7308497E-004  0.2191538E+03  0.7818608E-02  0.1134515E+00
         -5   -1    0    0    0  501 -0.00000000000E+00  0.00000000000E+00  0.46724862478E+03  0.46727226256E+03  0.47000000000E+01 0.  1.
          5   -1    0    0  501    0  0.00000000000E+00 -0.00000000000E+00 -0.40090376511E+03  0.40093131442E+03  0.47000000000E+01 0. -1.
          6    1    1    2  502    0  0.11033391661E+03 -0.79188532573E+02 -0.34117214338E+03  0.40549578082E+03  0.17200000000E+03 0. -1.
         -6    1    1    2    0  502 -0.11033391661E+03  0.79188532573E+02  0.40751700305E+03  0.46270779616E+03  0.17200000000E+03 0.  1.
</event>
<event>
 4    1 -0.7308497E-004  0.1807214E+03  0.7818608E-02  0.1167107E+00
          5   -1    0    0  501    0  0.00000000000E+00  0.00000000000E+00  0.41513295991E+03  0.41515956499E+03  0.47000000000E+01 0. -1.
         -5   -1    0    0    0  501 -0.00000000000E+00 -0.00000000000E+00 -0.83738999944E+02  0.83870794151E+02  0.47000000000E+01 0.  1.
          6    1    1    2  502    0 -0.76174626303E+01  0.54938262061E+02  0.22760007614E+03  0.29062352457E+03  0.17200000000E+03 0. -1.
         -6    1    1    2    0  502  0.76174626303E+01 -0.54938262061E+02  0.10379388382E+03  0.20840683456E+03  0.17200000000E+03 0.  1.
</event>
<event>
 4    1 -0.7308497E-004  0.1955230E+03  0.7818608E-02  0.1153572E+00
          5   -1    0    0  501    0  0.00000000000E+00  0.00000000000E+00  0.35906212737E+03  0.35909288675E+03  0.47000000000E+01 0. -1.
         -5   -1    0    0    0  501 -0.00000000000E+00 -0.00000000000E+00 -0.51467297815E+03  0.51469443793E+03  0.47000000000E+01 0.  1.
          6    1    1    2  502    0 -0.12492918935E+02 -0.92136603702E+02  0.31128927119E+03  0.36760064897E+03  0.17200000000E+03 0. -1.
         -6    1    1    2    0  502  0.12492918935E+02  0.92136603702E+02 -0.46690012197E+03  0.50618667571E+03  0.17200000000E+03 0.  1.
</event>
<event>
 4    1 -0.7308497E-004  0.2132712E+03  0.7818608E-02  0.1139001E+00
         -5   -1    0    0    0  501 -0.00000000000E+00  0.00000000000E+00  0.88410891441E+03  0.88412140713E+03  0.47000000000E+01 0.  1.
          5   -1    0    0  501    0  0.00000000000E+00 -0.00000000000E+00 -0.61665040681E+02  0.61843894138E+02  0.47000000000E+01 0. -1.
          6    1    1    2  502    0  0.76271041909E+02 -0.10041581744E+03  0.60455991425E+03  0.64107511115E+03  0.17200000000E+03 0.  1.
         -6    1    1    2    0  502 -0.76271041909E+02  0.10041581744E+03  0.21788395948E+03  0.30489019011E+03  0.17200000000E+03 0.  1.
</event>
<event>
 4    1 -0.7308497E-004  0.1786749E+03  0.7818608E-02  0.1169092E+00
          5   -1    0    0  501    0  0.00000000000E+00  0.00000000000E+00  0.60231646723E+02  0.60414743788E+02  0.47000000000E+01 0. -1.
         -5   -1    0    0    0  501 -0.00000000000E+00 -0.00000000000E+00 -0.53536916585E+03  0.53538979608E+03  0.47000000000E+01 0.  1.
          6    1    1    2  502    0 -0.19117493442E+02  0.44443875857E+02 -0.26996695877E+03  0.32373893106E+03  0.17200000000E+03 0.  1.
         -6    1    1    2    0  502  0.19117493442E+02 -0.44443875857E+02 -0.20517056036E+03  0.27206560881E+03  0.17200000000E+03 0. -1.
</event>
<event>
 4    1 -0.7308497E-004  0.1978330E+03  0.7818608E-02  0.1151580E+00
          5   -1    0    0  501    0  0.00000000000E+00  0.00000000000E+00  0.96113999920E+03  0.96115149069E+03  0.47000000000E+01 0. -1.
         -5   -1    0    0    0  501 -0.00000000000E+00 -0.00000000000E+00 -0.19398571607E+03  0.19404264490E+03  0.47000000000E+01 0.  1.
          6    1    1    2  502    0 -0.94414802421E+02  0.25293021001E+02  0.89699909964E+03  0.91855608244E+03  0.17200000000E+03 0. -1.
         -6    1    1    2    0  502  0.94414802421E+02 -0.25293021001E+02 -0.12984481651E+03  0.23663805316E+03  0.17200000000E+03 0.  1.
</event>
<event>
 4    1 -0.7308497E-004  0.1774608E+03  0.7818608E-02  0.1170283E+00
          5   -1    0    0  501    0  0.00000000000E+00  0.00000000000E+00  0.20896980759E+03  0.20902265543E+03  0.47000000000E+01 0. -1.
         -5   -1    0    0    0  501 -0.00000000000E+00 -0.00000000000E+00 -0.37791589070E+03  0.37794511565E+03  0.47000000000E+01 0.  1.
          6    1    1    2  502    0  0.42851682036E+02 -0.84887320075E+01  0.14311388501E+03  0.22797787021E+03  0.17200000000E+03 0. -1.
         -6    1    1    2    0  502 -0.42851682036E+02  0.84887320075E+01 -0.31205996812E+03  0.35898990087E+03  0.17200000000E+03 0.  1.
</event>
<event>
 4    1 -0.7308497E-004  0.2488197E+03  0.7818608E-02  0.1114053E+00
          5   -1    0    0  501    0  0.00000000000E+00  0.00000000000E+00  0.15278568857E+03  0.15285796228E+03  0.47000000000E+01 0. -1.
         -5   -1    0    0    0  501 -0.00000000000E+00 -0.00000000000E+00 -0.12577807517E+04  0.12577895330E+04  0.47000000000E+01 0.  1.
          6    1    1    2  502    0 -0.13624818753E+03  0.11731873933E+03  0.28240582669E+02  0.25041722328E+03  0.17200000000E+03 0. -1.
         -6    1    1    2    0  502  0.13624818753E+03 -0.11731873933E+03 -0.11332356458E+04  0.11602302721E+04  0.17200000000E+03 0.  1.
</event>
<event>
 4    1 -0.7308497E-004  0.1867775E+03  0.7818608E-02  0.1161400E+00
          5   -1    0    0  501    0  0.00000000000E+00  0.00000000000E+00  0.19605534424E+03  0.19611167228E+03  0.47000000000E+01 0. -1.
         -5   -1    0    0    0  501 -0.00000000000E+00 -0.00000000000E+00 -0.11990746390E+04  0.11990838502E+04  0.47000000000E+01 0.  1.
          6    1    1    2  502    0  0.71994965025E+02  0.10888520813E+02  0.14226090269E+03  0.23478500657E+03  0.17200000000E+03 0. -1.
         -6    1    1    2    0  502 -0.71994965025E+02 -0.10888520813E+02 -0.11452801974E+04  0.11604105159E+04  0.17200000000E+03 0.  1.
</event>
<event>
 4    1 -0.7308497E-004  0.3542846E+03  0.7818608E-02  0.1060870E+00
         -5   -1    0    0    0  501 -0.00000000000E+00  0.00000000000E+00  0.66277343399E+03  0.66279009861E+03  0.47000000000E+01 0.  1.
          5   -1    0    0  501    0  0.00000000000E+00 -0.00000000000E+00 -0.89657169204E+03  0.89658401110E+03  0.47000000000E+01 0. -1.
          6    1    1    2  502    0 -0.30884233530E+03  0.23451971863E+02 -0.80936421410E+03  0.88350892136E+03  0.17200000000E+03 0. -1.
         -6    1    1    2    0  502  0.30884233530E+03 -0.23451971863E+02  0.57556595605E+03  0.67586518835E+03  0.17200000000E+03 0.  1.
</event>
<event>
 4    1 -0.7308497E-004  0.2332746E+03  0.7818608E-02  0.1124356E+00
          5   -1    0    0  501    0  0.00000000000E+00  0.00000000000E+00  0.19591285513E+04  0.19591341890E+04  0.47000000000E+01 0. -1.
         -5   -1    0    0    0  501 -0.00000000000E+00 -0.00000000000E+00 -0.15383698151E+03  0.15390876155E+03  0.47000000000E+01 0.  1.
          6    1    1    2  502    0  0.24278358358E+02 -0.15570351451E+03  0.18590710524E+04  0.18736494338E+04  0.17200000000E+03 0. -1.
         -6    1    1    2    0  502 -0.24278358358E+02  0.15570351451E+03 -0.53779482557E+02  0.23939351675E+03  0.17200000000E+03 0.  1.
</event>
<event>
 4    1 -0.7308497E-004  0.1725431E+03  0.7818608E-02  0.1175221E+00
          5   -1    0    0  501    0  0.00000000000E+00  0.00000000000E+00  0.27140213925E+03  0.27144283227E+03  0.47000000000E+01 0. -1.
         -5   -1    0    0    0  501 -0.00000000000E+00 -0.00000000000E+00 -0.14610620210E+03  0.14618177825E+03  0.47000000000E+01 0.  1.
          6    1    1    2  502    0  0.12389783093E+01  0.13623212549E+02  0.16698690102E+03  0.24011612212E+03  0.17200000000E+03 0. -1.
         -6    1    1    2    0  502 -0.12389783093E+01 -0.13623212549E+02 -0.41690963869E+02  0.17750848840E+03  0.17200000000E+03 0.  1.
</event>
<event>
 4    1 -0.7308497E-004  0.1798661E+03  0.7818608E-02  0.1167933E+00
          5   -1    0    0  501    0  0.00000000000E+00  0.00000000000E+00  0.33997191885E+03  0.34000440528E+03  0.47000000000E+01 0. -1.
         -5   -1    0    0    0  501 -0.00000000000E+00 -0.00000000000E+00 -0.11755504058E+03  0.11764895905E+03  0.47000000000E+01 0.  1.
          6    1    1    2  502    0 -0.35246283124E+02 -0.39057661340E+02  0.21123747178E+03  0.27744021134E+03  0.17200000000E+03 0. -1.
         -6    1    1    2    0  502  0.35246283124E+02  0.39057661340E+02  0.11179406494E+02  0.18021315300E+03  0.17200000000E+03 0.  1.
</event>
<event>
 4    1 -0.7308497E-004  0.1857974E+03  0.7818608E-02  0.1162307E+00
          5   -1    0    0  501    0  0.00000000000E+00  0.00000000000E+00  0.23818060098E+03  0.23822696884E+03  0.47000000000E+01 0. -1.
         -5   -1    0    0    0  501 -0.00000000000E+00 -0.00000000000E+00 -0.39334274294E+03  0.39337082177E+03  0.47000000000E+01 0.  1.
          6    1    1    2  502    0  0.68529369868E+02 -0.15504799079E+02  0.17339915099E+03  0.25414157254E+03  0.17200000000E+03 0. -1.
         -6    1    1    2    0  502 -0.68529369868E+02  0.15504799079E+02 -0.32856129296E+03  0.37745621807E+03  0.17200000000E+03 0.  1.
</event>
<event>
 4    1 -0.7308497E-004  0.1810267E+03  0.7818608E-02  0.1166813E+00
         -5   -1    0    0    0  501 -0.00000000000E+00  0.00000000000E+00  0.18983333353E+03  0.18989150723E+03  0.47000000000E+01 0.  1.
          5   -1    0    0  501    0  0.00000000000E+00 -0.00000000000E+00 -0.26710204366E+03  0.26714339169E+03  0.47000000000E+01 0. -1.
          6    1    1    2  502    0 -0.54952752551E+02  0.12917228192E+02 -0.17459507856E+03  0.25150368040E+03  0.17200000000E+03 0. -1.
         -6    1    1    2    0  502  0.54952752551E+02 -0.12917228192E+02  0.97326368433E+02  0.20553121853E+03  0.17200000000E+03 0.  1.
</event>
<event>
 4    1 -0.7308497E-004  0.3216826E+03  0.7818608E-02  0.1074878E+00
         -5   -1    0    0    0  501 -0.00000000000E+00  0.00000000000E+00  0.26315149375E+03  0.26319346243E+03  0.47000000000E+01 0.  1.
          5   -1    0    0  501    0  0.00000000000E+00 -0.00000000000E+00 -0.41886700882E+03  0.41889337674E+03  0.47000000000E+01 0. -1.
          6    1    1    2  502    0  0.84261177338E+02  0.25844870159E+03 -0.16236393108E+03  0.36033557065E+03  0.17200000000E+03 0. -1.
         -6    1    1    2    0  502 -0.84261177338E+02 -0.25844870159E+03  0.66484160151E+01  0.32175126852E+03  0.17200000000E+03 0.  1.
</event>
<event>
 4    1 -0.7308497E-004  0.2309983E+03  0.7818608E-02  0.1125939E+00
         -5   -1    0    0    0  501 -0.00000000000E+00  0.00000000000E+00  0.20440395961E+03  0.20445798762E+03  0.47000000000E+01 0.  1.
          5   -1    0    0  501    0  0.00000000000E+00 -0.00000000000E+00 -0.87972671650E+03  0.87973927145E+03  0.47000000000E+01 0. -1.
          6    1    1    2  502    0  0.14898573614E+03  0.39742720505E+02 -0.79228677824E+03  0.82527484657E+03  0.17200000000E+03 0. -1.
         -6    1    1    2    0  502 -0.14898573614E+03 -0.39742720505E+02  0.11696402135E+03  0.25892241250E+03  0.17200000000E+03 0.  1.
</event>
<event>
 4    1 -0.7308497E-004  0.1967806E+03  0.7818608E-02  0.1152484E+00
         -5   -1    0    0    0  501 -0.00000000000E+00  0.00000000000E+00  0.43116896869E+02  0.43372304476E+02  0.47000000000E+01 0.  1.
          5   -1    0    0  501    0  0.00000000000E+00 -0.00000000000E+00 -0.11187039078E+04  0.11187137808E+04  0.47000000000E+01 0. -1.
          6    1    1    2  502    0 -0.81233496417E+01 -0.95250328942E+02 -0.79749232590E+03  0.82141136091E+03  0.17200000000E+03 0. -1.
         -6    1    1    2    0  502  0.81233496417E+01  0.95250328942E+02 -0.27809468507E+03  0.34067472439E+03  0.17200000000E+03 0.  1.
</event>
<event>
 4    1 -0.7308497E-004  0.1832784E+03  0.7818608E-02  0.1164667E+00
         -5   -1    0    0    0  501 -0.00000000000E+00  0.00000000000E+00  0.68094262265E+02  0.68256271165E+02  0.47000000000E+01 0.  1.
          5   -1    0    0  501    0  0.00000000000E+00 -0.00000000000E+00 -0.12243213892E+04  0.12243304105E+04  0.47000000000E+01 0. -1.
          6    1    1    2  502    0  0.63156104761E+02 -0.42740880080E+01 -0.10777345365E+04  0.10932075249E+04  0.17200000000E+03 0. -1.
         -6    1    1    2    0  502 -0.63156104761E+02  0.42740880080E+01 -0.78492590489E+02  0.19937915678E+03  0.17200000000E+03 0.  1.
</event>
<event>
 4    1 -0.7308497E-004  0.1944692E+03  0.7818608E-02  0.1154491E+00
         -5   -1    0    0    0  501 -0.00000000000E+00  0.00000000000E+00  0.63402914769E+03  0.63404656778E+03  0.47000000000E+01 0.  1.
          5   -1    0    0  501    0  0.00000000000E+00 -0.00000000000E+00 -0.10068668399E+03  0.10079632103E+03  0.47000000000E+01 0. -1.
          6    1    1    2  502    0 -0.85898694544E+02  0.29252124456E+02  0.31973891588E+02  0.19708019244E+03  0.17200000000E+03 0. -1.
         -6    1    1    2    0  502  0.85898694544E+02 -0.29252124456E+02  0.50136857211E+03  0.53776269637E+03  0.17200000000E+03 0.  1.
</event>
<event>
 4    1 -0.7308497E-004  0.2488443E+03  0.7818608E-02  0.1114037E+00
         -5   -1    0    0    0  501 -0.00000000000E+00  0.00000000000E+00  0.18918148591E+03  0.18923986000E+03  0.47000000000E+01 0.  1.
          5   -1    0    0  501    0  0.00000000000E+00 -0.00000000000E+00 -0.34666860809E+03  0.34670046702E+03  0.47000000000E+01 0. -1.
          6    1    1    2  502    0  0.33743060159E+02  0.17663777023E+03 -0.14224265464E+03  0.28662949740E+03  0.17200000000E+03 0. -1.
         -6    1    1    2    0  502 -0.33743060159E+02 -0.17663777023E+03 -0.15244467541E+02  0.24931082963E+03  0.17200000000E+03 0. -1.
</event>
<event>
 4    1 -0.7308497E-004  0.1743638E+03  0.7818608E-02  0.1173372E+00
         -5   -1    0    0    0  501 -0.00000000000E+00  0.00000000000E+00  0.60450742038E+02  0.60633177493E+02  0.47000000000E+01 0.  1.
          5   -1    0    0  501    0  0.00000000000E+00 -0.00000000000E+00 -0.16499609402E+04  0.16499676343E+04  0.47000000000E+01 0. -1.
          6    1    1    2  502    0  0.27475331172E+02 -0.79890970477E+01 -0.15081381765E+04  0.15181842704E+04  0.17200000000E+03 0. -1.
         -6    1    1    2    0  502 -0.27475331172E+02  0.79890970477E+01 -0.81372021713E+02  0.19241654142E+03  0.17200000000E+03 0.  1.
</event>
<event>
 4    1 -0.7308497E-004  0.2236763E+03  0.7818608E-02  0.1131172E+00
         -5   -1    0    0    0  501 -0.00000000000E+00  0.00000000000E+00  0.91411774509E+03  0.91412982770E+03  0.47000000000E+01 0.  1.
          5   -1    0    0  501    0  0.00000000000E+00 -0.00000000000E+00 -0.15892660842E+03  0.15899609072E+03  0.47000000000E+01 0. -1.
          6    1    1    2  502    0 -0.14297564718E+03 -0.22446734149E+01 -0.56894951104E+02  0.23079885118E+03  0.17200000000E+03 0. -1.
         -6    1    1    2    0  502  0.14297564718E+03  0.22446734149E+01  0.81208608777E+03  0.84232706724E+03  0.17200000000E+03 0.  1.
</event>
<event>
 4    1 -0.7308497E-004  0.1756349E+03  0.7818608E-02  0.1172096E+00
          5   -1    0    0  501    0  0.00000000000E+00  0.00000000000E+00  0.35696264140E+03  0.35699358167E+03  0.47000000000E+01 0. -1.
         -5   -1    0    0    0  501 -0.00000000000E+00 -0.00000000000E+00 -0.41129036699E+03  0.41131722062E+03  0.47000000000E+01 0.  1.
          6    1    1    2  502    0  0.27751066682E+02 -0.22214402800E+02  0.31426366694E+03  0.36001285221E+03  0.17200000000E+03 0. -1.
         -6    1    1    2    0  502 -0.27751066682E+02  0.22214402800E+02 -0.36859139254E+03  0.40829795009E+03  0.17200000000E+03 0.  1.
</event>
<event>
 4    1 -0.7308497E-004  0.2523231E+03  0.7818608E-02  0.1111845E+00
          5   -1    0    0  501    0  0.00000000000E+00  0.00000000000E+00  0.44385029073E+02  0.44633180548E+02  0.47000000000E+01 0. -1.
         -5   -1    0    0    0  501 -0.00000000000E+00 -0.00000000000E+00 -0.14312422880E+04  0.14312500051E+04  0.47000000000E+01 0.  1.
          6    1    1    2  502    0  0.17625660501E+03  0.54923008635E+02 -0.71359918209E+03  0.75689544876E+03  0.17200000000E+03 0. -1.
         -6    1    1    2    0  502 -0.17625660501E+03 -0.54923008635E+02 -0.67325807684E+03  0.71898773684E+03  0.17200000000E+03 0.  1.
</event>
<event>
 4    1 -0.7308497E-004  0.1891881E+03  0.7818608E-02  0.1159196E+00
          5   -1    0    0  501    0  0.00000000000E+00  0.00000000000E+00  0.59381092457E+03  0.59382952447E+03  0.47000000000E+01 0. -1.
         -5   -1    0    0    0  501 -0.00000000000E+00 -0.00000000000E+00 -0.19210673658E+03  0.19216422206E+03  0.47000000000E+01 0.  1.
          6    1    1    2  502    0  0.78774541132E+02  0.16457752860E+01  0.52642877375E+03  0.55939198308E+03  0.17200000000E+03 0. -1.
         -6    1    1    2    0  502 -0.78774541132E+02 -0.16457752860E+01 -0.12472458576E+03  0.22660176345E+03  0.17200000000E+03 0.  1.
</event>
<event>
 4    1 -0.7308497E-004  0.1830274E+03  0.7818608E-02  0.1164905E+00
          5   -1    0    0  501    0  0.00000000000E+00  0.00000000000E+00  0.29660495200E+03  0.29664218774E+03  0.47000000000E+01 0. -1.
         -5   -1    0    0    0  501 -0.00000000000E+00 -0.00000000000E+00 -0.13062541405E+03  0.13070994145E+03  0.47000000000E+01 0.  1.
          6    1    1    2  502    0  0.43604088705E+02 -0.44874533683E+02  0.16177747872E+03  0.24427646826E+03  0.17200000000E+03 0. -1.
         -6    1    1    2    0  502 -0.43604088705E+02  0.44874533683E+02  0.42020592265E+01  0.18307566094E+03  0.17200000000E+03 0.  1.
</event>
<event>
 4    1 -0.7308497E-004  0.2557068E+03  0.7818608E-02  0.1109750E+00
          5   -1    0    0  501    0  0.00000000000E+00  0.00000000000E+00  0.63994405602E+03  0.63996131511E+03  0.47000000000E+01 0. -1.
         -5   -1    0    0    0  501 -0.00000000000E+00 -0.00000000000E+00 -0.20331861808E+03  0.20337293442E+03  0.47000000000E+01 0.  1.
          6    1    1    2  502    0  0.60831062527E+02 -0.17916908020E+03  0.51575472505E+03  0.57566388968E+03  0.17200000000E+03 0. -1.
         -6    1    1    2    0  502 -0.60831062527E+02  0.17916908020E+03 -0.79129287106E+02  0.26767035986E+03  0.17200000000E+03 0.  1.
</event>
<event>
 4    1 -0.7308497E-004  0.2101206E+03  0.7818608E-02  0.1141471E+00
         -5   -1    0    0    0  501 -0.00000000000E+00  0.00000000000E+00  0.75444792937E+02  0.75591049611E+02  0.47000000000E+01 0.  1.
          5   -1    0    0  501    0  0.00000000000E+00 -0.00000000000E+00 -0.75833248041E+03  0.75834704512E+03  0.47000000000E+01 0. -1.
          6    1    1    2  502    0 -0.75163889979E+02  0.94430194820E+02 -0.54106863935E+03  0.58043599521E+03  0.17200000000E+03 0. -1.
         -6    1    1    2    0  502  0.75163889979E+02 -0.94430194820E+02 -0.14181904812E+03  0.25350209952E+03  0.17200000000E+03 0.  1.
</event>
<event>
 4    1 -0.7308497E-004  0.1733692E+03  0.7818608E-02  0.1174379E+00
         -5   -1    0    0    0  501 -0.00000000000E+00  0.00000000000E+00  0.14597107306E+03  0.14604671913E+03  0.47000000000E+01 0.  1.
          5   -1    0    0  501    0  0.00000000000E+00 -0.00000000000E+00 -0.63330939441E+03  0.63332683431E+03  0.47000000000E+01 0. -1.
          6    1    1    2  502    0  0.16452222816E+02 -0.14219233618E+02 -0.56382824337E+03  0.58988062373E+03  0.17200000000E+03 0. -1.
         -6    1    1    2    0  502 -0.16452222816E+02  0.14219233618E+02  0.76489922009E+02  0.18949292971E+03  0.17200000000E+03 0.  1.
</event>
<event>
 4    1 -0.7308497E-004  0.1874541E+03  0.7818608E-02  0.1160778E+00
         -5   -1    0    0    0  501 -0.00000000000E+00  0.00000000000E+00  0.87720781866E+03  0.87722040965E+03  0.47000000000E+01 0.  1.
          5   -1    0    0  501    0  0.00000000000E+00 -0.00000000000E+00 -0.30523789570E+03  0.30527407845E+03  0.47000000000E+01 0. -1.
          6    1    1    2  502    0 -0.14907120461E+02 -0.73026040949E+02 -0.26510676223E+03  0.32468541740E+03  0.17200000000E+03 0. -1.
         -6    1    1    2    0  502  0.14907120461E+02  0.73026040949E+02  0.83707668518E+03  0.85780907070E+03  0.17200000000E+03 0.  1.
</event>
<event>
 4    1 -0.7308497E-004  0.5209758E+03  0.7818608E-02  0.1008444E+00
         -5   -1    0    0    0  501 -0.00000000000E+00  0.00000000000E+00  0.25549235707E+03  0.25553558367E+03  0.47000000000E+01 0.  1.
          5   -1    0    0  501    0  0.00000000000E+00 -0.00000000000E+00 -0.22991654764E+04  0.22991702803E+04  0.47000000000E+01 0. -1.
          6    1    1    2  502    0  0.10373952615E+03  0.48069734867E+03 -0.19587558395E+04  0.20268547725E+04  0.17200000000E+03 0. -1.
         -6    1    1    2    0  502 -0.10373952615E+03 -0.48069734867E+03 -0.84917279844E+02  0.52785109143E+03  0.17200000000E+03 0.  1.
</event>
<event>
 4    1 -0.7308497E-004  0.1928301E+03  0.7818608E-02  0.1155933E+00
         -5   -1    0    0    0  501 -0.00000000000E+00  0.00000000000E+00  0.91268985436E+03  0.91270195587E+03  0.47000000000E+01 0.  1.
          5   -1    0    0  501    0  0.00000000000E+00 -0.00000000000E+00 -0.18314207217E+03  0.18320237061E+03  0.47000000000E+01 0. -1.
          6    1    1    2  502    0 -0.31533423386E+02  0.81271810303E+02 -0.11841915769E+03  0.22628866708E+03  0.17200000000E+03 0. -1.
         -6    1    1    2    0  502  0.31533423386E+02 -0.81271810303E+02  0.84796693989E+03  0.86961565940E+03  0.17200000000E+03 0.  1.
</event>
<event>
 4    1 -0.7308497E-004  0.1783348E+03  0.7818608E-02  0.1169424E+00
          5   -1    0    0  501    0  0.00000000000E+00  0.00000000000E+00  0.36116891941E+03  0.36119949937E+03  0.47000000000E+01 0. -1.
         -5   -1    0    0    0  501 -0.00000000000E+00 -0.00000000000E+00 -0.29403211907E+03  0.29406968060E+03  0.47000000000E+01 0.  1.
          6    1    1    2  502    0  0.17615951479E+02  0.43691819284E+02  0.30780139237E+03  0.35573163194E+03  0.17200000000E+03 0. -1.
         -6    1    1    2    0  502 -0.17615951479E+02 -0.43691819284E+02 -0.24066459204E+03  0.29953754803E+03  0.17200000000E+03 0.  1.
</event>
<event>
 4    1 -0.7308497E-004  0.1736439E+03  0.7818608E-02  0.1174100E+00
         -5   -1    0    0    0  501 -0.00000000000E+00  0.00000000000E+00  0.13532675368E+04  0.13532756985E+04  0.47000000000E+01 0.  1.
          5   -1    0    0  501    0  0.00000000000E+00 -0.00000000000E+00 -0.40210744636E+02  0.40484490662E+02  0.47000000000E+01 0. -1.
          6    1    1    2  502    0  0.22289415925E+02 -0.84481646625E+01  0.19014595990E+03  0.25750276817E+03  0.17200000000E+03 0. -1.
         -6    1    1    2    0  502 -0.22289415925E+02  0.84481646625E+01  0.11229108323E+04  0.11362574210E+04  0.17200000000E+03 0.  1.
</event>
<event>
 4    1 -0.7308497E-004  0.1946089E+03  0.7818608E-02  0.1154369E+00
          5   -1    0    0  501    0  0.00000000000E+00  0.00000000000E+00  0.87972733963E+02  0.88098194766E+02  0.47000000000E+01 0. -1.
         -5   -1    0    0    0  501 -0.00000000000E+00 -0.00000000000E+00 -0.43257964868E+03  0.43260518080E+03  0.47000000000E+01 0.  1.
          6    1    1    2  502    0  0.61757323074E+02 -0.66893004499E+02 -0.15243394743E+03  0.24720183926E+03  0.17200000000E+03 0.  1.
         -6    1    1    2    0  502 -0.61757323074E+02  0.66893004499E+02 -0.19217296729E+03  0.27350153630E+03  0.17200000000E+03 0. -1.
</event>
<event>
 4    1 -0.7308497E-004  0.1763467E+03  0.7818608E-02  0.1171386E+00
         -5   -1    0    0    0  501 -0.00000000000E+00  0.00000000000E+00  0.23949236475E+03  0.23953847869E+03  0.47000000000E+01 0.  1.
          5   -1    0    0  501    0  0.00000000000E+00 -0.00000000000E+00 -0.29087441265E+04  0.29087479236E+04  0.47000000000E+01 0. -1.
          6    1    1    2  502    0  0.17097711864E+02 -0.34954686587E+02 -0.28732360461E+04  0.28786426556E+04  0.17200000000E+03 0. -1.
         -6    1    1    2    0  502 -0.17097711864E+02  0.34954686587E+02  0.20398428441E+03  0.26964374673E+03  0.17200000000E+03 0.  1.
</event>
<event>
 4    1 -0.7308497E-004  0.7818272E+03  0.7818608E-02  0.9586700E-01
         -5   -1    0    0    0  501 -0.00000000000E+00  0.00000000000E+00  0.72049420842E+03  0.72050953801E+03  0.47000000000E+01 0.  1.
          5   -1    0    0  501    0  0.00000000000E+00 -0.00000000000E+00 -0.95135949739E+03  0.95137110702E+03  0.47000000000E+01 0. -1.
          6    1    1    2  502    0 -0.55464419819E+03  0.52348795571E+03 -0.39049699847E+03  0.87392318437E+03  0.17200000000E+03 0. -1.
         -6    1    1    2    0  502  0.55464419819E+03 -0.52348795571E+03  0.15963170950E+03  0.79795746067E+03  0.17200000000E+03 0.  1.
</event>
<event>
 4    1 -0.7308497E-004  0.3017615E+03  0.7818608E-02  0.1084363E+00
          5   -1    0    0  501    0  0.00000000000E+00  0.00000000000E+00  0.79626207095E+02  0.79764797099E+02  0.47000000000E+01 0. -1.
         -5   -1    0    0    0  501 -0.00000000000E+00 -0.00000000000E+00 -0.11429407674E+04  0.11429504310E+04  0.47000000000E+01 0.  1.
          6    1    1    2  502    0 -0.17361732590E+03 -0.17701130196E+03 -0.54425665820E+03  0.62231445979E+03  0.17200000000E+03 0.  1.
         -6    1    1    2    0  502  0.17361732590E+03  0.17701130196E+03 -0.51905790211E+03  0.60040076833E+03  0.17200000000E+03 0. -1.
</event>
<event>
 4    1 -0.7308497E-004  0.4021511E+03  0.7818608E-02  0.1043037E+00
         -5   -1    0    0    0  501 -0.00000000000E+00  0.00000000000E+00  0.25458947460E+04  0.25458990843E+04  0.47000000000E+01 0.  1.
          5   -1    0    0  501    0  0.00000000000E+00 -0.00000000000E+00 -0.32437085762E+03  0.32440490636E+03  0.47000000000E+01 0. -1.
          6    1    1    2  502    0 -0.96320717359E+02  0.35051939170E+03 -0.17622245338E+03  0.43906705368E+03  0.17200000000E+03 0. -1.
         -6    1    1    2    0  502  0.96320717359E+02 -0.35051939170E+03  0.23977463417E+04  0.24312369370E+04  0.17200000000E+03 0.  1.
</event>
<event>
 4    1 -0.7308497E-004  0.2036963E+03  0.7818608E-02  0.1146657E+00
         -5   -1    0    0    0  501 -0.00000000000E+00  0.00000000000E+00  0.55304852916E+03  0.55306849992E+03  0.47000000000E+01 0.  1.
          5   -1    0    0  501    0  0.00000000000E+00 -0.00000000000E+00 -0.25756832401E+03  0.25761120226E+03  0.47000000000E+01 0. -1.
          6    1    1    2  502    0 -0.21093720827E+02  0.10706649089E+03 -0.19350987352E+03  0.28095951608E+03  0.17200000000E+03 0. -1.
         -6    1    1    2    0  502  0.21093720827E+02 -0.10706649089E+03  0.48899007867E+03  0.52972018610E+03  0.17200000000E+03 0.  1.
</event>
<event>
 4    1 -0.7308497E-004  0.1957571E+03  0.7818608E-02  0.1153369E+00
         -5   -1    0    0    0  501 -0.00000000000E+00  0.00000000000E+00  0.11338894740E+03  0.11348631368E+03  0.47000000000E+01 0.  1.
          5   -1    0    0  501    0  0.00000000000E+00 -0.00000000000E+00 -0.10958149270E+04  0.10958250062E+04  0.47000000000E+01 0. -1.
          6    1    1    2  502    0 -0.91897701355E+02 -0.17077770921E+02 -0.99411501228E+03  0.10132055544E+04  0.17200000000E+03 0. -1.
         -6    1    1    2    0  502  0.91897701355E+02  0.17077770921E+02  0.11689032699E+02  0.19610576549E+03  0.17200000000E+03 0.  1.
</event>
<event>
 4    1 -0.7308497E-004  0.2265446E+03  0.7818608E-02  0.1129096E+00
          5   -1    0    0  501    0  0.00000000000E+00  0.00000000000E+00  0.41280927883E+03  0.41283603366E+03  0.47000000000E+01 0. -1.
         -5   -1    0    0    0  501 -0.00000000000E+00 -0.00000000000E+00 -0.32736678096E+03  0.32740051813E+03  0.47000000000E+01 0.  1.
          6    1    1    2  502    0 -0.69671074286E+02 -0.12994003460E+03  0.33422091800E+03  0.40376489844E+03  0.17200000000E+03 0. -1.
         -6    1    1    2    0  502  0.69671074286E+02  0.12994003460E+03 -0.24877842013E+03  0.33647165335E+03  0.17200000000E+03 0.  1.
</event>
<event>
 4    1 -0.7308497E-004  0.2615847E+03  0.7818608E-02  0.1106195E+00
          5   -1    0    0  501    0  0.00000000000E+00  0.00000000000E+00  0.41927512576E+03  0.41930146802E+03  0.47000000000E+01 0. -1.
         -5   -1    0    0    0  501 -0.00000000000E+00 -0.00000000000E+00 -0.34629057872E+03  0.34632247243E+03  0.47000000000E+01 0.  1.
          6    1    1    2  502    0  0.19589454164E+03 -0.21630772766E+02  0.31486420736E+03  0.40934830017E+03  0.17200000000E+03 0. -1.
         -6    1    1    2    0  502 -0.19589454164E+03  0.21630772766E+02 -0.24187966032E+03  0.35627564027E+03  0.17200000000E+03 0.  1.
</event>
<event>
 4    1 -0.7308497E-004  0.3072018E+03  0.7818608E-02  0.1081695E+00
          5   -1    0    0  501    0  0.00000000000E+00  0.00000000000E+00  0.17326947497E+04  0.17327011241E+04  0.47000000000E+01 0. -1.
         -5   -1    0    0    0  501 -0.00000000000E+00 -0.00000000000E+00 -0.28575808102E+03  0.28579672998E+03  0.47000000000E+01 0.  1.
          6    1    1    2  502    0  0.25398112990E+03 -0.16808439592E+02  0.16314647159E+04  0.16601355539E+04  0.17200000000E+03 0. -1.
         -6    1    1    2    0  502 -0.25398112990E+03  0.16808439592E+02 -0.18452804727E+03  0.35836230021E+03  0.17200000000E+03 0.  1.
</event>
<event>
 4    1 -0.7308497E-004  0.2057932E+03  0.7818608E-02  0.1144941E+00
         -5   -1    0    0    0  501 -0.00000000000E+00  0.00000000000E+00  0.52821830901E+02  0.53030517815E+02  0.47000000000E+01 0.  1.
          5   -1    0    0  501    0  0.00000000000E+00 -0.00000000000E+00 -0.11441820586E+04  0.11441917117E+04  0.47000000000E+01 0. -1.
          6    1    1    2  502    0  0.66877126220E+02  0.91072919010E+02 -0.21738255203E+03  0.29934261393E+03  0.17200000000E+03 0.  1.
         -6    1    1    2    0  502 -0.66877126220E+02 -0.91072919010E+02 -0.87397767565E+03  0.89787961561E+03  0.17200000000E+03 0.  1.
</event>
<event>
 4    1 -0.7308497E-004  0.1847683E+03  0.7818608E-02  0.1163266E+00
          5   -1    0    0  501    0  0.00000000000E+00  0.00000000000E+00  0.69208769634E+03  0.69210365511E+03  0.47000000000E+01 0. -1.
         -5   -1    0    0    0  501 -0.00000000000E+00 -0.00000000000E+00 -0.76351942046E+02  0.76496464325E+02  0.47000000000E+01 0.  1.
          6    1    1    2  502    0  0.16868883531E+02  0.65351077139E+02  0.53674166028E+03  0.56765388433E+03  0.17200000000E+03 0.  1.
         -6    1    1    2    0  502 -0.16868883531E+02 -0.65351077139E+02  0.78994094008E+02  0.20094623511E+03  0.17200000000E+03 0.  1.
</event>
<event>
 4    1 -0.7308497E-004  0.1927290E+03  0.7818608E-02  0.1156023E+00
          5   -1    0    0  501    0  0.00000000000E+00  0.00000000000E+00  0.35356495101E+03  0.35359618858E+03  0.47000000000E+01 0. -1.
         -5   -1    0    0    0  501 -0.00000000000E+00 -0.00000000000E+00 -0.32715245464E+03  0.32718621392E+03  0.47000000000E+01 0.  1.
          6    1    1    2  502    0  0.32867149140E+02 -0.80499901681E+02  0.29368029516E+03  0.35127282763E+03  0.17200000000E+03 0. -1.
         -6    1    1    2    0  502 -0.32867149140E+02  0.80499901681E+02 -0.26726779879E+03  0.32950957487E+03  0.17200000000E+03 0.  1.
</event>
<event>
 4    1 -0.7308497E-004  0.1753472E+03  0.7818608E-02  0.1172384E+00
         -5   -1    0    0    0  501 -0.00000000000E+00  0.00000000000E+00  0.23008568106E+03  0.23013367991E+03  0.47000000000E+01 0.  1.
          5   -1    0    0  501    0  0.00000000000E+00 -0.00000000000E+00 -0.31992098559E+03  0.31995550788E+03  0.47000000000E+01 0. -1.
          6    1    1    2  502    0 -0.26430684117E+02  0.21542273996E+02 -0.25482331238E+03  0.30932437855E+03  0.17200000000E+03 0. -1.
         -6    1    1    2    0  502  0.26430684117E+02 -0.21542273996E+02  0.16498800785E+03  0.24076480924E+03  0.17200000000E+03 0.  1.
</event>
<event>
 4    1 -0.7308497E-004  0.1776535E+03  0.7818608E-02  0.1170093E+00
          5   -1    0    0  501    0  0.00000000000E+00  0.00000000000E+00  0.29676599527E+03  0.29680321081E+03  0.47000000000E+01 0. -1.
         -5   -1    0    0    0  501 -0.00000000000E+00 -0.00000000000E+00 -0.19648192434E+03  0.19653813012E+03  0.47000000000E+01 0.  1.
          6    1    1    2  502    0  0.41134088245E+02 -0.16874869643E+02  0.21725073798E+03  0.28063972918E+03  0.17200000000E+03 0. -1.
         -6    1    1    2    0  502 -0.41134088245E+02  0.16874869643E+02 -0.11696666705E+03  0.21270161175E+03  0.17200000000E+03 0.  1.
</event>
<event>
 4    1 -0.7308497E-004  0.1967000E+03  0.7818608E-02  0.1152553E+00
         -5   -1    0    0    0  501 -0.00000000000E+00  0.00000000000E+00  0.10629674334E+03  0.10640059984E+03  0.47000000000E+01 0.  1.
          5   -1    0    0  501    0  0.00000000000E+00 -0.00000000000E+00 -0.95966195563E+03  0.95967346482E+03  0.47000000000E+01 0. -1.
          6    1    1    2  502    0 -0.92230117954E+02 -0.24505280005E+02 -0.84671415088E+03  0.86926161580E+03  0.17200000000E+03 0. -1.
         -6    1    1    2    0  502  0.92230117954E+02  0.24505280005E+02 -0.66510614019E+01  0.19681244885E+03  0.17200000000E+03 0.  1.
</event>
<event>
 4    1 -0.7308497E-004  0.2424105E+03  0.7818608E-02  0.1118197E+00
          5   -1    0    0  501    0  0.00000000000E+00  0.00000000000E+00  0.82597905669E+03  0.82599242859E+03  0.47000000000E+01 0. -1.
         -5   -1    0    0    0  501 -0.00000000000E+00 -0.00000000000E+00 -0.63732806735E+03  0.63734539728E+03  0.47000000000E+01 0.  1.
          6    1    1    2  502    0 -0.17081702637E+03  0.64034078932E+00  0.78395103905E+03  0.82057424902E+03  0.17200000000E+03 0. -1.
         -6    1    1    2    0  502  0.17081702637E+03 -0.64034078932E+00 -0.59530004971E+03  0.64276357685E+03  0.17200000000E+03 0.  1.
</event>
<event>
 4    1 -0.7308497E-004  0.1950063E+03  0.7818608E-02  0.1154022E+00
         -5   -1    0    0    0  501 -0.00000000000E+00  0.00000000000E+00  0.91700719501E+02  0.91821086668E+02  0.47000000000E+01 0.  1.
          5   -1    0    0  501    0  0.00000000000E+00 -0.00000000000E+00 -0.16040436557E+04  0.16040505414E+04  0.47000000000E+01 0. -1.
          6    1    1    2  502    0  0.90867232471E+02 -0.13659845345E+02 -0.14864116661E+04  0.14991487873E+04  0.17200000000E+03 0. -1.
         -6    1    1    2    0  502 -0.90867232471E+02  0.13659845345E+02 -0.25931270079E+02  0.19672284077E+03  0.17200000000E+03 0.  1.
</event>
<event>
 4    1 -0.7308497E-004  0.1725460E+03  0.7818608E-02  0.1175219E+00
         -5   -1    0    0    0  501 -0.00000000000E+00  0.00000000000E+00  0.10558648011E+03  0.10569103454E+03  0.47000000000E+01 0.  1.
          5   -1    0    0  501    0  0.00000000000E+00 -0.00000000000E+00 -0.48885484855E+03  0.48887744165E+03  0.47000000000E+01 0. -1.
          6    1    1    2  502    0 -0.17874956609E+01  0.13598219814E+02 -0.38512654617E+03  0.42201251556E+03  0.17200000000E+03 0. -1.
         -6    1    1    2    0  502  0.17874956609E+01 -0.13598219814E+02  0.18581777243E+01  0.17255596063E+03  0.17200000000E+03 0.  1.
</event>
<event>
 4    1 -0.7308497E-004  0.1744417E+03  0.7818608E-02  0.1173293E+00
          5   -1    0    0  501    0  0.00000000000E+00  0.00000000000E+00  0.13350079793E+04  0.13350162526E+04  0.47000000000E+01 0. -1.
         -5   -1    0    0    0  501 -0.00000000000E+00 -0.00000000000E+00 -0.42763292126E+02  0.43020799080E+02  0.47000000000E+01 0.  1.
          6    1    1    2  502    0  0.28069797638E+02  0.76163536438E+01  0.11178265029E+04  0.11313558295E+04  0.17200000000E+03 0. -1.
         -6    1    1    2    0  502 -0.28069797638E+02 -0.76163536438E+01  0.17441818428E+03  0.24668122221E+03  0.17200000000E+03 0.  1.
</event>
<event>
 4    1 -0.7308497E-004  0.1915021E+03  0.7818608E-02  0.1157113E+00
         -5   -1    0    0    0  501 -0.00000000000E+00  0.00000000000E+00  0.46145529414E+03  0.46147922867E+03  0.47000000000E+01 0.  1.
          5   -1    0    0  501    0  0.00000000000E+00 -0.00000000000E+00 -0.86851138871E+03  0.86852410578E+03  0.47000000000E+01 0. -1.
          6    1    1    2  502    0  0.62875172595E+02  0.55997868913E+02 -0.83737657220E+03  0.85899509447E+03  0.17200000000E+03 0. -1.
         -6    1    1    2    0  502 -0.62875172595E+02 -0.55997868913E+02  0.43032047764E+03  0.47100823998E+03  0.17200000000E+03 0.  1.
</event>
<event>
 4    1 -0.7308497E-004  0.1746689E+03  0.7818608E-02  0.1173065E+00
          5   -1    0    0  501    0  0.00000000000E+00  0.00000000000E+00  0.46933329471E+02  0.47168076230E+02  0.47000000000E+01 0. -1.
         -5   -1    0    0    0  501 -0.00000000000E+00 -0.00000000000E+00 -0.85093824082E+03  0.85095122052E+03  0.47000000000E+01 0.  1.
          6    1    1    2  502    0  0.14844583780E+02  0.26549350659E+02 -0.18283800936E+03  0.25286155769E+03  0.17200000000E+03 0. -1.
         -6    1    1    2    0  502 -0.14844583780E+02 -0.26549350659E+02 -0.62116690199E+03  0.64525773906E+03  0.17200000000E+03 0.  1.
</event>
<event>
 4    1 -0.7308497E-004  0.2012032E+03  0.7818608E-02  0.1148728E+00
          5   -1    0    0  501    0  0.00000000000E+00  0.00000000000E+00  0.19856803214E+03  0.19862364760E+03  0.47000000000E+01 0. -1.
         -5   -1    0    0    0  501 -0.00000000000E+00 -0.00000000000E+00 -0.36292279142E+03  0.36295322361E+03  0.47000000000E+01 0.  1.
          6    1    1    2  502    0 -0.10437857698E+03  0.19546903780E+01  0.10374496248E+03  0.22637518722E+03  0.17200000000E+03 0. -1.
         -6    1    1    2    0  502  0.10437857698E+03 -0.19546903780E+01 -0.26809972176E+03  0.33520168400E+03  0.17200000000E+03 0.  1.
</event>
<event>
 4    1 -0.7308497E-004  0.1771376E+03  0.7818608E-02  0.1170602E+00
         -5   -1    0    0    0  501 -0.00000000000E+00  0.00000000000E+00  0.11481527375E+03  0.11491143149E+03  0.47000000000E+01 0.  1.
          5   -1    0    0  501    0  0.00000000000E+00 -0.00000000000E+00 -0.45343304929E+03  0.45345740724E+03  0.47000000000E+01 0. -1.
          6    1    1    2  502    0 -0.35251232910E+02 -0.23475048029E+02 -0.34852222675E+03  0.39095456237E+03  0.17200000000E+03 0. -1.
         -6    1    1    2    0  502  0.35251232910E+02  0.23475048029E+02  0.99044512123E+01  0.17741427636E+03  0.17200000000E+03 0.  1.
</event>
<event>
 4    1 -0.7308497E-004  0.3095474E+03  0.7818608E-02  0.1080563E+00
          5   -1    0    0  501    0  0.00000000000E+00  0.00000000000E+00  0.87496928396E+03  0.87498190717E+03  0.47000000000E+01 0. -1.
         -5   -1    0    0    0  501 -0.00000000000E+00 -0.00000000000E+00 -0.39163042749E+03  0.39165862908E+03  0.47000000000E+01 0.  1.
          6    1    1    2  502    0 -0.11839595791E+03 -0.22851253233E+03  0.77920512402E+03  0.83843914840E+03  0.17200000000E+03 0. -1.
         -6    1    1    2    0  502  0.11839595791E+03  0.22851253233E+03 -0.29586626755E+03  0.42820138785E+03  0.17200000000E+03 0.  1.
</event>
<event>
 4    1 -0.7308497E-004  0.4418814E+03  0.7818608E-02  0.1030171E+00
          5   -1    0    0  501    0  0.00000000000E+00  0.00000000000E+00  0.69830893769E+03  0.69832475429E+03  0.47000000000E+01 0. -1.
         -5   -1    0    0    0  501 -0.00000000000E+00 -0.00000000000E+00 -0.43133500929E+03  0.43136061507E+03  0.47000000000E+01 0.  1.
          6    1    1    2  502    0 -0.20036615770E+03  0.35430013040E+03  0.46850604197E+03  0.64401637472E+03  0.17200000000E+03 0. -1.
         -6    1    1    2    0  502  0.20036615770E+03 -0.35430013040E+03 -0.20153211357E+03  0.48566899464E+03  0.17200000000E+03 0.  1.
</event>
<event>
 4    1 -0.7308497E-004  0.2041606E+03  0.7818608E-02  0.1146275E+00
         -5   -1    0    0    0  501 -0.00000000000E+00  0.00000000000E+00  0.72909933107E+03  0.72911447974E+03  0.47000000000E+01 0.  1.
          5   -1    0    0  501    0  0.00000000000E+00 -0.00000000000E+00 -0.16819904032E+03  0.16826469375E+03  0.47000000000E+01 0. -1.
          6    1    1    2  502    0 -0.44688271486E+02  0.10050128089E+03 -0.84126135048E+02  0.22081384845E+03  0.17200000000E+03 0. -1.
         -6    1    1    2    0  502  0.44688271486E+02 -0.10050128089E+03  0.64502642580E+03  0.67656532505E+03  0.17200000000E+03 0.  1.
</event>
<event>
 4    1 -0.7308497E-004  0.2143825E+03  0.7818608E-02  0.1138142E+00
         -5   -1    0    0    0  501 -0.00000000000E+00  0.00000000000E+00  0.22253713530E+03  0.22258676193E+03  0.47000000000E+01 0.  1.
          5   -1    0    0  501    0  0.00000000000E+00 -0.00000000000E+00 -0.35794853258E+03  0.35797938764E+03  0.47000000000E+01 0. -1.
          6    1    1    2  502    0 -0.10255495657E+03 -0.76539667363E+02 -0.25654510062E+03  0.33432802522E+03  0.17200000000E+03 0. -1.
         -6    1    1    2    0  502  0.10255495657E+03  0.76539667363E+02  0.12113370334E+03  0.24623812435E+03  0.17200000000E+03 0.  1.
</event>
<event>
 4    1 -0.7308497E-004  0.2605139E+03  0.7818608E-02  0.1106835E+00
          5   -1    0    0  501    0  0.00000000000E+00  0.00000000000E+00  0.19282196953E+03  0.19287924184E+03  0.47000000000E+01 0. -1.
         -5   -1    0    0    0  501 -0.00000000000E+00 -0.00000000000E+00 -0.78571934827E+03  0.78573340533E+03  0.47000000000E+01 0.  1.
          6    1    1    2  502    0 -0.62478343713E+02 -0.18541836149E+03  0.67137346111E+02  0.26902590108E+03  0.17200000000E+03 0. -1.
         -6    1    1    2    0  502  0.62478343713E+02  0.18541836149E+03 -0.66003472485E+03  0.70958674608E+03  0.17200000000E+03 0.  1.
</event>
<event>
 4    1 -0.7308497E-004  0.3509223E+03  0.7818608E-02  0.1062237E+00
          5   -1    0    0  501    0  0.00000000000E+00  0.00000000000E+00  0.92531810333E+03  0.92533003969E+03  0.47000000000E+01 0. -1.
         -5   -1    0    0    0  501 -0.00000000000E+00 -0.00000000000E+00 -0.34003837560E+03  0.34007085568E+03  0.47000000000E+01 0.  1.
          6    1    1    2  502    0 -0.11542503046E+03  0.28326585346E+03  0.78624800217E+03  0.86100662152E+03  0.17200000000E+03 0. -1.
         -6    1    1    2    0  502  0.11542503046E+03 -0.28326585346E+03 -0.20096827444E+03  0.40439427385E+03  0.17200000000E+03 0.  1.
</event>
<event>
 4    1 -0.7308497E-004  0.2145139E+03  0.7818608E-02  0.1138041E+00
         -5   -1    0    0    0  501 -0.00000000000E+00  0.00000000000E+00  0.33761257630E+03  0.33764528973E+03  0.47000000000E+01 0.  1.
          5   -1    0    0  501    0  0.00000000000E+00 -0.00000000000E+00 -0.15251105385E+03  0.15258345764E+03  0.47000000000E+01 0. -1.
          6    1    1    2  502    0 -0.79558456694E+02  0.10051200943E+03  0.12465983814E+02  0.21487580791E+03  0.17200000000E+03 0. -1.
         -6    1    1    2    0  502  0.79558456694E+02 -0.10051200943E+03  0.17263553863E+03  0.27535293946E+03  0.17200000000E+03 0.  1.
</event>
<event>
 4    1 -0.7308497E-004  0.2164606E+03  0.7818608E-02  0.1136550E+00
         -5   -1    0    0    0  501 -0.00000000000E+00  0.00000000000E+00  0.10952307927E+03  0.10962387921E+03  0.47000000000E+01 0.  1.
          5   -1    0    0  501    0  0.00000000000E+00 -0.00000000000E+00 -0.11595094577E+04  0.11595189833E+04  0.47000000000E+01 0. -1.
          6    1    1    2  502    0  0.28021937602E+02  0.12839771003E+03 -0.10291658776E+04  0.10516832244E+04  0.17200000000E+03 0. -1.
         -6    1    1    2    0  502 -0.28021937602E+02 -0.12839771003E+03 -0.20820500869E+02  0.21745963806E+03  0.17200000000E+03 0.  1.
</event>
<event>
 4    1 -0.7308497E-004  0.1913365E+03  0.7818608E-02  0.1157261E+00
          5   -1    0    0  501    0  0.00000000000E+00  0.00000000000E+00  0.88796968634E+03  0.88798212474E+03  0.47000000000E+01 0. -1.
         -5   -1    0    0    0  501 -0.00000000000E+00 -0.00000000000E+00 -0.20989005547E+03  0.20994267166E+03  0.47000000000E+01 0.  1.
          6    1    1    2  502    0  0.70656819405E+02  0.45091843264E+02  0.83115286638E+03  0.85289199067E+03  0.17200000000E+03 0. -1.
         -6    1    1    2    0  502 -0.70656819405E+02 -0.45091843264E+02 -0.15307323551E+03  0.24503280573E+03  0.17200000000E+03 0.  1.
</event>
<event>
 4    1 -0.7308497E-004  0.1859187E+03  0.7818608E-02  0.1162195E+00
          5   -1    0    0  501    0  0.00000000000E+00  0.00000000000E+00  0.23624527049E+03  0.23629201812E+03  0.47000000000E+01 0. -1.
         -5   -1    0    0    0  501 -0.00000000000E+00 -0.00000000000E+00 -0.21093046634E+03  0.21098282307E+03  0.47000000000E+01 0.  1.
          6    1    1    2  502    0 -0.19775022489E+02  0.67754808950E+02  0.13649943547E+03  0.23064661613E+03  0.17200000000E+03 0. -1.
         -6    1    1    2    0  502  0.19775022489E+02 -0.67754808950E+02 -0.11118463132E+03  0.21662822506E+03  0.17200000000E+03 0.  1.
</event>
<event>
 4    1 -0.7308497E-004  0.1900232E+03  0.7818608E-02  0.1158440E+00
         -5   -1    0    0    0  501 -0.00000000000E+00  0.00000000000E+00  0.39809585063E+03  0.39812359424E+03  0.47000000000E+01 0.  1.
          5   -1    0    0  501    0  0.00000000000E+00 -0.00000000000E+00 -0.97721374521E+02  0.97834334659E+02  0.47000000000E+01 0. -1.
          6    1    1    2  502    0  0.79359929248E+02 -0.15060069075E+02  0.21702378455E+03  0.28845818954E+03  0.17200000000E+03 0.  1.
         -6    1    1    2    0  502 -0.79359929248E+02  0.15060069075E+02  0.83350691557E+02  0.20749973936E+03  0.17200000000E+03 0. -1.
</event>
<event>
 4    1 -0.7308497E-004  0.2725810E+03  0.7818608E-02  0.1099811E+00
          5   -1    0    0  501    0  0.00000000000E+00  0.00000000000E+00  0.60157951759E+03  0.60159787731E+03  0.47000000000E+01 0. -1.
         -5   -1    0    0    0  501 -0.00000000000E+00 -0.00000000000E+00 -0.23546470946E+03  0.23551161203E+03  0.47000000000E+01 0.  1.
          6    1    1    2  502    0 -0.17165164877E+03  0.12349946361E+03  0.47169899732E+03  0.54479386020E+03  0.17200000000E+03 0. -1.
         -6    1    1    2    0  502  0.17165164877E+03 -0.12349946361E+03 -0.10558418919E+03  0.29231562915E+03  0.17200000000E+03 0.  1.
</event>
<event>
 4    1 -0.7308497E-004  0.3029108E+03  0.7818608E-02  0.1083794E+00
          5   -1    0    0  501    0  0.00000000000E+00  0.00000000000E+00  0.33857128450E+03  0.33860390531E+03  0.47000000000E+01 0. -1.
         -5   -1    0    0    0  501 -0.00000000000E+00 -0.00000000000E+00 -0.94161401576E+03  0.94162574555E+03  0.47000000000E+01 0.  1.
          6    1    1    2  502    0  0.62884958735E+02  0.24128087076E+03  0.23868971836E+03  0.38565238010E+03  0.17200000000E+03 0. -1.
         -6    1    1    2    0  502 -0.62884958735E+02 -0.24128087076E+03 -0.84173244961E+03  0.89457727076E+03  0.17200000000E+03 0.  1.
</event>
<event>
 4    1 -0.7308497E-004  0.2058530E+03  0.7818608E-02  0.1144893E+00
         -5   -1    0    0    0  501 -0.00000000000E+00  0.00000000000E+00  0.28941384916E+03  0.28945200999E+03  0.47000000000E+01 0.  1.
          5   -1    0    0  501    0  0.00000000000E+00 -0.00000000000E+00 -0.15319200767E+03  0.15326408977E+03  0.47000000000E+01 0. -1.
          6    1    1    2  502    0  0.10803915625E+03 -0.33451385168E+02  0.21287810031E+02  0.20695077992E+03  0.17200000000E+03 0. -1.
         -6    1    1    2    0  502 -0.10803915625E+03  0.33451385168E+02  0.11493403146E+03  0.23576531984E+03  0.17200000000E+03 0.  1.
</event>
<event>
 4    1 -0.7308497E-004  0.2073366E+03  0.7818608E-02  0.1143693E+00
         -5   -1    0    0    0  501 -0.00000000000E+00  0.00000000000E+00  0.17286771806E+03  0.17293159905E+03  0.47000000000E+01 0.  1.
          5   -1    0    0  501    0  0.00000000000E+00 -0.00000000000E+00 -0.35591284384E+03  0.35594387537E+03  0.47000000000E+01 0. -1.
          6    1    1    2  502    0  0.10246951869E+03 -0.53893029962E+02 -0.23674176759E+03  0.31469846753E+03  0.17200000000E+03 0. -1.
         -6    1    1    2    0  502 -0.10246951869E+03  0.53893029962E+02  0.53696641815E+02  0.21417700689E+03  0.17200000000E+03 0.  1.
</event>
<event>
 4    1 -0.7308497E-004  0.1843381E+03  0.7818608E-02  0.1163669E+00
         -5   -1    0    0    0  501 -0.00000000000E+00  0.00000000000E+00  0.44022684874E+02  0.44272867351E+02  0.47000000000E+01 0.  1.
          5   -1    0    0  501    0  0.00000000000E+00 -0.00000000000E+00 -0.19440365535E+04  0.19440422350E+04  0.47000000000E+01 0. -1.
          6    1    1    2  502    0 -0.36626614596E+02  0.55272387054E+02 -0.17227191953E+04  0.17325535985E+04  0.17200000000E+03 0. -1.
         -6    1    1    2    0  502  0.36626614596E+02 -0.55272387054E+02 -0.17729467332E+03  0.25576150385E+03  0.17200000000E+03 0.  1.
</event>
<event>
 4    1 -0.7308497E-004  0.1855205E+03  0.7818608E-02  0.1162565E+00
          5   -1    0    0  501    0  0.00000000000E+00  0.00000000000E+00  0.43479341004E+02  0.43732631914E+02  0.47000000000E+01 0. -1.
         -5   -1    0    0    0  501 -0.00000000000E+00 -0.00000000000E+00 -0.97213963273E+03  0.97215099420E+03  0.47000000000E+01 0.  1.
          6    1    1    2  502    0 -0.66289842567E+02  0.20964728885E+02 -0.24391388222E+03  0.30645039570E+03  0.17200000000E+03 0. -1.
         -6    1    1    2    0  502  0.66289842567E+02 -0.20964728885E+02 -0.68474640951E+03  0.70943323041E+03  0.17200000000E+03 0.  1.
</event>
<event>
 4    1 -0.7308497E-004  0.1910569E+03  0.7818608E-02  0.1157512E+00
         -5   -1    0    0    0  501 -0.00000000000E+00  0.00000000000E+00  0.40786311897E+02  0.41056220456E+02  0.47000000000E+01 0.  1.
          5   -1    0    0  501    0  0.00000000000E+00 -0.00000000000E+00 -0.91027916714E+03  0.91029130070E+03  0.47000000000E+01 0. -1.
          6    1    1    2  502    0 -0.81520486897E+02 -0.16526758169E+02 -0.50260667217E+03  0.53769525796E+03  0.17200000000E+03 0. -1.
         -6    1    1    2    0  502  0.81520486897E+02  0.16526758169E+02 -0.36688618307E+03  0.41365226319E+03  0.17200000000E+03 0. -1.
</event>
<event>
 4    1 -0.7308497E-004  0.2876180E+03  0.7818608E-02  0.1091599E+00
          5   -1    0    0  501    0  0.00000000000E+00  0.00000000000E+00  0.46887682059E+03  0.46890037629E+03  0.47000000000E+01 0. -1.
         -5   -1    0    0    0  501 -0.00000000000E+00 -0.00000000000E+00 -0.22733527094E+03  0.22738385038E+03  0.47000000000E+01 0.  1.
          6    1    1    2  502    0 -0.20101170243E+03 -0.11284686512E+03  0.28557944806E+03  0.40531437260E+03  0.17200000000E+03 0. -1.
         -6    1    1    2    0  502  0.20101170243E+03  0.11284686512E+03 -0.44037898417E+02  0.29096985407E+03  0.17200000000E+03 0. -1.
</event>
<event>
 4    1 -0.7308497E-004  0.2293616E+03  0.7818608E-02  0.1127090E+00
         -5   -1    0    0    0  501 -0.00000000000E+00  0.00000000000E+00  0.79329668059E+03  0.79331060338E+03  0.47000000000E+01 0.  1.
          5   -1    0    0  501    0  0.00000000000E+00 -0.00000000000E+00 -0.44221156749E+03  0.44223654352E+03  0.47000000000E+01 0. -1.
          6    1    1    2  502    0  0.38839853607E+02 -0.14667723721E+03 -0.39403334687E+03  0.45592655614E+03  0.17200000000E+03 0. -1.
         -6    1    1    2    0  502 -0.38839853607E+02  0.14667723721E+03  0.74511845997E+03  0.77962059076E+03  0.17200000000E+03 0.  1.
</event>
<event>
 4    1 -0.7308497E-004  0.2410669E+03  0.7818608E-02  0.1119084E+00
          5   -1    0    0  501    0  0.00000000000E+00  0.00000000000E+00  0.57242365740E+03  0.57244295222E+03  0.47000000000E+01 0. -1.
         -5   -1    0    0    0  501 -0.00000000000E+00 -0.00000000000E+00 -0.16093089717E+03  0.16099951449E+03  0.47000000000E+01 0.  1.
          6    1    1    2  502    0 -0.72654708771E+02 -0.15248122993E+03  0.42862795602E+03  0.49176738085E+03  0.17200000000E+03 0. -1.
         -6    1    1    2    0  502  0.72654708771E+02  0.15248122993E+03 -0.17135195794E+02  0.24167508586E+03  0.17200000000E+03 0.  1.
</event>
<event>
 4    1 -0.7308497E-004  0.2089118E+03  0.7818608E-02  0.1142431E+00
         -5   -1    0    0    0  501 -0.00000000000E+00  0.00000000000E+00  0.17707043950E+03  0.17713280483E+03  0.47000000000E+01 0.  1.
          5   -1    0    0  501    0  0.00000000000E+00 -0.00000000000E+00 -0.29529645929E+03  0.29533386001E+03  0.47000000000E+01 0. -1.
          6    1    1    2  502    0  0.72557484950E+02 -0.93784671531E+02 -0.15527263690E+03  0.26029549555E+03  0.17200000000E+03 0. -1.
         -6    1    1    2    0  502 -0.72557484950E+02  0.93784671531E+02  0.37046617108E+02  0.21217116928E+03  0.17200000000E+03 0.  1.
</event>
<event>
 4    1 -0.7308497E-004  0.1913174E+03  0.7818608E-02  0.1157278E+00
          5   -1    0    0  501    0  0.00000000000E+00  0.00000000000E+00  0.80062962543E+03  0.80064342070E+03  0.47000000000E+01 0. -1.
         -5   -1    0    0    0  501 -0.00000000000E+00 -0.00000000000E+00 -0.11889053329E+03  0.11898339761E+03  0.47000000000E+01 0.  1.
          6    1    1    2  502    0 -0.80401994786E+02 -0.23534767336E+02  0.70165990646E+03  0.72727504451E+03  0.17200000000E+03 0. -1.
         -6    1    1    2    0  502  0.80401994786E+02  0.23534767336E+02 -0.19920814321E+02  0.19235177380E+03  0.17200000000E+03 0.  1.
</event>
<event>
 4    1 -0.7308497E-004  0.1907690E+03  0.7818608E-02  0.1157770E+00
          5   -1    0    0  501    0  0.00000000000E+00  0.00000000000E+00  0.28405875943E+03  0.28409763957E+03  0.47000000000E+01 0. -1.
         -5   -1    0    0    0  501 -0.00000000000E+00 -0.00000000000E+00 -0.54620162917E+03  0.54622185026E+03  0.47000000000E+01 0.  1.
          6    1    1    2  502    0  0.76998348054E+02 -0.29665772228E+02  0.23215820099E+03  0.30048333387E+03  0.17200000000E+03 0. -1.
         -6    1    1    2    0  502 -0.76998348054E+02  0.29665772228E+02 -0.49430107073E+03  0.52983615597E+03  0.17200000000E+03 0.  1.
</event>
<event>
 4    1 -0.7308497E-004  0.1788521E+03  0.7818608E-02  0.1168919E+00
          5   -1    0    0  501    0  0.00000000000E+00  0.00000000000E+00  0.25267861715E+03  0.25272232502E+03  0.47000000000E+01 0. -1.
         -5   -1    0    0    0  501 -0.00000000000E+00 -0.00000000000E+00 -0.25080434614E+03  0.25084838058E+03  0.47000000000E+01 0.  1.
          6    1    1    2  502    0  0.32408779869E+02 -0.36793088507E+02  0.17815835425E+03  0.25244496343E+03  0.17200000000E+03 0. -1.
         -6    1    1    2    0  502 -0.32408779869E+02  0.36793088507E+02 -0.17628408324E+03  0.25112574216E+03  0.17200000000E+03 0.  1.
</event>
<event>
 4    1 -0.7308497E-004  0.3647154E+03  0.7818608E-02  0.1056732E+00
         -5   -1    0    0    0  501 -0.00000000000E+00  0.00000000000E+00  0.89937771011E+03  0.89938999074E+03  0.47000000000E+01 0.  1.
          5   -1    0    0  501    0  0.00000000000E+00 -0.00000000000E+00 -0.24598897123E+03  0.24603386752E+03  0.47000000000E+01 0. -1.
          6    1    1    2  502    0 -0.21048337571E+03  0.24316672935E+03 -0.34997342713E+02  0.36639067088E+03  0.17200000000E+03 0. -1.
         -6    1    1    2    0  502  0.21048337571E+03 -0.24316672935E+03  0.68838608159E+03  0.77903318738E+03  0.17200000000E+03 0.  1.
</event>
<event>
 4    1 -0.7308497E-004  0.2102519E+03  0.7818608E-02  0.1141367E+00
         -5   -1    0    0    0  501 -0.00000000000E+00  0.00000000000E+00  0.27423999303E+03  0.27428026502E+03  0.47000000000E+01 0.  1.
          5   -1    0    0  501    0  0.00000000000E+00 -0.00000000000E+00 -0.12501583940E+04  0.12501672288E+04  0.47000000000E+01 0. -1.
          6    1    1    2  502    0 -0.10462866757E+03  0.60619246316E+02 -0.11993533612E+04  0.12176429428E+04  0.17200000000E+03 0. -1.
         -6    1    1    2    0  502  0.10462866757E+03 -0.60619246316E+02  0.22343496024E+03  0.30680455107E+03  0.17200000000E+03 0.  1.
</event>
<event>
 4    1 -0.7308497E-004  0.1939684E+03  0.7818608E-02  0.1154930E+00
          5   -1    0    0  501    0  0.00000000000E+00  0.00000000000E+00  0.32872531295E+03  0.32875891072E+03  0.47000000000E+01 0. -1.
         -5   -1    0    0    0  501 -0.00000000000E+00 -0.00000000000E+00 -0.12362759645E+04  0.12362848986E+04  0.47000000000E+01 0.  1.
          6    1    1    2  502    0  0.55662013310E+02 -0.70295749449E+02  0.29164748239E+03  0.35025991221E+03  0.17200000000E+03 0. -1.
         -6    1    1    2    0  502 -0.55662013310E+02  0.70295749449E+02 -0.11991981339E+04  0.12147838971E+04  0.17200000000E+03 0.  1.
</event>
<event>
 4    1 -0.7308497E-004  0.2739572E+03  0.7818608E-02  0.1099036E+00
          5   -1    0    0  501    0  0.00000000000E+00  0.00000000000E+00  0.14525026434E+03  0.14532628561E+03  0.47000000000E+01 0. -1.
         -5   -1    0    0    0  501 -0.00000000000E+00 -0.00000000000E+00 -0.51651895984E+03  0.51654034293E+03  0.47000000000E+01 0.  1.
          6    1    1    2  502    0 -0.18849309485E+03  0.99694006585E+02 -0.18811156150E+03  0.33232288715E+03  0.17200000000E+03 0.  1.
         -6    1    1    2    0  502  0.18849309485E+03 -0.99694006585E+02 -0.18315713401E+03  0.32954374140E+03  0.17200000000E+03 0. -1.
</event>
<event>
 4    1 -0.7308497E-004  0.2231746E+03  0.7818608E-02  0.1131538E+00
          5   -1    0    0  501    0  0.00000000000E+00  0.00000000000E+00  0.57079117540E+02  0.57272293992E+02  0.47000000000E+01 0. -1.
         -5   -1    0    0    0  501 -0.00000000000E+00 -0.00000000000E+00 -0.11964815568E+04  0.11964907880E+04  0.47000000000E+01 0.  1.
          6    1    1    2  502    0  0.73980100932E+02  0.12144885892E+03 -0.24272820759E+03  0.32973301841E+03  0.17200000000E+03 0. -1.
         -6    1    1    2    0  502 -0.73980100932E+02 -0.12144885892E+03 -0.89667423168E+03  0.92403006359E+03  0.17200000000E+03 0.  1.
</event>
<event>
 4    1 -0.7308497E-004  0.1872680E+03  0.7818608E-02  0.1160949E+00
         -5   -1    0    0    0  501 -0.00000000000E+00  0.00000000000E+00  0.29801606386E+03  0.29805312332E+03  0.47000000000E+01 0.  1.
          5   -1    0    0  501    0  0.00000000000E+00 -0.00000000000E+00 -0.68168808284E+03  0.68170428507E+03  0.47000000000E+01 0. -1.
          6    1    1    2  502    0 -0.69961829187E+02  0.24302959610E+02 -0.63743663511E+03  0.66437546250E+03  0.17200000000E+03 0. -1.
         -6    1    1    2    0  502  0.69961829187E+02 -0.24302959610E+02  0.25376461613E+03  0.31538194589E+03  0.17200000000E+03 0.  1.
</event>
<event>
 4    1 -0.7308497E-004  0.3530478E+03  0.7818608E-02  0.1061371E+00
         -5   -1    0    0    0  501 -0.00000000000E+00  0.00000000000E+00  0.15666394848E+03  0.15673443384E+03  0.47000000000E+01 0.  1.
          5   -1    0    0  501    0  0.00000000000E+00 -0.00000000000E+00 -0.16372234525E+04  0.16372301987E+04  0.47000000000E+01 0. -1.
          6    1    1    2  502    0 -0.25698454857E+03 -0.17034573956E+03 -0.13834749112E+04  0.14278114578E+04  0.17200000000E+03 0. -1.
         -6    1    1    2    0  502  0.25698454857E+03  0.17034573956E+03 -0.97084592879E+02  0.36615317473E+03  0.17200000000E+03 0.  1.
</event>
<event>
 4    1 -0.7308497E-004  0.2078345E+03  0.7818608E-02  0.1143292E+00
         -5   -1    0    0    0  501 -0.00000000000E+00  0.00000000000E+00  0.68257372049E+02  0.68418994724E+02  0.47000000000E+01 0.  1.
          5   -1    0    0  501    0  0.00000000000E+00 -0.00000000000E+00 -0.11835991536E+04  0.11836084852E+04  0.47000000000E+01 0. -1.
          6    1    1    2  502    0  0.25356414218E+02  0.11387814397E+03 -0.98503388386E+03  0.10067208808E+04  0.17200000000E+03 0. -1.
         -6    1    1    2    0  502 -0.25356414218E+02 -0.11387814397E+03 -0.13030789765E+03  0.24530659919E+03  0.17200000000E+03 0.  1.
</event>
<event>
 4    1 -0.7308497E-004  0.1814535E+03  0.7818608E-02  0.1166404E+00
          5   -1    0    0  501    0  0.00000000000E+00  0.00000000000E+00  0.36046518855E+03  0.36049582821E+03  0.47000000000E+01 0. -1.
         -5   -1    0    0    0  501 -0.00000000000E+00 -0.00000000000E+00 -0.88507713224E+03  0.88508961129E+03  0.47000000000E+01 0.  1.
          6    1    1    2  502    0  0.17310807672E+02  0.55151606199E+02  0.32747812765E+03  0.37438921969E+03  0.17200000000E+03 0. -1.
         -6    1    1    2    0  502 -0.17310807672E+02 -0.55151606199E+02 -0.85209007134E+03  0.87119621981E+03  0.17200000000E+03 0.  1.
</event>
<event>
 4    1 -0.7308497E-004  0.2398769E+03  0.7818608E-02  0.1119875E+00
         -5   -1    0    0    0  501 -0.00000000000E+00  0.00000000000E+00  0.32713586650E+03  0.32716962749E+03  0.47000000000E+01 0.  1.
          5   -1    0    0  501    0  0.00000000000E+00 -0.00000000000E+00 -0.49509758850E+03  0.49511989673E+03  0.47000000000E+01 0. -1.
          6    1    1    2  502    0  0.17086882362E+02  0.16632788920E+03 -0.41412295843E+03  0.47857993373E+03  0.17200000000E+03 0. -1.
         -6    1    1    2    0  502 -0.17086882362E+02 -0.16632788920E+03  0.24616123643E+03  0.34370959049E+03  0.17200000000E+03 0.  1.
</event>
<event>
 4    1 -0.7308497E-004  0.3685357E+03  0.7818608E-02  0.1055254E+00
          5   -1    0    0  501    0  0.00000000000E+00  0.00000000000E+00  0.20227967655E+03  0.20233427180E+03  0.47000000000E+01 0. -1.
         -5   -1    0    0    0  501 -0.00000000000E+00 -0.00000000000E+00 -0.85179636570E+03  0.85180933232E+03  0.47000000000E+01 0.  1.
          6    1    1    2  502    0  0.19626609693E+03 -0.26021950920E+03 -0.82133567747E+02  0.37757714010E+03  0.17200000000E+03 0. -1.
         -6    1    1    2    0  502 -0.19626609693E+03  0.26021950920E+03 -0.56738312141E+03  0.67656646402E+03  0.17200000000E+03 0.  1.
</event>
<event>
 4    1 -0.7308497E-004  0.1869561E+03  0.7818608E-02  0.1161236E+00
         -5   -1    0    0    0  501 -0.00000000000E+00  0.00000000000E+00  0.29638568302E+03  0.29642294631E+03  0.47000000000E+01 0.  1.
          5   -1    0    0  501    0  0.00000000000E+00 -0.00000000000E+00 -0.12452767586E+03  0.12461633944E+03  0.47000000000E+01 0. -1.
          6    1    1    2  502    0  0.62605782715E+02  0.38067028321E+02  0.37160127099E+02  0.19061337236E+03  0.17200000000E+03 0.  1.
         -6    1    1    2    0  502 -0.62605782715E+02 -0.38067028321E+02  0.13469788006E+03  0.23042591340E+03  0.17200000000E+03 0.  1.
</event>
<event>
 4    1 -0.7308497E-004  0.2468386E+03  0.7818608E-02  0.1115319E+00
         -5   -1    0    0    0  501 -0.00000000000E+00  0.00000000000E+00  0.15126967555E+04  0.15127040570E+04  0.47000000000E+01 0.  1.
          5   -1    0    0  501    0  0.00000000000E+00 -0.00000000000E+00 -0.53724558786E+02  0.53929752612E+02  0.47000000000E+01 0. -1.
          6    1    1    2  502    0 -0.76043747703E+02  0.15988326507E+03  0.33641387384E+03  0.41725724023E+03  0.17200000000E+03 0. -1.
         -6    1    1    2    0  502  0.76043747703E+02 -0.15988326507E+03  0.11225583229E+04  0.11493765694E+04  0.17200000000E+03 0.  1.
</event>
<event>
 4    1 -0.7308497E-004  0.2091044E+03  0.7818608E-02  0.1142277E+00
         -5   -1    0    0    0  501 -0.00000000000E+00  0.00000000000E+00  0.10795391588E+04  0.10795493899E+04  0.47000000000E+01 0.  1.
          5   -1    0    0  501    0  0.00000000000E+00 -0.00000000000E+00 -0.23359812309E+03  0.23364540036E+03  0.47000000000E+01 0. -1.
          6    1    1    2  502    0  0.25315623628E+02 -0.11618857248E+03 -0.17400546335E+03  0.27203412736E+03  0.17200000000E+03 0. -1.
         -6    1    1    2    0  502 -0.25315623628E+02  0.11618857248E+03  0.10199464990E+04  0.10411606629E+04  0.17200000000E+03 0.  1.
</event>
<event>
 4    1 -0.7308497E-004  0.1829262E+03  0.7818608E-02  0.1165001E+00
          5   -1    0    0  501    0  0.00000000000E+00  0.00000000000E+00  0.15924644417E+03  0.15931578698E+03  0.47000000000E+01 0. -1.
         -5   -1    0    0    0  501 -0.00000000000E+00 -0.00000000000E+00 -0.45765589831E+03  0.45768003152E+03  0.47000000000E+01 0.  1.
          6    1    1    2  502    0 -0.23636317058E+02  0.57613439000E+02  0.77713041641E+02  0.19874934133E+03  0.17200000000E+03 0. -1.
         -6    1    1    2    0  502  0.23636317058E+02 -0.57613439000E+02 -0.37612249578E+03  0.41824647717E+03  0.17200000000E+03 0.  1.
</event>
<event>
 4    1 -0.7308497E-004  0.1785008E+03  0.7818608E-02  0.1169262E+00
          5   -1    0    0  501    0  0.00000000000E+00  0.00000000000E+00  0.42043324093E+03  0.42045951063E+03  0.47000000000E+01 0. -1.
         -5   -1    0    0    0  501 -0.00000000000E+00 -0.00000000000E+00 -0.19684366192E+03  0.19689976445E+03  0.47000000000E+01 0.  1.
          6    1    1    2  502    0  0.48874134052E+01 -0.47483166616E+02  0.35389040460E+03  0.39635963012E+03  0.17200000000E+03 0. -1.
         -6    1    1    2    0  502 -0.48874134052E+01  0.47483166616E+02 -0.13030082559E+03  0.22099964496E+03  0.17200000000E+03 0.  1.
</event>
<event>
 4    1 -0.7308497E-004  0.3596314E+03  0.7818608E-02  0.1058730E+00
         -5   -1    0    0    0  501 -0.00000000000E+00  0.00000000000E+00  0.52978835362E+03  0.52980920115E+03  0.47000000000E+01 0.  1.
          5   -1    0    0  501    0  0.00000000000E+00 -0.00000000000E+00 -0.44806389125E+03  0.44808854108E+03  0.47000000000E+01 0. -1.
          6    1    1    2  502    0 -0.22482534498E+03 -0.22182042765E+03 -0.28902654793E+03  0.46137954362E+03  0.17200000000E+03 0. -1.
         -6    1    1    2    0  502  0.22482534498E+03  0.22182042765E+03  0.37075101029E+03  0.51651819861E+03  0.17200000000E+03 0.  1.
</event>
<event>
 4    1 -0.7308497E-004  0.1815579E+03  0.7818608E-02  0.1166304E+00
          5   -1    0    0  501    0  0.00000000000E+00  0.00000000000E+00  0.15485287082E+03  0.15492418017E+03  0.47000000000E+01 0. -1.
         -5   -1    0    0    0  501 -0.00000000000E+00 -0.00000000000E+00 -0.52005284999E+03  0.52007408778E+03  0.47000000000E+01 0.  1.
          6    1    1    2  502    0 -0.52377088434E+02 -0.25217581179E+02  0.76822038926E+02  0.19714185618E+03  0.17200000000E+03 0. -1.
         -6    1    1    2    0  502  0.52377088434E+02  0.25217581179E+02 -0.44202201809E+03  0.47785641177E+03  0.17200000000E+03 0.  1.
</event>
<event>
 4    1 -0.7308497E-004  0.2303183E+03  0.7818608E-02  0.1126416E+00
          5   -1    0    0  501    0  0.00000000000E+00  0.00000000000E+00  0.89479142087E+03  0.89480376444E+03  0.47000000000E+01 0. -1.
         -5   -1    0    0    0  501 -0.00000000000E+00 -0.00000000000E+00 -0.33904984475E+03  0.33908241952E+03  0.47000000000E+01 0.  1.
          6    1    1    2  502    0  0.12637932139E+03  0.86549345084E+02  0.83829273366E+03  0.86935679057E+03  0.17200000000E+03 0. -1.
         -6    1    1    2    0  502 -0.12637932139E+03 -0.86549345084E+02 -0.28255115755E+03  0.36452939338E+03  0.17200000000E+03 0.  1.
</event>
<event>
 4    1 -0.7308497E-004  0.2202262E+03  0.7818608E-02  0.1133715E+00
          5   -1    0    0  501    0  0.00000000000E+00  0.00000000000E+00  0.32482959171E+03  0.32486359237E+03  0.47000000000E+01 0. -1.
         -5   -1    0    0    0  501 -0.00000000000E+00 -0.00000000000E+00 -0.14984559726E+03  0.14991928835E+03  0.47000000000E+01 0.  1.
          6    1    1    2  502    0 -0.57190827368E+02  0.12507909041E+03  0.10271556918E+03  0.24300217642E+03  0.17200000000E+03 0. -1.
         -6    1    1    2    0  502  0.57190827368E+02 -0.12507909041E+03  0.72268425261E+02  0.23178070430E+03  0.17200000000E+03 0.  1.
</event>
<event>
 4    1 -0.7308497E-004  0.1864223E+03  0.7818608E-02  0.1161728E+00
          5   -1    0    0  501    0  0.00000000000E+00  0.00000000000E+00  0.43951207220E+03  0.43953720162E+03  0.47000000000E+01 0. -1.
         -5   -1    0    0    0  501 -0.00000000000E+00 -0.00000000000E+00 -0.89932453385E+02  0.90055184036E+02  0.47000000000E+01 0.  1.
          6    1    1    2  502    0 -0.70245555541E+02 -0.15323959275E+02  0.26713808689E+03  0.32575453837E+03  0.17200000000E+03 0.  1.
         -6    1    1    2    0  502  0.70245555541E+02  0.15323959275E+02  0.82441531926E+02  0.20383784729E+03  0.17200000000E+03 0.  1.
</event>
<event>
 4    1 -0.7308497E-004  0.1731745E+03  0.7818608E-02  0.1174577E+00
          5   -1    0    0  501    0  0.00000000000E+00  0.00000000000E+00  0.22414645825E+03  0.22419572865E+03  0.47000000000E+01 0. -1.
         -5   -1    0    0    0  501 -0.00000000000E+00 -0.00000000000E+00 -0.29912994673E+03  0.29916686821E+03  0.47000000000E+01 0.  1.
          6    1    1    2  502    0  0.20125092325E+02 -0.62335399887E+00  0.15708266241E+03  0.23380412901E+03  0.17200000000E+03 0. -1.
         -6    1    1    2    0  502 -0.20125092325E+02  0.62335399887E+00 -0.23206615089E+03  0.28955846785E+03  0.17200000000E+03 0.  1.
</event>
<event>
 4    1 -0.7308497E-004  0.1916829E+03  0.7818608E-02  0.1156952E+00
          5   -1    0    0  501    0  0.00000000000E+00  0.00000000000E+00  0.73260957308E+03  0.73262464917E+03  0.47000000000E+01 0. -1.
         -5   -1    0    0    0  501 -0.00000000000E+00 -0.00000000000E+00 -0.11107037513E+03  0.11116977211E+03  0.47000000000E+01 0.  1.
          6    1    1    2  502    0  0.48156342483E+02  0.69565149834E+02  0.62329493381E+03  0.65210345644E+03  0.17200000000E+03 0. -1.
         -6    1    1    2    0  502 -0.48156342483E+02 -0.69565149834E+02 -0.17557358558E+01  0.19169096484E+03  0.17200000000E+03 0.  1.
</event>
<event>
 4    1 -0.7308497E-004  0.1958948E+03  0.7818608E-02  0.1153250E+00
         -5   -1    0    0    0  501 -0.00000000000E+00  0.00000000000E+00  0.79085577513E+03  0.79086974089E+03  0.47000000000E+01 0.  1.
          5   -1    0    0  501    0  0.00000000000E+00 -0.00000000000E+00 -0.31330976239E+03  0.31334501306E+03  0.47000000000E+01 0. -1.
          6    1    1    2  502    0 -0.65118230845E+02 -0.67456591616E+02 -0.26878887717E+03  0.33259921261E+03  0.17200000000E+03 0. -1.
         -6    1    1    2    0  502  0.65118230845E+02  0.67456591616E+02  0.74633488990E+03  0.77161554133E+03  0.17200000000E+03 0.  1.
</event>
<event>
 4    1 -0.7308497E-004  0.1759140E+03  0.7818608E-02  0.1171817E+00
         -5   -1    0    0    0  501 -0.00000000000E+00  0.00000000000E+00  0.16501279145E+03  0.16507971208E+03  0.47000000000E+01 0.  1.
          5   -1    0    0  501    0  0.00000000000E+00 -0.00000000000E+00 -0.53940958063E+03  0.53943005633E+03  0.47000000000E+01 0. -1.
          6    1    1    2  502    0 -0.34533635320E+02  0.13006643769E+02 -0.47173057097E+03  0.50346348064E+03  0.17200000000E+03 0. -1.
         -6    1    1    2    0  502  0.34533635320E+02 -0.13006643769E+02  0.97333781787E+02  0.20104628777E+03  0.17200000000E+03 0.  1.
</event>
<event>
 4    1 -0.7308497E-004  0.1819633E+03  0.7818608E-02  0.1165916E+00
          5   -1    0    0  501    0  0.00000000000E+00  0.00000000000E+00  0.64472233172E+03  0.64473946290E+03  0.47000000000E+01 0. -1.
         -5   -1    0    0    0  501 -0.00000000000E+00 -0.00000000000E+00 -0.69772552436E+02  0.69930673338E+02  0.47000000000E+01 0.  1.
          6    1    1    2  502    0 -0.33968022973E+02 -0.48711453685E+02  0.47141338457E+03  0.50531298366E+03  0.17200000000E+03 0. -1.
         -6    1    1    2    0  502  0.33968022973E+02  0.48711453685E+02  0.10353639472E+03  0.20935715258E+03  0.17200000000E+03 0.  1.
</event>
<event>
 4    1 -0.7308497E-004  0.2148843E+03  0.7818608E-02  0.1137755E+00
         -5   -1    0    0    0  501 -0.00000000000E+00  0.00000000000E+00  0.22357851432E+03  0.22362790985E+03  0.47000000000E+01 0.  1.
          5   -1    0    0  501    0  0.00000000000E+00 -0.00000000000E+00 -0.20704656747E+03  0.20709990609E+03  0.47000000000E+01 0. -1.
          6    1    1    2  502    0  0.11895301169E+03  0.49411106439E+02 -0.34904595873E+01  0.21491267933E+03  0.17200000000E+03 0. -1.
         -6    1    1    2    0  502 -0.11895301169E+03 -0.49411106439E+02  0.20022406435E+02  0.21581513661E+03  0.17200000000E+03 0.  1.
</event>
<event>
 4    1 -0.7308497E-004  0.2244933E+03  0.7818608E-02  0.1130577E+00
         -5   -1    0    0    0  501 -0.00000000000E+00  0.00000000000E+00  0.29456778522E+03  0.29460527844E+03  0.47000000000E+01 0.  1.
          5   -1    0    0  501    0  0.00000000000E+00 -0.00000000000E+00 -0.54813582176E+03  0.54815597150E+03  0.47000000000E+01 0. -1.
          6    1    1    2  502    0 -0.17190002201E+02  0.14324021577E+03 -0.47628068184E+03  0.52653636483E+03  0.17200000000E+03 0. -1.
         -6    1    1    2    0  502  0.17190002201E+02 -0.14324021577E+03  0.22271264530E+03  0.31622488512E+03  0.17200000000E+03 0.  1.
</event>
<event>
 4    1 -0.7308497E-004  0.1791163E+03  0.7818608E-02  0.1168661E+00
          5   -1    0    0  501    0  0.00000000000E+00  0.00000000000E+00  0.62799835366E+02  0.62975466033E+02  0.47000000000E+01 0. -1.
         -5   -1    0    0    0  501 -0.00000000000E+00 -0.00000000000E+00 -0.57627305386E+03  0.57629221980E+03  0.47000000000E+01 0.  1.
          6    1    1    2  502    0 -0.53956516308E+01 -0.49694548089E+02 -0.14833760363E+03  0.23256548715E+03  0.17200000000E+03 0. -1.
         -6    1    1    2    0  502  0.53956516308E+01  0.49694548089E+02 -0.36513561487E+03  0.40670219868E+03  0.17200000000E+03 0.  1.
</event>
<event>
 4    1 -0.7308497E-004  0.3837961E+03  0.7818608E-02  0.1049540E+00
          5   -1    0    0  501    0  0.00000000000E+00  0.00000000000E+00  0.60717027047E+03  0.60718846114E+03  0.47000000000E+01 0. -1.
         -5   -1    0    0    0  501 -0.00000000000E+00 -0.00000000000E+00 -0.63188319129E+03  0.63190067055E+03  0.47000000000E+01 0.  1.
          6    1    1    2  502    0  0.34942456263E+02 -0.34131287283E+03  0.47393296015E+03  0.60984580274E+03  0.17200000000E+03 0. -1.
         -6    1    1    2    0  502 -0.34942456263E+02  0.34131287283E+03 -0.49864588097E+03  0.62924332894E+03  0.17200000000E+03 0.  1.
</event>
<event>
 4    1 -0.7308497E-004  0.1854666E+03  0.7818608E-02  0.1162615E+00
         -5   -1    0    0    0  501 -0.00000000000E+00  0.00000000000E+00  0.64641654235E+02  0.64812294067E+02  0.47000000000E+01 0.  1.
          5   -1    0    0  501    0  0.00000000000E+00 -0.00000000000E+00 -0.66878925686E+03  0.66880577158E+03  0.47000000000E+01 0. -1.
          6    1    1    2  502    0 -0.60472010655E+02 -0.34014535551E+02 -0.13575207406E+03  0.22984011467E+03  0.17200000000E+03 0. -1.
         -6    1    1    2    0  502  0.60472010655E+02  0.34014535551E+02 -0.46839552857E+03  0.50377795097E+03  0.17200000000E+03 0. -1.
</event>
<event>
 4    1 -0.7308497E-004  0.4762554E+03  0.7818608E-02  0.1020169E+00
         -5   -1    0    0    0  501 -0.00000000000E+00  0.00000000000E+00  0.40518353656E+03  0.40521079489E+03  0.47000000000E+01 0.  1.
          5   -1    0    0  501    0  0.00000000000E+00 -0.00000000000E+00 -0.56274411820E+03  0.56276374489E+03  0.47000000000E+01 0. -1.
          6    1    1    2  502    0 -0.32538251625E+03  0.30226046051E+03 -0.43406153937E+02  0.47822929863E+03  0.17200000000E+03 0. -1.
         -6    1    1    2    0  502  0.32538251625E+03 -0.30226046051E+03 -0.11415442770E+03  0.48974524116E+03  0.17200000000E+03 0.  1.
</event>
<event>
 4    1 -0.7308497E-004  0.2119644E+03  0.7818608E-02  0.1140020E+00
         -5   -1    0    0    0  501 -0.00000000000E+00  0.00000000000E+00  0.30628228972E+03  0.30631834911E+03  0.47000000000E+01 0.  1.
          5   -1    0    0  501    0  0.00000000000E+00 -0.00000000000E+00 -0.31539187917E+03  0.31542689715E+03  0.47000000000E+01 0. -1.
          6    1    1    2  502    0 -0.16981155097E+02  0.12270517534E+03 -0.23193821789E+03  0.31420416389E+03  0.17200000000E+03 0. -1.
         -6    1    1    2    0  502  0.16981155097E+02 -0.12270517534E+03  0.22282862845E+03  0.30754108237E+03  0.17200000000E+03 0.  1.
</event>
<event>
 4    1 -0.7308497E-004  0.2728667E+03  0.7818608E-02  0.1099650E+00
          5   -1    0    0  501    0  0.00000000000E+00  0.00000000000E+00  0.14947701099E+03  0.14955088370E+03  0.47000000000E+01 0. -1.
         -5   -1    0    0    0  501 -0.00000000000E+00 -0.00000000000E+00 -0.67009889753E+03  0.67011537997E+03  0.47000000000E+01 0.  1.
          6    1    1    2  502    0  0.52441277967E+02 -0.20523675855E+03 -0.52571847912E+02  0.27788489323E+03  0.17200000000E+03 0. -1.
         -6    1    1    2    0  502 -0.52441277967E+02  0.20523675855E+03 -0.46805003862E+03  0.54178137043E+03  0.17200000000E+03 0.  1.
</event>
<event>
 4    1 -0.7308497E-004  0.2438160E+03  0.7818608E-02  0.1117277E+00
          5   -1    0    0  501    0  0.00000000000E+00  0.00000000000E+00  0.52053308568E+03  0.52055430388E+03  0.47000000000E+01 0. -1.
         -5   -1    0    0    0  501 -0.00000000000E+00 -0.00000000000E+00 -0.11482899576E+03  0.11492514201E+03  0.47000000000E+01 0.  1.
          6    1    1    2  502    0 -0.13756518086E+03 -0.10458510014E+03  0.22761788397E+03  0.33355078063E+03  0.17200000000E+03 0.  1.
         -6    1    1    2    0  502  0.13756518086E+03  0.10458510014E+03  0.17808620595E+03  0.30192866526E+03  0.17200000000E+03 0.  1.
</event>
<event>
 4    1 -0.7308497E-004  0.1848431E+03  0.7818608E-02  0.1163196E+00
         -5   -1    0    0    0  501 -0.00000000000E+00  0.00000000000E+00  0.67707895960E+02  0.67870827130E+02  0.47000000000E+01 0.  1.
          5   -1    0    0  501    0  0.00000000000E+00 -0.00000000000E+00 -0.67040497210E+03  0.67042144701E+03  0.47000000000E+01 0. -1.
          6    1    1    2  502    0  0.60880266492E+02  0.29607092875E+02 -0.48532344800E+03  0.51933210567E+03  0.17200000000E+03 0. -1.
         -6    1    1    2    0  502 -0.60880266492E+02 -0.29607092875E+02 -0.11737362814E+03  0.21896016847E+03  0.17200000000E+03 0.  1.
</event>
<event>
 4    1 -0.7308497E-004  0.3590800E+03  0.7818608E-02  0.1058949E+00
         -5   -1    0    0    0  501 -0.00000000000E+00  0.00000000000E+00  0.54916212485E+03  0.54918223694E+03  0.47000000000E+01 0.  1.
          5   -1    0    0  501    0  0.00000000000E+00 -0.00000000000E+00 -0.70029954701E+03  0.70031531865E+03  0.47000000000E+01 0. -1.
          6    1    1    2  502    0  0.28095497207E+03 -0.14289415625E+03 -0.58493900204E+03  0.68636147352E+03  0.17200000000E+03 0. -1.
         -6    1    1    2    0  502 -0.28095497207E+03  0.14289415625E+03  0.43380157989E+03  0.56313608207E+03  0.17200000000E+03 0.  1.
</event>
<event>
 4    1 -0.7308497E-004  0.1897641E+03  0.7818608E-02  0.1158674E+00
          5   -1    0    0  501    0  0.00000000000E+00  0.00000000000E+00  0.23948816922E+03  0.23953428396E+03  0.47000000000E+01 0. -1.
         -5   -1    0    0    0  501 -0.00000000000E+00 -0.00000000000E+00 -0.16903337109E+04  0.16903402451E+04  0.47000000000E+01 0.  1.
          6    1    1    2  502    0  0.59780575946E+02 -0.53410738689E+02  0.19560258659E+03  0.27252668888E+03  0.17200000000E+03 0. -1.
         -6    1    1    2    0  502 -0.59780575946E+02  0.53410738689E+02 -0.16464481282E+04  0.16573478401E+04  0.17200000000E+03 0.  1.
</event>
<event>
 4    1 -0.7308497E-004  0.1806096E+03  0.7818608E-02  0.1167214E+00
          5   -1    0    0  501    0  0.00000000000E+00  0.00000000000E+00  0.13987389596E+04  0.13987468560E+04  0.47000000000E+01 0. -1.
         -5   -1    0    0    0  501 -0.00000000000E+00 -0.00000000000E+00 -0.26413264988E+02  0.26828167424E+02  0.47000000000E+01 0.  1.
          6    1    1    2  502    0  0.47416273661E+02 -0.28063090465E+02  0.93738306231E+03  0.95462392887E+03  0.17200000000E+03 0. -1.
         -6    1    1    2    0  502 -0.47416273661E+02  0.28063090465E+02  0.43494263234E+03  0.47095109457E+03  0.17200000000E+03 0.  1.
</event>
<event>
 4    1 -0.7308497E-004  0.1912437E+03  0.7818608E-02  0.1157344E+00
         -5   -1    0    0    0  501 -0.00000000000E+00  0.00000000000E+00  0.79913927331E+02  0.80052019222E+02  0.47000000000E+01 0.  1.
          5   -1    0    0  501    0  0.00000000000E+00 -0.00000000000E+00 -0.57929679852E+03  0.57931586442E+03  0.47000000000E+01 0. -1.
          6    1    1    2  502    0  0.89907829946E+00  0.83602263222E+02 -0.40107358613E+03  0.44433564819E+03  0.17200000000E+03 0. -1.
         -6    1    1    2    0  502 -0.89907829946E+00 -0.83602263222E+02 -0.98309285052E+02  0.21503223546E+03  0.17200000000E+03 0.  1.
</event>
<event>
 4    1 -0.7308497E-004  0.1876291E+03  0.7818608E-02  0.1160617E+00
         -5   -1    0    0    0  501 -0.00000000000E+00  0.00000000000E+00  0.19684628966E+02  0.20237949934E+02  0.47000000000E+01 0.  1.
          5   -1    0    0  501    0  0.00000000000E+00 -0.00000000000E+00 -0.21769962374E+04  0.21770013109E+04  0.47000000000E+01 0. -1.
          6    1    1    2  502    0  0.80328431096E+01  0.74539559937E+02 -0.15576313775E+04  0.15688913859E+04  0.17200000000E+03 0. -1.
         -6    1    1    2    0  502 -0.80328431096E+01 -0.74539559937E+02 -0.59968023090E+03  0.62834787490E+03  0.17200000000E+03 0.  1.
</event>
<event>
 4    1 -0.7308497E-004  0.1820439E+03  0.7818608E-02  0.1165839E+00
          5   -1    0    0  501    0  0.00000000000E+00  0.00000000000E+00  0.15817668819E+04  0.15817738646E+04  0.47000000000E+01 0. -1.
         -5   -1    0    0    0  501 -0.00000000000E+00 -0.00000000000E+00 -0.59918208206E+02  0.60102260146E+02  0.47000000000E+01 0.  1.
          6    1    1    2  502    0  0.58489903789E+02 -0.11615060200E+02  0.14232507341E+04  0.14348458561E+04  0.17200000000E+03 0. -1.
         -6    1    1    2    0  502 -0.58489903789E+02  0.11615060200E+02  0.98597939622E+02  0.20703026872E+03  0.17200000000E+03 0.  1.
</event>
<event>
 4    1 -0.7308497E-004  0.1907257E+03  0.7818608E-02  0.1157808E+00
         -5   -1    0    0    0  501 -0.00000000000E+00  0.00000000000E+00  0.20964218652E+03  0.20969486491E+03  0.47000000000E+01 0.  1.
          5   -1    0    0  501    0  0.00000000000E+00 -0.00000000000E+00 -0.18142177253E+04  0.18142238134E+04  0.47000000000E+01 0. -1.
          6    1    1    2  502    0 -0.65194908460E+02  0.50417419657E+02 -0.17646459793E+04  0.17749230193E+04  0.17200000000E+03 0. -1.
         -6    1    1    2    0  502  0.65194908460E+02 -0.50417419657E+02  0.16007044042E+03  0.24899565898E+03  0.17200000000E+03 0.  1.
</event>
<event>
 4    1 -0.7308497E-004  0.1801421E+03  0.7818608E-02  0.1167666E+00
          5   -1    0    0  501    0  0.00000000000E+00  0.00000000000E+00  0.18869029264E+03  0.18874881863E+03  0.47000000000E+01 0. -1.
         -5   -1    0    0    0  501 -0.00000000000E+00 -0.00000000000E+00 -0.18533046195E+03  0.18539004862E+03  0.47000000000E+01 0.  1.
          6    1    1    2  502    0  0.50688770874E+02 -0.17257501558E+02  0.52090062724E+02  0.18752212533E+03  0.17200000000E+03 0. -1.
         -6    1    1    2    0  502 -0.50688770874E+02  0.17257501558E+02 -0.48730232041E+02  0.18661674193E+03  0.17200000000E+03 0.  1.
</event>
<event>
 4    1 -0.7308497E-004  0.2175624E+03  0.7818608E-02  0.1135714E+00
          5   -1    0    0  501    0  0.00000000000E+00  0.00000000000E+00  0.68403492153E+02  0.68564770391E+02  0.47000000000E+01 0. -1.
         -5   -1    0    0    0  501 -0.00000000000E+00 -0.00000000000E+00 -0.10118597032E+04  0.10118706187E+04  0.47000000000E+01 0.  1.
          6    1    1    2  502    0  0.79280845670E+02 -0.10706974162E+03 -0.16754428220E+03  0.27459874100E+03  0.17200000000E+03 0. -1.
         -6    1    1    2    0  502 -0.79280845670E+02  0.10706974162E+03 -0.77591192886E+03  0.80583664810E+03  0.17200000000E+03 0.  1.
</event>
<event>
 4    1 -0.7308497E-004  0.2365367E+03  0.7818608E-02  0.1122122E+00
         -5   -1    0    0    0  501 -0.00000000000E+00  0.00000000000E+00  0.17399995238E+04  0.17400058715E+04  0.47000000000E+01 0.  1.
          5   -1    0    0  501    0  0.00000000000E+00 -0.00000000000E+00 -0.44453270112E+02  0.44701042758E+02  0.47000000000E+01 0. -1.
          6    1    1    2  502    0 -0.15616201879E+03  0.44486087210E+02  0.37662091004E+03  0.44473913471E+03  0.17200000000E+03 0. -1.
         -6    1    1    2    0  502  0.15616201879E+03 -0.44486087210E+02  0.13189253437E+04  0.13399677796E+04  0.17200000000E+03 0.  1.
</event>
<event>
 4    1 -0.7308497E-004  0.1905938E+03  0.7818608E-02  0.1157927E+00
         -5   -1    0    0    0  501 -0.00000000000E+00  0.00000000000E+00  0.85485072392E+02  0.85614178743E+02  0.47000000000E+01 0.  1.
          5   -1    0    0  501    0  0.00000000000E+00 -0.00000000000E+00 -0.11579567306E+04  0.11579662689E+04  0.47000000000E+01 0. -1.
          6    1    1    2  502    0 -0.38824328449E+02 -0.72350921839E+02 -0.10310752790E+04  0.10485429010E+04  0.17200000000E+03 0. -1.
         -6    1    1    2    0  502  0.38824328449E+02  0.72350921839E+02 -0.41396379189E+02  0.19503754659E+03  0.17200000000E+03 0.  1.
</event>
<event>
 4    1 -0.7308497E-004  0.2035216E+03  0.7818608E-02  0.1146801E+00
          5   -1    0    0  501    0  0.00000000000E+00  0.00000000000E+00  0.30639400640E+02  0.30997788173E+02  0.47000000000E+01 0. -1.
         -5   -1    0    0    0  501 -0.00000000000E+00 -0.00000000000E+00 -0.21103742326E+04  0.21103794663E+04  0.47000000000E+01 0.  1.
          6    1    1    2  502    0  0.99310728705E+02  0.44434620297E+02 -0.39456829963E+03  0.44396531327E+03  0.17200000000E+03 0. -1.
         -6    1    1    2    0  502 -0.99310728705E+02 -0.44434620297E+02 -0.16851665324E+04  0.16974119412E+04  0.17200000000E+03 0.  1.
</event>
<event>
 4    1 -0.7308497E-004  0.1922934E+03  0.7818608E-02  0.1156409E+00
         -5   -1    0    0    0  501 -0.00000000000E+00  0.00000000000E+00  0.73133885846E+02  0.73284754615E+02  0.47000000000E+01 0.  1.
          5   -1    0    0  501    0  0.00000000000E+00 -0.00000000000E+00 -0.93329026396E+03  0.93330209836E+03  0.47000000000E+01 0. -1.
          6    1    1    2  502    0 -0.79605763620E+02 -0.32490917505E+02 -0.77102233732E+03  0.79463965542E+03  0.17200000000E+03 0. -1.
         -6    1    1    2    0  502  0.79605763620E+02  0.32490917505E+02 -0.89134040792E+02  0.21194719755E+03  0.17200000000E+03 0.  1.
</event>
<event>
 4    1 -0.7308497E-004  0.2293116E+03  0.7818608E-02  0.1127125E+00
          5   -1    0    0  501    0  0.00000000000E+00  0.00000000000E+00  0.50034878454E+03  0.50037085866E+03  0.47000000000E+01 0. -1.
         -5   -1    0    0    0  501 -0.00000000000E+00 -0.00000000000E+00 -0.62826299791E+03  0.62828057788E+03  0.47000000000E+01 0.  1.
          6    1    1    2  502    0  0.32811504849E+02  0.14806492544E+03  0.45101424891E+03  0.50596212281E+03  0.17200000000E+03 0. -1.
         -6    1    1    2    0  502 -0.32811504849E+02 -0.14806492544E+03 -0.57892846228E+03  0.62268931373E+03  0.17200000000E+03 0.  1.
</event>
<event>
 4    1 -0.7308497E-004  0.1724507E+03  0.7818608E-02  0.1175316E+00
         -5   -1    0    0    0  501 -0.00000000000E+00  0.00000000000E+00  0.84573342847E+03  0.84574648804E+03  0.47000000000E+01 0.  1.
          5   -1    0    0  501    0  0.00000000000E+00 -0.00000000000E+00 -0.36473240827E+02  0.36774818781E+02  0.47000000000E+01 0. -1.
          6    1    1    2  502    0  0.83243339312E+00  0.12432230460E+02  0.31613690680E+03  0.36011358922E+03  0.17200000000E+03 0. -1.
         -6    1    1    2    0  502 -0.83243339312E+00 -0.12432230460E+02  0.49312328085E+03  0.52240771760E+03  0.17200000000E+03 0.  1.
</event>
<event>
 4    1 -0.7308497E-004  0.2374942E+03  0.7818608E-02  0.1121473E+00
          5   -1    0    0  501    0  0.00000000000E+00  0.00000000000E+00  0.41997278275E+03  0.41999908125E+03  0.47000000000E+01 0. -1.
         -5   -1    0    0    0  501 -0.00000000000E+00 -0.00000000000E+00 -0.36494287326E+03  0.36497313702E+03  0.47000000000E+01 0.  1.
          6    1    1    2  502    0  0.10170718408E+03 -0.12835555023E+03  0.33954584593E+03  0.41436080902E+03  0.17200000000E+03 0. -1.
         -6    1    1    2    0  502 -0.10170718408E+03  0.12835555023E+03 -0.28451593644E+03  0.37061140924E+03  0.17200000000E+03 0.  1.
</event>
<event>
 4    1 -0.7308497E-004  0.1973061E+03  0.7818608E-02  0.1152032E+00
         -5   -1    0    0    0  501 -0.00000000000E+00  0.00000000000E+00  0.45552672814E+03  0.45555097415E+03  0.47000000000E+01 0.  1.
          5   -1    0    0  501    0  0.00000000000E+00 -0.00000000000E+00 -0.16267185585E+03  0.16273973911E+03  0.47000000000E+01 0. -1.
          6    1    1    2  502    0 -0.77599853145E+01  0.96361252199E+02 -0.66601401248E+02  0.20824373927E+03  0.17200000000E+03 0. -1.
         -6    1    1    2    0  502  0.77599853145E+01 -0.96361252199E+02  0.35945627354E+03  0.41004697400E+03  0.17200000000E+03 0.  1.
</event>
<event>
 4    1 -0.7308497E-004  0.1793228E+03  0.7818608E-02  0.1168460E+00
         -5   -1    0    0    0  501 -0.00000000000E+00  0.00000000000E+00  0.17821521919E+03  0.17827718405E+03  0.47000000000E+01 0.  1.
          5   -1    0    0  501    0  0.00000000000E+00 -0.00000000000E+00 -0.14319523764E+04  0.14319600896E+04  0.47000000000E+01 0. -1.
          6    1    1    2  502    0  0.13708715896E+02  0.48833868092E+02 -0.13795661474E+04  0.13911719630E+04  0.17200000000E+03 0. -1.
         -6    1    1    2    0  502 -0.13708715896E+02 -0.48833868092E+02  0.12582899020E+03  0.21906531067E+03  0.17200000000E+03 0.  1.
</event>
<event>
 4    1 -0.7308497E-004  0.1753530E+03  0.7818608E-02  0.1172378E+00
          5   -1    0    0  501    0  0.00000000000E+00  0.00000000000E+00  0.78144644221E+03  0.78146057613E+03  0.47000000000E+01 0. -1.
         -5   -1    0    0    0  501 -0.00000000000E+00 -0.00000000000E+00 -0.48982392357E+02  0.49207364906E+02  0.47000000000E+01 0.  1.
          6    1    1    2  502    0  0.33015741437E+02  0.86397671131E+01  0.55139869823E+03  0.57860972094E+03  0.17200000000E+03 0. -1.
         -6    1    1    2    0  502 -0.33015741437E+02 -0.86397671131E+01  0.18106535163E+03  0.25205822010E+03  0.17200000000E+03 0.  1.
</event>
<event>
 4    1 -0.7308497E-004  0.1817722E+03  0.7818608E-02  0.1166099E+00
         -5   -1    0    0    0  501 -0.00000000000E+00  0.00000000000E+00  0.61949641425E+02  0.62127675578E+02  0.47000000000E+01 0.  1.
          5   -1    0    0  501    0  0.00000000000E+00 -0.00000000000E+00 -0.60728881305E+03  0.60730700017E+03  0.47000000000E+01 0. -1.
          6    1    1    2  502    0 -0.18509006689E+02  0.55808190924E+02 -0.39019054411E+03  0.43045301511E+03  0.17200000000E+03 0. -1.
         -6    1    1    2    0  502  0.18509006689E+02 -0.55808190924E+02 -0.15514862752E+03  0.23898166064E+03  0.17200000000E+03 0.  1.
</event>
<event>
 4    1 -0.7308497E-004  0.2426926E+03  0.7818608E-02  0.1118012E+00
         -5   -1    0    0    0  501 -0.00000000000E+00  0.00000000000E+00  0.46621242711E+03  0.46623611742E+03  0.47000000000E+01 0.  1.
          5   -1    0    0  501    0  0.00000000000E+00 -0.00000000000E+00 -0.15189062614E+03  0.15196332554E+03  0.47000000000E+01 0. -1.
          6    1    1    2  502    0  0.66477691787E+02  0.15778595865E+03  0.30245652907E+02  0.24457001405E+03  0.17200000000E+03 0. -1.
         -6    1    1    2    0  502 -0.66477691787E+02 -0.15778595865E+03  0.28407614806E+03  0.37362942891E+03  0.17200000000E+03 0.  1.
</event>
<event>
 4    1 -0.7308497E-004  0.1748233E+03  0.7818608E-02  0.1172909E+00
          5   -1    0    0  501    0  0.00000000000E+00  0.00000000000E+00  0.27267429930E+03  0.27271480250E+03  0.47000000000E+01 0. -1.
         -5   -1    0    0    0  501 -0.00000000000E+00 -0.00000000000E+00 -0.12653607156E+03  0.12662332884E+03  0.47000000000E+01 0.  1.
          6    1    1    2  502    0 -0.17661095018E+02 -0.25831624284E+02  0.14073464051E+03  0.22443133946E+03  0.17200000000E+03 0. -1.
         -6    1    1    2    0  502  0.17661095018E+02  0.25831624284E+02  0.54035872317E+01  0.17490679188E+03  0.17200000000E+03 0.  1.
</event>
<event>
 4    1 -0.7308497E-004  0.1830573E+03  0.7818608E-02  0.1164877E+00
         -5   -1    0    0    0  501 -0.00000000000E+00  0.00000000000E+00  0.19227146371E+03  0.19232889996E+03  0.47000000000E+01 0.  1.
          5   -1    0    0  501    0  0.00000000000E+00 -0.00000000000E+00 -0.37439426258E+03  0.37442376241E+03  0.47000000000E+01 0. -1.
          6    1    1    2  502    0  0.25880929174E+02 -0.57062548593E+02 -0.29826518602E+03  0.34996010935E+03  0.17200000000E+03 0. -1.
         -6    1    1    2    0  502 -0.25880929174E+02  0.57062548593E+02  0.11614238715E+03  0.21679255301E+03  0.17200000000E+03 0.  1.
</event>
<event>
 4    1 -0.7308497E-004  0.2063151E+03  0.7818608E-02  0.1144518E+00
          5   -1    0    0  501    0  0.00000000000E+00  0.00000000000E+00  0.20990267273E+03  0.20995528576E+03  0.47000000000E+01 0. -1.
         -5   -1    0    0    0  501 -0.00000000000E+00 -0.00000000000E+00 -0.10792979403E+04  0.10793081738E+04  0.47000000000E+01 0.  1.
          6    1    1    2  502    0 -0.80807797032E+02  0.80324358025E+02  0.14623827389E+03  0.25288640791E+03  0.17200000000E+03 0. -1.
         -6    1    1    2    0  502  0.80807797032E+02 -0.80324358025E+02 -0.10156335415E+04  0.10363770516E+04  0.17200000000E+03 0.  1.
</event>
<event>
 4    1 -0.7308497E-004  0.1787809E+03  0.7818608E-02  0.1168988E+00
          5   -1    0    0  501    0  0.00000000000E+00  0.00000000000E+00  0.85132042077E+02  0.85261683001E+02  0.47000000000E+01 0. -1.
         -5   -1    0    0    0  501 -0.00000000000E+00 -0.00000000000E+00 -0.44728858928E+03  0.44731328183E+03  0.47000000000E+01 0.  1.
          6    1    1    2  502    0  0.42928075544E+02 -0.23146861563E+02 -0.74058580825E+02  0.19351297182E+03  0.17200000000E+03 0. -1.
         -6    1    1    2    0  502 -0.42928075544E+02  0.23146861563E+02 -0.28809796638E+03  0.33906199301E+03  0.17200000000E+03 0.  1.
</event>
<event>
 4    1 -0.7308497E-004  0.1803494E+03  0.7818608E-02  0.1167465E+00
         -5   -1    0    0    0  501 -0.00000000000E+00  0.00000000000E+00  0.44631734046E+03  0.44634208674E+03  0.47000000000E+01 0.  1.
          5   -1    0    0  501    0  0.00000000000E+00 -0.00000000000E+00 -0.15719541104E+03  0.15726565821E+03  0.47000000000E+01 0. -1.
          6    1    1    2  502    0 -0.68393734619E+01  0.53806347760E+02 -0.76516691350E+02  0.19590993886E+03  0.17200000000E+03 0. -1.
         -6    1    1    2    0  502  0.68393734619E+01 -0.53806347760E+02  0.36563862077E+03  0.40769780609E+03  0.17200000000E+03 0.  1.
</event>
<event>
 4    1 -0.7308497E-004  0.2615305E+03  0.7818608E-02  0.1106227E+00
          5   -1    0    0  501    0  0.00000000000E+00  0.00000000000E+00  0.25598052925E+03  0.25602367343E+03  0.47000000000E+01 0. -1.
         -5   -1    0    0    0  501 -0.00000000000E+00 -0.00000000000E+00 -0.55807851654E+03  0.55809830731E+03  0.47000000000E+01 0.  1.
          6    1    1    2  502    0  0.92608102232E+02 -0.17389067514E+03  0.14285314427E+03  0.29800209450E+03  0.17200000000E+03 0. -1.
         -6    1    1    2    0  502 -0.92608102232E+02  0.17389067514E+03 -0.44495113156E+03  0.51611988624E+03  0.17200000000E+03 0.  1.
</event>
<event>
 4    1 -0.7308497E-004  0.1970990E+03  0.7818608E-02  0.1152210E+00
         -5   -1    0    0    0  501 -0.00000000000E+00  0.00000000000E+00  0.65744393334E+03  0.65746073304E+03  0.47000000000E+01 0.  1.
          5   -1    0    0  501    0  0.00000000000E+00 -0.00000000000E+00 -0.11688337580E+03  0.11697783354E+03  0.47000000000E+01 0. -1.
          6    1    1    2  502    0  0.76170920398E+02  0.58838671072E+02 -0.20814405278E+01  0.19710994577E+03  0.17200000000E+03 0. -1.
         -6    1    1    2    0  502 -0.76170920398E+02 -0.58838671072E+02  0.54264199807E+03  0.57732862080E+03  0.17200000000E+03 0.  1.
</event>
<event>
 4    1 -0.7308497E-004  0.1721161E+03  0.7818608E-02  0.1175659E+00
          5   -1    0    0  501    0  0.00000000000E+00  0.00000000000E+00  0.17433764871E+03  0.17440099128E+03  0.47000000000E+01 0. -1.
         -5   -1    0    0    0  501 -0.00000000000E+00 -0.00000000000E+00 -0.17076351784E+03  0.17082818569E+03  0.47000000000E+01 0.  1.
          6    1    1    2  502    0  0.61333164874E+01  0.15325321533E+01  0.14773766543E+02  0.17274903879E+03  0.17200000000E+03 0. -1.
         -6    1    1    2    0  502 -0.61333164874E+01 -0.15325321533E+01 -0.11199635676E+02  0.17248013818E+03  0.17200000000E+03 0.  1.
</event>
<event>
 4    1 -0.7308497E-004  0.2451636E+03  0.7818608E-02  0.1116400E+00
          5   -1    0    0  501    0  0.00000000000E+00  0.00000000000E+00  0.14229819199E+03  0.14237578953E+03  0.47000000000E+01 0. -1.
         -5   -1    0    0    0  501 -0.00000000000E+00 -0.00000000000E+00 -0.14297145487E+04  0.14297222740E+04  0.47000000000E+01 0.  1.
          6    1    1    2  502    0 -0.17470311992E+03 -0.11556661068E+00  0.16133727368E+02  0.24569389619E+03  0.17200000000E+03 0. -1.
         -6    1    1    2    0  502  0.17470311992E+03  0.11556661068E+00 -0.13035500841E+04  0.13264041674E+04  0.17200000000E+03 0.  1.
</event>
<event>
 4    1 -0.7308497E-004  0.2119132E+03  0.7818608E-02  0.1140060E+00
         -5   -1    0    0    0  501 -0.00000000000E+00  0.00000000000E+00  0.42744559781E+03  0.42747143657E+03  0.47000000000E+01 0.  1.
          5   -1    0    0  501    0  0.00000000000E+00 -0.00000000000E+00 -0.13006023099E+04  0.13006108020E+04  0.47000000000E+01 0. -1.
          6    1    1    2  502    0 -0.48874168305E+02 -0.11372996818E+03 -0.12649891471E+04  0.12826163621E+04  0.17200000000E+03 0. -1.
         -6    1    1    2    0  502  0.48874168305E+02  0.11372996818E+03  0.39183243506E+03  0.44546587653E+03  0.17200000000E+03 0.  1.
</event>
<event>
 4    1 -0.7308497E-004  0.1779580E+03  0.7818608E-02  0.1169794E+00
         -5   -1    0    0    0  501 -0.00000000000E+00  0.00000000000E+00  0.26818547404E+03  0.26822665506E+03  0.47000000000E+01 0.  1.
          5   -1    0    0  501    0  0.00000000000E+00 -0.00000000000E+00 -0.12210371144E+03  0.12219413385E+03  0.47000000000E+01 0. -1.
          6    1    1    2  502    0  0.44611521251E+02  0.97396449860E+01  0.37226786673E+02  0.18181001666E+03  0.17200000000E+03 0. -1.
         -6    1    1    2    0  502 -0.44611521251E+02 -0.97396449860E+01  0.10885497593E+03  0.20861077225E+03  0.17200000000E+03 0.  1.
</event>
<event>
 4    1 -0.7308497E-004  0.1803845E+03  0.7818608E-02  0.1167431E+00
          5   -1    0    0  501    0  0.00000000000E+00  0.00000000000E+00  0.44933301456E+03  0.44935759476E+03  0.47000000000E+01 0. -1.
         -5   -1    0    0    0  501 -0.00000000000E+00 -0.00000000000E+00 -0.26059488042E+03  0.26063726077E+03  0.47000000000E+01 0.  1.
          6    1    1    2  502    0  0.77466830780E+01  0.53801086911E+02  0.39604837074E+03  0.43519292276E+03  0.17200000000E+03 0. -1.
         -6    1    1    2    0  502 -0.77466830780E+01 -0.53801086911E+02 -0.20731023661E+03  0.27480193277E+03  0.17200000000E+03 0.  1.
</event>
<event>
 4    1 -0.7308497E-004  0.1764815E+03  0.7818608E-02  0.1171252E+00
         -5   -1    0    0    0  501 -0.00000000000E+00  0.00000000000E+00  0.13077911005E+03  0.13086353818E+03  0.47000000000E+01 0.  1.
          5   -1    0    0  501    0  0.00000000000E+00 -0.00000000000E+00 -0.10265826404E+04  0.10265933994E+04  0.47000000000E+01 0. -1.
          6    1    1    2  502    0  0.18283243592E+01  0.39476147583E+02 -0.95510928994E+03  0.97127723371E+03  0.17200000000E+03 0. -1.
         -6    1    1    2    0  502 -0.18283243592E+01 -0.39476147583E+02  0.59305759578E+02  0.18617970383E+03  0.17200000000E+03 0.  1.
</event>
<event>
 4    1 -0.7308497E-004  0.1949884E+03  0.7818608E-02  0.1154038E+00
          5   -1    0    0  501    0  0.00000000000E+00  0.00000000000E+00  0.17751383430E+03  0.17757604391E+03  0.47000000000E+01 0. -1.
         -5   -1    0    0    0  501 -0.00000000000E+00 -0.00000000000E+00 -0.35428988640E+03  0.35432106006E+03  0.47000000000E+01 0.  1.
          6    1    1    2  502    0  0.78123925984E+02 -0.48302549918E+02  0.78905309387E+02  0.21034859636E+03  0.17200000000E+03 0. -1.
         -6    1    1    2    0  502 -0.78123925984E+02  0.48302549918E+02 -0.25568136148E+03  0.32154850761E+03  0.17200000000E+03 0.  1.
</event>
<event>
 4    1 -0.7308497E-004  0.1951982E+03  0.7818608E-02  0.1153855E+00
         -5   -1    0    0    0  501 -0.00000000000E+00  0.00000000000E+00  0.17445026376E+03  0.17451356545E+03  0.47000000000E+01 0.  1.
          5   -1    0    0  501    0  0.00000000000E+00 -0.00000000000E+00 -0.22339622953E+03  0.22344566536E+03  0.47000000000E+01 0. -1.
          6    1    1    2  502    0 -0.83563497187E+02 -0.39184964245E+02 -0.54561786647E+02  0.20268030996E+03  0.17200000000E+03 0. -1.
         -6    1    1    2    0  502  0.83563497187E+02  0.39184964245E+02  0.56158208764E+01  0.19527892085E+03  0.17200000000E+03 0. -1.
</event>
<event>
 4    1 -0.7308497E-004  0.1766711E+03  0.7818608E-02  0.1171064E+00
          5   -1    0    0  501    0  0.00000000000E+00  0.00000000000E+00  0.82281704769E+02  0.82415829424E+02  0.47000000000E+01 0. -1.
         -5   -1    0    0    0  501 -0.00000000000E+00 -0.00000000000E+00 -0.42768535915E+03  0.42771118343E+03  0.47000000000E+01 0.  1.
          6    1    1    2  502    0  0.36507043025E+01  0.40191592590E+02 -0.86556837734E+02  0.19673529911E+03  0.17200000000E+03 0. -1.
         -6    1    1    2    0  502 -0.36507043025E+01 -0.40191592590E+02 -0.25884681665E+03  0.31339171375E+03  0.17200000000E+03 0.  1.
</event>
<event>
 4    1 -0.7308497E-004  0.1729756E+03  0.7818608E-02  0.1174780E+00
         -5   -1    0    0    0  501 -0.00000000000E+00  0.00000000000E+00  0.12891489205E+04  0.12891574882E+04  0.47000000000E+01 0.  1.
          5   -1    0    0  501    0  0.00000000000E+00 -0.00000000000E+00 -0.69535354570E+02  0.69694013625E+02  0.47000000000E+01 0. -1.
          6    1    1    2  502    0  0.17661612254E+02 -0.49611186540E+01  0.55068174487E+02  0.18152974711E+03  0.17200000000E+03 0. -1.
         -6    1    1    2    0  502 -0.17661612254E+02  0.49611186540E+01  0.11645453915E+04  0.11773217547E+04  0.17200000000E+03 0.  1.
</event>
<event>
 4    1 -0.7308497E-004  0.2117608E+03  0.7818608E-02  0.1140179E+00
          5   -1    0    0  501    0  0.00000000000E+00  0.00000000000E+00  0.10235962325E+03  0.10246747031E+03  0.47000000000E+01 0. -1.
         -5   -1    0    0    0  501 -0.00000000000E+00 -0.00000000000E+00 -0.46593127233E+03  0.46595497694E+03  0.47000000000E+01 0.  1.
          6    1    1    2  502    0  0.11008594345E+02 -0.12303437735E+03 -0.11188364016E+03  0.23950072253E+03  0.17200000000E+03 0. -1.
         -6    1    1    2    0  502 -0.11008594345E+02  0.12303437735E+03 -0.25168800892E+03  0.32892172472E+03  0.17200000000E+03 0.  1.
</event>
<event>
 4    1 -0.7308497E-004  0.1826320E+03  0.7818608E-02  0.1165280E+00
          5   -1    0    0  501    0  0.00000000000E+00  0.00000000000E+00  0.11156880755E+03  0.11166776087E+03  0.47000000000E+01 0. -1.
         -5   -1    0    0    0  501 -0.00000000000E+00 -0.00000000000E+00 -0.60792090555E+03  0.60793907376E+03  0.47000000000E+01 0.  1.
          6    1    1    2  502    0  0.61180184525E+02 -0.52384095351E+01  0.84051924603E+01  0.18282533515E+03  0.17200000000E+03 0. -1.
         -6    1    1    2    0  502 -0.61180184525E+02  0.52384095351E+01 -0.50475729046E+03  0.53678149948E+03  0.17200000000E+03 0.  1.
</event>
<event>
 4    1 -0.7308497E-004  0.1723512E+03  0.7818608E-02  0.1175418E+00
         -5   -1    0    0    0  501 -0.00000000000E+00  0.00000000000E+00  0.17403040506E+03  0.17409385941E+03  0.47000000000E+01 0.  1.
          5   -1    0    0  501    0  0.00000000000E+00 -0.00000000000E+00 -0.23658433645E+03  0.23663101710E+03  0.47000000000E+01 0. -1.
          6    1    1    2  502    0  0.66383908983E+01  0.87682507907E+01 -0.13973613747E+03  0.22188091079E+03  0.17200000000E+03 0. -1.
         -6    1    1    2    0  502 -0.66383908983E+01 -0.87682507907E+01  0.77182206078E+02  0.18884396572E+03  0.17200000000E+03 0.  1.
</event>
<event>
 4    1 -0.7308497E-004  0.1735231E+03  0.7818608E-02  0.1174223E+00
         -5   -1    0    0    0  501 -0.00000000000E+00  0.00000000000E+00  0.24510835749E+03  0.24515341506E+03  0.47000000000E+01 0.  1.
          5   -1    0    0  501    0  0.00000000000E+00 -0.00000000000E+00 -0.22384021713E+03  0.22388955493E+03  0.47000000000E+01 0. -1.
          6    1    1    2  502    0  0.22854731533E+02  0.19851977221E+01 -0.14693499834E+03  0.22737672155E+03  0.17200000000E+03 0. -1.
         -6    1    1    2    0  502 -0.22854731533E+02 -0.19851977221E+01  0.16820313870E+03  0.24166624844E+03  0.17200000000E+03 0.  1.
</event>
<event>
 4    1 -0.7308497E-004  0.2050343E+03  0.7818608E-02  0.1145560E+00
          5   -1    0    0  501    0  0.00000000000E+00  0.00000000000E+00  0.57496771209E+03  0.57498692155E+03  0.47000000000E+01 0. -1.
         -5   -1    0    0    0  501 -0.00000000000E+00 -0.00000000000E+00 -0.18360740724E+03  0.18366755291E+03  0.47000000000E+01 0.  1.
          6    1    1    2  502    0  0.10164470372E+03  0.46080552388E+02  0.48996986427E+03  0.53113984128E+03  0.17200000000E+03 0. -1.
         -6    1    1    2    0  502 -0.10164470372E+03 -0.46080552388E+02 -0.98609559411E+02  0.22751463318E+03  0.17200000000E+03 0.  1.
</event>
<event>
 4    1 -0.7308497E-004  0.1898350E+03  0.7818608E-02  0.1158610E+00
         -5   -1    0    0    0  501 -0.00000000000E+00  0.00000000000E+00  0.68091629324E+03  0.68093251384E+03  0.47000000000E+01 0.  1.
          5   -1    0    0  501    0  0.00000000000E+00 -0.00000000000E+00 -0.16234822758E+03  0.16241624611E+03  0.47000000000E+01 0. -1.
          6    1    1    2  502    0  0.66711985072E+02 -0.44753094920E+02 -0.86928206962E+02  0.20879138302E+03  0.17200000000E+03 0. -1.
         -6    1    1    2    0  502 -0.66711985072E+02  0.44753094920E+02  0.60549627262E+03  0.63455737693E+03  0.17200000000E+03 0.  1.
</event>
<event>
 4    1 -0.7308497E-004  0.2087711E+03  0.7818608E-02  0.1142543E+00
          5   -1    0    0  501    0  0.00000000000E+00  0.00000000000E+00  0.77045941943E+03  0.77047375490E+03  0.47000000000E+01 0. -1.
         -5   -1    0    0    0  501 -0.00000000000E+00 -0.00000000000E+00 -0.84699536608E+02  0.84829838509E+02  0.47000000000E+01 0.  1.
          6    1    1    2  502    0  0.46811644335E+02 -0.10867392592E+03  0.58956312787E+03  0.62543587518E+03  0.17200000000E+03 0. -1.
         -6    1    1    2    0  502 -0.46811644335E+02  0.10867392592E+03  0.96196754954E+02  0.22986771823E+03  0.17200000000E+03 0.  1.
</event>
<event>
 4    1 -0.7308497E-004  0.1720833E+03  0.7818608E-02  0.1175693E+00
         -5   -1    0    0    0  501 -0.00000000000E+00  0.00000000000E+00  0.18639643300E+03  0.18645567901E+03  0.47000000000E+01 0.  1.
          5   -1    0    0  501    0  0.00000000000E+00 -0.00000000000E+00 -0.47863972438E+03  0.47866279963E+03  0.47000000000E+01 0. -1.
          6    1    1    2  502    0  0.33221359830E+01 -0.41970199791E+01 -0.41796389505E+03  0.45200273133E+03  0.17200000000E+03 0. -1.
         -6    1    1    2    0  502 -0.33221359830E+01  0.41970199791E+01  0.12572060368E+03  0.21311574731E+03  0.17200000000E+03 0.  1.
</event>
<event>
 4    1 -0.7308497E-004  0.1757250E+03  0.7818608E-02  0.1172006E+00
         -5   -1    0    0    0  501 -0.00000000000E+00  0.00000000000E+00  0.11159537631E+04  0.11159636604E+04  0.47000000000E+01 0.  1.
          5   -1    0    0  501    0  0.00000000000E+00 -0.00000000000E+00 -0.19376874889E+03  0.19382574145E+03  0.47000000000E+01 0. -1.
          6    1    1    2  502    0 -0.35902793221E+02 -0.25025918922E+01 -0.14525157093E+03  0.22798528984E+03  0.17200000000E+03 0. -1.
         -6    1    1    2    0  502  0.35902793221E+02  0.25025918922E+01  0.10674365852E+04  0.10818041120E+04  0.17200000000E+03 0.  1.
</event>
<event>
 4    1 -0.7308497E-004  0.2628653E+03  0.7818608E-02  0.1105434E+00
          5   -1    0    0  501    0  0.00000000000E+00  0.00000000000E+00  0.38977979620E+03  0.38980813168E+03  0.47000000000E+01 0. -1.
         -5   -1    0    0    0  501 -0.00000000000E+00 -0.00000000000E+00 -0.29874418031E+03  0.29878114945E+03  0.47000000000E+01 0.  1.
          6    1    1    2  502    0 -0.19687735030E+03 -0.27449171745E+02  0.26508884511E+03  0.37332324317E+03  0.17200000000E+03 0. -1.
         -6    1    1    2    0  502  0.19687735030E+03  0.27449171745E+02 -0.17405322923E+03  0.31526603796E+03  0.17200000000E+03 0.  1.
</event>
<event>
 4    1 -0.7308497E-004  0.1822669E+03  0.7818608E-02  0.1165627E+00
         -5   -1    0    0    0  501 -0.00000000000E+00  0.00000000000E+00  0.12923908616E+04  0.12923994078E+04  0.47000000000E+01 0.  1.
          5   -1    0    0  501    0  0.00000000000E+00 -0.00000000000E+00 -0.19395066543E+03  0.19400760454E+03  0.47000000000E+01 0. -1.
          6    1    1    2  502    0  0.20703668848E+02 -0.56644180724E+02 -0.14299361319E+03  0.23166436611E+03  0.17200000000E+03 0. -1.
         -6    1    1    2    0  502 -0.20703668848E+02  0.56644180724E+02  0.12414338094E+04  0.12547426462E+04  0.17200000000E+03 0.  1.
</event>
<event>
 4    1 -0.7308497E-004  0.1729884E+03  0.7818608E-02  0.1174767E+00
          5   -1    0    0  501    0  0.00000000000E+00  0.00000000000E+00  0.89818666162E+03  0.89819895854E+03  0.47000000000E+01 0. -1.
         -5   -1    0    0    0  501 -0.00000000000E+00 -0.00000000000E+00 -0.21087935203E+03  0.21093172144E+03  0.47000000000E+01 0.  1.
          6    1    1    2  502    0 -0.12122499094E+02 -0.13929444115E+02  0.85253756017E+03  0.86991107355E+03  0.17200000000E+03 0. -1.
         -6    1    1    2    0  502  0.12122499094E+02  0.13929444115E+02 -0.16523025057E+03  0.23921960643E+03  0.17200000000E+03 0.  1.
</event>
<event>
 4    1 -0.7308497E-004  0.1732474E+03  0.7818608E-02  0.1174503E+00
         -5   -1    0    0    0  501 -0.00000000000E+00  0.00000000000E+00  0.27127914366E+03  0.27131985513E+03  0.47000000000E+01 0.  1.
          5   -1    0    0  501    0  0.00000000000E+00 -0.00000000000E+00 -0.15768225244E+03  0.15775228282E+03  0.47000000000E+01 0. -1.
          6    1    1    2  502    0  0.14981956358E+02  0.14359950957E+02 -0.60456297717E+02  0.18349286401E+03  0.17200000000E+03 0. -1.
         -6    1    1    2    0  502 -0.14981956358E+02 -0.14359950957E+02  0.17405318894E+03  0.24557927394E+03  0.17200000000E+03 0.  1.
</event>
<event>
 4    1 -0.7308497E-004  0.1860708E+03  0.7818608E-02  0.1162054E+00
          5   -1    0    0  501    0  0.00000000000E+00  0.00000000000E+00  0.14880001631E+04  0.14880075858E+04  0.47000000000E+01 0. -1.
         -5   -1    0    0    0  501 -0.00000000000E+00 -0.00000000000E+00 -0.67906402742E+02  0.68068858763E+02  0.47000000000E+01 0.  1.
          6    1    1    2  502    0 -0.70539134266E+02  0.79114209117E+01  0.13410755557E+04  0.13539224520E+04  0.17200000000E+03 0. -1.
         -6    1    1    2    0  502  0.70539134266E+02 -0.79114209117E+01  0.79018204741E+02  0.20215399260E+03  0.17200000000E+03 0.  1.
</event>
<event>
 4    1 -0.7308497E-004  0.1816881E+03  0.7818608E-02  0.1166179E+00
         -5   -1    0    0    0  501 -0.00000000000E+00  0.00000000000E+00  0.59062263405E+03  0.59064133436E+03  0.47000000000E+01 0.  1.
          5   -1    0    0  501    0  0.00000000000E+00 -0.00000000000E+00 -0.14872538647E+03  0.14879963232E+03  0.47000000000E+01 0. -1.
          6    1    1    2  502    0 -0.25125134369E+02  0.52870480497E+02 -0.71188151511E+02  0.19513665212E+03  0.17200000000E+03 0. -1.
         -6    1    1    2    0  502  0.25125134369E+02 -0.52870480497E+02  0.51308539910E+03  0.54430431456E+03  0.17200000000E+03 0.  1.
</event>
<event>
 4    1 -0.7308497E-004  0.1993552E+03  0.7818608E-02  0.1150284E+00
          5   -1    0    0  501    0  0.00000000000E+00  0.00000000000E+00  0.33928209733E+03  0.33931464980E+03  0.47000000000E+01 0. -1.
         -5   -1    0    0    0  501 -0.00000000000E+00 -0.00000000000E+00 -0.25705976221E+03  0.25710272528E+03  0.47000000000E+01 0.  1.
          6    1    1    2  502    0 -0.24818490875E+02 -0.97685927410E+02  0.26114744726E+03  0.32854297605E+03  0.17200000000E+03 0. -1.
         -6    1    1    2    0  502  0.24818490875E+02  0.97685927410E+02 -0.17892511214E+03  0.26787439903E+03  0.17200000000E+03 0.  1.
</event>
<event>
 4    1 -0.7308497E-004  0.1823473E+03  0.7818608E-02  0.1165550E+00
          5   -1    0    0  501    0  0.00000000000E+00  0.00000000000E+00  0.15017298258E+03  0.15024651310E+03  0.47000000000E+01 0. -1.
         -5   -1    0    0    0  501 -0.00000000000E+00 -0.00000000000E+00 -0.28104346852E+03  0.28108276574E+03  0.47000000000E+01 0.  1.
          6    1    1    2  502    0 -0.42414931714E+02 -0.43214755323E+02  0.34009837194E+02  0.18549180719E+03  0.17200000000E+03 0. -1.
         -6    1    1    2    0  502  0.42414931714E+02  0.43214755323E+02 -0.16488032313E+03  0.24583747165E+03  0.17200000000E+03 0.  1.
</event>
<event>
 4    1 -0.7308497E-004  0.1961686E+03  0.7818608E-02  0.1153012E+00
          5   -1    0    0  501    0  0.00000000000E+00  0.00000000000E+00  0.11801627824E+03  0.11810982994E+03  0.47000000000E+01 0. -1.
         -5   -1    0    0    0  501 -0.00000000000E+00 -0.00000000000E+00 -0.40352002380E+03  0.40354739450E+03  0.47000000000E+01 0.  1.
          6    1    1    2  502    0  0.61477717057E+02 -0.71544583955E+02 -0.28326022146E+02  0.19820318039E+03  0.17200000000E+03 0. -1.
         -6    1    1    2    0  502 -0.61477717057E+02  0.71544583955E+02 -0.25717772342E+03  0.32345404405E+03  0.17200000000E+03 0.  1.
</event>
<event>
 4    1 -0.7308497E-004  0.4338501E+03  0.7818608E-02  0.1032651E+00
         -5   -1    0    0    0  501 -0.00000000000E+00  0.00000000000E+00  0.62472474852E+03  0.62474242806E+03  0.47000000000E+01 0.  1.
          5   -1    0    0  501    0  0.00000000000E+00 -0.00000000000E+00 -0.40134229510E+03  0.40136981431E+03  0.47000000000E+01 0. -1.
          6    1    1    2  502    0  0.25424397679E+03 -0.30659735300E+03  0.36788720636E+03  0.56882944122E+03  0.17200000000E+03 0. -1.
         -6    1    1    2    0  502 -0.25424397679E+03  0.30659735300E+03 -0.14450475294E+03  0.45728280114E+03  0.17200000000E+03 0.  1.
</event>
<event>
 4    1 -0.7308497E-004  0.2755461E+03  0.7818608E-02  0.1098147E+00
          5   -1    0    0  501    0  0.00000000000E+00  0.00000000000E+00  0.19422452460E+04  0.19422509327E+04  0.47000000000E+01 0. -1.
         -5   -1    0    0    0  501 -0.00000000000E+00 -0.00000000000E+00 -0.57538088418E+03  0.57540007984E+03  0.47000000000E+01 0.  1.
          6    1    1    2  502    0 -0.12295611392E+03 -0.17670158346E+03  0.18987441772E+04  0.19186336560E+04  0.17200000000E+03 0. -1.
         -6    1    1    2    0  502  0.12295611392E+03  0.17670158346E+03 -0.53187981533E+03  0.59901735659E+03  0.17200000000E+03 0.  1.
</event>
<event>
 4    1 -0.7308497E-004  0.1742653E+03  0.7818608E-02  0.1173471E+00
         -5   -1    0    0    0  501 -0.00000000000E+00  0.00000000000E+00  0.71329125008E+02  0.71483802881E+02  0.47000000000E+01 0.  1.
          5   -1    0    0  501    0  0.00000000000E+00 -0.00000000000E+00 -0.87507412565E+03  0.87508674734E+03  0.47000000000E+01 0. -1.
          6    1    1    2  502    0  0.61988046663E+01 -0.27312630702E+02 -0.74121693929E+03  0.76142692103E+03  0.17200000000E+03 0. -1.
         -6    1    1    2    0  502 -0.61988046663E+01  0.27312630702E+02 -0.62528061345E+02  0.18514362919E+03  0.17200000000E+03 0.  1.
</event>
<event>
 4    1 -0.7308497E-004  0.2242283E+03  0.7818608E-02  0.1130769E+00
         -5   -1    0    0    0  501 -0.00000000000E+00  0.00000000000E+00  0.57935743260E+03  0.57937649651E+03  0.47000000000E+01 0.  1.
          5   -1    0    0  501    0  0.00000000000E+00 -0.00000000000E+00 -0.46576250145E+03  0.46578621465E+03  0.47000000000E+01 0. -1.
          6    1    1    2  502    0 -0.14211284660E+03 -0.22321953558E+02 -0.41459612644E+03  0.47134730172E+03  0.17200000000E+03 0. -1.
         -6    1    1    2    0  502  0.14211284660E+03  0.22321953558E+02  0.52819105760E+03  0.57381540944E+03  0.17200000000E+03 0.  1.
</event>
<event>
 4    1 -0.7308497E-004  0.5547335E+03  0.7818608E-02  0.1000404E+00
          5   -1    0    0  501    0  0.00000000000E+00  0.00000000000E+00  0.43440158524E+03  0.43442701028E+03  0.47000000000E+01 0. -1.
         -5   -1    0    0    0  501 -0.00000000000E+00 -0.00000000000E+00 -0.93272841602E+03  0.93274025755E+03  0.47000000000E+01 0.  1.
          6    1    1    2  502    0 -0.52324177751E+03 -0.66055421072E+02  0.86111529807E+02  0.56137729910E+03  0.17200000000E+03 0. -1.
         -6    1    1    2    0  502  0.52324177751E+03  0.66055421072E+02 -0.58443836058E+03  0.80578996873E+03  0.17200000000E+03 0.  1.
</event>
<event>
 4    1 -0.7308497E-004  0.3045600E+03  0.7818608E-02  0.1082983E+00
          5   -1    0    0  501    0  0.00000000000E+00  0.00000000000E+00  0.53777931931E+03  0.53779985709E+03  0.47000000000E+01 0. -1.
         -5   -1    0    0    0  501 -0.00000000000E+00 -0.00000000000E+00 -0.30273611163E+03  0.30277259336E+03  0.47000000000E+01 0.  1.
          6    1    1    2  502    0  0.25132473225E+03 -0.29415336437E+01  0.39323163093E+03  0.49738103022E+03  0.17200000000E+03 0. -1.
         -6    1    1    2    0  502 -0.25132473225E+03  0.29415336437E+01 -0.15818842325E+03  0.34319142022E+03  0.17200000000E+03 0.  1.
</event>
<event>
 4    1 -0.7308497E-004  0.2204539E+03  0.7818608E-02  0.1133545E+00
          5   -1    0    0  501    0  0.00000000000E+00  0.00000000000E+00  0.23118995508E+03  0.23123772471E+03  0.47000000000E+01 0. -1.
         -5   -1    0    0    0  501 -0.00000000000E+00 -0.00000000000E+00 -0.33026583307E+03  0.33029927414E+03  0.47000000000E+01 0.  1.
          6    1    1    2  502    0  0.68798258609E+02 -0.11951031102E+03  0.11978279173E+03  0.25089406534E+03  0.17200000000E+03 0. -1.
         -6    1    1    2    0  502 -0.68798258609E+02  0.11951031102E+03 -0.21885866972E+03  0.31064293351E+03  0.17200000000E+03 0.  1.
</event>
<event>
 4    1 -0.7308497E-004  0.4100420E+03  0.7818608E-02  0.1040357E+00
          5   -1    0    0  501    0  0.00000000000E+00  0.00000000000E+00  0.73215797922E+03  0.73217306460E+03  0.47000000000E+01 0. -1.
         -5   -1    0    0    0  501 -0.00000000000E+00 -0.00000000000E+00 -0.48574701692E+03  0.48576975456E+03  0.47000000000E+01 0.  1.
          6    1    1    2  502    0 -0.83060916315E+02  0.36283784687E+03  0.56539990033E+03  0.69843501217E+03  0.17200000000E+03 0. -1.
         -6    1    1    2    0  502  0.83060916315E+02 -0.36283784687E+03 -0.31898893803E+03  0.51950780699E+03  0.17200000000E+03 0.  1.
</event>
<event>
 4    1 -0.7308497E-004  0.1780390E+03  0.7818608E-02  0.1169715E+00
          5   -1    0    0  501    0  0.00000000000E+00  0.00000000000E+00  0.19993888499E+03  0.19999411924E+03  0.47000000000E+01 0. -1.
         -5   -1    0    0    0  501 -0.00000000000E+00 -0.00000000000E+00 -0.17017772828E+03  0.17024261865E+03  0.47000000000E+01 0.  1.
          6    1    1    2  502    0  0.28371428226E+02 -0.36179352704E+02 -0.33748380702E+02  0.18120937255E+03  0.17200000000E+03 0.  1.
         -6    1    1    2    0  502 -0.28371428226E+02  0.36179352704E+02  0.63509537405E+02  0.18902736533E+03  0.17200000000E+03 0.  1.
</event>
<event>
 4    1 -0.7308497E-004  0.1936203E+03  0.7818608E-02  0.1155236E+00
          5   -1    0    0  501    0  0.00000000000E+00  0.00000000000E+00  0.67372285089E+03  0.67373924467E+03  0.47000000000E+01 0. -1.
         -5   -1    0    0    0  501 -0.00000000000E+00 -0.00000000000E+00 -0.67480730277E+02  0.67644208612E+02  0.47000000000E+01 0.  1.
          6    1    1    2  502    0  0.87229200164E+02 -0.17201375950E+02  0.45890528393E+03  0.49807919081E+03  0.17200000000E+03 0. -1.
         -6    1    1    2    0  502 -0.87229200164E+02  0.17201375950E+02  0.14733683668E+03  0.24330426248E+03  0.17200000000E+03 0.  1.
</event>
<event>
 4    1 -0.7308497E-004  0.1935368E+03  0.7818608E-02  0.1155309E+00
         -5   -1    0    0    0  501 -0.00000000000E+00  0.00000000000E+00  0.68513818308E+03  0.68515430373E+03  0.47000000000E+01 0.  1.
          5   -1    0    0  501    0  0.00000000000E+00 -0.00000000000E+00 -0.58837471185E+02  0.59024893185E+02  0.47000000000E+01 0. -1.
          6    1    1    2  502    0  0.75658770435E+02  0.46349189669E+02  0.21291202659E+03  0.28772908785E+03  0.17200000000E+03 0. -1.
         -6    1    1    2    0  502 -0.75658770435E+02 -0.46349189669E+02  0.41338868530E+03  0.45645010906E+03  0.17200000000E+03 0.  1.
</event>
<event>
 4    1 -0.7308497E-004  0.1873825E+03  0.7818608E-02  0.1160844E+00
          5   -1    0    0  501    0  0.00000000000E+00  0.00000000000E+00  0.10917873248E+03  0.10927985005E+03  0.47000000000E+01 0. -1.
         -5   -1    0    0    0  501 -0.00000000000E+00 -0.00000000000E+00 -0.78532880899E+03  0.78534287304E+03  0.47000000000E+01 0.  1.
          6    1    1    2  502    0 -0.10471847221E+02 -0.73610828967E+02  0.57244197595E+01  0.18746995148E+03  0.17200000000E+03 0. -1.
         -6    1    1    2    0  502  0.10471847221E+02  0.73610828967E+02 -0.68187449627E+03  0.70715277161E+03  0.17200000000E+03 0.  1.
</event>
<event>
 4    1 -0.7308497E-004  0.1725509E+03  0.7818608E-02  0.1175214E+00
         -5   -1    0    0    0  501 -0.00000000000E+00  0.00000000000E+00  0.11175269716E+04  0.11175368550E+04  0.47000000000E+01 0.  1.
          5   -1    0    0  501    0  0.00000000000E+00 -0.00000000000E+00 -0.12824618302E+03  0.12833227755E+03  0.47000000000E+01 0. -1.
          6    1    1    2  502    0  0.26731281347E+01  0.13514845878E+02 -0.59855726330E+02  0.18263763207E+03  0.17200000000E+03 0. -1.
         -6    1    1    2    0  502 -0.26731281347E+01 -0.13514845878E+02  0.10491365149E+04  0.10632315005E+04  0.17200000000E+03 0.  1.
</event>
<event>
 4    1 -0.7308497E-004  0.1802585E+03  0.7818608E-02  0.1167553E+00
          5   -1    0    0  501    0  0.00000000000E+00  0.00000000000E+00  0.13655685728E+04  0.13655766610E+04  0.47000000000E+01 0. -1.
         -5   -1    0    0    0  501 -0.00000000000E+00 -0.00000000000E+00 -0.37615961482E+02  0.37908449694E+02  0.47000000000E+01 0.  1.
          6    1    1    2  502    0 -0.53333208835E+02  0.80443491705E+01  0.10908413510E+04  0.11056346574E+04  0.17200000000E+03 0. -1.
         -6    1    1    2    0  502  0.53333208835E+02 -0.80443491705E+01  0.23711126036E+03  0.29785045326E+03  0.17200000000E+03 0.  1.
</event>
<event>
 4    1 -0.7308497E-004  0.2217059E+03  0.7818608E-02  0.1132618E+00
          5   -1    0    0  501    0  0.00000000000E+00  0.00000000000E+00  0.19915157907E+03  0.19920703162E+03  0.47000000000E+01 0. -1.
         -5   -1    0    0    0  501 -0.00000000000E+00 -0.00000000000E+00 -0.12447099209E+04  0.12447187944E+04  0.47000000000E+01 0.  1.
          6    1    1    2  502    0  0.12519451169E+03 -0.62416817691E+02  0.12366847413E+03  0.25386495698E+03  0.17200000000E+03 0. -1.
         -6    1    1    2    0  502 -0.12519451169E+03  0.62416817691E+02 -0.11692268159E+04  0.11900608690E+04  0.17200000000E+03 0.  1.
</event>
<event>
 4    1 -0.7308497E-004  0.1729190E+03  0.7818608E-02  0.1174838E+00
          5   -1    0    0  501    0  0.00000000000E+00  0.00000000000E+00  0.13584589404E+02  0.14374667623E+02  0.47000000000E+01 0. -1.
         -5   -1    0    0    0  501 -0.00000000000E+00 -0.00000000000E+00 -0.33708676577E+04  0.33708709343E+04  0.47000000000E+01 0.  1.
          6    1    1    2  502    0  0.41107533034E+01 -0.17322773175E+02 -0.65516440860E+03  0.67759971891E+03  0.17200000000E+03 0. -1.
         -6    1    1    2    0  502 -0.41107533034E+01  0.17322773175E+02 -0.27021186597E+04  0.27076458831E+04  0.17200000000E+03 0.  1.
</event>
<event>
 4    1 -0.7308497E-004  0.1965731E+03  0.7818608E-02  0.1152663E+00
          5   -1    0    0  501    0  0.00000000000E+00  0.00000000000E+00  0.77099070502E+03  0.77100503061E+03  0.47000000000E+01 0. -1.
         -5   -1    0    0    0  501 -0.00000000000E+00 -0.00000000000E+00 -0.39075245390E+03  0.39078071886E+03  0.47000000000E+01 0.  1.
          6    1    1    2  502    0 -0.50955597801E+02  0.80377383917E+02  0.73248418293E+03  0.75840231740E+03  0.17200000000E+03 0. -1.
         -6    1    1    2    0  502  0.50955597801E+02 -0.80377383917E+02 -0.35224593181E+03  0.40338343207E+03  0.17200000000E+03 0.  1.
</event>
<event>
 4    1 -0.7308497E-004  0.1741026E+03  0.7818608E-02  0.1173636E+00
          5   -1    0    0  501    0  0.00000000000E+00  0.00000000000E+00  0.45794035589E+03  0.45796447412E+03  0.47000000000E+01 0. -1.
         -5   -1    0    0    0  501 -0.00000000000E+00 -0.00000000000E+00 -0.78984106922E+02  0.79123821610E+02  0.47000000000E+01 0.  1.
          6    1    1    2  502    0 -0.21589460837E+02  0.16174554187E+02  0.29789260698E+03  0.34503873162E+03  0.17200000000E+03 0. -1.
         -6    1    1    2    0  502  0.21589460837E+02 -0.16174554187E+02  0.81063641987E+02  0.19204956411E+03  0.17200000000E+03 0.  1.
</event>
<event>
 4    1 -0.7308497E-004  0.1903837E+03  0.7818608E-02  0.1158116E+00
          5   -1    0    0  501    0  0.00000000000E+00  0.00000000000E+00  0.13983542510E+04  0.13983621495E+04  0.47000000000E+01 0. -1.
         -5   -1    0    0    0  501 -0.00000000000E+00 -0.00000000000E+00 -0.80768636764E+02  0.80905269821E+02  0.47000000000E+01 0.  1.
          6    1    1    2  502    0  0.16158463089E+02 -0.80005390442E+02  0.12684328796E+04  0.12826409975E+04  0.17200000000E+03 0. -1.
         -6    1    1    2    0  502 -0.16158463089E+02  0.80005390442E+02  0.49152734554E+02  0.19662642178E+03  0.17200000000E+03 0.  1.
</event>
<event>
 4    1 -0.7308497E-004  0.1843520E+03  0.7818608E-02  0.1163656E+00
         -5   -1    0    0    0  501 -0.00000000000E+00  0.00000000000E+00  0.21446423949E+03  0.21451573373E+03  0.47000000000E+01 0.  1.
          5   -1    0    0  501    0  0.00000000000E+00 -0.00000000000E+00 -0.10239528677E+04  0.10239636543E+04  0.47000000000E+01 0. -1.
          6    1    1    2  502    0  0.33295683100E+02  0.57385044287E+02 -0.97406322558E+03  0.99135503895E+03  0.17200000000E+03 0. -1.
         -6    1    1    2    0  502 -0.33295683100E+02 -0.57385044287E+02  0.16457459734E+03  0.24712434909E+03  0.17200000000E+03 0.  1.
</event>
<event>
 4    1 -0.7308497E-004  0.2142315E+03  0.7818608E-02  0.1138258E+00
          5   -1    0    0  501    0  0.00000000000E+00  0.00000000000E+00  0.13163503605E+03  0.13171891556E+03  0.47000000000E+01 0. -1.
         -5   -1    0    0    0  501 -0.00000000000E+00 -0.00000000000E+00 -0.46800874861E+03  0.46803234800E+03  0.47000000000E+01 0.  1.
          6    1    1    2  502    0 -0.12327434270E+03  0.33385478180E+02 -0.16633887287E+02  0.21487633636E+03  0.17200000000E+03 0. -1.
         -6    1    1    2    0  502  0.12327434270E+03 -0.33385478180E+02 -0.31973982527E+03  0.38487492720E+03  0.17200000000E+03 0. -1.
</event>
<event>
 4    1 -0.7308497E-004  0.1916370E+03  0.7818608E-02  0.1156993E+00
         -5   -1    0    0    0  501 -0.00000000000E+00  0.00000000000E+00  0.60083180889E+03  0.60085019146E+03  0.47000000000E+01 0.  1.
          5   -1    0    0  501    0  0.00000000000E+00 -0.00000000000E+00 -0.12063353311E+03  0.12072505668E+03  0.47000000000E+01 0. -1.
          6    1    1    2  502    0  0.83814326040E+02 -0.10765590828E+02 -0.13376280578E+02  0.19210326410E+03  0.17200000000E+03 0. -1.
         -6    1    1    2    0  502 -0.83814326040E+02  0.10765590828E+02  0.49357455636E+03  0.52947198404E+03  0.17200000000E+03 0.  1.
</event>
<event>
 4    1 -0.7308497E-004  0.2213789E+03  0.7818608E-02  0.1132859E+00
          5   -1    0    0  501    0  0.00000000000E+00  0.00000000000E+00  0.70855430202E+03  0.70856988993E+03  0.47000000000E+01 0. -1.
         -5   -1    0    0    0  501 -0.00000000000E+00 -0.00000000000E+00 -0.77126197607E+03  0.77127629662E+03  0.47000000000E+01 0.  1.
          6    1    1    2  502    0 -0.60579225253E+02  0.12551811056E+03  0.67461315046E+03  0.71000812769E+03  0.17200000000E+03 0. -1.
         -6    1    1    2    0  502  0.60579225253E+02 -0.12551811056E+03 -0.73732082451E+03  0.76983805886E+03  0.17200000000E+03 0.  1.
</event>
<event>
 4    1 -0.7308497E-004  0.1943241E+03  0.7818608E-02  0.1154618E+00
         -5   -1    0    0    0  501 -0.00000000000E+00  0.00000000000E+00  0.72256796722E+02  0.72409492972E+02  0.47000000000E+01 0.  1.
          5   -1    0    0  501    0  0.00000000000E+00 -0.00000000000E+00 -0.52214807541E+03  0.52216922799E+03  0.47000000000E+01 0. -1.
          6    1    1    2  502    0  0.22118693731E+02  0.87684683853E+02 -0.21835235926E+03  0.29230051863E+03  0.17200000000E+03 0. -1.
         -6    1    1    2    0  502 -0.22118693731E+02 -0.87684683853E+02 -0.23153891943E+03  0.30227820233E+03  0.17200000000E+03 0.  1.
</event>
<event>
 4    1 -0.7308497E-004  0.2041660E+03  0.7818608E-02  0.1146271E+00
         -5   -1    0    0    0  501 -0.00000000000E+00  0.00000000000E+00  0.16280352433E+03  0.16287135271E+03  0.47000000000E+01 0.  1.
          5   -1    0    0  501    0  0.00000000000E+00 -0.00000000000E+00 -0.38922129754E+03  0.38924967368E+03  0.47000000000E+01 0. -1.
          6    1    1    2  502    0 -0.10894895862E+03 -0.15161616448E+02 -0.27475892504E+03  0.34231011829E+03  0.17200000000E+03 0. -1.
         -6    1    1    2    0  502  0.10894895862E+03  0.15161616448E+02  0.48341151828E+02  0.20981090810E+03  0.17200000000E+03 0. -1.
</event>
<event>
 4    1 -0.7308497E-004  0.1735236E+03  0.7818608E-02  0.1174222E+00
         -5   -1    0    0    0  501 -0.00000000000E+00  0.00000000000E+00  0.59683232748E+02  0.59868007076E+02  0.47000000000E+01 0.  1.
          5   -1    0    0  501    0  0.00000000000E+00 -0.00000000000E+00 -0.14520101560E+04  0.14520177627E+04  0.47000000000E+01 0. -1.
          6    1    1    2  502    0 -0.22913503945E+02  0.11837706656E+01 -0.13070897040E+04  0.13185575165E+04  0.17200000000E+03 0. -1.
         -6    1    1    2    0  502  0.22913503945E+02 -0.11837706656E+01 -0.85237219300E+02  0.19332825332E+03  0.17200000000E+03 0.  1.
</event>
<event>
 4    1 -0.7308497E-004  0.1806773E+03  0.7818608E-02  0.1167149E+00
          5   -1    0    0  501    0  0.00000000000E+00  0.00000000000E+00  0.20549584046E+03  0.20554958148E+03  0.47000000000E+01 0. -1.
         -5   -1    0    0    0  501 -0.00000000000E+00 -0.00000000000E+00 -0.76148948203E+03  0.76150398636E+03  0.47000000000E+01 0.  1.
          6    1    1    2  502    0  0.30681212607E+02  0.46031980093E+02  0.15216040232E+03  0.23621403014E+03  0.17200000000E+03 0. -1.
         -6    1    1    2    0  502 -0.30681212607E+02 -0.46031980093E+02 -0.70815404389E+03  0.73083953770E+03  0.17200000000E+03 0.  1.
</event>
<event>
 4    1 -0.7308497E-004  0.1909862E+03  0.7818608E-02  0.1157575E+00
          5   -1    0    0  501    0  0.00000000000E+00  0.00000000000E+00  0.89890535715E+03  0.89891764423E+03  0.47000000000E+01 0. -1.
         -5   -1    0    0    0  501 -0.00000000000E+00 -0.00000000000E+00 -0.76415834939E+02  0.76560236608E+02  0.47000000000E+01 0.  1.
          6    1    1    2  502    0  0.72255671350E+02  0.40875876068E+02  0.74547065945E+03  0.76954676491E+03  0.17200000000E+03 0. -1.
         -6    1    1    2    0  502 -0.72255671350E+02 -0.40875876068E+02  0.77018862761E+02  0.20593111593E+03  0.17200000000E+03 0.  1.
</event>
<event>
 4    1 -0.7308497E-004  0.1860542E+03  0.7818608E-02  0.1162069E+00
          5   -1    0    0  501    0  0.00000000000E+00  0.00000000000E+00  0.19438703524E+03  0.19444384657E+03  0.47000000000E+01 0. -1.
         -5   -1    0    0    0  501 -0.00000000000E+00 -0.00000000000E+00 -0.24920279212E+03  0.24924710951E+03  0.47000000000E+01 0.  1.
          6    1    1    2  502    0  0.32164588419E+01 -0.70864704670E+02  0.91178446328E+02  0.20719474185E+03  0.17200000000E+03 0. -1.
         -6    1    1    2    0  502 -0.32164588419E+01  0.70864704670E+02 -0.14599420321E+03  0.23649621423E+03  0.17200000000E+03 0.  1.
</event>
<event>
 4    1 -0.7308497E-004  0.1725944E+03  0.7818608E-02  0.1175169E+00
          5   -1    0    0  501    0  0.00000000000E+00  0.00000000000E+00  0.33887224009E+03  0.33890483193E+03  0.47000000000E+01 0. -1.
         -5   -1    0    0    0  501 -0.00000000000E+00 -0.00000000000E+00 -0.11519544477E+03  0.11529128542E+03  0.47000000000E+01 0.  1.
          6    1    1    2  502    0  0.14030481738E+02  0.28255856486E+01  0.22250489774E+03  0.28159770573E+03  0.17200000000E+03 0. -1.
         -6    1    1    2    0  502 -0.14030481738E+02 -0.28255856486E+01  0.11718975852E+01  0.17259841163E+03  0.17200000000E+03 0.  1.
</event>
<event>
 4    1 -0.7308497E-004  0.1756413E+03  0.7818608E-02  0.1172089E+00
         -5   -1    0    0    0  501 -0.00000000000E+00  0.00000000000E+00  0.13496749496E+04  0.13496831331E+04  0.47000000000E+01 0.  1.
          5   -1    0    0  501    0  0.00000000000E+00 -0.00000000000E+00 -0.21639203657E+03  0.21644307217E+03  0.47000000000E+01 0. -1.
          6    1    1    2  502    0 -0.53957132437E+00 -0.35574986144E+02 -0.17391760947E+03  0.24717848948E+03  0.17200000000E+03 0. -1.
         -6    1    1    2    0  502  0.53957132437E+00  0.35574986144E+02  0.13072005225E+04  0.13189477158E+04  0.17200000000E+03 0.  1.
</event>
<event>
 4    1 -0.7308497E-004  0.2518169E+03  0.7818608E-02  0.1112162E+00
          5   -1    0    0  501    0  0.00000000000E+00  0.00000000000E+00  0.33902013828E+03  0.33905271590E+03  0.47000000000E+01 0. -1.
         -5   -1    0    0    0  501 -0.00000000000E+00 -0.00000000000E+00 -0.19668629651E+03  0.19674244390E+03  0.47000000000E+01 0.  1.
          6    1    1    2  502    0 -0.18321475976E+03 -0.16128304982E+02  0.13068678103E+03  0.28370901493E+03  0.17200000000E+03 0. -1.
         -6    1    1    2    0  502  0.18321475976E+03  0.16128304982E+02  0.11647060748E+02  0.25208614488E+03  0.17200000000E+03 0. -1.
</event>
<event>
 4    1 -0.7308497E-004  0.2394380E+03  0.7818608E-02  0.1120168E+00
         -5   -1    0    0    0  501 -0.00000000000E+00  0.00000000000E+00  0.19551178273E+03  0.19556826733E+03  0.47000000000E+01 0.  1.
          5   -1    0    0  501    0  0.00000000000E+00 -0.00000000000E+00 -0.31973643586E+03  0.31977097807E+03  0.47000000000E+01 0. -1.
          6    1    1    2  502    0  0.16199233736E+03  0.38795070849E+02 -0.13645095532E+03  0.27558925613E+03  0.17200000000E+03 0. -1.
         -6    1    1    2    0  502 -0.16199233736E+03 -0.38795070849E+02  0.12226302200E+02  0.23974998926E+03  0.17200000000E+03 0. -1.
</event>
<event>
 4    1 -0.7308497E-004  0.1796313E+03  0.7818608E-02  0.1168160E+00
          5   -1    0    0  501    0  0.00000000000E+00  0.00000000000E+00  0.58937485809E+03  0.58939359799E+03  0.47000000000E+01 0. -1.
         -5   -1    0    0    0  501 -0.00000000000E+00 -0.00000000000E+00 -0.78802721534E+02  0.78942757243E+02  0.47000000000E+01 0.  1.
          6    1    1    2  502    0  0.33101411689E+02  0.39846156541E+02  0.44015028087E+03  0.47539424628E+03  0.17200000000E+03 0. -1.
         -6    1    1    2    0  502 -0.33101411689E+02 -0.39846156541E+02  0.70421855683E+02  0.19294210895E+03  0.17200000000E+03 0.  1.
</event>
<event>
 4    1 -0.7308497E-004  0.1806015E+03  0.7818608E-02  0.1167222E+00
          5   -1    0    0  501    0  0.00000000000E+00  0.00000000000E+00  0.24622218488E+04  0.24622263346E+04  0.47000000000E+01 0. -1.
         -5   -1    0    0    0  501 -0.00000000000E+00 -0.00000000000E+00 -0.12825424788E+02  0.13659484653E+02  0.47000000000E+01 0.  1.
          6    1    1    2  502    0 -0.53399203831E+02  0.13469647307E+02  0.12258975427E+04  0.12391294088E+04  0.17200000000E+03 0. -1.
         -6    1    1    2    0  502  0.53399203831E+02 -0.13469647307E+02  0.12234988813E+04  0.12367564105E+04  0.17200000000E+03 0. -1.
</event>
<event>
 4    1 -0.7308497E-004  0.2115425E+03  0.7818608E-02  0.1140350E+00
          5   -1    0    0  501    0  0.00000000000E+00  0.00000000000E+00  0.23001541287E+03  0.23006342638E+03  0.47000000000E+01 0. -1.
         -5   -1    0    0    0  501 -0.00000000000E+00 -0.00000000000E+00 -0.52857080047E+03  0.52859169602E+03  0.47000000000E+01 0.  1.
          6    1    1    2  502    0  0.12302925540E+03  0.54801148807E+01  0.15228296936E+03  0.26065366312E+03  0.17200000000E+03 0. -1.
         -6    1    1    2    0  502 -0.12302925540E+03 -0.54801148807E+01 -0.45083835696E+03  0.49800145928E+03  0.17200000000E+03 0.  1.
</event>
<event>
 4    1 -0.7308497E-004  0.1915574E+03  0.7818608E-02  0.1157064E+00
         -5   -1    0    0    0  501 -0.00000000000E+00  0.00000000000E+00  0.17442384350E+03  0.17448715477E+03  0.47000000000E+01 0.  1.
          5   -1    0    0  501    0  0.00000000000E+00 -0.00000000000E+00 -0.42781332916E+03  0.42783914571E+03  0.47000000000E+01 0. -1.
          6    1    1    2  502    0 -0.79996788086E+02 -0.26660087093E+02 -0.34143784615E+03  0.39150229774E+03  0.17200000000E+03 0. -1.
         -6    1    1    2    0  502  0.79996788086E+02  0.26660087093E+02  0.88048360492E+02  0.21082400274E+03  0.17200000000E+03 0.  1.
</event>
<event>
 4    1 -0.7308497E-004  0.2166837E+03  0.7818608E-02  0.1136380E+00
          5   -1    0    0  501    0  0.00000000000E+00  0.00000000000E+00  0.10848396179E+03  0.10858572635E+03  0.47000000000E+01 0. -1.
         -5   -1    0    0    0  501 -0.00000000000E+00 -0.00000000000E+00 -0.43846266974E+03  0.43848785930E+03  0.47000000000E+01 0.  1.
          6    1    1    2  502    0  0.84851950813E+02  0.10083634825E+03 -0.19693069300E+03  0.29280286974E+03  0.17200000000E+03 0. -1.
         -6    1    1    2    0  502 -0.84851950813E+02 -0.10083634825E+03 -0.13304801494E+03  0.25427071590E+03  0.17200000000E+03 0. -1.
</event>
<event>
 4    1 -0.7308497E-004  0.2148057E+03  0.7818608E-02  0.1137816E+00
          5   -1    0    0  501    0  0.00000000000E+00  0.00000000000E+00  0.51215094556E+03  0.51217251101E+03  0.47000000000E+01 0. -1.
         -5   -1    0    0    0  501 -0.00000000000E+00 -0.00000000000E+00 -0.16882902718E+03  0.16889443572E+03  0.47000000000E+01 0.  1.
          6    1    1    2  502    0  0.87999036970E+02 -0.93881141038E+02  0.40425925450E+03  0.45778493204E+03  0.17200000000E+03 0. -1.
         -6    1    1    2    0  502 -0.87999036970E+02  0.93881141038E+02 -0.60937336126E+02  0.22328201469E+03  0.17200000000E+03 0.  1.
</event>
<event>
 4    1 -0.7308497E-004  0.1920210E+03  0.7818608E-02  0.1156651E+00
         -5   -1    0    0    0  501 -0.00000000000E+00  0.00000000000E+00  0.95810238883E+03  0.95811391676E+03  0.47000000000E+01 0.  1.
          5   -1    0    0  501    0  0.00000000000E+00 -0.00000000000E+00 -0.80779900302E+02  0.80916514339E+02  0.47000000000E+01 0. -1.
          6    1    1    2  502    0 -0.85298100735E+02  0.35071815651E+01  0.62573226638E+02  0.20195909240E+03  0.17200000000E+03 0. -1.
         -6    1    1    2    0  502  0.85298100735E+02 -0.35071815651E+01  0.81474926190E+03  0.83707133870E+03  0.17200000000E+03 0.  1.
</event>
<event>
 4    1 -0.7308497E-004  0.2236485E+03  0.7818608E-02  0.1131192E+00
         -5   -1    0    0    0  501 -0.00000000000E+00  0.00000000000E+00  0.10641154702E+04  0.10641258497E+04  0.47000000000E+01 0.  1.
          5   -1    0    0  501    0  0.00000000000E+00 -0.00000000000E+00 -0.61336492848E+02  0.61516301537E+02  0.47000000000E+01 0. -1.
          6    1    1    2  502    0 -0.24205536878E+02 -0.14088558793E+03  0.22860430478E+03  0.31981023290E+03  0.17200000000E+03 0. -1.
         -6    1    1    2    0  502  0.24205536878E+02  0.14088558793E+03  0.77417467259E+03  0.80583191832E+03  0.17200000000E+03 0.  1.
</event>
<event>
 4    1 -0.7308497E-004  0.3233982E+03  0.7818608E-02  0.1074096E+00
          5   -1    0    0  501    0  0.00000000000E+00  0.00000000000E+00  0.30719428195E+03  0.30723023429E+03  0.47000000000E+01 0. -1.
         -5   -1    0    0    0  501 -0.00000000000E+00 -0.00000000000E+00 -0.73874315578E+03  0.73875810670E+03  0.47000000000E+01 0.  1.
          6    1    1    2  502    0  0.15965087334E+03  0.22251737561E+03  0.16825949187E+03  0.36455128639E+03  0.17200000000E+03 0. -1.
         -6    1    1    2    0  502 -0.15965087334E+03 -0.22251737561E+03 -0.59980836571E+03  0.68143705460E+03  0.17200000000E+03 0.  1.
</event>
<event>
 4    1 -0.7308497E-004  0.1820139E+03  0.7818608E-02  0.1165868E+00
          5   -1    0    0  501    0  0.00000000000E+00  0.00000000000E+00  0.14127044415E+03  0.14134860590E+03  0.47000000000E+01 0. -1.
         -5   -1    0    0    0  501 -0.00000000000E+00 -0.00000000000E+00 -0.32791229639E+03  0.32794597745E+03  0.47000000000E+01 0.  1.
          6    1    1    2  502    0 -0.25704628097E+02 -0.53706114818E+02  0.32001309203E+02  0.18480573169E+03  0.17200000000E+03 0. -1.
         -6    1    1    2    0  502  0.25704628097E+02  0.53706114818E+02 -0.21864316144E+03  0.28448885166E+03  0.17200000000E+03 0.  1.
</event>
<event>
 4    1 -0.7308497E-004  0.1843505E+03  0.7818608E-02  0.1163658E+00
         -5   -1    0    0    0  501 -0.00000000000E+00  0.00000000000E+00  0.22544199139E+04  0.22544248132E+04  0.47000000000E+01 0.  1.
          5   -1    0    0  501    0  0.00000000000E+00 -0.00000000000E+00 -0.11607365701E+04  0.11607460856E+04  0.47000000000E+01 0. -1.
          6    1    1    2  502    0 -0.59657018081E+02  0.29019613525E+02 -0.11496191521E+04  0.11643063568E+04  0.17200000000E+03 0. -1.
         -6    1    1    2    0  502  0.59657018081E+02 -0.29019613525E+02  0.22433024959E+04  0.22508645419E+04  0.17200000000E+03 0.  1.
</event>
<event>
 4    1 -0.7308497E-004  0.2441068E+03  0.7818608E-02  0.1117087E+00
          5   -1    0    0  501    0  0.00000000000E+00  0.00000000000E+00  0.46865111505E+03  0.46867468209E+03  0.47000000000E+01 0. -1.
         -5   -1    0    0    0  501 -0.00000000000E+00 -0.00000000000E+00 -0.18887023187E+03  0.18892870212E+03  0.47000000000E+01 0.  1.
          6    1    1    2  502    0 -0.16308217372E+03  0.58380809020E+02  0.32791252324E+03  0.40879669415E+03  0.17200000000E+03 0. -1.
         -6    1    1    2    0  502  0.16308217372E+03 -0.58380809020E+02 -0.48131640063E+02  0.24880669007E+03  0.17200000000E+03 0.  1.
</event>
<event>
 4    1 -0.7308497E-004  0.1728953E+03  0.7818608E-02  0.1174862E+00
         -5   -1    0    0    0  501 -0.00000000000E+00  0.00000000000E+00  0.76617304569E+03  0.76618746135E+03  0.47000000000E+01 0.  1.
          5   -1    0    0  501    0  0.00000000000E+00 -0.00000000000E+00 -0.10164865944E+03  0.10175726001E+03  0.47000000000E+01 0. -1.
          6    1    1    2  502    0  0.17019318855E+02  0.43721996261E+01 -0.84638752202E+01  0.17310231231E+03  0.17200000000E+03 0. -1.
         -6    1    1    2    0  502 -0.17019318855E+02 -0.43721996261E+01  0.67298826147E+03  0.69484240905E+03  0.17200000000E+03 0.  1.
</event>
<event>
 4    1 -0.7308497E-004  0.1740957E+03  0.7818608E-02  0.1173643E+00
         -5   -1    0    0    0  501 -0.00000000000E+00  0.00000000000E+00  0.13509710819E+03  0.13517883948E+03  0.47000000000E+01 0.  1.
          5   -1    0    0  501    0  0.00000000000E+00 -0.00000000000E+00 -0.22418784690E+03  0.22423710821E+03  0.47000000000E+01 0. -1.
          6    1    1    2  502    0  0.85242132369E+01 -0.25547354177E+02 -0.45738643430E+02  0.18000375835E+03  0.17200000000E+03 0.  1.
         -6    1    1    2    0  502 -0.85242132369E+01  0.25547354177E+02 -0.43352095276E+02  0.17941218933E+03  0.17200000000E+03 0. -1.
</event>
<event>
 4    1 -0.7308497E-004  0.1828827E+03  0.7818608E-02  0.1165042E+00
         -5   -1    0    0    0  501 -0.00000000000E+00  0.00000000000E+00  0.75667603869E+03  0.75669063528E+03  0.47000000000E+01 0.  1.
          5   -1    0    0  501    0  0.00000000000E+00 -0.00000000000E+00 -0.66339255573E+02  0.66505539844E+02  0.47000000000E+01 0. -1.
          6    1    1    2  502    0  0.46670538060E+02  0.41035797472E+02  0.10704737311E+03  0.21190850829E+03  0.17200000000E+03 0. -1.
         -6    1    1    2    0  502 -0.46670538060E+02 -0.41035797472E+02  0.58328941001E+03  0.61128766684E+03  0.17200000000E+03 0.  1.
</event>
<event>
 4    1 -0.7308497E-004  0.1883976E+03  0.7818608E-02  0.1159915E+00
         -5   -1    0    0    0  501 -0.00000000000E+00  0.00000000000E+00  0.36064149982E+02  0.36369120334E+02  0.47000000000E+01 0.  1.
          5   -1    0    0  501    0  0.00000000000E+00 -0.00000000000E+00 -0.16499258058E+04  0.16499325000E+04  0.47000000000E+01 0. -1.
          6    1    1    2  502    0 -0.76258566343E+02 -0.97093450028E+01 -0.13442517875E+04  0.13573895935E+04  0.17200000000E+03 0. -1.
         -6    1    1    2    0  502  0.76258566343E+02  0.97093450028E+01 -0.26960986828E+03  0.32891202683E+03  0.17200000000E+03 0.  1.
</event>
<event>
 4    1 -0.7308497E-004  0.1784717E+03  0.7818608E-02  0.1169290E+00
          5   -1    0    0  501    0  0.00000000000E+00  0.00000000000E+00  0.24085545486E+03  0.24090130787E+03  0.47000000000E+01 0. -1.
         -5   -1    0    0    0  501 -0.00000000000E+00 -0.00000000000E+00 -0.25613577882E+03  0.25617889685E+03  0.47000000000E+01 0.  1.
          6    1    1    2  502    0  0.28192634947E+02  0.38383823143E+02  0.16524683161E+03  0.24322552889E+03  0.17200000000E+03 0. -1.
         -6    1    1    2    0  502 -0.28192634947E+02 -0.38383823143E+02 -0.18052715558E+03  0.25385467584E+03  0.17200000000E+03 0.  1.
</event>
<event>
 4    1 -0.7308497E-004  0.2703324E+03  0.7818608E-02  0.1101089E+00
          5   -1    0    0  501    0  0.00000000000E+00  0.00000000000E+00  0.33371446279E+03  0.33374755831E+03  0.47000000000E+01 0. -1.
         -5   -1    0    0    0  501 -0.00000000000E+00 -0.00000000000E+00 -0.21949420323E+03  0.21954451770E+03  0.47000000000E+01 0.  1.
          6    1    1    2  502    0  0.12759591609E+03 -0.16496942439E+03  0.71265477143E+02  0.27956823321E+03  0.17200000000E+03 0. -1.
         -6    1    1    2    0  502 -0.12759591609E+03  0.16496942439E+03  0.42954782421E+02  0.27372384280E+03  0.17200000000E+03 0. -1.
</event>
<event>
 4    1 -0.7308497E-004  0.2049590E+03  0.7818608E-02  0.1145621E+00
          5   -1    0    0  501    0  0.00000000000E+00  0.00000000000E+00  0.14595445758E+03  0.14603011226E+03  0.47000000000E+01 0. -1.
         -5   -1    0    0    0  501 -0.00000000000E+00 -0.00000000000E+00 -0.10657620054E+04  0.10657723688E+04  0.47000000000E+01 0.  1.
          6    1    1    2  502    0 -0.26366024882E+02  0.10830062855E+03  0.57790119791E+02  0.21295044343E+03  0.17200000000E+03 0. -1.
         -6    1    1    2    0  502  0.26366024882E+02 -0.10830062855E+03 -0.97759766760E+03  0.99885203765E+03  0.17200000000E+03 0.  1.
</event>
<event>
 4    1 -0.7308497E-004  0.5673476E+03  0.7818608E-02  0.9975565E-01
          5   -1    0    0  501    0  0.00000000000E+00  0.00000000000E+00  0.61874182444E+03  0.61875967493E+03  0.47000000000E+01 0. -1.
         -5   -1    0    0    0  501 -0.00000000000E+00 -0.00000000000E+00 -0.58874071966E+03  0.58875947974E+03  0.47000000000E+01 0.  1.
          6    1    1    2  502    0  0.51312820581E+03  0.17029015623E+03  0.22101879803E+03  0.60887815036E+03  0.17200000000E+03 0. -1.
         -6    1    1    2    0  502 -0.51312820581E+03 -0.17029015623E+03 -0.19101769325E+03  0.59864100431E+03  0.17200000000E+03 0. -1.
</event>
<event>
 4    1 -0.7308497E-004  0.1992933E+03  0.7818608E-02  0.1150337E+00
          5   -1    0    0  501    0  0.00000000000E+00  0.00000000000E+00  0.17023679536E+04  0.17023744416E+04  0.47000000000E+01 0. -1.
         -5   -1    0    0    0  501 -0.00000000000E+00 -0.00000000000E+00 -0.23091645271E+02  0.23565103041E+02  0.47000000000E+01 0.  1.
          6    1    1    2  502    0  0.91946979477E+02  0.40982422274E+02  0.82835407334E+03  0.85199077271E+03  0.17200000000E+03 0.  1.
         -6    1    1    2    0  502 -0.91946979477E+02 -0.40982422274E+02  0.85092223499E+03  0.87394877194E+03  0.17200000000E+03 0. -1.
</event>
<event>
 4    1 -0.7308497E-004  0.1757753E+03  0.7818608E-02  0.1171956E+00
         -5   -1    0    0    0  501 -0.00000000000E+00  0.00000000000E+00  0.71750292630E+02  0.71904064507E+02  0.47000000000E+01 0.  1.
          5   -1    0    0  501    0  0.00000000000E+00 -0.00000000000E+00 -0.10863593140E+04  0.10863694809E+04  0.47000000000E+01 0. -1.
          6    1    1    2  502    0 -0.34489771039E+02  0.11108309619E+02 -0.95743061518E+03  0.97343223788E+03  0.17200000000E+03 0. -1.
         -6    1    1    2    0  502  0.34489771039E+02 -0.11108309619E+02 -0.57178406185E+02  0.18484130757E+03  0.17200000000E+03 0.  1.
</event>
<event>
 4    1 -0.7308497E-004  0.2948995E+03  0.7818608E-02  0.1087818E+00
         -5   -1    0    0    0  501 -0.00000000000E+00  0.00000000000E+00  0.90669595143E+03  0.90670813294E+03  0.47000000000E+01 0.  1.
          5   -1    0    0  501    0  0.00000000000E+00 -0.00000000000E+00 -0.16323953059E+03  0.16330717788E+03  0.47000000000E+01 0. -1.
          6    1    1    2  502    0 -0.12079043413E+03  0.20686085547E+03  0.28072776751E+02  0.29623271814E+03  0.17200000000E+03 0. -1.
         -6    1    1    2    0  502  0.12079043413E+03 -0.20686085547E+03  0.71538364409E+03  0.77378259268E+03  0.17200000000E+03 0.  1.
</event>
<event>
 4    1 -0.7308497E-004  0.2261200E+03  0.7818608E-02  0.1129401E+00
          5   -1    0    0  501    0  0.00000000000E+00  0.00000000000E+00  0.18720870750E+03  0.18726769653E+03  0.47000000000E+01 0. -1.
         -5   -1    0    0    0  501 -0.00000000000E+00 -0.00000000000E+00 -0.38745849982E+03  0.38748700505E+03  0.47000000000E+01 0.  1.
          6    1    1    2  502    0 -0.71042176708E+02  0.12844946582E+03  0.56052336432E+02  0.23296377521E+03  0.17200000000E+03 0. -1.
         -6    1    1    2    0  502  0.71042176708E+02 -0.12844946582E+03 -0.25630212875E+03  0.34179092637E+03  0.17200000000E+03 0.  1.
</event>
<event>
 4    1 -0.7308497E-004  0.4495431E+03  0.7818608E-02  0.1027858E+00
         -5   -1    0    0    0  501 -0.00000000000E+00  0.00000000000E+00  0.64209991897E+03  0.64211712011E+03  0.47000000000E+01 0.  1.
          5   -1    0    0  501    0  0.00000000000E+00 -0.00000000000E+00 -0.59046021257E+03  0.59047891803E+03  0.47000000000E+01 0. -1.
          6    1    1    2  502    0  0.41275919656E+03  0.46204263400E+02 -0.39534392759E+03  0.59865332988E+03  0.17200000000E+03 0. -1.
         -6    1    1    2    0  502 -0.41275919656E+03 -0.46204263400E+02  0.44698363399E+03  0.63394270825E+03  0.17200000000E+03 0.  1.
</event>
<event>
 4    1 -0.7308497E-004  0.1869242E+03  0.7818608E-02  0.1161265E+00
         -5   -1    0    0    0  501 -0.00000000000E+00  0.00000000000E+00  0.37550609421E+03  0.37553550670E+03  0.47000000000E+01 0.  1.
          5   -1    0    0  501    0  0.00000000000E+00 -0.00000000000E+00 -0.94363977584E+02  0.94480951866E+02  0.47000000000E+01 0. -1.
          6    1    1    2  502    0  0.36222698505E+02 -0.63596833834E+02  0.11189763994E+03  0.21785711598E+03  0.17200000000E+03 0. -1.
         -6    1    1    2    0  502 -0.36222698505E+02  0.63596833834E+02  0.16924447669E+03  0.25215934258E+03  0.17200000000E+03 0.  1.
</event>
<event>
 4    1 -0.7308497E-004  0.1962058E+03  0.7818608E-02  0.1152980E+00
         -5   -1    0    0    0  501 -0.00000000000E+00  0.00000000000E+00  0.36762096222E+03  0.36765100553E+03  0.47000000000E+01 0.  1.
          5   -1    0    0  501    0  0.00000000000E+00 -0.00000000000E+00 -0.24743847257E+03  0.24748310591E+03  0.47000000000E+01 0. -1.
          6    1    1    2  502    0 -0.86303835648E+02  0.38267198454E+02 -0.17351730393E+03  0.26192553386E+03  0.17200000000E+03 0. -1.
         -6    1    1    2    0  502  0.86303835648E+02 -0.38267198454E+02  0.29369979358E+03  0.35320857757E+03  0.17200000000E+03 0.  1.
</event>
<event>
 4    1 -0.7308497E-004  0.1803459E+03  0.7818608E-02  0.1167469E+00
         -5   -1    0    0    0  501 -0.00000000000E+00  0.00000000000E+00  0.64598558695E+02  0.64769312065E+02  0.47000000000E+01 0.  1.
          5   -1    0    0  501    0  0.00000000000E+00 -0.00000000000E+00 -0.71706606392E+03  0.71708146680E+03  0.47000000000E+01 0. -1.
          6    1    1    2  502    0  0.47938493656E+02 -0.25348567412E+02 -0.53997740141E+03  0.56929802659E+03  0.17200000000E+03 0.  1.
         -6    1    1    2    0  502 -0.47938493656E+02  0.25348567412E+02 -0.11249010382E+03  0.21255275228E+03  0.17200000000E+03 0.  1.
</event>
<event>
 4    1 -0.7308497E-004  0.2053584E+03  0.7818608E-02  0.1145295E+00
          5   -1    0    0  501    0  0.00000000000E+00  0.00000000000E+00  0.16844442566E+04  0.16844508136E+04  0.47000000000E+01 0. -1.
         -5   -1    0    0    0  501 -0.00000000000E+00 -0.00000000000E+00 -0.74357167359E+02  0.74505559106E+02  0.47000000000E+01 0.  1.
          6    1    1    2  502    0 -0.94690126244E+02  0.60181879068E+02  0.15215155395E+04  0.15353115695E+04  0.17200000000E+03 0. -1.
         -6    1    1    2    0  502  0.94690126244E+02 -0.60181879068E+02  0.88571549702E+02  0.22364480319E+03  0.17200000000E+03 0.  1.
</event>
<event>
 4    1 -0.7308497E-004  0.1879085E+03  0.7818608E-02  0.1160361E+00
          5   -1    0    0  501    0  0.00000000000E+00  0.00000000000E+00  0.95699449809E+02  0.95814793710E+02  0.47000000000E+01 0. -1.
         -5   -1    0    0    0  501 -0.00000000000E+00 -0.00000000000E+00 -0.10282857004E+04  0.10282964415E+04  0.47000000000E+01 0.  1.
          6    1    1    2  502    0  0.75479789338E+02  0.53281454601E+01 -0.16141601132E+02  0.18860047460E+03  0.17200000000E+03 0. -1.
         -6    1    1    2    0  502 -0.75479789338E+02 -0.53281454601E+01 -0.91644464943E+03  0.93551076060E+03  0.17200000000E+03 0.  1.
</event>
<event>
 4    1 -0.7308497E-004  0.1769467E+03  0.7818608E-02  0.1170791E+00
         -5   -1    0    0    0  501 -0.00000000000E+00  0.00000000000E+00  0.38083851472E+03  0.38086751541E+03  0.47000000000E+01 0.  1.
          5   -1    0    0  501    0  0.00000000000E+00 -0.00000000000E+00 -0.20004934928E+03  0.20010455304E+03  0.47000000000E+01 0. -1.
          6    1    1    2  502    0 -0.20905439540E+02  0.35904122027E+02 -0.13257398919E+03  0.22110180006E+03  0.17200000000E+03 0. -1.
         -6    1    1    2    0  502  0.20905439540E+02 -0.35904122027E+02  0.31336315464E+03  0.35987026838E+03  0.17200000000E+03 0.  1.
</event>
