<event>
 4    1  0.4450588E+000  0.2053803E+03  0.7818608E-02  0.1145277E+00
         21   -1    0    0  501  502  0.00000000000E+00  0.00000000000E+00  0.95711458467E+03  0.95711458467E+03  0.00000000000E+00 0. -1.
         21   -1    0    0  502  503 -0.00000000000E+00 -0.00000000000E+00 -0.47375057032E+02  0.47375057032E+02  0.00000000000E+00 0. -1.
          6    1    1    2  501    0 -0.54495078292E+02  0.98119093574E+02  0.58750512790E+03  0.62236913917E+03  0.17200000000E+03 0. -1.
         -6    1    1    2    0  503  0.54495078292E+02 -0.98119093574E+02  0.32223439975E+03  0.38212050254E+03  0.17200000000E+03 0. -1.
</event>
<event>
 4    1  0.4450588E+000  0.2022635E+03  0.7818608E-02  0.1147843E+00
         21   -1    0    0  501  502  0.00000000000E+00  0.00000000000E+00  0.21140903424E+04  0.21140903424E+04  0.00000000000E+00 0. -1.
         21   -1    0    0  502  503 -0.00000000000E+00 -0.00000000000E+00 -0.20063299828E+02  0.20063299828E+02  0.00000000000E+00 0. -1.
          6    1    1    2  501    0  0.10435977085E+03 -0.20869675275E+02  0.12480240338E+04  0.12643079111E+04  0.17200000000E+03 0. -1.
         -6    1    1    2    0  503 -0.10435977085E+03  0.20869675275E+02  0.84600300874E+03  0.86984573110E+03  0.17200000000E+03 0. -1.
</event>
<event>
 4    1  0.4450588E+000  0.1848891E+03  0.7818608E-02  0.1163153E+00
         21   -1    0    0  501  502  0.00000000000E+00  0.00000000000E+00  0.10850918455E+03  0.10850918455E+03  0.00000000000E+00 0.  1.
         21   -1    0    0  502  503 -0.00000000000E+00 -0.00000000000E+00 -0.61608413950E+03  0.61608413950E+03  0.00000000000E+00 0.  1.
          6    1    1    2  501    0  0.38184864541E+02  0.56052727565E+02 -0.52879971186E+00  0.18488989095E+03  0.17200000000E+03 0.  1.
         -6    1    1    2    0  503 -0.38184864541E+02 -0.56052727565E+02 -0.50704615525E+03  0.53970343310E+03  0.17200000000E+03 0.  1.
</event>
<event>
 4    1  0.4450588E+000  0.2094210E+03  0.7818608E-02  0.1142025E+00
         21   -1    0    0  503  502  0.00000000000E+00  0.00000000000E+00  0.89649735709E+02  0.89649735709E+02  0.00000000000E+00 0. -1.
         21   -1    0    0  501  503 -0.00000000000E+00 -0.00000000000E+00 -0.50185107356E+03  0.50185107356E+03  0.00000000000E+00 0. -1.
          6    1    1    2  501    0  0.10483884809E+03 -0.57288596544E+02 -0.25304710927E+03  0.32846614266E+03  0.17200000000E+03 0. -1.
         -6    1    1    2    0  502 -0.10483884809E+03  0.57288596544E+02 -0.15915422858E+03  0.26303466661E+03  0.17200000000E+03 0. -1.
</event>
<event>
 4    1  0.4450588E+000  0.1906382E+03  0.7818608E-02  0.1157887E+00
         21   -1    0    0  503  502  0.00000000000E+00  0.00000000000E+00  0.11866633463E+04  0.11866633463E+04  0.00000000000E+00 0. -1.
         21   -1    0    0  501  503 -0.00000000000E+00 -0.00000000000E+00 -0.68807928058E+02  0.68807928058E+02  0.00000000000E+00 0.  1.
          6    1    1    2  501    0  0.33987984156E+02  0.74858053380E+02  0.91315645088E+02  0.21137989086E+03  0.17200000000E+03 0.  1.
         -6    1    1    2    0  502 -0.33987984156E+02 -0.74858053380E+02  0.10265397731E+04  0.10440913835E+04  0.17200000000E+03 0. -1.
</event>
<event>
 4    1  0.4450588E+000  0.1725414E+03  0.7818608E-02  0.1175223E+00
         21   -1    0    0  501  502  0.00000000000E+00  0.00000000000E+00  0.82044675564E+02  0.82044675564E+02  0.00000000000E+00 0.  1.
         21   -1    0    0  502  503 -0.00000000000E+00 -0.00000000000E+00 -0.54163467214E+03  0.54163467214E+03  0.00000000000E+00 0.  1.
          6    1    1    2  501    0 -0.54928660002E+01 -0.12504596516E+02 -0.40895209374E+03  0.44386073433E+03  0.17200000000E+03 0.  1.
         -6    1    1    2    0  503  0.54928660002E+01  0.12504596516E+02 -0.50637902839E+02  0.17981861337E+03  0.17200000000E+03 0.  1.
</event>
<event>
 4    1  0.4450588E+000  0.1856022E+03  0.7818608E-02  0.1162489E+00
         21   -1    0    0  501  502  0.00000000000E+00  0.00000000000E+00  0.28330128086E+03  0.28330128086E+03  0.00000000000E+00 0.  1.
         21   -1    0    0  502  503 -0.00000000000E+00 -0.00000000000E+00 -0.22557434551E+03  0.22557434551E+03  0.00000000000E+00 0.  1.
          6    1    1    2  501    0 -0.41165841992E+02 -0.56298912673E+02  0.20160988615E+03  0.27403419551E+03  0.17200000000E+03 0.  1.
         -6    1    1    2    0  503  0.41165841992E+02  0.56298912673E+02 -0.14388295080E+03  0.23484143085E+03  0.17200000000E+03 0.  1.
</event>
<event>
 4    1  0.4450588E+000  0.1762411E+03  0.7818608E-02  0.1171491E+00
         21   -1    0    0  501  502  0.00000000000E+00  0.00000000000E+00  0.46294741029E+03  0.46294741029E+03  0.00000000000E+00 0. -1.
         21   -1    0    0  502  503 -0.00000000000E+00 -0.00000000000E+00 -0.10149989461E+03  0.10149989461E+03  0.00000000000E+00 0. -1.
          6    1    1    2  501    0 -0.72641452444E+01  0.37737897805E+02  0.34503908918E+03  0.38744404731E+03  0.17200000000E+03 0. -1.
         -6    1    1    2    0  503  0.72641452444E+01 -0.37737897805E+02  0.16408426505E+02  0.17700325759E+03  0.17200000000E+03 0. -1.
</event>
<event>
 4    1  0.4450588E+000  0.1846084E+03  0.7818608E-02  0.1163416E+00
         21   -1    0    0  503  502  0.00000000000E+00  0.00000000000E+00  0.67751859395E+02  0.67751859395E+02  0.00000000000E+00 0.  1.
         21   -1    0    0  501  503 -0.00000000000E+00 -0.00000000000E+00 -0.53611875774E+03  0.53611875774E+03  0.00000000000E+00 0.  1.
          6    1    1    2  501    0 -0.40904542569E+02  0.53132702532E+02 -0.30921014839E+03  0.36012661877E+03  0.17200000000E+03 0. -1.
         -6    1    1    2    0  502  0.40904542569E+02 -0.53132702532E+02 -0.15915674995E+03  0.24374399836E+03  0.17200000000E+03 0. -1.
</event>
<event>
 4    1  0.4450588E+000  0.1825164E+03  0.7818608E-02  0.1165390E+00
         21   -1    0    0  503  502  0.00000000000E+00  0.00000000000E+00  0.48744047026E+03  0.48744047026E+03  0.00000000000E+00 0.  1.
         21   -1    0    0  501  503 -0.00000000000E+00 -0.00000000000E+00 -0.78156447625E+02  0.78156447625E+02  0.00000000000E+00 0.  1.
          6    1    1    2  501    0  0.57747231171E+02  0.19836606166E+02  0.10442377363E+03  0.21027733628E+03  0.17200000000E+03 0.  1.
         -6    1    1    2    0  502 -0.57747231171E+02 -0.19836606166E+02  0.30486024900E+03  0.35531958160E+03  0.17200000000E+03 0.  1.
</event>
<event>
 4    1  0.4450588E+000  0.1907924E+03  0.7818608E-02  0.1157749E+00
         21   -1    0    0  501  502  0.00000000000E+00  0.00000000000E+00  0.26459166396E+03  0.26459166396E+03  0.00000000000E+00 0.  1.
         21   -1    0    0  502  503 -0.00000000000E+00 -0.00000000000E+00 -0.16467716009E+03  0.16467716009E+03  0.00000000000E+00 0.  1.
          6    1    1    2  501    0  0.53187190226E+02 -0.63157490912E+02  0.13702715004E+03  0.23490037401E+03  0.17200000000E+03 0.  1.
         -6    1    1    2    0  503 -0.53187190226E+02  0.63157490912E+02 -0.37112646174E+02  0.19436845003E+03  0.17200000000E+03 0.  1.
</event>
<event>
 4    1  0.4450588E+000  0.2431488E+03  0.7818608E-02  0.1117713E+00
         21   -1    0    0  503  502  0.00000000000E+00  0.00000000000E+00  0.12550882328E+03  0.12550882328E+03  0.00000000000E+00 0. -1.
         21   -1    0    0  501  503 -0.00000000000E+00 -0.00000000000E+00 -0.47140460313E+03  0.47140460313E+03  0.00000000000E+00 0. -1.
          6    1    1    2  501    0  0.17070715422E+03  0.19910068420E+02 -0.16480017942E+03  0.29373532723E+03  0.17200000000E+03 0. -1.
         -6    1    1    2    0  502 -0.17070715422E+03 -0.19910068420E+02 -0.18109560043E+03  0.30317809918E+03  0.17200000000E+03 0. -1.
</event>
<event>
 4    1  0.4450588E+000  0.2579102E+03  0.7818608E-02  0.1108405E+00
         21   -1    0    0  501  502  0.00000000000E+00  0.00000000000E+00  0.39157151176E+03  0.39157151176E+03  0.00000000000E+00 0.  1.
         21   -1    0    0  502  503 -0.00000000000E+00 -0.00000000000E+00 -0.27399859714E+03  0.27399859714E+03  0.00000000000E+00 0. -1.
          6    1    1    2  501    0  0.45763088463E+01 -0.19212683589E+03  0.26393438690E+03  0.36902442231E+03  0.17200000000E+03 0.  1.
         -6    1    1    2    0  503 -0.45763088463E+01  0.19212683589E+03 -0.14636147228E+03  0.29654568659E+03  0.17200000000E+03 0. -1.
</event>
<event>
 4    1  0.4450588E+000  0.2385838E+03  0.7818608E-02  0.1120740E+00
         21   -1    0    0  501  502  0.00000000000E+00  0.00000000000E+00  0.21742155691E+03  0.21742155691E+03  0.00000000000E+00 0.  1.
         21   -1    0    0  502  503 -0.00000000000E+00 -0.00000000000E+00 -0.45993964370E+03  0.45993964370E+03  0.00000000000E+00 0. -1.
          6    1    1    2  501    0 -0.32877378883E+02  0.16204106781E+03  0.10103058792E+03  0.25909343758E+03  0.17200000000E+03 0.  1.
         -6    1    1    2    0  503  0.32877378883E+02 -0.16204106781E+03 -0.34354867471E+03  0.41826776304E+03  0.17200000000E+03 0. -1.
</event>
<event>
 4    1  0.4450588E+000  0.2039508E+03  0.7818608E-02  0.1146448E+00
         21   -1    0    0  501  502  0.00000000000E+00  0.00000000000E+00  0.22361248215E+03  0.22361248215E+03  0.00000000000E+00 0.  1.
         21   -1    0    0  502  503 -0.00000000000E+00 -0.00000000000E+00 -0.21299492018E+03  0.21299492018E+03  0.00000000000E+00 0.  1.
          6    1    1    2  501    0 -0.10654895366E+03 -0.25675856030E+02  0.83000242745E+02  0.22019302760E+03  0.17200000000E+03 0.  1.
         -6    1    1    2    0  503  0.10654895366E+03  0.25675856030E+02 -0.72382680776E+02  0.21641437472E+03  0.17200000000E+03 0.  1.
</event>
<event>
 4    1  0.4450588E+000  0.3289029E+03  0.7818608E-02  0.1071623E+00
         21   -1    0    0  503  502  0.00000000000E+00  0.00000000000E+00  0.47196303295E+03  0.47196303295E+03  0.00000000000E+00 0. -1.
         21   -1    0    0  501  503 -0.00000000000E+00 -0.00000000000E+00 -0.22954010345E+03  0.22954010345E+03  0.00000000000E+00 0.  1.
          6    1    1    2  501    0  0.20442292480E+03 -0.19184465939E+03  0.13457843562E+03  0.35537087789E+03  0.17200000000E+03 0.  1.
         -6    1    1    2    0  502 -0.20442292480E+03  0.19184465939E+03  0.10784449387E+03  0.34613225850E+03  0.17200000000E+03 0. -1.
</event>
<event>
 4    1  0.4450588E+000  0.2038458E+03  0.7818608E-02  0.1146534E+00
         21   -1    0    0  501  502  0.00000000000E+00  0.00000000000E+00  0.10558305489E+04  0.10558305489E+04  0.00000000000E+00 0. -1.
         21   -1    0    0  502  503 -0.00000000000E+00 -0.00000000000E+00 -0.40189348223E+02  0.40189348223E+02  0.00000000000E+00 0. -1.
          6    1    1    2  501    0 -0.72251661327E+02  0.82151178396E+02  0.42890137006E+03  0.47487840961E+03  0.17200000000E+03 0. -1.
         -6    1    1    2    0  503  0.72251661327E+02 -0.82151178396E+02  0.58673983063E+03  0.62114148752E+03  0.17200000000E+03 0. -1.
</event>
<event>
 4    1  0.4450588E+000  0.3095191E+03  0.7818608E-02  0.1080577E+00
         21   -1    0    0  503  502  0.00000000000E+00  0.00000000000E+00  0.47512697318E+03  0.47512697318E+03  0.00000000000E+00 0. -1.
         21   -1    0    0  501  503 -0.00000000000E+00 -0.00000000000E+00 -0.26098157419E+03  0.26098157419E+03  0.00000000000E+00 0. -1.
          6    1    1    2  501    0 -0.17526051004E+03  0.18841928917E+03 -0.68438947612E+02  0.31699521204E+03  0.17200000000E+03 0. -1.
         -6    1    1    2    0  502  0.17526051004E+03 -0.18841928917E+03  0.28258434660E+03  0.41911333533E+03  0.17200000000E+03 0. -1.
</event>
<event>
 4    1  0.4450588E+000  0.1740435E+03  0.7818608E-02  0.1173696E+00
         21   -1    0    0  501  502  0.00000000000E+00  0.00000000000E+00  0.67283318979E+03  0.67283318979E+03  0.00000000000E+00 0. -1.
         21   -1    0    0  502  503 -0.00000000000E+00 -0.00000000000E+00 -0.45156316971E+02  0.45156316971E+02  0.00000000000E+00 0. -1.
          6    1    1    2  501    0 -0.14063825118E+01  0.26554858220E+02  0.33354258954E+03  0.37622041072E+03  0.17200000000E+03 0. -1.
         -6    1    1    2    0  503  0.14063825118E+01 -0.26554858220E+02  0.29413428328E+03  0.34176909604E+03  0.17200000000E+03 0. -1.
</event>
<event>
 4    1  0.4450588E+000  0.2280933E+03  0.7818608E-02  0.1127989E+00
         21   -1    0    0  503  502  0.00000000000E+00  0.00000000000E+00  0.20614023502E+03  0.20614023502E+03  0.00000000000E+00 0. -1.
         21   -1    0    0  501  503 -0.00000000000E+00 -0.00000000000E+00 -0.25409658157E+03  0.25409658157E+03  0.00000000000E+00 0.  1.
          6    1    1    2  501    0 -0.14641992936E+03 -0.31681954931E+02 -0.50873902621E+01  0.22815000224E+03  0.17200000000E+03 0.  1.
         -6    1    1    2    0  502  0.14641992936E+03  0.31681954931E+02 -0.42868956297E+02  0.23208681435E+03  0.17200000000E+03 0. -1.
</event>
<event>
 4    1  0.4450588E+000  0.2459614E+03  0.7818608E-02  0.1115884E+00
         21   -1    0    0  503  502  0.00000000000E+00  0.00000000000E+00  0.34471245995E+03  0.34471245995E+03  0.00000000000E+00 0.  1.
         21   -1    0    0  501  503 -0.00000000000E+00 -0.00000000000E+00 -0.31570473687E+03  0.31570473687E+03  0.00000000000E+00 0. -1.
          6    1    1    2  501    0 -0.15934463091E+03  0.74312098721E+02 -0.20555017514E+03  0.32054309214E+03  0.17200000000E+03 0.  1.
         -6    1    1    2    0  502  0.15934463091E+03 -0.74312098721E+02  0.23455789823E+03  0.33987410469E+03  0.17200000000E+03 0.  1.
</event>
<event>
 4    1  0.4450588E+000  0.2378328E+03  0.7818608E-02  0.1121245E+00
         21   -1    0    0  503  502  0.00000000000E+00  0.00000000000E+00  0.29061016206E+03  0.29061016206E+03  0.00000000000E+00 0.  1.
         21   -1    0    0  501  503 -0.00000000000E+00 -0.00000000000E+00 -0.51417937793E+03  0.51417937793E+03  0.00000000000E+00 0.  1.
          6    1    1    2  501    0 -0.16101143089E+03 -0.32492228950E+02 -0.42900203886E+03  0.49051725267E+03  0.17200000000E+03 0.  1.
         -6    1    1    2    0  502  0.16101143089E+03  0.32492228950E+02  0.20543282299E+03  0.31427228732E+03  0.17200000000E+03 0.  1.
</event>
<event>
 4    1  0.4450588E+000  0.2185652E+03  0.7818608E-02  0.1134957E+00
         21   -1    0    0  503  502  0.00000000000E+00  0.00000000000E+00  0.22191482029E+04  0.22191482029E+04  0.00000000000E+00 0.  1.
         21   -1    0    0  501  503 -0.00000000000E+00 -0.00000000000E+00 -0.39024693815E+02  0.39024693815E+02  0.00000000000E+00 0.  1.
          6    1    1    2  501    0 -0.18244646644E+02  0.13361839266E+03  0.33400801452E+03  0.39916424658E+03  0.17200000000E+03 0.  1.
         -6    1    1    2    0  502  0.18244646644E+02 -0.13361839266E+03  0.18461154946E+04  0.18590086502E+04  0.17200000000E+03 0.  1.
</event>
<event>
 4    1  0.4450588E+000  0.1859706E+03  0.7818608E-02  0.1162147E+00
         21   -1    0    0  503  502  0.00000000000E+00  0.00000000000E+00  0.95859253562E+02  0.95859253562E+02  0.00000000000E+00 0.  1.
         21   -1    0    0  501  503 -0.00000000000E+00 -0.00000000000E+00 -0.36079203952E+03  0.36079203952E+03  0.00000000000E+00 0. -1.
          6    1    1    2  501    0 -0.30694887363E+02  0.63709397014E+02 -0.13192811136E+03  0.22801335475E+03  0.17200000000E+03 0. -1.
         -6    1    1    2    0  502  0.30694887363E+02 -0.63709397014E+02 -0.13300467460E+03  0.22863793833E+03  0.17200000000E+03 0. -1.
</event>
<event>
 4    1  0.4450588E+000  0.2100869E+03  0.7818608E-02  0.1141497E+00
         21   -1    0    0  501  502  0.00000000000E+00  0.00000000000E+00  0.47729949343E+03  0.47729949343E+03  0.00000000000E+00 0. -1.
         21   -1    0    0  502  503 -0.00000000000E+00 -0.00000000000E+00 -0.13380634705E+03  0.13380634705E+03  0.00000000000E+00 0. -1.
          6    1    1    2  501    0 -0.85618796449E+02 -0.84982015801E+02  0.34157372114E+03  0.40101013489E+03  0.17200000000E+03 0. -1.
         -6    1    1    2    0  503  0.85618796449E+02  0.84982015801E+02  0.19194252410E+01  0.21009570559E+03  0.17200000000E+03 0. -1.
</event>
<event>
 4    1  0.4450588E+000  0.1814332E+03  0.7818608E-02  0.1166423E+00
         21   -1    0    0  503  502  0.00000000000E+00  0.00000000000E+00  0.38499380998E+03  0.38499380998E+03  0.00000000000E+00 0. -1.
         21   -1    0    0  501  503 -0.00000000000E+00 -0.00000000000E+00 -0.86859060576E+02  0.86859060576E+02  0.00000000000E+00 0. -1.
          6    1    1    2  501    0 -0.27856340010E+02  0.50576867557E+02  0.11958497232E+03  0.21729832216E+03  0.17200000000E+03 0.  1.
         -6    1    1    2    0  502  0.27856340010E+02 -0.50576867557E+02  0.17854977709E+03  0.25455454840E+03  0.17200000000E+03 0.  1.
</event>
<event>
 4    1  0.4450588E+000  0.1861468E+03  0.7818608E-02  0.1161983E+00
         21   -1    0    0  501  502  0.00000000000E+00  0.00000000000E+00  0.82356655942E+02  0.82356655942E+02  0.00000000000E+00 0. -1.
         21   -1    0    0  502  503 -0.00000000000E+00 -0.00000000000E+00 -0.48513489870E+03  0.48513489870E+03  0.00000000000E+00 0. -1.
          6    1    1    2  501    0  0.19474895581E+02  0.68464161886E+02 -0.98010899936E+02  0.21037288211E+03  0.17200000000E+03 0. -1.
         -6    1    1    2    0  503 -0.19474895581E+02 -0.68464161886E+02 -0.30476734283E+03  0.35711867254E+03  0.17200000000E+03 0. -1.
</event>
<event>
 4    1  0.4450588E+000  0.2118918E+03  0.7818608E-02  0.1140077E+00
         21   -1    0    0  503  502  0.00000000000E+00  0.00000000000E+00  0.31711730930E+03  0.31711730930E+03  0.00000000000E+00 0.  1.
         21   -1    0    0  501  503 -0.00000000000E+00 -0.00000000000E+00 -0.16897542705E+03  0.16897542705E+03  0.00000000000E+00 0. -1.
          6    1    1    2  501    0  0.37134476552E+01 -0.12369450771E+03 -0.23787905392E+02  0.21322285378E+03  0.17200000000E+03 0. -1.
         -6    1    1    2    0  502 -0.37134476552E+01  0.12369450771E+03  0.17192978764E+03  0.27286988256E+03  0.17200000000E+03 0.  1.
</event>
<event>
 4    1  0.4450588E+000  0.2108770E+03  0.7818608E-02  0.1140873E+00
         21   -1    0    0  501  502  0.00000000000E+00  0.00000000000E+00  0.36716301411E+03  0.36716301411E+03  0.00000000000E+00 0. -1.
         21   -1    0    0  502  503 -0.00000000000E+00 -0.00000000000E+00 -0.13787359844E+03  0.13787359844E+03  0.00000000000E+00 0. -1.
          6    1    1    2  501    0  0.24264897019E+02 -0.11956718347E+03  0.20268184914E+03  0.29248765540E+03  0.17200000000E+03 0. -1.
         -6    1    1    2    0  503 -0.24264897019E+02  0.11956718347E+03  0.26607566532E+02  0.21254895715E+03  0.17200000000E+03 0. -1.
</event>
<event>
 4    1  0.4450588E+000  0.2300644E+03  0.7818608E-02  0.1126594E+00
         21   -1    0    0  503  502  0.00000000000E+00  0.00000000000E+00  0.11984172910E+03  0.11984172910E+03  0.00000000000E+00 0. -1.
         21   -1    0    0  501  503 -0.00000000000E+00 -0.00000000000E+00 -0.62021096552E+03  0.62021096552E+03  0.00000000000E+00 0.  1.
          6    1    1    2  501    0  0.14246807563E+03  0.55212991110E+02 -0.44872126946E+03  0.50426223796E+03  0.17200000000E+03 0. -1.
         -6    1    1    2    0  502 -0.14246807563E+03 -0.55212991110E+02 -0.51647966954E+02  0.23579045666E+03  0.17200000000E+03 0. -1.
</event>
<event>
 4    1  0.4450588E+000  0.2032963E+03  0.7818608E-02  0.1146987E+00
         21   -1    0    0  503  502  0.00000000000E+00  0.00000000000E+00  0.22814930427E+03  0.22814930427E+03  0.00000000000E+00 0.  1.
         21   -1    0    0  501  503 -0.00000000000E+00 -0.00000000000E+00 -0.18129094732E+03  0.18129094732E+03  0.00000000000E+00 0.  1.
          6    1    1    2  501    0  0.70415315272E+02  0.82383698494E+02  0.17733745302E+02  0.20406831240E+03  0.17200000000E+03 0.  1.
         -6    1    1    2    0  502 -0.70415315272E+02 -0.82383698494E+02  0.29124611646E+02  0.20537193919E+03  0.17200000000E+03 0.  1.
</event>
<event>
 4    1  0.4450588E+000  0.1923028E+03  0.7818608E-02  0.1156401E+00
         21   -1    0    0  501  502  0.00000000000E+00  0.00000000000E+00  0.14060757689E+04  0.14060757689E+04  0.00000000000E+00 0. -1.
         21   -1    0    0  502  503 -0.00000000000E+00 -0.00000000000E+00 -0.37125497264E+02  0.37125497264E+02  0.00000000000E+00 0.  1.
          6    1    1    2  501    0 -0.57741314934E+02 -0.63736309765E+02  0.10741266453E+04  0.10912050342E+04  0.17200000000E+03 0. -1.
         -6    1    1    2    0  503  0.57741314934E+02  0.63736309765E+02  0.29482362632E+03  0.35199623190E+03  0.17200000000E+03 0.  1.
</event>
<event>
 4    1  0.4450588E+000  0.1847087E+03  0.7818608E-02  0.1163322E+00
         21   -1    0    0  503  502  0.00000000000E+00  0.00000000000E+00  0.59581263362E+02  0.59581263362E+02  0.00000000000E+00 0.  1.
         21   -1    0    0  501  503 -0.00000000000E+00 -0.00000000000E+00 -0.88921996736E+03  0.88921996736E+03  0.00000000000E+00 0.  1.
          6    1    1    2  501    0 -0.66389535661E+02 -0.11213048446E+02 -0.69789170590E+03  0.72192114255E+03  0.17200000000E+03 0.  1.
         -6    1    1    2    0  502  0.66389535661E+02  0.11213048446E+02 -0.13174699810E+03  0.22688008817E+03  0.17200000000E+03 0.  1.
</event>
<event>
 4    1  0.4450588E+000  0.1894454E+03  0.7818608E-02  0.1158963E+00
         21   -1    0    0  503  502  0.00000000000E+00  0.00000000000E+00  0.10461825258E+03  0.10461825258E+03  0.00000000000E+00 0.  1.
         21   -1    0    0  501  503 -0.00000000000E+00 -0.00000000000E+00 -0.37424851852E+03  0.37424851852E+03  0.00000000000E+00 0.  1.
          6    1    1    2  501    0  0.37414290979E+02  0.70040815923E+02 -0.20394325847E+03  0.27835660175E+03  0.17200000000E+03 0.  1.
         -6    1    1    2    0  502 -0.37414290979E+02 -0.70040815923E+02 -0.65687007475E+02  0.20051016936E+03  0.17200000000E+03 0.  1.
</event>
<event>
 4    1  0.4450588E+000  0.2581447E+03  0.7818608E-02  0.1108263E+00
         21   -1    0    0  501  502  0.00000000000E+00  0.00000000000E+00  0.18067573545E+03  0.18067573545E+03  0.00000000000E+00 0. -1.
         21   -1    0    0  502  503 -0.00000000000E+00 -0.00000000000E+00 -0.37376906954E+03  0.37376906954E+03  0.00000000000E+00 0. -1.
          6    1    1    2  501    0 -0.19010671280E+03 -0.30234104000E+02 -0.64679645203E+02  0.26612425632E+03  0.17200000000E+03 0. -1.
         -6    1    1    2    0  503  0.19010671280E+03  0.30234104000E+02 -0.12841368888E+03  0.28832054867E+03  0.17200000000E+03 0. -1.
</event>
<event>
 4    1  0.4450588E+000  0.1847457E+03  0.7818608E-02  0.1163288E+00
         21   -1    0    0  501  502  0.00000000000E+00  0.00000000000E+00  0.13955999892E+04  0.13955999892E+04  0.00000000000E+00 0. -1.
         21   -1    0    0  502  503 -0.00000000000E+00 -0.00000000000E+00 -0.47827996688E+02  0.47827996688E+02  0.00000000000E+00 0. -1.
          6    1    1    2  501    0  0.22886288878E+02 -0.63428758108E+02  0.11783969874E+04  0.11927910334E+04  0.17200000000E+03 0. -1.
         -6    1    1    2    0  503 -0.22886288878E+02  0.63428758108E+02  0.16937500514E+03  0.25063695246E+03  0.17200000000E+03 0. -1.
</event>
<event>
 4    1  0.4450588E+000  0.2166092E+03  0.7818608E-02  0.1136437E+00
         21   -1    0    0  503  502  0.00000000000E+00  0.00000000000E+00  0.21692873803E+03  0.21692873803E+03  0.00000000000E+00 0.  1.
         21   -1    0    0  501  503 -0.00000000000E+00 -0.00000000000E+00 -0.21900496028E+03  0.21900496028E+03  0.00000000000E+00 0. -1.
          6    1    1    2  501    0 -0.73399976634E+02  0.10930694537E+03 -0.25305746714E+02  0.21808242867E+03  0.17200000000E+03 0. -1.
         -6    1    1    2    0  502  0.73399976634E+02 -0.10930694537E+03  0.23229524469E+02  0.21785126964E+03  0.17200000000E+03 0. -1.
</event>
<event>
 4    1  0.4450588E+000  0.1903094E+03  0.7818608E-02  0.1158183E+00
         21   -1    0    0  501  502  0.00000000000E+00  0.00000000000E+00  0.22427228780E+03  0.22427228780E+03  0.00000000000E+00 0. -1.
         21   -1    0    0  502  503 -0.00000000000E+00 -0.00000000000E+00 -0.17126195230E+03  0.17126195230E+03  0.00000000000E+00 0.  1.
          6    1    1    2  501    0 -0.64318266851E+02  0.49968252276E+02  0.73746361078E+02  0.20409848470E+03  0.17200000000E+03 0.  1.
         -6    1    1    2    0  503  0.64318266851E+02 -0.49968252276E+02 -0.20736025579E+02  0.19143575539E+03  0.17200000000E+03 0.  1.
</event>
<event>
 4    1  0.4450588E+000  0.2184932E+03  0.7818608E-02  0.1135011E+00
         21   -1    0    0  503  502  0.00000000000E+00  0.00000000000E+00  0.12072808141E+03  0.12072808141E+03  0.00000000000E+00 0.  1.
         21   -1    0    0  501  503 -0.00000000000E+00 -0.00000000000E+00 -0.41106731319E+03  0.41106731319E+03  0.00000000000E+00 0. -1.
          6    1    1    2  501    0  0.11468648254E+03  0.70726950465E+02 -0.19703335627E+03  0.29421324628E+03  0.17200000000E+03 0. -1.
         -6    1    1    2    0  502 -0.11468648254E+03 -0.70726950465E+02 -0.93305875502E+02  0.23758214832E+03  0.17200000000E+03 0. -1.
</event>
<event>
 4    1  0.4450588E+000  0.1823850E+03  0.7818608E-02  0.1165515E+00
         21   -1    0    0  501  502  0.00000000000E+00  0.00000000000E+00  0.23907039956E+03  0.23907039956E+03  0.00000000000E+00 0.  1.
         21   -1    0    0  502  503 -0.00000000000E+00 -0.00000000000E+00 -0.41968765027E+03  0.41968765027E+03  0.00000000000E+00 0.  1.
          6    1    1    2  501    0  0.47532398749E+02 -0.37695730666E+02  0.17899117261E+03  0.25554282795E+03  0.17200000000E+03 0.  1.
         -6    1    1    2    0  503 -0.47532398749E+02  0.37695730666E+02 -0.35960842332E+03  0.40321522189E+03  0.17200000000E+03 0.  1.
</event>
<event>
 4    1  0.4450588E+000  0.1976427E+03  0.7818608E-02  0.1151743E+00
         21   -1    0    0  501  502  0.00000000000E+00  0.00000000000E+00  0.10322986172E+03  0.10322986172E+03  0.00000000000E+00 0.  1.
         21   -1    0    0  502  503 -0.00000000000E+00 -0.00000000000E+00 -0.55352463990E+03  0.55352463990E+03  0.00000000000E+00 0. -1.
          6    1    1    2  501    0  0.23964505495E+02  0.94362746971E+02 -0.40444854302E+02  0.20173847372E+03  0.17200000000E+03 0.  1.
         -6    1    1    2    0  503 -0.23964505495E+02 -0.94362746971E+02 -0.40984992388E+03  0.45501602790E+03  0.17200000000E+03 0. -1.
</event>
<event>
 4    1  0.4450588E+000  0.2016419E+03  0.7818608E-02  0.1148361E+00
         21   -1    0    0  503  502  0.00000000000E+00  0.00000000000E+00  0.24703379664E+03  0.24703379664E+03  0.00000000000E+00 0. -1.
         21   -1    0    0  501  503 -0.00000000000E+00 -0.00000000000E+00 -0.20695273070E+03  0.20695273070E+03  0.00000000000E+00 0. -1.
          6    1    1    2  501    0 -0.70489622756E+02  0.78145062784E+02 -0.82658498961E+02  0.21792628388E+03  0.17200000000E+03 0. -1.
         -6    1    1    2    0  502  0.70489622756E+02 -0.78145062784E+02  0.12273956490E+03  0.23606024347E+03  0.17200000000E+03 0. -1.
</event>
<event>
 4    1  0.4450588E+000  0.1736492E+03  0.7818608E-02  0.1174095E+00
         21   -1    0    0  501  502  0.00000000000E+00  0.00000000000E+00  0.25815177855E+03  0.25815177855E+03  0.00000000000E+00 0. -1.
         21   -1    0    0  502  503 -0.00000000000E+00 -0.00000000000E+00 -0.55863649558E+03  0.55863649558E+03  0.00000000000E+00 0. -1.
          6    1    1    2  501    0  0.21534049098E+02  0.10311685936E+02  0.21295441931E+03  0.27477924020E+03  0.17200000000E+03 0. -1.
         -6    1    1    2    0  503 -0.21534049098E+02 -0.10311685936E+02 -0.51343913634E+03  0.54200903394E+03  0.17200000000E+03 0. -1.
</event>
<event>
 4    1  0.4450588E+000  0.2158777E+03  0.7818608E-02  0.1136994E+00
         21   -1    0    0  501  502  0.00000000000E+00  0.00000000000E+00  0.16946592505E+03  0.16946592505E+03  0.00000000000E+00 0.  1.
         21   -1    0    0  502  503 -0.00000000000E+00 -0.00000000000E+00 -0.31421584624E+03  0.31421584624E+03  0.00000000000E+00 0.  1.
          6    1    1    2  501    0  0.12606496979E+03 -0.33567902085E+02  0.13061805893E+02  0.21627249347E+03  0.17200000000E+03 0.  1.
         -6    1    1    2    0  503 -0.12606496979E+03  0.33567902085E+02 -0.15781172709E+03  0.26740927782E+03  0.17200000000E+03 0.  1.
</event>
<event>
 4    1  0.4450588E+000  0.2237139E+03  0.7818608E-02  0.1131144E+00
         21   -1    0    0  503  502  0.00000000000E+00  0.00000000000E+00  0.76817901510E+02  0.76817901510E+02  0.00000000000E+00 0.  1.
         21   -1    0    0  501  503 -0.00000000000E+00 -0.00000000000E+00 -0.65539621941E+03  0.65539621941E+03  0.00000000000E+00 0. -1.
          6    1    1    2  501    0 -0.12123784336E+03 -0.75929390339E+02 -0.31746867500E+03  0.38837384900E+03  0.17200000000E+03 0.  1.
         -6    1    1    2    0  502  0.12123784336E+03  0.75929390339E+02 -0.26110964290E+03  0.34384027192E+03  0.17200000000E+03 0.  1.
</event>
<event>
 4    1  0.4450588E+000  0.1989129E+03  0.7818608E-02  0.1150659E+00
         21   -1    0    0  503  502  0.00000000000E+00  0.00000000000E+00  0.68246440667E+02  0.68246440667E+02  0.00000000000E+00 0. -1.
         21   -1    0    0  501  503 -0.00000000000E+00 -0.00000000000E+00 -0.14705134211E+04  0.14705134211E+04  0.00000000000E+00 0. -1.
          6    1    1    2  501    0  0.41916121404E+01 -0.99823768366E+02 -0.12999390565E+04  0.13150695438E+04  0.17200000000E+03 0. -1.
         -6    1    1    2    0  502 -0.41916121404E+01  0.99823768366E+02 -0.10232792391E+03  0.22369031797E+03  0.17200000000E+03 0. -1.
</event>
<event>
 4    1  0.4450588E+000  0.2134211E+03  0.7818608E-02  0.1138885E+00
         21   -1    0    0  503  502  0.00000000000E+00  0.00000000000E+00  0.79002800214E+03  0.79002800214E+03  0.00000000000E+00 0. -1.
         21   -1    0    0  501  503 -0.00000000000E+00 -0.00000000000E+00 -0.59542155517E+02  0.59542155517E+02  0.00000000000E+00 0.  1.
          6    1    1    2  501    0 -0.11708284192E+03 -0.47499018441E+02  0.28960563680E+03  0.35974987629E+03  0.17200000000E+03 0. -1.
         -6    1    1    2    0  502  0.11708284192E+03  0.47499018441E+02  0.44088020983E+03  0.48982028137E+03  0.17200000000E+03 0.  1.
</event>
<event>
 4    1  0.4450588E+000  0.2139035E+03  0.7818608E-02  0.1138512E+00
         21   -1    0    0  503  502  0.00000000000E+00  0.00000000000E+00  0.71989502741E+03  0.71989502741E+03  0.00000000000E+00 0.  1.
         21   -1    0    0  501  503 -0.00000000000E+00 -0.00000000000E+00 -0.63833916034E+02  0.63833916034E+02  0.00000000000E+00 0.  1.
          6    1    1    2  501    0 -0.27443184344E+02 -0.12416750557E+03  0.35381898733E+03  0.41345202092E+03  0.17200000000E+03 0.  1.
         -6    1    1    2    0  502  0.27443184344E+02  0.12416750557E+03  0.30224212404E+03  0.37027692252E+03  0.17200000000E+03 0.  1.
</event>
<event>
 4    1  0.4450588E+000  0.1814681E+03  0.7818608E-02  0.1166390E+00
         21   -1    0    0  503  502  0.00000000000E+00  0.00000000000E+00  0.18715196468E+03  0.18715196468E+03  0.00000000000E+00 0. -1.
         21   -1    0    0  501  503 -0.00000000000E+00 -0.00000000000E+00 -0.23106776998E+03  0.23106776998E+03  0.00000000000E+00 0. -1.
          6    1    1    2  501    0 -0.49550857667E+02  0.29856216202E+02 -0.12408087331E+03  0.21983344664E+03  0.17200000000E+03 0. -1.
         -6    1    1    2    0  502  0.49550857667E+02 -0.29856216202E+02  0.80165068010E+02  0.19838628801E+03  0.17200000000E+03 0. -1.
</event>
<event>
 4    1  0.4450588E+000  0.1921382E+03  0.7818608E-02  0.1156547E+00
         21   -1    0    0  501  502  0.00000000000E+00  0.00000000000E+00  0.18955657302E+03  0.18955657302E+03  0.00000000000E+00 0.  1.
         21   -1    0    0  502  503 -0.00000000000E+00 -0.00000000000E+00 -0.20694335164E+03  0.20694335164E+03  0.00000000000E+00 0.  1.
          6    1    1    2  501    0 -0.13703525923E+00  0.85633327953E+02  0.39419374760E+02  0.19614018645E+03  0.17200000000E+03 0.  1.
         -6    1    1    2    0  503  0.13703525923E+00 -0.85633327953E+02 -0.56806153383E+02  0.20035973821E+03  0.17200000000E+03 0.  1.
</event>
<event>
 4    1  0.4450588E+000  0.1929315E+03  0.7818608E-02  0.1155844E+00
         21   -1    0    0  501  502  0.00000000000E+00  0.00000000000E+00  0.73865629683E+03  0.73865629683E+03  0.00000000000E+00 0. -1.
         21   -1    0    0  502  503 -0.00000000000E+00 -0.00000000000E+00 -0.64128202546E+02  0.64128202546E+02  0.00000000000E+00 0. -1.
          6    1    1    2  501    0  0.37265317851E+02 -0.79056146163E+02  0.52303306994E+03  0.55748199111E+03  0.17200000000E+03 0. -1.
         -6    1    1    2    0  503 -0.37265317851E+02  0.79056146163E+02  0.15149502434E+03  0.24530250827E+03  0.17200000000E+03 0. -1.
</event>
<event>
 4    1  0.4450588E+000  0.2608246E+03  0.7818608E-02  0.1106649E+00
         21   -1    0    0  501  502  0.00000000000E+00  0.00000000000E+00  0.12451433496E+04  0.12451433496E+04  0.00000000000E+00 0. -1.
         21   -1    0    0  502  503 -0.00000000000E+00 -0.00000000000E+00 -0.18689168176E+03  0.18689168176E+03  0.00000000000E+00 0.  1.
          6    1    1    2  501    0  0.93872655293E+02 -0.17214354295E+03  0.11314580100E+04  0.11611316476E+04  0.17200000000E+03 0. -1.
         -6    1    1    2    0  503 -0.93872655293E+02  0.17214354295E+03 -0.73206342135E+02  0.27090338374E+03  0.17200000000E+03 0.  1.
</event>
<event>
 4    1  0.4450588E+000  0.1988233E+03  0.7818608E-02  0.1150736E+00
         21   -1    0    0  501  502  0.00000000000E+00  0.00000000000E+00  0.71159842152E+02  0.71159842152E+02  0.00000000000E+00 0. -1.
         21   -1    0    0  502  503 -0.00000000000E+00 -0.00000000000E+00 -0.19534418459E+04  0.19534418459E+04  0.00000000000E+00 0. -1.
          6    1    1    2  501    0  0.91495402668E+02  0.39690117593E+02 -0.84791983040E+02  0.21614901002E+03  0.17200000000E+03 0. -1.
         -6    1    1    2    0  503 -0.91495402668E+02 -0.39690117593E+02 -0.17974900207E+04  0.18084526780E+04  0.17200000000E+03 0. -1.
</event>
<event>
 4    1  0.4450588E+000  0.1887335E+03  0.7818608E-02  0.1159609E+00
         21   -1    0    0  501  502  0.00000000000E+00  0.00000000000E+00  0.17471161900E+04  0.17471161900E+04  0.00000000000E+00 0. -1.
         21   -1    0    0  502  503 -0.00000000000E+00 -0.00000000000E+00 -0.22996182186E+02  0.22996182186E+02  0.00000000000E+00 0. -1.
          6    1    1    2  501    0 -0.69715968676E+02 -0.34293193101E+02  0.11601212579E+04  0.11753729929E+04  0.17200000000E+03 0. -1.
         -6    1    1    2    0  503  0.69715968676E+02  0.34293193101E+02  0.56399874992E+03  0.59473937930E+03  0.17200000000E+03 0. -1.
</event>
<event>
 4    1  0.4450588E+000  0.2232594E+03  0.7818608E-02  0.1131476E+00
         21   -1    0    0  501  502  0.00000000000E+00  0.00000000000E+00  0.47332416258E+03  0.47332416258E+03  0.00000000000E+00 0. -1.
         21   -1    0    0  502  503 -0.00000000000E+00 -0.00000000000E+00 -0.14968363747E+03  0.14968363747E+03  0.00000000000E+00 0. -1.
          6    1    1    2  501    0  0.13965758560E+03  0.27504886745E+02  0.33142940418E+03  0.39961257484E+03  0.17200000000E+03 0. -1.
         -6    1    1    2    0  503 -0.13965758560E+03 -0.27504886745E+02 -0.77888790620E+01  0.22339522521E+03  0.17200000000E+03 0. -1.
</event>
<event>
 4    1  0.4450588E+000  0.1910046E+03  0.7818608E-02  0.1157558E+00
         21   -1    0    0  503  502  0.00000000000E+00  0.00000000000E+00  0.15791507181E+03  0.15791507181E+03  0.00000000000E+00 0.  1.
         21   -1    0    0  501  503 -0.00000000000E+00 -0.00000000000E+00 -0.27161933331E+03  0.27161933331E+03  0.00000000000E+00 0.  1.
          6    1    1    2  501    0 -0.82892181289E+02 -0.52594758753E+01 -0.13987642790E+03  0.23674499126E+03  0.17200000000E+03 0.  1.
         -6    1    1    2    0  502  0.82892181289E+02  0.52594758753E+01  0.26172166394E+02  0.19278941387E+03  0.17200000000E+03 0.  1.
</event>
<event>
 4    1  0.4450588E+000  0.1727020E+03  0.7818608E-02  0.1175059E+00
         21   -1    0    0  503  502  0.00000000000E+00  0.00000000000E+00  0.25605691887E+03  0.25605691887E+03  0.00000000000E+00 0. -1.
         21   -1    0    0  501  503 -0.00000000000E+00 -0.00000000000E+00 -0.13374627795E+03  0.13374627795E+03  0.00000000000E+00 0. -1.
          6    1    1    2  501    0  0.11891355460E+02 -0.10029014165E+02  0.13117990716E+03  0.21687358876E+03  0.17200000000E+03 0. -1.
         -6    1    1    2    0  502 -0.11891355460E+02  0.10029014165E+02 -0.88692662389E+01  0.17292960806E+03  0.17200000000E+03 0. -1.
</event>
<event>
 4    1  0.4450588E+000  0.2329016E+03  0.7818608E-02  0.1124614E+00
         21   -1    0    0  503  502  0.00000000000E+00  0.00000000000E+00  0.57633108832E+03  0.57633108832E+03  0.00000000000E+00 0.  1.
         21   -1    0    0  501  503 -0.00000000000E+00 -0.00000000000E+00 -0.27252136233E+03  0.27252136233E+03  0.00000000000E+00 0.  1.
          6    1    1    2  501    0  0.90223960306E+02 -0.12852550270E+03 -0.19149757315E+03  0.30152029514E+03  0.17200000000E+03 0.  1.
         -6    1    1    2    0  502 -0.90223960306E+02  0.12852550270E+03  0.49530729914E+03  0.54733215550E+03  0.17200000000E+03 0.  1.
</event>
<event>
 4    1  0.4450588E+000  0.1995572E+03  0.7818608E-02  0.1150113E+00
         21   -1    0    0  501  502  0.00000000000E+00  0.00000000000E+00  0.31433628520E+02  0.31433628520E+02  0.00000000000E+00 0.  1.
         21   -1    0    0  502  503 -0.00000000000E+00 -0.00000000000E+00 -0.13942966036E+04  0.13942966036E+04  0.00000000000E+00 0.  1.
          6    1    1    2  501    0  0.79932293551E+02  0.62047740688E+02 -0.46594604433E+03  0.50688145547E+03  0.17200000000E+03 0.  1.
         -6    1    1    2    0  503 -0.79932293551E+02 -0.62047740688E+02 -0.89691693073E+03  0.91884877663E+03  0.17200000000E+03 0.  1.
</event>
<event>
 4    1  0.4450588E+000  0.2096952E+03  0.7818608E-02  0.1141808E+00
         21   -1    0    0  503  502  0.00000000000E+00  0.00000000000E+00  0.40265783813E+03  0.40265783813E+03  0.00000000000E+00 0. -1.
         21   -1    0    0  501  503 -0.00000000000E+00 -0.00000000000E+00 -0.11521325486E+03  0.11521325486E+03  0.00000000000E+00 0. -1.
          6    1    1    2  501    0 -0.48741630211E+02  0.10960083227E+03  0.84589414725E+02  0.22611381655E+03  0.17200000000E+03 0. -1.
         -6    1    1    2    0  502  0.48741630211E+02 -0.10960083227E+03  0.20285516855E+03  0.29175727644E+03  0.17200000000E+03 0. -1.
</event>
<event>
 4    1  0.4450588E+000  0.1917033E+03  0.7818608E-02  0.1156934E+00
         21   -1    0    0  501  502  0.00000000000E+00  0.00000000000E+00  0.45226001231E+02  0.45226001231E+02  0.00000000000E+00 0.  1.
         21   -1    0    0  502  503 -0.00000000000E+00 -0.00000000000E+00 -0.90193154088E+03  0.90193154088E+03  0.00000000000E+00 0.  1.
          6    1    1    2  501    0 -0.84482880414E+02 -0.53654843200E+01 -0.27930177120E+03  0.33876190002E+03  0.17200000000E+03 0.  1.
         -6    1    1    2    0  503  0.84482880414E+02  0.53654843200E+01 -0.57740376845E+03  0.60839564210E+03  0.17200000000E+03 0.  1.
</event>
<event>
 4    1  0.4450588E+000  0.1907555E+03  0.7818608E-02  0.1157782E+00
         21   -1    0    0  503  502  0.00000000000E+00  0.00000000000E+00  0.42479416730E+03  0.42479416730E+03  0.00000000000E+00 0.  1.
         21   -1    0    0  501  503 -0.00000000000E+00 -0.00000000000E+00 -0.10610044309E+03  0.10610044309E+03  0.00000000000E+00 0.  1.
          6    1    1    2  501    0  0.49162640601E+02 -0.66232142494E+02  0.42835028339E+02  0.19550575844E+03  0.17200000000E+03 0.  1.
         -6    1    1    2    0  502 -0.49162640601E+02  0.66232142494E+02  0.27585869586E+03  0.33538885195E+03  0.17200000000E+03 0.  1.
</event>
<event>
 4    1  0.4450588E+000  0.1815511E+03  0.7818608E-02  0.1166310E+00
         21   -1    0    0  503  502  0.00000000000E+00  0.00000000000E+00  0.37459174517E+03  0.37459174517E+03  0.00000000000E+00 0. -1.
         21   -1    0    0  501  503 -0.00000000000E+00 -0.00000000000E+00 -0.12768189270E+03  0.12768189270E+03  0.00000000000E+00 0. -1.
          6    1    1    2  501    0  0.49665860629E+02 -0.30167907388E+02 -0.16564964253E+02  0.18230523412E+03  0.17200000000E+03 0. -1.
         -6    1    1    2    0  502 -0.49665860629E+02  0.30167907388E+02  0.26347481672E+03  0.31996840375E+03  0.17200000000E+03 0. -1.
</event>
<event>
 4    1  0.4450588E+000  0.2147857E+03  0.7818608E-02  0.1137831E+00
         21   -1    0    0  501  502  0.00000000000E+00  0.00000000000E+00  0.73416415075E+02  0.73416415075E+02  0.00000000000E+00 0. -1.
         21   -1    0    0  502  503 -0.00000000000E+00 -0.00000000000E+00 -0.69415729875E+03  0.69415729875E+03  0.00000000000E+00 0.  1.
          6    1    1    2  501    0 -0.11673781539E+03  0.54047881221E+02 -0.19222353265E+03  0.28824083248E+03  0.17200000000E+03 0. -1.
         -6    1    1    2    0  503  0.11673781539E+03 -0.54047881221E+02 -0.42851735103E+03  0.47933288134E+03  0.17200000000E+03 0.  1.
</event>
<event>
 4    1  0.4450588E+000  0.1799620E+03  0.7818608E-02  0.1167840E+00
         21   -1    0    0  503  502  0.00000000000E+00  0.00000000000E+00  0.16132349912E+03  0.16132349912E+03  0.00000000000E+00 0.  1.
         21   -1    0    0  501  503 -0.00000000000E+00 -0.00000000000E+00 -0.22892650370E+03  0.22892650370E+03  0.00000000000E+00 0.  1.
          6    1    1    2  501    0 -0.31239289512E+02 -0.42736567461E+02 -0.10225238502E+03  0.20698274723E+03  0.17200000000E+03 0.  1.
         -6    1    1    2    0  502  0.31239289512E+02  0.42736567461E+02  0.34649380437E+02  0.18326725559E+03  0.17200000000E+03 0.  1.
</event>
<event>
 4    1  0.4450588E+000  0.2133064E+03  0.7818608E-02  0.1138974E+00
         21   -1    0    0  501  502  0.00000000000E+00  0.00000000000E+00  0.81720152226E+03  0.81720152226E+03  0.00000000000E+00 0. -1.
         21   -1    0    0  502  503 -0.00000000000E+00 -0.00000000000E+00 -0.57780122346E+02  0.57780122346E+02  0.00000000000E+00 0. -1.
          6    1    1    2  501    0 -0.12229385233E+03  0.30981224572E+02  0.46317003292E+03  0.50992754582E+03  0.17200000000E+03 0. -1.
         -6    1    1    2    0  503  0.12229385233E+03 -0.30981224572E+02  0.29625136699E+03  0.36505409878E+03  0.17200000000E+03 0. -1.
</event>
<event>
 4    1  0.4450588E+000  0.2816421E+03  0.7818608E-02  0.1094795E+00
         21   -1    0    0  501  502  0.00000000000E+00  0.00000000000E+00  0.67768440267E+03  0.67768440267E+03  0.00000000000E+00 0.  1.
         21   -1    0    0  502  503 -0.00000000000E+00 -0.00000000000E+00 -0.14239624954E+03  0.14239624954E+03  0.00000000000E+00 0.  1.
          6    1    1    2  501    0 -0.21693658585E+03 -0.51737887623E+02  0.44064267833E+03  0.52296105138E+03  0.17200000000E+03 0.  1.
         -6    1    1    2    0  503  0.21693658585E+03  0.51737887623E+02  0.94645474791E+02  0.29711960083E+03  0.17200000000E+03 0.  1.
</event>
<event>
 4    1  0.4450588E+000  0.1815542E+03  0.7818608E-02  0.1166307E+00
         21   -1    0    0  503  502  0.00000000000E+00  0.00000000000E+00  0.24508498210E+03  0.24508498210E+03  0.00000000000E+00 0. -1.
         21   -1    0    0  501  503 -0.00000000000E+00 -0.00000000000E+00 -0.14362035145E+03  0.14362035145E+03  0.00000000000E+00 0. -1.
          6    1    1    2  501    0  0.52593515734E+02 -0.24735754723E+02  0.17339058017E+01  0.18156250133E+03  0.17200000000E+03 0. -1.
         -6    1    1    2    0  502 -0.52593515734E+02  0.24735754723E+02  0.99730724847E+02  0.20714283221E+03  0.17200000000E+03 0. -1.
</event>
<event>
 4    1  0.4450588E+000  0.1913231E+03  0.7818608E-02  0.1157273E+00
         21   -1    0    0  501  502  0.00000000000E+00  0.00000000000E+00  0.11342207679E+04  0.11342207679E+04  0.00000000000E+00 0.  1.
         21   -1    0    0  502  503 -0.00000000000E+00 -0.00000000000E+00 -0.34318256919E+02  0.34318256919E+02  0.00000000000E+00 0.  1.
          6    1    1    2  501    0  0.52534380048E+02  0.65273704379E+02  0.40731094805E+03  0.45000747324E+03  0.17200000000E+03 0.  1.
         -6    1    1    2    0  503 -0.52534380048E+02 -0.65273704379E+02  0.69259156289E+03  0.71853155154E+03  0.17200000000E+03 0.  1.
</event>
<event>
 4    1  0.4450588E+000  0.2441168E+03  0.7818608E-02  0.1117080E+00
         21   -1    0    0  503  502  0.00000000000E+00  0.00000000000E+00  0.13358915708E+03  0.13358915708E+03  0.00000000000E+00 0. -1.
         21   -1    0    0  501  503 -0.00000000000E+00 -0.00000000000E+00 -0.45928071852E+03  0.45928071852E+03  0.00000000000E+00 0. -1.
          6    1    1    2  501    0  0.17250485088E+03 -0.15845446212E+02 -0.21307981453E+03  0.32403087677E+03  0.17200000000E+03 0. -1.
         -6    1    1    2    0  502 -0.17250485088E+03  0.15845446212E+02 -0.11261174691E+03  0.26883899882E+03  0.17200000000E+03 0. -1.
</event>
<event>
 4    1  0.4450588E+000  0.2131593E+03  0.7818608E-02  0.1139088E+00
         21   -1    0    0  503  502  0.00000000000E+00  0.00000000000E+00  0.35747853616E+03  0.35747853616E+03  0.00000000000E+00 0. -1.
         21   -1    0    0  501  503 -0.00000000000E+00 -0.00000000000E+00 -0.14362769563E+03  0.14362769563E+03  0.00000000000E+00 0. -1.
          6    1    1    2  501    0  0.31847992107E+02 -0.12181375091E+03  0.19190934442E+03  0.28682064254E+03  0.17200000000E+03 0. -1.
         -6    1    1    2    0  502 -0.31847992107E+02  0.12181375091E+03  0.21941496113E+02  0.21428558926E+03  0.17200000000E+03 0. -1.
</event>
<event>
 4    1  0.4450588E+000  0.2275000E+03  0.7818608E-02  0.1128412E+00
         21   -1    0    0  503  502  0.00000000000E+00  0.00000000000E+00  0.74261907694E+02  0.74261907694E+02  0.00000000000E+00 0.  1.
         21   -1    0    0  501  503 -0.00000000000E+00 -0.00000000000E+00 -0.70116551664E+03  0.70116551664E+03  0.00000000000E+00 0. -1.
          6    1    1    2  501    0  0.74562968054E+02  0.12888985862E+03 -0.34354340841E+03  0.41204163057E+03  0.17200000000E+03 0.  1.
         -6    1    1    2    0  502 -0.74562968054E+02 -0.12888985862E+03 -0.28336020054E+03  0.36338579377E+03  0.17200000000E+03 0. -1.
</event>
<event>
 4    1  0.4450588E+000  0.1822473E+03  0.7818608E-02  0.1165646E+00
         21   -1    0    0  501  502  0.00000000000E+00  0.00000000000E+00  0.10821334823E+03  0.10821334823E+03  0.00000000000E+00 0. -1.
         21   -1    0    0  502  503 -0.00000000000E+00 -0.00000000000E+00 -0.33597310386E+03  0.33597310386E+03  0.00000000000E+00 0.  1.
          6    1    1    2  501    0 -0.21696852820E+02  0.56207957166E+02 -0.48582885527E+02  0.18861172985E+03  0.17200000000E+03 0.  1.
         -6    1    1    2    0  503  0.21696852820E+02 -0.56207957166E+02 -0.17917687010E+03  0.25557472225E+03  0.17200000000E+03 0.  1.
</event>
<event>
 4    1  0.4450588E+000  0.1990567E+03  0.7818608E-02  0.1150537E+00
         21   -1    0    0  501  502  0.00000000000E+00  0.00000000000E+00  0.59682162746E+02  0.59682162746E+02  0.00000000000E+00 0. -1.
         21   -1    0    0  502  503 -0.00000000000E+00 -0.00000000000E+00 -0.73167880691E+03  0.73167880691E+03  0.00000000000E+00 0.  1.
          6    1    1    2  501    0  0.79444345835E+02 -0.61058819823E+02 -0.21557811423E+03  0.29342376676E+03  0.17200000000E+03 0. -1.
         -6    1    1    2    0  503 -0.79444345835E+02  0.61058819823E+02 -0.45641852994E+03  0.49793720290E+03  0.17200000000E+03 0.  1.
</event>
<event>
 4    1  0.4450588E+000  0.2765217E+03  0.7818608E-02  0.1097604E+00
         21   -1    0    0  503  502  0.00000000000E+00  0.00000000000E+00  0.11408993025E+03  0.11408993025E+03  0.00000000000E+00 0. -1.
         21   -1    0    0  501  503 -0.00000000000E+00 -0.00000000000E+00 -0.13744666224E+04  0.13744666224E+04  0.00000000000E+00 0.  1.
          6    1    1    2  501    0  0.16491788864E+03  0.14029379700E+03 -0.11629507699E+04  0.11953738966E+04  0.17200000000E+03 0.  1.
         -6    1    1    2    0  502 -0.16491788864E+03 -0.14029379700E+03 -0.97425922234E+02  0.29318265602E+03  0.17200000000E+03 0. -1.
</event>
<event>
 4    1  0.4450588E+000  0.2537453E+03  0.7818608E-02  0.1110961E+00
         21   -1    0    0  503  502  0.00000000000E+00  0.00000000000E+00  0.55444206642E+03  0.55444206642E+03  0.00000000000E+00 0.  1.
         21   -1    0    0  501  503 -0.00000000000E+00 -0.00000000000E+00 -0.15685047794E+03  0.15685047794E+03  0.00000000000E+00 0. -1.
          6    1    1    2  501    0 -0.44828416754E+02  0.18108861575E+03  0.17583213865E+02  0.25435377550E+03  0.17200000000E+03 0. -1.
         -6    1    1    2    0  502  0.44828416754E+02 -0.18108861575E+03  0.38000837461E+03  0.45693876885E+03  0.17200000000E+03 0.  1.
</event>
<event>
 4    1  0.4450588E+000  0.1747766E+03  0.7818608E-02  0.1172956E+00
         21   -1    0    0  501  502  0.00000000000E+00  0.00000000000E+00  0.47253882946E+03  0.47253882946E+03  0.00000000000E+00 0. -1.
         21   -1    0    0  502  503 -0.00000000000E+00 -0.00000000000E+00 -0.19507880575E+03  0.19507880575E+03  0.00000000000E+00 0. -1.
          6    1    1    2  501    0  0.30790471283E+02  0.38478479155E+01  0.41168390967E+03  0.44724769484E+03  0.17200000000E+03 0. -1.
         -6    1    1    2    0  503 -0.30790471283E+02 -0.38478479155E+01 -0.13422388596E+03  0.22036994037E+03  0.17200000000E+03 0. -1.
</event>
<event>
 4    1  0.4450588E+000  0.1847792E+03  0.7818608E-02  0.1163256E+00
         21   -1    0    0  503  502  0.00000000000E+00  0.00000000000E+00  0.17760597785E+02  0.17760597785E+02  0.00000000000E+00 0.  1.
         21   -1    0    0  501  503 -0.00000000000E+00 -0.00000000000E+00 -0.19345040916E+04  0.19345040916E+04  0.00000000000E+00 0.  1.
          6    1    1    2  501    0  0.40600182430E+01  0.67400822165E+02 -0.88122734995E+03  0.90039157975E+03  0.17200000000E+03 0. -1.
         -6    1    1    2    0  502 -0.40600182430E+01 -0.67400822165E+02 -0.10355161439E+04  0.10518731096E+04  0.17200000000E+03 0. -1.
</event>
<event>
 4    1  0.4450588E+000  0.3023062E+03  0.7818608E-02  0.1084093E+00
         21   -1    0    0  501  502  0.00000000000E+00  0.00000000000E+00  0.77413121454E+03  0.77413121454E+03  0.00000000000E+00 0.  1.
         21   -1    0    0  502  503 -0.00000000000E+00 -0.00000000000E+00 -0.14310313365E+03  0.14310313365E+03  0.00000000000E+00 0. -1.
          6    1    1    2  501    0 -0.24767833201E+03 -0.21458452439E+02  0.50739198841E+03  0.59062310421E+03  0.17200000000E+03 0.  1.
         -6    1    1    2    0  503  0.24767833201E+03  0.21458452439E+02  0.12363609249E+03  0.32661124398E+03  0.17200000000E+03 0. -1.
</event>
<event>
 4    1  0.4450588E+000  0.1766315E+03  0.7818608E-02  0.1171103E+00
         21   -1    0    0  503  502  0.00000000000E+00  0.00000000000E+00  0.31544380355E+03  0.31544380355E+03  0.00000000000E+00 0.  1.
         21   -1    0    0  501  503 -0.00000000000E+00 -0.00000000000E+00 -0.10176670905E+03  0.10176670905E+03  0.00000000000E+00 0.  1.
          6    1    1    2  501    0  0.14003424756E+02 -0.37664326633E+02  0.14182505033E+03  0.22652382283E+03  0.17200000000E+03 0.  1.
         -6    1    1    2    0  502 -0.14003424756E+02  0.37664326633E+02  0.71852044164E+02  0.19068668977E+03  0.17200000000E+03 0.  1.
</event>
<event>
 4    1  0.4450588E+000  0.1978697E+03  0.7818608E-02  0.1151549E+00
         21   -1    0    0  503  502  0.00000000000E+00  0.00000000000E+00  0.20251690503E+04  0.20251690503E+04  0.00000000000E+00 0. -1.
         21   -1    0    0  501  503 -0.00000000000E+00 -0.00000000000E+00 -0.19619103861E+02  0.19619103861E+02  0.00000000000E+00 0. -1.
          6    1    1    2  501    0 -0.90807930424E+01  0.97395947371E+02  0.87929365348E+03  0.90128228675E+03  0.17200000000E+03 0. -1.
         -6    1    1    2    0  502  0.90807930424E+01 -0.97395947371E+02  0.11262562930E+04  0.11435058674E+04  0.17200000000E+03 0. -1.
</event>
<event>
 4    1  0.4450588E+000  0.1805944E+03  0.7818608E-02  0.1167229E+00
         21   -1    0    0  501  502  0.00000000000E+00  0.00000000000E+00  0.33752565024E+02  0.33752565024E+02  0.00000000000E+00 0. -1.
         21   -1    0    0  502  503 -0.00000000000E+00 -0.00000000000E+00 -0.11698443285E+04  0.11698443285E+04  0.00000000000E+00 0.  1.
          6    1    1    2  501    0  0.52322641297E+02 -0.17107687984E+02 -0.31700704042E+03  0.36483941050E+03  0.17200000000E+03 0. -1.
         -6    1    1    2    0  503 -0.52322641297E+02  0.17107687984E+02 -0.81908472305E+03  0.83875748302E+03  0.17200000000E+03 0.  1.
</event>
<event>
 4    1  0.4450588E+000  0.1897939E+03  0.7818608E-02  0.1158647E+00
         21   -1    0    0  501  502  0.00000000000E+00  0.00000000000E+00  0.28669295940E+02  0.28669295940E+02  0.00000000000E+00 0.  1.
         21   -1    0    0  502  503 -0.00000000000E+00 -0.00000000000E+00 -0.12687335280E+04  0.12687335280E+04  0.00000000000E+00 0. -1.
          6    1    1    2  501    0 -0.55070629254E+02  0.58351861426E+02 -0.68384553202E+03  0.70969460023E+03  0.17200000000E+03 0. -1.
         -6    1    1    2    0  503  0.55070629254E+02 -0.58351861426E+02 -0.55621870007E+03  0.58770822373E+03  0.17200000000E+03 0. -1.
</event>
<event>
 4    1  0.4450588E+000  0.1968070E+03  0.7818608E-02  0.1152461E+00
         21   -1    0    0  501  502  0.00000000000E+00  0.00000000000E+00  0.43226921397E+03  0.43226921397E+03  0.00000000000E+00 0. -1.
         21   -1    0    0  502  503 -0.00000000000E+00 -0.00000000000E+00 -0.12154384772E+03  0.12154384772E+03  0.00000000000E+00 0.  1.
          6    1    1    2  501    0  0.51191614565E+02  0.80798663568E+02  0.29731217428E+03  0.35654948382E+03  0.17200000000E+03 0. -1.
         -6    1    1    2    0  503 -0.51191614565E+02 -0.80798663568E+02  0.13413191966E+02  0.19726357787E+03  0.17200000000E+03 0. -1.
</event>
<event>
 4    1  0.4450588E+000  0.1838764E+03  0.7818608E-02  0.1164103E+00
         21   -1    0    0  501  502  0.00000000000E+00  0.00000000000E+00  0.31806719364E+02  0.31806719364E+02  0.00000000000E+00 0.  1.
         21   -1    0    0  502  503 -0.00000000000E+00 -0.00000000000E+00 -0.16858795850E+04  0.16858795850E+04  0.00000000000E+00 0.  1.
          6    1    1    2  501    0 -0.29270215271E+02  0.58049739149E+02 -0.30499748752E+03  0.35613759294E+03  0.17200000000E+03 0.  1.
         -6    1    1    2    0  503  0.29270215271E+02 -0.58049739149E+02 -0.13490753781E+04  0.13615487114E+04  0.17200000000E+03 0.  1.
</event>
<event>
 4    1  0.4450588E+000  0.3295624E+03  0.7818608E-02  0.1071331E+00
         21   -1    0    0  503  502  0.00000000000E+00  0.00000000000E+00  0.13775853877E+03  0.13775853877E+03  0.00000000000E+00 0. -1.
         21   -1    0    0  501  503 -0.00000000000E+00 -0.00000000000E+00 -0.11895764673E+04  0.11895764673E+04  0.00000000000E+00 0. -1.
          6    1    1    2  501    0 -0.28111050748E+03  0.20580389026E+01 -0.91130938978E+03  0.96906973787E+03  0.17200000000E+03 0. -1.
         -6    1    1    2    0  502  0.28111050748E+03 -0.20580389026E+01 -0.14050853874E+03  0.35826526820E+03  0.17200000000E+03 0. -1.
</event>
<event>
 4    1  0.4450588E+000  0.3346505E+03  0.7818608E-02  0.1069097E+00
         21   -1    0    0  501  502  0.00000000000E+00  0.00000000000E+00  0.36598745206E+03  0.36598745206E+03  0.00000000000E+00 0.  1.
         21   -1    0    0  502  503 -0.00000000000E+00 -0.00000000000E+00 -0.37012037636E+03  0.37012037636E+03  0.00000000000E+00 0. -1.
          6    1    1    2  501    0  0.26380012217E+03 -0.11320989904E+03  0.15113003790E+03  0.36719378270E+03  0.17200000000E+03 0. -1.
         -6    1    1    2    0  503 -0.26380012217E+03  0.11320989904E+03 -0.15526296220E+03  0.36891404572E+03  0.17200000000E+03 0.  1.
</event>
<event>
 4    1  0.4450588E+000  0.2011635E+03  0.7818608E-02  0.1148761E+00
         21   -1    0    0  501  502  0.00000000000E+00  0.00000000000E+00  0.13669250650E+03  0.13669250650E+03  0.00000000000E+00 0. -1.
         21   -1    0    0  502  503 -0.00000000000E+00 -0.00000000000E+00 -0.36964864041E+03  0.36964864041E+03  0.00000000000E+00 0. -1.
          6    1    1    2  501    0 -0.72365330179E+02  0.75140007056E+02 -0.35046323544E+01  0.20119404594E+03  0.17200000000E+03 0. -1.
         -6    1    1    2    0  503  0.72365330179E+02 -0.75140007056E+02 -0.22945150155E+03  0.30514710098E+03  0.17200000000E+03 0. -1.
</event>
<event>
 4    1  0.4450588E+000  0.1928287E+03  0.7818608E-02  0.1155935E+00
         21   -1    0    0  501  502  0.00000000000E+00  0.00000000000E+00  0.60926945450E+03  0.60926945450E+03  0.00000000000E+00 0. -1.
         21   -1    0    0  502  503 -0.00000000000E+00 -0.00000000000E+00 -0.69964021094E+02  0.69964021094E+02  0.00000000000E+00 0. -1.
          6    1    1    2  501    0  0.79982678026E+02 -0.34664974972E+02  0.39102181416E+03  0.43598273868E+03  0.17200000000E+03 0. -1.
         -6    1    1    2    0  503 -0.79982678026E+02  0.34664974972E+02  0.14828361924E+03  0.24325073691E+03  0.17200000000E+03 0. -1.
</event>
<event>
 4    1  0.4450588E+000  0.3176076E+03  0.7818608E-02  0.1076756E+00
         21   -1    0    0  501  502  0.00000000000E+00  0.00000000000E+00  0.15789659749E+03  0.15789659749E+03  0.00000000000E+00 0. -1.
         21   -1    0    0  502  503 -0.00000000000E+00 -0.00000000000E+00 -0.92173851140E+03  0.92173851140E+03  0.00000000000E+00 0. -1.
          6    1    1    2  501    0 -0.12075172650E+03 -0.23813781342E+03 -0.82874035137E+02  0.32824183666E+03  0.17200000000E+03 0. -1.
         -6    1    1    2    0  503  0.12075172650E+03  0.23813781342E+03 -0.68096787878E+03  0.75139327223E+03  0.17200000000E+03 0. -1.
</event>
<event>
 4    1  0.4450588E+000  0.1861319E+03  0.7818608E-02  0.1161997E+00
         21   -1    0    0  501  502  0.00000000000E+00  0.00000000000E+00  0.50602253581E+03  0.50602253581E+03  0.00000000000E+00 0. -1.
         21   -1    0    0  502  503 -0.00000000000E+00 -0.00000000000E+00 -0.71724257564E+02  0.71724257564E+02  0.00000000000E+00 0. -1.
          6    1    1    2  501    0 -0.62477500469E+02 -0.34024144166E+02  0.27872369164E+03  0.33515962873E+03  0.17200000000E+03 0. -1.
         -6    1    1    2    0  503  0.62477500469E+02  0.34024144166E+02  0.15557458661E+03  0.24258716464E+03  0.17200000000E+03 0. -1.
</event>
<event>
 4    1  0.4450588E+000  0.1863901E+03  0.7818608E-02  0.1161758E+00
         21   -1    0    0  501  502  0.00000000000E+00  0.00000000000E+00  0.34739256508E+03  0.34739256508E+03  0.00000000000E+00 0.  1.
         21   -1    0    0  502  503 -0.00000000000E+00 -0.00000000000E+00 -0.10178544589E+03  0.10178544589E+03  0.00000000000E+00 0.  1.
          6    1    1    2  501    0  0.31587873973E+01 -0.71744595983E+02  0.15250070420E+03  0.24082717823E+03  0.17200000000E+03 0. -1.
         -6    1    1    2    0  503 -0.31587873973E+01  0.71744595983E+02  0.93106414993E+02  0.20835083274E+03  0.17200000000E+03 0. -1.
</event>
<event>
 4    1  0.4450588E+000  0.1729752E+03  0.7818608E-02  0.1174780E+00
         21   -1    0    0  503  502  0.00000000000E+00  0.00000000000E+00  0.11992774347E+03  0.11992774347E+03  0.00000000000E+00 0. -1.
         21   -1    0    0  501  503 -0.00000000000E+00 -0.00000000000E+00 -0.68862430913E+03  0.68862430913E+03  0.00000000000E+00 0. -1.
          6    1    1    2  501    0  0.15655863220E+02 -0.95565102071E+01 -0.60718795613E+03  0.63134590124E+03  0.17200000000E+03 0. -1.
         -6    1    1    2    0  502 -0.15655863220E+02  0.95565102071E+01  0.38491390471E+02  0.17720615136E+03  0.17200000000E+03 0. -1.
</event>
<event>
 4    1  0.4450588E+000  0.2017472E+03  0.7818608E-02  0.1148273E+00
         21   -1    0    0  503  502  0.00000000000E+00  0.00000000000E+00  0.12296025585E+03  0.12296025585E+03  0.00000000000E+00 0. -1.
         21   -1    0    0  501  503 -0.00000000000E+00 -0.00000000000E+00 -0.33129778874E+03  0.33129778874E+03  0.00000000000E+00 0. -1.
          6    1    1    2  501    0 -0.30963946846E+02  0.10079261252E+03 -0.97554707347E+02  0.22409559939E+03  0.17200000000E+03 0. -1.
         -6    1    1    2    0  502  0.30963946846E+02 -0.10079261252E+03 -0.11078282555E+03  0.23016244520E+03  0.17200000000E+03 0. -1.
</event>
<event>
 4    1  0.4450588E+000  0.1965315E+03  0.7818608E-02  0.1152699E+00
         21   -1    0    0  501  502  0.00000000000E+00  0.00000000000E+00  0.18840309729E+03  0.18840309729E+03  0.00000000000E+00 0.  1.
         21   -1    0    0  502  503 -0.00000000000E+00 -0.00000000000E+00 -0.35387724783E+03  0.35387724783E+03  0.00000000000E+00 0.  1.
          6    1    1    2  501    0 -0.80415304542E+02 -0.50734850228E+02  0.93122549460E+02  0.21747748263E+03  0.17200000000E+03 0.  1.
         -6    1    1    2    0  503  0.80415304542E+02  0.50734850228E+02 -0.25859670000E+03  0.32480286249E+03  0.17200000000E+03 0.  1.
</event>
<event>
 4    1  0.4450588E+000  0.2156511E+03  0.7818608E-02  0.1137168E+00
         21   -1    0    0  501  502  0.00000000000E+00  0.00000000000E+00  0.53415372366E+02  0.53415372366E+02  0.00000000000E+00 0. -1.
         21   -1    0    0  502  503 -0.00000000000E+00 -0.00000000000E+00 -0.87136948875E+03  0.87136948875E+03  0.00000000000E+00 0. -1.
          6    1    1    2  501    0 -0.58246778503E+02 -0.11631291916E+03 -0.39556778168E+03  0.45053218783E+03  0.17200000000E+03 0. -1.
         -6    1    1    2    0  503  0.58246778503E+02  0.11631291916E+03 -0.42238633470E+03  0.47425267328E+03  0.17200000000E+03 0. -1.
</event>
<event>
 4    1  0.4450588E+000  0.1875979E+03  0.7818608E-02  0.1160646E+00
         21   -1    0    0  503  502  0.00000000000E+00  0.00000000000E+00  0.13320876106E+03  0.13320876106E+03  0.00000000000E+00 0. -1.
         21   -1    0    0  501  503 -0.00000000000E+00 -0.00000000000E+00 -0.34084282906E+03  0.34084282906E+03  0.00000000000E+00 0. -1.
          6    1    1    2  501    0 -0.43614478358E+02 -0.60882929184E+02 -0.21621833248E+03  0.28625743849E+03  0.17200000000E+03 0. -1.
         -6    1    1    2    0  502  0.43614478358E+02  0.60882929184E+02  0.85842644796E+01  0.18779415163E+03  0.17200000000E+03 0. -1.
</event>
<event>
 4    1  0.4450588E+000  0.2207341E+03  0.7818608E-02  0.1133337E+00
         21   -1    0    0  501  502  0.00000000000E+00  0.00000000000E+00  0.30723077294E+03  0.30723077294E+03  0.00000000000E+00 0. -1.
         21   -1    0    0  502  503 -0.00000000000E+00 -0.00000000000E+00 -0.30475472489E+03  0.30475472489E+03  0.00000000000E+00 0. -1.
          6    1    1    2  501    0  0.42842372002E+02  0.13154498418E+03  0.21315124470E+03  0.30685013413E+03  0.17200000000E+03 0. -1.
         -6    1    1    2    0  503 -0.42842372002E+02 -0.13154498418E+03 -0.21067519664E+03  0.30513536370E+03  0.17200000000E+03 0. -1.
</event>
<event>
 4    1  0.4450588E+000  0.1756613E+03  0.7818608E-02  0.1172069E+00
         21   -1    0    0  503  502  0.00000000000E+00  0.00000000000E+00  0.45838034164E+03  0.45838034164E+03  0.00000000000E+00 0.  1.
         21   -1    0    0  501  503 -0.00000000000E+00 -0.00000000000E+00 -0.58768424930E+03  0.58768424930E+03  0.00000000000E+00 0.  1.
          6    1    1    2  501    0  0.13238131115E+02 -0.33130816175E+02 -0.55681767031E+03  0.58386883549E+03  0.17200000000E+03 0.  1.
         -6    1    1    2    0  502 -0.13238131115E+02  0.33130816175E+02  0.42751376264E+03  0.46219575544E+03  0.17200000000E+03 0.  1.
</event>
<event>
 4    1  0.4450588E+000  0.2148782E+03  0.7818608E-02  0.1137760E+00
         21   -1    0    0  503  502  0.00000000000E+00  0.00000000000E+00  0.10550790273E+04  0.10550790273E+04  0.00000000000E+00 0.  1.
         21   -1    0    0  501  503 -0.00000000000E+00 -0.00000000000E+00 -0.51078452387E+02  0.51078452387E+02  0.00000000000E+00 0. -1.
          6    1    1    2  501    0 -0.10835690955E+03 -0.69623322752E+02  0.29268010603E+03  0.36308989436E+03  0.17200000000E+03 0. -1.
         -6    1    1    2    0  502  0.10835690955E+03  0.69623322752E+02  0.71132046892E+03  0.74306758536E+03  0.17200000000E+03 0.  1.
</event>
<event>
 4    1  0.4450588E+000  0.1799246E+03  0.7818608E-02  0.1167876E+00
         21   -1    0    0  501  502  0.00000000000E+00  0.00000000000E+00  0.13151367218E+03  0.13151367218E+03  0.00000000000E+00 0.  1.
         21   -1    0    0  502  503 -0.00000000000E+00 -0.00000000000E+00 -0.34675231021E+03  0.34675231021E+03  0.00000000000E+00 0.  1.
          6    1    1    2  501    0 -0.27639391327E+02 -0.44999051930E+02  0.21182297635E+02  0.18116716137E+03  0.17200000000E+03 0.  1.
         -6    1    1    2    0  503  0.27639391327E+02  0.44999051930E+02 -0.23642093567E+03  0.29709882102E+03  0.17200000000E+03 0.  1.
</event>
<event>
 4    1  0.4450588E+000  0.1846647E+03  0.7818608E-02  0.1163363E+00
         21   -1    0    0  501  502  0.00000000000E+00  0.00000000000E+00  0.84026027258E+02  0.84026027258E+02  0.00000000000E+00 0.  1.
         21   -1    0    0  502  503 -0.00000000000E+00 -0.00000000000E+00 -0.48468908615E+03  0.48468908615E+03  0.00000000000E+00 0.  1.
          6    1    1    2  501    0 -0.11079494170E+02  0.66289513253E+02 -0.31502368608E+03  0.36515883880E+03  0.17200000000E+03 0.  1.
         -6    1    1    2    0  503  0.11079494170E+02 -0.66289513253E+02 -0.85639372811E+02  0.20355627461E+03  0.17200000000E+03 0.  1.
</event>
<event>
 4    1  0.4450588E+000  0.1810765E+03  0.7818608E-02  0.1166765E+00
         21   -1    0    0  501  502  0.00000000000E+00  0.00000000000E+00  0.32470982346E+02  0.32470982346E+02  0.00000000000E+00 0. -1.
         21   -1    0    0  502  503 -0.00000000000E+00 -0.00000000000E+00 -0.10295997355E+04  0.10295997355E+04  0.00000000000E+00 0. -1.
          6    1    1    2  501    0 -0.48108201948E+02  0.29837768076E+02 -0.42489450391E+03  0.46187014512E+03  0.17200000000E+03 0. -1.
         -6    1    1    2    0  503  0.48108201948E+02 -0.29837768076E+02 -0.57223424929E+03  0.60020057277E+03  0.17200000000E+03 0. -1.
</event>
<event>
 4    1  0.4450588E+000  0.2138900E+03  0.7818608E-02  0.1138522E+00
         21   -1    0    0  503  502  0.00000000000E+00  0.00000000000E+00  0.17933610592E+03  0.17933610592E+03  0.00000000000E+00 0. -1.
         21   -1    0    0  501  503 -0.00000000000E+00 -0.00000000000E+00 -0.28566416367E+03  0.28566416367E+03  0.00000000000E+00 0. -1.
          6    1    1    2  501    0  0.10708432271E+03  0.68541202069E+02 -0.12921230728E+03  0.24988951339E+03  0.17200000000E+03 0. -1.
         -6    1    1    2    0  502 -0.10708432271E+03 -0.68541202069E+02  0.22884249527E+02  0.21511075619E+03  0.17200000000E+03 0. -1.
</event>
<event>
 4    1  0.4450588E+000  0.1888431E+03  0.7818608E-02  0.1159509E+00
         21   -1    0    0  503  502  0.00000000000E+00  0.00000000000E+00  0.15299999282E+03  0.15299999282E+03  0.00000000000E+00 0.  1.
         21   -1    0    0  501  503 -0.00000000000E+00 -0.00000000000E+00 -0.25716135395E+03  0.25716135395E+03  0.00000000000E+00 0.  1.
          6    1    1    2  501    0 -0.76228172151E+02  0.16339866772E+02 -0.11483355459E+03  0.22101690147E+03  0.17200000000E+03 0.  1.
         -6    1    1    2    0  502  0.76228172151E+02 -0.16339866772E+02  0.10672193468E+02  0.18914444530E+03  0.17200000000E+03 0.  1.
</event>
<event>
 4    1  0.4450588E+000  0.1844575E+03  0.7818608E-02  0.1163557E+00
         21   -1    0    0  503  502  0.00000000000E+00  0.00000000000E+00  0.23165503499E+04  0.23165503499E+04  0.00000000000E+00 0.  1.
         21   -1    0    0  501  503 -0.00000000000E+00 -0.00000000000E+00 -0.15845379705E+02  0.15845379705E+02  0.00000000000E+00 0.  1.
          6    1    1    2  501    0 -0.50052341704E+02 -0.43992252915E+02  0.83511731295E+03  0.85524586033E+03  0.17200000000E+03 0.  1.
         -6    1    1    2    0  502  0.50052341704E+02  0.43992252915E+02  0.14655876573E+04  0.14771498693E+04  0.17200000000E+03 0.  1.
</event>
<event>
 4    1  0.4450588E+000  0.1758712E+03  0.7818608E-02  0.1171860E+00
         21   -1    0    0  503  502  0.00000000000E+00  0.00000000000E+00  0.30475493761E+03  0.30475493761E+03  0.00000000000E+00 0. -1.
         21   -1    0    0  501  503 -0.00000000000E+00 -0.00000000000E+00 -0.11425034148E+03  0.11425034148E+03  0.00000000000E+00 0. -1.
          6    1    1    2  501    0 -0.35815517656E+02 -0.79949830697E+01  0.25247004014E+02  0.17767409004E+03  0.17200000000E+03 0. -1.
         -6    1    1    2    0  502  0.35815517656E+02  0.79949830697E+01  0.16525759211E+03  0.24133118905E+03  0.17200000000E+03 0. -1.
</event>
<event>
 4    1  0.4450588E+000  0.2349761E+03  0.7818608E-02  0.1123186E+00
         21   -1    0    0  503  502  0.00000000000E+00  0.00000000000E+00  0.48387061483E+03  0.48387061483E+03  0.00000000000E+00 0. -1.
         21   -1    0    0  501  503 -0.00000000000E+00 -0.00000000000E+00 -0.11504643828E+03  0.11504643828E+03  0.00000000000E+00 0.  1.
          6    1    1    2  501    0 -0.12207266181E+03 -0.10357629394E+03  0.21144988242E+03  0.31610889928E+03  0.17200000000E+03 0. -1.
         -6    1    1    2    0  502  0.12207266181E+03  0.10357629394E+03  0.15737429413E+03  0.28280815384E+03  0.17200000000E+03 0. -1.
</event>
<event>
 4    1  0.4450588E+000  0.1808970E+03  0.7818608E-02  0.1166938E+00
         21   -1    0    0  501  502  0.00000000000E+00  0.00000000000E+00  0.17078271389E+03  0.17078271389E+03  0.00000000000E+00 0.  1.
         21   -1    0    0  502  503 -0.00000000000E+00 -0.00000000000E+00 -0.26701639130E+03  0.26701639130E+03  0.00000000000E+00 0. -1.
          6    1    1    2  501    0  0.31670635794E+02 -0.46224322372E+02  0.68209830871E+02  0.19332950674E+03  0.17200000000E+03 0.  1.
         -6    1    1    2    0  503 -0.31670635794E+02  0.46224322372E+02 -0.16444350828E+03  0.24446959845E+03  0.17200000000E+03 0. -1.
</event>
<event>
 4    1  0.4450588E+000  0.1770789E+03  0.7818608E-02  0.1170660E+00
         21   -1    0    0  503  502  0.00000000000E+00  0.00000000000E+00  0.12747089096E+04  0.12747089096E+04  0.00000000000E+00 0.  1.
         21   -1    0    0  501  503 -0.00000000000E+00 -0.00000000000E+00 -0.25035682210E+02  0.25035682210E+02  0.00000000000E+00 0.  1.
          6    1    1    2  501    0  0.42089516298E+02 -0.11860537869E+01  0.53903670733E+03  0.56737774538E+03  0.17200000000E+03 0.  1.
         -6    1    1    2    0  502 -0.42089516298E+02  0.11860537869E+01  0.71063652009E+03  0.73236684646E+03  0.17200000000E+03 0.  1.
</event>
<event>
 4    1  0.4450588E+000  0.1979447E+03  0.7818608E-02  0.1151485E+00
         21   -1    0    0  503  502  0.00000000000E+00  0.00000000000E+00  0.47448800603E+02  0.47448800603E+02  0.00000000000E+00 0. -1.
         21   -1    0    0  501  503 -0.00000000000E+00 -0.00000000000E+00 -0.85686394278E+03  0.85686394278E+03  0.00000000000E+00 0. -1.
          6    1    1    2  501    0 -0.90392917664E+02  0.37778800600E+02 -0.49083139996E+03  0.52924245911E+03  0.17200000000E+03 0. -1.
         -6    1    1    2    0  502  0.90392917664E+02 -0.37778800600E+02 -0.31858374222E+03  0.37507028427E+03  0.17200000000E+03 0. -1.
</event>
<event>
 4    1  0.4450588E+000  0.1946040E+03  0.7818608E-02  0.1154373E+00
         21   -1    0    0  503  502  0.00000000000E+00  0.00000000000E+00  0.32904124806E+03  0.32904124806E+03  0.00000000000E+00 0.  1.
         21   -1    0    0  501  503 -0.00000000000E+00 -0.00000000000E+00 -0.11867509106E+03  0.11867509106E+03  0.00000000000E+00 0. -1.
          6    1    1    2  501    0 -0.63584896851E+02 -0.65143397849E+02  0.14406929468E+03  0.24212943452E+03  0.17200000000E+03 0.  1.
         -6    1    1    2    0  502  0.63584896851E+02  0.65143397849E+02  0.66296862316E+02  0.20558690460E+03  0.17200000000E+03 0. -1.
</event>
<event>
 4    1  0.4450588E+000  0.2204768E+03  0.7818608E-02  0.1133528E+00
         21   -1    0    0  501  502  0.00000000000E+00  0.00000000000E+00  0.40203698043E+03  0.40203698043E+03  0.00000000000E+00 0.  1.
         21   -1    0    0  502  503 -0.00000000000E+00 -0.00000000000E+00 -0.33862849217E+03  0.33862849217E+03  0.00000000000E+00 0.  1.
          6    1    1    2  501    0 -0.10663018280E+03 -0.87498638218E+02  0.32865109129E+03  0.39575440286E+03  0.17200000000E+03 0.  1.
         -6    1    1    2    0  503  0.10663018280E+03  0.87498638218E+02 -0.26524260302E+03  0.34491106974E+03  0.17200000000E+03 0.  1.
</event>
<event>
 4    1  0.4450588E+000  0.1899342E+03  0.7818608E-02  0.1158521E+00
         21   -1    0    0  501  502  0.00000000000E+00  0.00000000000E+00  0.21733003026E+03  0.21733003026E+03  0.00000000000E+00 0.  1.
         21   -1    0    0  502  503 -0.00000000000E+00 -0.00000000000E+00 -0.24536154252E+03  0.24536154252E+03  0.00000000000E+00 0.  1.
          6    1    1    2  501    0 -0.57820786537E+02  0.56104938665E+02  0.11756299963E+03  0.22337427421E+03  0.17200000000E+03 0.  1.
         -6    1    1    2    0  503  0.57820786537E+02 -0.56104938665E+02 -0.14559451190E+03  0.23931729857E+03  0.17200000000E+03 0.  1.
</event>
<event>
 4    1  0.4450588E+000  0.2679664E+03  0.7818608E-02  0.1102449E+00
         21   -1    0    0  501  502  0.00000000000E+00  0.00000000000E+00  0.42095258066E+03  0.42095258066E+03  0.00000000000E+00 0.  1.
         21   -1    0    0  502  503 -0.00000000000E+00 -0.00000000000E+00 -0.23722919112E+03  0.23722919112E+03  0.00000000000E+00 0.  1.
          6    1    1    2  501    0 -0.29644252515E+01  0.20545854247E+03  0.26629521060E+03  0.37778186785E+03  0.17200000000E+03 0.  1.
         -6    1    1    2    0  503  0.29644252515E+01 -0.20545854247E+03 -0.82571821053E+02  0.28039990393E+03  0.17200000000E+03 0.  1.
</event>
<event>
 4    1  0.4450588E+000  0.1859667E+03  0.7818608E-02  0.1162150E+00
         21   -1    0    0  503  502  0.00000000000E+00  0.00000000000E+00  0.47419268950E+03  0.47419268950E+03  0.00000000000E+00 0. -1.
         21   -1    0    0  501  503 -0.00000000000E+00 -0.00000000000E+00 -0.18513805765E+03  0.18513805765E+03  0.00000000000E+00 0.  1.
          6    1    1    2  501    0  0.30001620733E+02 -0.64027544131E+02 -0.11211864872E+03  0.21715021309E+03  0.17200000000E+03 0.  1.
         -6    1    1    2    0  502 -0.30001620733E+02  0.64027544131E+02  0.40117328057E+03  0.44218053405E+03  0.17200000000E+03 0. -1.
</event>
<event>
 4    1  0.4450588E+000  0.1940018E+03  0.7818608E-02  0.1154901E+00
         21   -1    0    0  501  502  0.00000000000E+00  0.00000000000E+00  0.98268150180E+02  0.98268150180E+02  0.00000000000E+00 0. -1.
         21   -1    0    0  502  503 -0.00000000000E+00 -0.00000000000E+00 -0.38937637489E+03  0.38937637489E+03  0.00000000000E+00 0.  1.
          6    1    1    2  501    0 -0.89453130615E+02  0.71286697091E+01 -0.11435208878E+03  0.22519564986E+03  0.17200000000E+03 0.  1.
         -6    1    1    2    0  503  0.89453130615E+02 -0.71286697091E+01 -0.17675613593E+03  0.26244887521E+03  0.17200000000E+03 0. -1.
</event>
<event>
 4    1  0.4450588E+000  0.2665237E+03  0.7818608E-02  0.1103286E+00
         21   -1    0    0  503  502  0.00000000000E+00  0.00000000000E+00  0.47453551019E+03  0.47453551019E+03  0.00000000000E+00 0. -1.
         21   -1    0    0  501  503 -0.00000000000E+00 -0.00000000000E+00 -0.21771603815E+03  0.21771603815E+03  0.00000000000E+00 0. -1.
          6    1    1    2  501    0  0.23428477377E+02  0.20224239714E+03 -0.65060940178E+02  0.27434978893E+03  0.17200000000E+03 0. -1.
         -6    1    1    2    0  502 -0.23428477377E+02 -0.20224239714E+03  0.32188041221E+03  0.41790175941E+03  0.17200000000E+03 0. -1.
</event>
<event>
 4    1  0.4450588E+000  0.1969115E+03  0.7818608E-02  0.1152371E+00
         21   -1    0    0  503  502  0.00000000000E+00  0.00000000000E+00  0.81859294069E+02  0.81859294069E+02  0.00000000000E+00 0.  1.
         21   -1    0    0  501  503 -0.00000000000E+00 -0.00000000000E+00 -0.55401374456E+03  0.55401374456E+03  0.00000000000E+00 0. -1.
          6    1    1    2  501    0  0.36430935561E+02 -0.88673184998E+02 -0.35715403470E+03  0.40783961469E+03  0.17200000000E+03 0. -1.
         -6    1    1    2    0  502 -0.36430935561E+02  0.88673184998E+02 -0.11500041579E+03  0.22803342394E+03  0.17200000000E+03 0.  1.
</event>
<event>
 4    1  0.4450588E+000  0.2352067E+03  0.7818608E-02  0.1123028E+00
         21   -1    0    0  501  502  0.00000000000E+00  0.00000000000E+00  0.29504825858E+03  0.29504825858E+03  0.00000000000E+00 0. -1.
         21   -1    0    0  502  503 -0.00000000000E+00 -0.00000000000E+00 -0.37658697312E+03  0.37658697312E+03  0.00000000000E+00 0.  1.
          6    1    1    2  501    0  0.15357246677E+03 -0.46408008584E+02  0.19718796545E+03  0.30692881834E+03  0.17200000000E+03 0. -1.
         -6    1    1    2    0  503 -0.15357246677E+03  0.46408008584E+02 -0.27872667999E+03  0.36470641336E+03  0.17200000000E+03 0.  1.
</event>
<event>
 4    1  0.4450588E+000  0.2328616E+03  0.7818608E-02  0.1124642E+00
         21   -1    0    0  501  502  0.00000000000E+00  0.00000000000E+00  0.65336658611E+03  0.65336658611E+03  0.00000000000E+00 0.  1.
         21   -1    0    0  502  503 -0.00000000000E+00 -0.00000000000E+00 -0.83898770653E+02  0.83898770653E+02  0.00000000000E+00 0. -1.
          6    1    1    2  501    0  0.68034719935E+02  0.14146311194E+03  0.32304652128E+03  0.39822555175E+03  0.17200000000E+03 0. -1.
         -6    1    1    2    0  503 -0.68034719935E+02 -0.14146311194E+03  0.24642129417E+03  0.33903980501E+03  0.17200000000E+03 0.  1.
</event>
<event>
 4    1  0.4450588E+000  0.1733370E+03  0.7818608E-02  0.1174412E+00
         21   -1    0    0  501  502  0.00000000000E+00  0.00000000000E+00  0.40530145462E+03  0.40530145462E+03  0.00000000000E+00 0. -1.
         21   -1    0    0  502  503 -0.00000000000E+00 -0.00000000000E+00 -0.11270967146E+03  0.11270967146E+03  0.00000000000E+00 0. -1.
          6    1    1    2  501    0  0.21473310775E+02 -0.77471910145E+00  0.29782565738E+03  0.34459516169E+03  0.17200000000E+03 0. -1.
         -6    1    1    2    0  503 -0.21473310775E+02  0.77471910145E+00 -0.52338742203E+01  0.17341596439E+03  0.17200000000E+03 0. -1.
</event>
<event>
 4    1  0.4450588E+000  0.2104572E+03  0.7818608E-02  0.1141204E+00
         21   -1    0    0  501  502  0.00000000000E+00  0.00000000000E+00  0.97796102097E+02  0.97796102097E+02  0.00000000000E+00 0. -1.
         21   -1    0    0  502  503 -0.00000000000E+00 -0.00000000000E+00 -0.52163320689E+03  0.52163320689E+03  0.00000000000E+00 0.  1.
          6    1    1    2  501    0  0.47480790369E+02 -0.11159671505E+03 -0.99496994874E+02  0.23279154678E+03  0.17200000000E+03 0. -1.
         -6    1    1    2    0  503 -0.47480790369E+02  0.11159671505E+03 -0.32434010992E+03  0.38663776221E+03  0.17200000000E+03 0.  1.
</event>
<event>
 4    1  0.4450588E+000  0.1924785E+03  0.7818608E-02  0.1156245E+00
         21   -1    0    0  501  502  0.00000000000E+00  0.00000000000E+00  0.50979529312E+02  0.50979529312E+02  0.00000000000E+00 0. -1.
         21   -1    0    0  502  503 -0.00000000000E+00 -0.00000000000E+00 -0.72753788630E+03  0.72753788630E+03  0.00000000000E+00 0.  1.
          6    1    1    2  501    0  0.85843906026E+02 -0.97358883272E+01 -0.32524660464E+03  0.37793295378E+03  0.17200000000E+03 0.  1.
         -6    1    1    2    0  503 -0.85843906026E+02  0.97358883272E+01 -0.35131175235E+03  0.40058446183E+03  0.17200000000E+03 0.  1.
</event>
<event>
 4    1  0.4450588E+000  0.1799005E+03  0.7818608E-02  0.1167899E+00
         21   -1    0    0  503  502  0.00000000000E+00  0.00000000000E+00  0.41554712906E+03  0.41554712906E+03  0.00000000000E+00 0.  1.
         21   -1    0    0  501  503 -0.00000000000E+00 -0.00000000000E+00 -0.78265091305E+02  0.78265091305E+02  0.00000000000E+00 0.  1.
          6    1    1    2  501    0  0.11021440269E+02 -0.51562622152E+02  0.15139581127E+03  0.23512734383E+03  0.17200000000E+03 0.  1.
         -6    1    1    2    0  502 -0.11021440269E+02  0.51562622152E+02  0.18588622649E+03  0.25868487653E+03  0.17200000000E+03 0.  1.
</event>
<event>
 4    1  0.4450588E+000  0.1966401E+03  0.7818608E-02  0.1152605E+00
         21   -1    0    0  501  502  0.00000000000E+00  0.00000000000E+00  0.15081911949E+03  0.15081911949E+03  0.00000000000E+00 0.  1.
         21   -1    0    0  502  503 -0.00000000000E+00 -0.00000000000E+00 -0.28758924051E+03  0.28758924051E+03  0.00000000000E+00 0. -1.
          6    1    1    2  501    0  0.50938901109E+02 -0.80551601026E+02  0.38235626860E+01  0.19667727806E+03  0.17200000000E+03 0.  1.
         -6    1    1    2    0  503 -0.50938901109E+02  0.80551601026E+02 -0.14059368371E+03  0.24173108193E+03  0.17200000000E+03 0. -1.
</event>
<event>
 4    1  0.4450588E+000  0.1759364E+03  0.7818608E-02  0.1171795E+00
         21   -1    0    0  503  502  0.00000000000E+00  0.00000000000E+00  0.41660338526E+03  0.41660338526E+03  0.00000000000E+00 0.  1.
         21   -1    0    0  501  503 -0.00000000000E+00 -0.00000000000E+00 -0.83417012298E+02  0.83417012298E+02  0.00000000000E+00 0.  1.
          6    1    1    2  501    0 -0.27027606369E+02  0.25281178071E+02  0.83940533578E+02  0.19493497031E+03  0.17200000000E+03 0.  1.
         -6    1    1    2    0  502  0.27027606369E+02 -0.25281178071E+02  0.24924583938E+03  0.30508542725E+03  0.17200000000E+03 0.  1.
</event>
<event>
 4    1  0.4450588E+000  0.2254765E+03  0.7818608E-02  0.1129865E+00
         21   -1    0    0  503  502  0.00000000000E+00  0.00000000000E+00  0.30401311008E+03  0.30401311008E+03  0.00000000000E+00 0.  1.
         21   -1    0    0  501  503 -0.00000000000E+00 -0.00000000000E+00 -0.22934375604E+03  0.22934375604E+03  0.00000000000E+00 0. -1.
          6    1    1    2  501    0 -0.16584703330E+02  0.14484677780E+03 -0.10145071167E+03  0.24724863664E+03  0.17200000000E+03 0.  1.
         -6    1    1    2    0  502  0.16584703330E+02 -0.14484677780E+03  0.17612006572E+03  0.28610822947E+03  0.17200000000E+03 0.  1.
</event>
<event>
 4    1  0.4450588E+000  0.2030667E+03  0.7818608E-02  0.1147177E+00
         21   -1    0    0  501  502  0.00000000000E+00  0.00000000000E+00  0.12442604276E+03  0.12442604276E+03  0.00000000000E+00 0.  1.
         21   -1    0    0  502  503 -0.00000000000E+00 -0.00000000000E+00 -0.55204268546E+03  0.55204268546E+03  0.00000000000E+00 0.  1.
          6    1    1    2  501    0 -0.59320169070E+02 -0.90184156193E+02  0.20425235753E-01  0.20306665138E+03  0.17200000000E+03 0.  1.
         -6    1    1    2    0  503  0.59320169070E+02  0.90184156193E+02 -0.42763706793E+03  0.47340207684E+03  0.17200000000E+03 0.  1.
</event>
<event>
 4    1  0.4450588E+000  0.1776541E+03  0.7818608E-02  0.1170093E+00
         21   -1    0    0  503  502  0.00000000000E+00  0.00000000000E+00  0.89536365511E+02  0.89536365511E+02  0.00000000000E+00 0.  1.
         21   -1    0    0  501  503 -0.00000000000E+00 -0.00000000000E+00 -0.11701101488E+04  0.11701101488E+04  0.00000000000E+00 0.  1.
          6    1    1    2  501    0  0.20460457039E+02 -0.39476054631E+02 -0.10667648294E+04  0.10814565135E+04  0.17200000000E+03 0.  1.
         -6    1    1    2    0  502 -0.20460457039E+02  0.39476054631E+02 -0.13808953841E+02  0.17819000084E+03  0.17200000000E+03 0.  1.
</event>
<event>
 4    1  0.4450588E+000  0.2131830E+03  0.7818608E-02  0.1139070E+00
         21   -1    0    0  501  502  0.00000000000E+00  0.00000000000E+00  0.18016107689E+02  0.18016107689E+02  0.00000000000E+00 0. -1.
         21   -1    0    0  502  503 -0.00000000000E+00 -0.00000000000E+00 -0.29659435321E+04  0.29659435321E+04  0.00000000000E+00 0.  1.
          6    1    1    2  501    0  0.71651710478E+02 -0.10358096993E+03 -0.89711239861E+03  0.92209416042E+03  0.17200000000E+03 0. -1.
         -6    1    1    2    0  503 -0.71651710478E+02  0.10358096993E+03 -0.20508150258E+04  0.20618654793E+04  0.17200000000E+03 0.  1.
</event>
<event>
 4    1  0.4450588E+000  0.3577619E+03  0.7818608E-02  0.1059474E+00
         21   -1    0    0  501  502  0.00000000000E+00  0.00000000000E+00  0.21174507638E+03  0.21174507638E+03  0.00000000000E+00 0.  1.
         21   -1    0    0  502  503 -0.00000000000E+00 -0.00000000000E+00 -0.67798041628E+03  0.67798041628E+03  0.00000000000E+00 0.  1.
          6    1    1    2  501    0  0.17172061875E+03 -0.26252925784E+03 -0.86633260184E+02  0.36810175753E+03  0.17200000000E+03 0.  1.
         -6    1    1    2    0  503 -0.17172061875E+03  0.26252925784E+03 -0.37960207972E+03  0.52162373513E+03  0.17200000000E+03 0.  1.
</event>
<event>
 4    1  0.4450588E+000  0.1833474E+03  0.7818608E-02  0.1164602E+00
         21   -1    0    0  501  502  0.00000000000E+00  0.00000000000E+00  0.13345796152E+03  0.13345796152E+03  0.00000000000E+00 0.  1.
         21   -1    0    0  502  503 -0.00000000000E+00 -0.00000000000E+00 -0.31284864633E+03  0.31284864633E+03  0.00000000000E+00 0.  1.
          6    1    1    2  501    0 -0.56166940694E+02 -0.29623373450E+02 -0.18820209932E+03  0.26274759689E+03  0.17200000000E+03 0.  1.
         -6    1    1    2    0  503  0.56166940694E+02  0.29623373450E+02  0.88114145137E+01  0.18355901097E+03  0.17200000000E+03 0.  1.
</event>
<event>
 4    1  0.4450588E+000  0.1852694E+03  0.7818608E-02  0.1162799E+00
         21   -1    0    0  501  502  0.00000000000E+00  0.00000000000E+00  0.12734429688E+03  0.12734429688E+03  0.00000000000E+00 0.  1.
         21   -1    0    0  502  503 -0.00000000000E+00 -0.00000000000E+00 -0.32099152879E+03  0.32099152879E+03  0.00000000000E+00 0.  1.
          6    1    1    2  501    0  0.36260299515E+02 -0.58531643272E+02 -0.18656921970E+03  0.26293123878E+03  0.17200000000E+03 0.  1.
         -6    1    1    2    0  503 -0.36260299515E+02  0.58531643272E+02 -0.70780122010E+01  0.18540458690E+03  0.17200000000E+03 0.  1.
</event>
<event>
 4    1  0.4450588E+000  0.3147734E+03  0.7818608E-02  0.1078080E+00
         21   -1    0    0  501  502  0.00000000000E+00  0.00000000000E+00  0.50071100841E+03  0.50071100841E+03  0.00000000000E+00 0.  1.
         21   -1    0    0  502  503 -0.00000000000E+00 -0.00000000000E+00 -0.25705500624E+03  0.25705500624E+03  0.00000000000E+00 0. -1.
          6    1    1    2  501    0 -0.25254368645E+03 -0.75630414080E+02  0.30360950006E+03  0.43733397036E+03  0.17200000000E+03 0.  1.
         -6    1    1    2    0  503  0.25254368645E+03  0.75630414080E+02 -0.59953497889E+02  0.32043204429E+03  0.17200000000E+03 0.  1.
</event>
<event>
 4    1  0.4450588E+000  0.1749550E+03  0.7818608E-02  0.1172777E+00
         21   -1    0    0  501  502  0.00000000000E+00  0.00000000000E+00  0.10953191656E+04  0.10953191656E+04  0.00000000000E+00 0. -1.
         21   -1    0    0  502  503 -0.00000000000E+00 -0.00000000000E+00 -0.41001355442E+02  0.41001355442E+02  0.00000000000E+00 0. -1.
          6    1    1    2  501    0  0.19445071717E+02  0.25438898804E+02  0.84776687377E+03  0.86563151551E+03  0.17200000000E+03 0.  1.
         -6    1    1    2    0  503 -0.19445071717E+02 -0.25438898804E+02  0.20655093634E+03  0.27068900548E+03  0.17200000000E+03 0.  1.
</event>
<event>
 4    1  0.4450588E+000  0.1873842E+03  0.7818608E-02  0.1160842E+00
         21   -1    0    0  501  502  0.00000000000E+00  0.00000000000E+00  0.39923887629E+02  0.39923887629E+02  0.00000000000E+00 0.  1.
         21   -1    0    0  502  503 -0.00000000000E+00 -0.00000000000E+00 -0.92374615591E+03  0.92374615591E+03  0.00000000000E+00 0.  1.
          6    1    1    2  501    0 -0.41182048036E+02  0.61910379605E+02 -0.33645186319E+03  0.38511389540E+03  0.17200000000E+03 0.  1.
         -6    1    1    2    0  503  0.41182048036E+02 -0.61910379605E+02 -0.54737040510E+03  0.57855614815E+03  0.17200000000E+03 0.  1.
</event>
<event>
 4    1  0.4450588E+000  0.2832618E+03  0.7818608E-02  0.1093921E+00
         21   -1    0    0  501  502  0.00000000000E+00  0.00000000000E+00  0.11712879429E+04  0.11712879429E+04  0.00000000000E+00 0. -1.
         21   -1    0    0  502  503 -0.00000000000E+00 -0.00000000000E+00 -0.77124446960E+02  0.77124446960E+02  0.00000000000E+00 0.  1.
          6    1    1    2  501    0 -0.16040193336E+03  0.15787480543E+03  0.75577646118E+03  0.80711541534E+03  0.17200000000E+03 0. -1.
         -6    1    1    2    0  503  0.16040193336E+03 -0.15787480543E+03  0.33838703472E+03  0.44129697447E+03  0.17200000000E+03 0.  1.
</event>
<event>
 4    1  0.4450588E+000  0.2190234E+03  0.7818608E-02  0.1134613E+00
         21   -1    0    0  503  502  0.00000000000E+00  0.00000000000E+00  0.56602939107E+03  0.56602939107E+03  0.00000000000E+00 0.  1.
         21   -1    0    0  501  503 -0.00000000000E+00 -0.00000000000E+00 -0.88564987277E+02  0.88564987277E+02  0.00000000000E+00 0. -1.
          6    1    1    2  501    0 -0.12831475548E+03 -0.43847281387E+02  0.30665736208E+03  0.37684213973E+03  0.17200000000E+03 0.  1.
         -6    1    1    2    0  502  0.12831475548E+03  0.43847281387E+02  0.17080704172E+03  0.27775223862E+03  0.17200000000E+03 0. -1.
</event>
<event>
 4    1  0.4450588E+000  0.2086211E+03  0.7818608E-02  0.1142663E+00
         21   -1    0    0  501  502  0.00000000000E+00  0.00000000000E+00  0.10526214401E+04  0.10526214401E+04  0.00000000000E+00 0. -1.
         21   -1    0    0  502  503 -0.00000000000E+00 -0.00000000000E+00 -0.41352378032E+02  0.41352378032E+02  0.00000000000E+00 0. -1.
          6    1    1    2  501    0  0.28536533161E+02  0.11456184846E+03  0.49940333602E+03  0.54122679430E+03  0.17200000000E+03 0.  1.
         -6    1    1    2    0  503 -0.28536533161E+02 -0.11456184846E+03  0.51186572609E+03  0.55274702386E+03  0.17200000000E+03 0.  1.
</event>
<event>
 4    1  0.4450588E+000  0.1896149E+03  0.7818608E-02  0.1158809E+00
         21   -1    0    0  503  502  0.00000000000E+00  0.00000000000E+00  0.54094668846E+03  0.54094668846E+03  0.00000000000E+00 0. -1.
         21   -1    0    0  501  503 -0.00000000000E+00 -0.00000000000E+00 -0.10858637685E+03  0.10858637685E+03  0.00000000000E+00 0. -1.
          6    1    1    2  501    0 -0.13304929083E+02  0.78694390686E+02  0.13907712816E+02  0.19012430865E+03  0.17200000000E+03 0. -1.
         -6    1    1    2    0  502  0.13304929083E+02 -0.78694390686E+02  0.41845259879E+03  0.45940875667E+03  0.17200000000E+03 0. -1.
</event>
<event>
 4    1  0.4450588E+000  0.1774212E+03  0.7818608E-02  0.1170322E+00
         21   -1    0    0  503  502  0.00000000000E+00  0.00000000000E+00  0.27904988636E+02  0.27904988636E+02  0.00000000000E+00 0.  1.
         21   -1    0    0  501  503 -0.00000000000E+00 -0.00000000000E+00 -0.19326095671E+04  0.19326095671E+04  0.00000000000E+00 0.  1.
          6    1    1    2  501    0 -0.29002945087E+02 -0.32451500692E+02 -0.31987250697E+03  0.36578230061E+03  0.17200000000E+03 0.  1.
         -6    1    1    2    0  502  0.29002945087E+02  0.32451500692E+02 -0.15848320715E+04  0.15947322551E+04  0.17200000000E+03 0.  1.
</event>
<event>
 4    1  0.4450588E+000  0.2138812E+03  0.7818608E-02  0.1138529E+00
         21   -1    0    0  503  502  0.00000000000E+00  0.00000000000E+00  0.22348518281E+02  0.22348518281E+02  0.00000000000E+00 0.  1.
         21   -1    0    0  501  503 -0.00000000000E+00 -0.00000000000E+00 -0.20842177274E+04  0.20842177274E+04  0.00000000000E+00 0.  1.
          6    1    1    2  501    0 -0.70339138449E+02 -0.10589409627E+03 -0.11718759715E+04  0.11912340016E+04  0.17200000000E+03 0.  1.
         -6    1    1    2    0  502  0.70339138449E+02  0.10589409627E+03 -0.88999323764E+03  0.91533224409E+03  0.17200000000E+03 0.  1.
</event>
<event>
 4    1  0.4450588E+000  0.1777431E+03  0.7818608E-02  0.1170005E+00
         21   -1    0    0  503  502  0.00000000000E+00  0.00000000000E+00  0.52397254749E+03  0.52397254749E+03  0.00000000000E+00 0. -1.
         21   -1    0    0  501  503 -0.00000000000E+00 -0.00000000000E+00 -0.16665065886E+03  0.16665065886E+03  0.00000000000E+00 0. -1.
          6    1    1    2  501    0 -0.13997578670E+02  0.42575570831E+02 -0.97199337978E+02  0.20258411276E+03  0.17200000000E+03 0. -1.
         -6    1    1    2    0  502  0.13997578670E+02 -0.42575570831E+02  0.45452122660E+03  0.48803909359E+03  0.17200000000E+03 0. -1.
</event>
<event>
 4    1  0.4450588E+000  0.1800356E+03  0.7818608E-02  0.1167769E+00
         21   -1    0    0  501  502  0.00000000000E+00  0.00000000000E+00  0.24066739838E+03  0.24066739838E+03  0.00000000000E+00 0. -1.
         21   -1    0    0  502  503 -0.00000000000E+00 -0.00000000000E+00 -0.24878077795E+03  0.24878077795E+03  0.00000000000E+00 0. -1.
          6    1    1    2  501    0 -0.45102435860E+02  0.28188703384E+02  0.16167845332E+03  0.24197676538E+03  0.17200000000E+03 0. -1.
         -6    1    1    2    0  503  0.45102435860E+02 -0.28188703384E+02 -0.16979183289E+03  0.24747141094E+03  0.17200000000E+03 0. -1.
</event>
<event>
 4    1  0.4450588E+000  0.2057797E+03  0.7818608E-02  0.1144952E+00
         21   -1    0    0  501  502  0.00000000000E+00  0.00000000000E+00  0.62693409978E+02  0.62693409978E+02  0.00000000000E+00 0. -1.
         21   -1    0    0  502  503 -0.00000000000E+00 -0.00000000000E+00 -0.67782008541E+03  0.67782008541E+03  0.00000000000E+00 0. -1.
          6    1    1    2  501    0  0.33069351344E+02  0.10801715929E+03 -0.32952919081E+03  0.38850325133E+03  0.17200000000E+03 0. -1.
         -6    1    1    2    0  503 -0.33069351344E+02 -0.10801715929E+03 -0.28559748463E+03  0.35201024406E+03  0.17200000000E+03 0. -1.
</event>
<event>
 4    1  0.4450588E+000  0.2137384E+03  0.7818608E-02  0.1138639E+00
         21   -1    0    0  503  502  0.00000000000E+00  0.00000000000E+00  0.14752166881E+03  0.14752166881E+03  0.00000000000E+00 0. -1.
         21   -1    0    0  501  503 -0.00000000000E+00 -0.00000000000E+00 -0.38898115228E+03  0.38898115228E+03  0.00000000000E+00 0.  1.
          6    1    1    2  501    0  0.11617425542E+03  0.51025971003E+02 -0.24185228052E+03  0.32276405149E+03  0.17200000000E+03 0.  1.
         -6    1    1    2    0  502 -0.11617425542E+03 -0.51025971003E+02  0.39279706288E+00  0.21373876960E+03  0.17200000000E+03 0. -1.
</event>
<event>
 4    1  0.4450588E+000  0.2429423E+03  0.7818608E-02  0.1117848E+00
         21   -1    0    0  503  502  0.00000000000E+00  0.00000000000E+00  0.37747127657E+03  0.37747127657E+03  0.00000000000E+00 0.  1.
         21   -1    0    0  501  503 -0.00000000000E+00 -0.00000000000E+00 -0.23948580179E+03  0.23948580179E+03  0.00000000000E+00 0. -1.
          6    1    1    2  501    0 -0.16305330918E+03 -0.53390862415E+02 -0.11274957917E+03  0.26783097921E+03  0.17200000000E+03 0. -1.
         -6    1    1    2    0  502  0.16305330918E+03  0.53390862415E+02  0.25073505395E+03  0.34912609914E+03  0.17200000000E+03 0.  1.
</event>
<event>
 4    1  0.4450588E+000  0.1810527E+03  0.7818608E-02  0.1166788E+00
         21   -1    0    0  503  502  0.00000000000E+00  0.00000000000E+00  0.23848659929E+03  0.23848659929E+03  0.00000000000E+00 0. -1.
         21   -1    0    0  501  503 -0.00000000000E+00 -0.00000000000E+00 -0.13813148460E+03  0.13813148460E+03  0.00000000000E+00 0. -1.
          6    1    1    2  501    0 -0.45688903443E+02 -0.33295699721E+02  0.63400373455E+02  0.19183244478E+03  0.17200000000E+03 0. -1.
         -6    1    1    2    0  502  0.45688903443E+02  0.33295699721E+02  0.36954741236E+02  0.18478563910E+03  0.17200000000E+03 0. -1.
</event>
<event>
 4    1  0.4450588E+000  0.2285190E+03  0.7818608E-02  0.1127686E+00
         21   -1    0    0  503  502  0.00000000000E+00  0.00000000000E+00  0.49685871307E+02  0.49685871307E+02  0.00000000000E+00 0. -1.
         21   -1    0    0  501  503 -0.00000000000E+00 -0.00000000000E+00 -0.10884514254E+04  0.10884514254E+04  0.00000000000E+00 0. -1.
          6    1    1    2  501    0 -0.14643199324E+03  0.34563211923E+02 -0.62491052348E+03  0.66538267682E+03  0.17200000000E+03 0. -1.
         -6    1    1    2    0  502  0.14643199324E+03 -0.34563211923E+02 -0.41385503065E+03  0.47275461992E+03  0.17200000000E+03 0. -1.
</event>
<event>
 4    1  0.4450588E+000  0.1873383E+03  0.7818608E-02  0.1160884E+00
         21   -1    0    0  503  502  0.00000000000E+00  0.00000000000E+00  0.53804080443E+02  0.53804080443E+02  0.00000000000E+00 0.  1.
         21   -1    0    0  501  503 -0.00000000000E+00 -0.00000000000E+00 -0.16033359058E+04  0.16033359058E+04  0.00000000000E+00 0.  1.
          6    1    1    2  501    0 -0.73691539734E+02 -0.90100248498E+01 -0.14129099282E+04  0.14252754431E+04  0.17200000000E+03 0.  1.
         -6    1    1    2    0  502  0.73691539734E+02  0.90100248498E+01 -0.13662189718E+03  0.23186454314E+03  0.17200000000E+03 0.  1.
</event>
<event>
 4    1  0.4450588E+000  0.1854041E+03  0.7818608E-02  0.1162673E+00
         21   -1    0    0  501  502  0.00000000000E+00  0.00000000000E+00  0.24931658486E+03  0.24931658486E+03  0.00000000000E+00 0.  1.
         21   -1    0    0  502  503 -0.00000000000E+00 -0.00000000000E+00 -0.13802828214E+03  0.13802828214E+03  0.00000000000E+00 0.  1.
          6    1    1    2  501    0  0.27825037012E+02  0.63375313526E+02  0.62086419425E+02  0.19552336568E+03  0.17200000000E+03 0.  1.
         -6    1    1    2    0  503 -0.27825037012E+02 -0.63375313526E+02  0.49201883288E+02  0.19182150132E+03  0.17200000000E+03 0.  1.
</event>
<event>
 4    1  0.4450588E+000  0.1726094E+03  0.7818608E-02  0.1175154E+00
         21   -1    0    0  501  502  0.00000000000E+00  0.00000000000E+00  0.79443870723E+03  0.79443870723E+03  0.00000000000E+00 0. -1.
         21   -1    0    0  502  503 -0.00000000000E+00 -0.00000000000E+00 -0.37783810872E+02  0.37783810872E+02  0.00000000000E+00 0. -1.
          6    1    1    2  501    0 -0.11294006245E+02  0.90803149535E+01  0.34246861128E+03  0.38350848284E+03  0.17200000000E+03 0.  1.
         -6    1    1    2    0  503  0.11294006245E+02 -0.90803149535E+01  0.41418628508E+03  0.44871403527E+03  0.17200000000E+03 0.  1.
</event>
<event>
 4    1  0.4450588E+000  0.1826766E+03  0.7818608E-02  0.1165237E+00
         21   -1    0    0  503  502  0.00000000000E+00  0.00000000000E+00  0.17879488382E+03  0.17879488382E+03  0.00000000000E+00 0.  1.
         21   -1    0    0  501  503 -0.00000000000E+00 -0.00000000000E+00 -0.19188481800E+03  0.19188481800E+03  0.00000000000E+00 0. -1.
          6    1    1    2  501    0 -0.17616267869E+02 -0.58961027610E+02 -0.37179234795E+02  0.18642164888E+03  0.17200000000E+03 0.  1.
         -6    1    1    2    0  502  0.17616267869E+02  0.58961027610E+02  0.24089300615E+02  0.18425805294E+03  0.17200000000E+03 0.  1.
</event>
<event>
 4    1  0.4450588E+000  0.1893324E+03  0.7818608E-02  0.1159065E+00
         21   -1    0    0  503  502  0.00000000000E+00  0.00000000000E+00  0.10977684618E+03  0.10977684618E+03  0.00000000000E+00 0. -1.
         21   -1    0    0  501  503 -0.00000000000E+00 -0.00000000000E+00 -0.32692448664E+03  0.32692448664E+03  0.00000000000E+00 0.  1.
          6    1    1    2  501    0 -0.58191892475E+02  0.53632568517E+02 -0.11604260692E+03  0.22206448473E+03  0.17200000000E+03 0. -1.
         -6    1    1    2    0  502  0.58191892475E+02 -0.53632568517E+02 -0.10110503353E+03  0.21463684810E+03  0.17200000000E+03 0. -1.
</event>
<event>
 4    1  0.4450588E+000  0.3107117E+03  0.7818608E-02  0.1080005E+00
         21   -1    0    0  503  502  0.00000000000E+00  0.00000000000E+00  0.38334819049E+02  0.38334819049E+02  0.00000000000E+00 0. -1.
         21   -1    0    0  501  503 -0.00000000000E+00 -0.00000000000E+00 -0.25522821680E+04  0.25522821680E+04  0.00000000000E+00 0.  1.
          6    1    1    2  501    0  0.22414192834E+03 -0.12929861558E+03 -0.14062554620E+04  0.14401722676E+04  0.17200000000E+03 0. -1.
         -6    1    1    2    0  502 -0.22414192834E+03  0.12929861558E+03 -0.11076918870E+04  0.11504447194E+04  0.17200000000E+03 0. -1.
</event>
<event>
 4    1  0.4450588E+000  0.3164053E+03  0.7818608E-02  0.1077316E+00
         21   -1    0    0  503  502  0.00000000000E+00  0.00000000000E+00  0.90293948210E+02  0.90293948210E+02  0.00000000000E+00 0. -1.
         21   -1    0    0  501  503 -0.00000000000E+00 -0.00000000000E+00 -0.11855430544E+04  0.11855430544E+04  0.00000000000E+00 0. -1.
          6    1    1    2  501    0 -0.18920783428E+03 -0.18635634700E+03 -0.70999337974E+03  0.77730488993E+03  0.17200000000E+03 0. -1.
         -6    1    1    2    0  502  0.18920783428E+03  0.18635634700E+03 -0.38525572647E+03  0.49853211271E+03  0.17200000000E+03 0. -1.
</event>
<event>
 4    1  0.4450588E+000  0.2244460E+03  0.7818608E-02  0.1130611E+00
         21   -1    0    0  501  502  0.00000000000E+00  0.00000000000E+00  0.22955095750E+03  0.22955095750E+03  0.00000000000E+00 0.  1.
         21   -1    0    0  502  503 -0.00000000000E+00 -0.00000000000E+00 -0.28778117626E+03  0.28778117626E+03  0.00000000000E+00 0. -1.
          6    1    1    2  501    0  0.74048457006E+02 -0.12372884822E+03  0.96923400329E+02  0.24447933941E+03  0.17200000000E+03 0.  1.
         -6    1    1    2    0  503 -0.74048457006E+02  0.12372884822E+03 -0.15515361909E+03  0.27285279435E+03  0.17200000000E+03 0. -1.
</event>
<event>
 4    1  0.4450588E+000  0.1752584E+03  0.7818608E-02  0.1172473E+00
         21   -1    0    0  503  502  0.00000000000E+00  0.00000000000E+00  0.82410466466E+02  0.82410466466E+02  0.00000000000E+00 0.  1.
         21   -1    0    0  501  503 -0.00000000000E+00 -0.00000000000E+00 -0.99133369318E+03  0.99133369318E+03  0.00000000000E+00 0.  1.
          6    1    1    2  501    0 -0.33561854112E+02 -0.22570335981E+01 -0.87856616783E+03  0.89587610946E+03  0.17200000000E+03 0.  1.
         -6    1    1    2    0  502  0.33561854112E+02  0.22570335981E+01 -0.30357058886E+02  0.17786805018E+03  0.17200000000E+03 0.  1.
</event>
<event>
 4    1  0.4450588E+000  0.2690931E+03  0.7818608E-02  0.1101800E+00
         21   -1    0    0  503  502  0.00000000000E+00  0.00000000000E+00  0.49356366101E+03  0.49356366101E+03  0.00000000000E+00 0. -1.
         21   -1    0    0  501  503 -0.00000000000E+00 -0.00000000000E+00 -0.21527126790E+03  0.21527126790E+03  0.00000000000E+00 0.  1.
          6    1    1    2  501    0 -0.19095895584E+03 -0.79760708914E+02 -0.60867222367E+02  0.27589112393E+03  0.17200000000E+03 0.  1.
         -6    1    1    2    0  502  0.19095895584E+03  0.79760708914E+02  0.33915961548E+03  0.43294380498E+03  0.17200000000E+03 0. -1.
</event>
<event>
 4    1  0.4450588E+000  0.3659607E+03  0.7818608E-02  0.1056248E+00
         21   -1    0    0  503  502  0.00000000000E+00  0.00000000000E+00  0.10333851698E+04  0.10333851698E+04  0.00000000000E+00 0. -1.
         21   -1    0    0  501  503 -0.00000000000E+00 -0.00000000000E+00 -0.43103691176E+03  0.43103691176E+03  0.00000000000E+00 0.  1.
          6    1    1    2  501    0  0.15797540415E+03  0.28175700705E+03 -0.31114368495E+03  0.48035157126E+03  0.17200000000E+03 0.  1.
         -6    1    1    2    0  502 -0.15797540415E+03 -0.28175700705E+03  0.91349194295E+03  0.98407051026E+03  0.17200000000E+03 0. -1.
</event>
<event>
 4    1  0.4450588E+000  0.2082338E+03  0.7818608E-02  0.1142972E+00
         21   -1    0    0  503  502  0.00000000000E+00  0.00000000000E+00  0.17091464703E+03  0.17091464703E+03  0.00000000000E+00 0.  1.
         21   -1    0    0  501  503 -0.00000000000E+00 -0.00000000000E+00 -0.70337593684E+03  0.70337593684E+03  0.00000000000E+00 0.  1.
          6    1    1    2  501    0  0.37721409138E+02 -0.11115048748E+03 -0.61575790922E+03  0.65001472163E+03  0.17200000000E+03 0.  1.
         -6    1    1    2    0  502 -0.37721409138E+02  0.11115048748E+03  0.83296619409E+02  0.22427586223E+03  0.17200000000E+03 0.  1.
</event>
<event>
 4    1  0.4450588E+000  0.2104580E+03  0.7818608E-02  0.1141204E+00
         21   -1    0    0  501  502  0.00000000000E+00  0.00000000000E+00  0.11234922040E+03  0.11234922040E+03  0.00000000000E+00 0.  1.
         21   -1    0    0  502  503 -0.00000000000E+00 -0.00000000000E+00 -0.57951784005E+03  0.57951784005E+03  0.00000000000E+00 0.  1.
          6    1    1    2  501    0  0.19737660855E+02  0.11966196185E+03 -0.42918525750E+03  0.47800893885E+03  0.17200000000E+03 0.  1.
         -6    1    1    2    0  503 -0.19737660855E+02 -0.11966196185E+03 -0.37983362152E+02  0.21385812159E+03  0.17200000000E+03 0.  1.
</event>
<event>
 4    1  0.4450588E+000  0.1982225E+03  0.7818608E-02  0.1151247E+00
         21   -1    0    0  503  502  0.00000000000E+00  0.00000000000E+00  0.13549680854E+04  0.13549680854E+04  0.00000000000E+00 0.  1.
         21   -1    0    0  501  503 -0.00000000000E+00 -0.00000000000E+00 -0.33116727565E+02  0.33116727565E+02  0.00000000000E+00 0.  1.
          6    1    1    2  501    0  0.40055327551E+02 -0.90020824206E+02  0.41618160990E+03  0.46097647497E+03  0.17200000000E+03 0.  1.
         -6    1    1    2    0  502 -0.40055327551E+02  0.90020824206E+02  0.90566974790E+03  0.92710833796E+03  0.17200000000E+03 0.  1.
</event>
<event>
 4    1  0.4450588E+000  0.2348406E+03  0.7818608E-02  0.1123278E+00
         21   -1    0    0  503  502  0.00000000000E+00  0.00000000000E+00  0.15151067320E+03  0.15151067320E+03  0.00000000000E+00 0.  1.
         21   -1    0    0  501  503 -0.00000000000E+00 -0.00000000000E+00 -0.44262873057E+03  0.44262873057E+03  0.00000000000E+00 0.  1.
          6    1    1    2  501    0 -0.93368759041E+02 -0.12980128791E+03 -0.27076506965E+03  0.35841850182E+03  0.17200000000E+03 0.  1.
         -6    1    1    2    0  502  0.93368759041E+02  0.12980128791E+03 -0.20352987721E+02  0.23572090195E+03  0.17200000000E+03 0.  1.
</event>
<event>
 4    1  0.4450588E+000  0.1811163E+03  0.7818608E-02  0.1166727E+00
         21   -1    0    0  501  502  0.00000000000E+00  0.00000000000E+00  0.57389528668E+02  0.57389528668E+02  0.00000000000E+00 0. -1.
         21   -1    0    0  502  503 -0.00000000000E+00 -0.00000000000E+00 -0.57199564457E+03  0.57199564457E+03  0.00000000000E+00 0.  1.
          6    1    1    2  501    0  0.48495968523E+02  0.29449130248E+02 -0.24889206707E+03  0.30781548253E+03  0.17200000000E+03 0.  1.
         -6    1    1    2    0  503 -0.48495968523E+02 -0.29449130248E+02 -0.26571404883E+03  0.32156969071E+03  0.17200000000E+03 0. -1.
</event>
<event>
 4    1  0.4450588E+000  0.2065529E+03  0.7818608E-02  0.1144325E+00
         21   -1    0    0  503  502  0.00000000000E+00  0.00000000000E+00  0.12577349725E+04  0.12577349725E+04  0.00000000000E+00 0. -1.
         21   -1    0    0  501  503 -0.00000000000E+00 -0.00000000000E+00 -0.34047946677E+02  0.34047946677E+02  0.00000000000E+00 0. -1.
          6    1    1    2  501    0  0.90556422250E+02  0.69854502882E+02  0.57246507968E+03  0.60858884695E+03  0.17200000000E+03 0. -1.
         -6    1    1    2    0  502 -0.90556422250E+02 -0.69854502882E+02  0.65122194617E+03  0.68319407225E+03  0.17200000000E+03 0. -1.
</event>
<event>
 4    1  0.4450588E+000  0.1822427E+03  0.7818608E-02  0.1165650E+00
         21   -1    0    0  503  502  0.00000000000E+00  0.00000000000E+00  0.25375771864E+03  0.25375771864E+03  0.00000000000E+00 0. -1.
         21   -1    0    0  501  503 -0.00000000000E+00 -0.00000000000E+00 -0.20764727861E+03  0.20764727861E+03  0.00000000000E+00 0. -1.
          6    1    1    2  501    0  0.59393077393E+02 -0.10043571636E+02 -0.11721663883E+03  0.21668445120E+03  0.17200000000E+03 0. -1.
         -6    1    1    2    0  502 -0.59393077393E+02  0.10043571636E+02  0.16332707885E+03  0.24472054605E+03  0.17200000000E+03 0. -1.
</event>
<event>
 4    1  0.4450588E+000  0.3026239E+03  0.7818608E-02  0.1083936E+00
         21   -1    0    0  501  502  0.00000000000E+00  0.00000000000E+00  0.73781658230E+03  0.73781658230E+03  0.00000000000E+00 0.  1.
         21   -1    0    0  502  503 -0.00000000000E+00 -0.00000000000E+00 -0.13556049078E+03  0.13556049078E+03  0.00000000000E+00 0. -1.
          6    1    1    2  501    0 -0.77651673372E+02  0.23657435381E+03  0.17429286477E+03  0.34922658829E+03  0.17200000000E+03 0. -1.
         -6    1    1    2    0  503  0.77651673372E+02 -0.23657435381E+03  0.42796322674E+03  0.52415048479E+03  0.17200000000E+03 0.  1.
</event>
<event>
 4    1  0.4450588E+000  0.1860058E+03  0.7818608E-02  0.1162114E+00
         21   -1    0    0  503  502  0.00000000000E+00  0.00000000000E+00  0.41850645130E+03  0.41850645130E+03  0.00000000000E+00 0.  1.
         21   -1    0    0  501  503 -0.00000000000E+00 -0.00000000000E+00 -0.10800240000E+04  0.10800240000E+04  0.00000000000E+00 0.  1.
          6    1    1    2  501    0  0.58265814494E+02  0.40240035530E+02 -0.10507768797E+04  0.10671130289E+04  0.17200000000E+03 0.  1.
         -6    1    1    2    0  502 -0.58265814494E+02 -0.40240035530E+02  0.38925933097E+03  0.43141742239E+03  0.17200000000E+03 0.  1.
</event>
<event>
 4    1  0.4450588E+000  0.1971199E+03  0.7818608E-02  0.1152192E+00
         21   -1    0    0  501  502  0.00000000000E+00  0.00000000000E+00  0.63615812647E+03  0.63615812647E+03  0.00000000000E+00 0. -1.
         21   -1    0    0  502  503 -0.00000000000E+00 -0.00000000000E+00 -0.61752696055E+02  0.61752696055E+02  0.00000000000E+00 0. -1.
          6    1    1    2  501    0 -0.92489710909E+02 -0.26793766398E+02  0.32363583829E+03  0.37894116742E+03  0.17200000000E+03 0. -1.
         -6    1    1    2    0  503  0.92489710909E+02  0.26793766398E+02  0.25076959213E+03  0.31896965511E+03  0.17200000000E+03 0. -1.
</event>
<event>
 4    1  0.4450588E+000  0.1901026E+03  0.7818608E-02  0.1158369E+00
         21   -1    0    0  503  502  0.00000000000E+00  0.00000000000E+00  0.34284360405E+03  0.34284360405E+03  0.00000000000E+00 0.  1.
         21   -1    0    0  501  503 -0.00000000000E+00 -0.00000000000E+00 -0.10962475753E+03  0.10962475753E+03  0.00000000000E+00 0.  1.
          6    1    1    2  501    0 -0.36206950822E+02  0.72415971923E+02  0.72247595202E+02  0.20336846189E+03  0.17200000000E+03 0.  1.
         -6    1    1    2    0  502  0.36206950822E+02 -0.72415971923E+02  0.16097125131E+03  0.24909989969E+03  0.17200000000E+03 0.  1.
</event>
<event>
 4    1  0.4450588E+000  0.1810878E+03  0.7818608E-02  0.1166754E+00
         21   -1    0    0  501  502  0.00000000000E+00  0.00000000000E+00  0.26181384664E+03  0.26181384664E+03  0.00000000000E+00 0.  1.
         21   -1    0    0  502  503 -0.00000000000E+00 -0.00000000000E+00 -0.21976670018E+03  0.21976670018E+03  0.00000000000E+00 0.  1.
          6    1    1    2  501    0 -0.25715282784E+02  0.50472979732E+02  0.17893257606E+03  0.25457742286E+03  0.17200000000E+03 0.  1.
         -6    1    1    2    0  503  0.25715282784E+02 -0.50472979732E+02 -0.13688542960E+03  0.22700312396E+03  0.17200000000E+03 0.  1.
</event>
<event>
 4    1  0.4450588E+000  0.2416389E+03  0.7818608E-02  0.1118706E+00
         21   -1    0    0  503  502  0.00000000000E+00  0.00000000000E+00  0.10556855264E+03  0.10556855264E+03  0.00000000000E+00 0.  1.
         21   -1    0    0  501  503 -0.00000000000E+00 -0.00000000000E+00 -0.13144102816E+04  0.13144102816E+04  0.00000000000E+00 0.  1.
          6    1    1    2  501    0 -0.15331709222E+03  0.72795726940E+02 -0.11447631038E+04  0.11699879967E+04  0.17200000000E+03 0.  1.
         -6    1    1    2    0  502  0.15331709222E+03 -0.72795726940E+02 -0.64078625111E+02  0.24999083748E+03  0.17200000000E+03 0.  1.
</event>
<event>
 4    1  0.4450588E+000  0.1929147E+03  0.7818608E-02  0.1155858E+00
         21   -1    0    0  501  502  0.00000000000E+00  0.00000000000E+00  0.27056407028E+03  0.27056407028E+03  0.00000000000E+00 0.  1.
         21   -1    0    0  502  503 -0.00000000000E+00 -0.00000000000E+00 -0.17164550787E+03  0.17164550787E+03  0.00000000000E+00 0.  1.
          6    1    1    2  501    0  0.43859817166E+02 -0.75553958952E+02  0.14800337381E+03  0.24314827356E+03  0.17200000000E+03 0.  1.
         -6    1    1    2    0  503 -0.43859817166E+02  0.75553958952E+02 -0.49084811403E+02  0.19906130459E+03  0.17200000000E+03 0.  1.
</event>
<event>
 4    1  0.4450588E+000  0.1788059E+03  0.7818608E-02  0.1168964E+00
         21   -1    0    0  501  502  0.00000000000E+00  0.00000000000E+00  0.54210800777E+03  0.54210800777E+03  0.00000000000E+00 0. -1.
         21   -1    0    0  502  503 -0.00000000000E+00 -0.00000000000E+00 -0.10421124932E+03  0.10421124932E+03  0.00000000000E+00 0. -1.
          6    1    1    2  501    0 -0.46338832065E+02  0.15500498693E+02  0.43185864514E+03  0.46741142711E+03  0.17200000000E+03 0. -1.
         -6    1    1    2    0  503  0.46338832065E+02 -0.15500498693E+02  0.60381133122E+01  0.17890782998E+03  0.17200000000E+03 0. -1.
</event>
<event>
 4    1  0.4450588E+000  0.1909561E+03  0.7818608E-02  0.1157602E+00
         21   -1    0    0  501  502  0.00000000000E+00  0.00000000000E+00  0.70473028927E+02  0.70473028927E+02  0.00000000000E+00 0.  1.
         21   -1    0    0  502  503 -0.00000000000E+00 -0.00000000000E+00 -0.74640277412E+03  0.74640277412E+03  0.00000000000E+00 0.  1.
          6    1    1    2  501    0 -0.66729381181E+02  0.49268746049E+02 -0.11174021213E+03  0.22124668282E+03  0.17200000000E+03 0.  1.
         -6    1    1    2    0  503  0.66729381181E+02 -0.49268746049E+02 -0.56418953306E+03  0.59562912023E+03  0.17200000000E+03 0.  1.
</event>
<event>
 4    1  0.4450588E+000  0.2130266E+03  0.7818608E-02  0.1139191E+00
         21   -1    0    0  501  502  0.00000000000E+00  0.00000000000E+00  0.87254799146E+02  0.87254799146E+02  0.00000000000E+00 0. -1.
         21   -1    0    0  502  503 -0.00000000000E+00 -0.00000000000E+00 -0.62705643033E+03  0.62705643033E+03  0.00000000000E+00 0. -1.
          6    1    1    2  501    0 -0.11139692344E+03  0.58198571534E+02 -0.12238862064E+03  0.24568134391E+03  0.17200000000E+03 0. -1.
         -6    1    1    2    0  503  0.11139692344E+03 -0.58198571534E+02 -0.41741301054E+03  0.46862988557E+03  0.17200000000E+03 0. -1.
</event>
<event>
 4    1  0.4450588E+000  0.2530642E+03  0.7818608E-02  0.1111383E+00
         21   -1    0    0  503  502  0.00000000000E+00  0.00000000000E+00  0.69684368342E+03  0.69684368342E+03  0.00000000000E+00 0.  1.
         21   -1    0    0  501  503 -0.00000000000E+00 -0.00000000000E+00 -0.10219009984E+03  0.10219009984E+03  0.00000000000E+00 0.  1.
          6    1    1    2  501    0  0.16682040212E+03 -0.81415321927E+02  0.17056362535E+03  0.30517773756E+03  0.17200000000E+03 0.  1.
         -6    1    1    2    0  502 -0.16682040212E+03  0.81415321927E+02  0.42408995823E+03  0.49385604570E+03  0.17200000000E+03 0.  1.
</event>
<event>
 4    1  0.4450588E+000  0.2422718E+03  0.7818608E-02  0.1118289E+00
         21   -1    0    0  503  502  0.00000000000E+00  0.00000000000E+00  0.10672302122E+03  0.10672302122E+03  0.00000000000E+00 0. -1.
         21   -1    0    0  501  503 -0.00000000000E+00 -0.00000000000E+00 -0.56811662154E+03  0.56811662154E+03  0.00000000000E+00 0.  1.
          6    1    1    2  501    0  0.65938439702E+02  0.15736499285E+03 -0.29098325734E+03  0.37863818463E+03  0.17200000000E+03 0.  1.
         -6    1    1    2    0  502 -0.65938439702E+02 -0.15736499285E+03 -0.17041034298E+03  0.29620145813E+03  0.17200000000E+03 0. -1.
</event>
<event>
 4    1  0.4450588E+000  0.1843061E+03  0.7818608E-02  0.1163699E+00
         21   -1    0    0  501  502  0.00000000000E+00  0.00000000000E+00  0.90809282461E+03  0.90809282461E+03  0.00000000000E+00 0.  1.
         21   -1    0    0  502  503 -0.00000000000E+00 -0.00000000000E+00 -0.60759780318E+02  0.60759780318E+02  0.00000000000E+00 0.  1.
          6    1    1    2  501    0 -0.66116617017E+02 -0.36512442823E+01  0.72399179552E+03  0.74708289942E+03  0.17200000000E+03 0.  1.
         -6    1    1    2    0  503  0.66116617017E+02  0.36512442823E+01  0.12334124877E+03  0.22176970550E+03  0.17200000000E+03 0.  1.
</event>
<event>
 4    1  0.4450588E+000  0.2120538E+03  0.7818608E-02  0.1139950E+00
         21   -1    0    0  503  502  0.00000000000E+00  0.00000000000E+00  0.66388462051E+03  0.66388462051E+03  0.00000000000E+00 0.  1.
         21   -1    0    0  501  503 -0.00000000000E+00 -0.00000000000E+00 -0.11588484111E+03  0.11588484111E+03  0.00000000000E+00 0. -1.
          6    1    1    2  501    0  0.31089842966E+02  0.12006765236E+03  0.22678248277E+02  0.21326303576E+03  0.17200000000E+03 0. -1.
         -6    1    1    2    0  502 -0.31089842966E+02 -0.12006765236E+03  0.52532153112E+03  0.56650642586E+03  0.17200000000E+03 0.  1.
</event>
<event>
 4    1  0.4450588E+000  0.1728716E+03  0.7818608E-02  0.1174886E+00
         21   -1    0    0  503  502  0.00000000000E+00  0.00000000000E+00  0.22904388855E+03  0.22904388855E+03  0.00000000000E+00 0. -1.
         21   -1    0    0  501  503 -0.00000000000E+00 -0.00000000000E+00 -0.17604492429E+03  0.17604492429E+03  0.00000000000E+00 0. -1.
          6    1    1    2  501    0  0.16279703724E+02 -0.59633211848E+01 -0.76549999220E+02  0.18906213882E+03  0.17200000000E+03 0. -1.
         -6    1    1    2    0  502 -0.16279703724E+02  0.59633211848E+01  0.12954896348E+03  0.21602667403E+03  0.17200000000E+03 0. -1.
</event>
<event>
 4    1  0.4450588E+000  0.1844424E+03  0.7818608E-02  0.1163572E+00
         21   -1    0    0  503  502  0.00000000000E+00  0.00000000000E+00  0.10024444678E+03  0.10024444678E+03  0.00000000000E+00 0.  1.
         21   -1    0    0  501  503 -0.00000000000E+00 -0.00000000000E+00 -0.48739768200E+03  0.48739768200E+03  0.00000000000E+00 0.  1.
          6    1    1    2  501    0  0.65966674910E+02 -0.91329214895E+01 -0.35550631419E+03  0.40050437186E+03  0.17200000000E+03 0.  1.
         -6    1    1    2    0  502 -0.65966674910E+02  0.91329214895E+01 -0.31646921035E+02  0.18713775692E+03  0.17200000000E+03 0.  1.
</event>
<event>
 4    1  0.4450588E+000  0.1764038E+03  0.7818608E-02  0.1171330E+00
         21   -1    0    0  501  502  0.00000000000E+00  0.00000000000E+00  0.10202253412E+03  0.10202253412E+03  0.00000000000E+00 0.  1.
         21   -1    0    0  502  503 -0.00000000000E+00 -0.00000000000E+00 -0.40964839150E+03  0.40964839150E+03  0.00000000000E+00 0.  1.
          6    1    1    2  501    0 -0.37758914118E+02 -0.10418993635E+02 -0.24514707135E+02  0.17809902271E+03  0.17200000000E+03 0.  1.
         -6    1    1    2    0  503  0.37758914118E+02  0.10418993635E+02 -0.28311115024E+03  0.33357190291E+03  0.17200000000E+03 0.  1.
</event>
<event>
 4    1  0.4450588E+000  0.5658983E+03  0.7818608E-02  0.9978796E-01
         21   -1    0    0  503  502  0.00000000000E+00  0.00000000000E+00  0.88447651321E+03  0.88447651321E+03  0.00000000000E+00 0.  1.
         21   -1    0    0  501  503 -0.00000000000E+00 -0.00000000000E+00 -0.38540050158E+03  0.38540050158E+03  0.00000000000E+00 0. -1.
          6    1    1    2  501    0  0.39794007540E+03  0.36373145981E+03  0.40576414302E+03  0.69633714408E+03  0.17200000000E+03 0.  1.
         -6    1    1    2    0  502 -0.39794007540E+03 -0.36373145981E+03  0.93311868604E+02  0.57353987071E+03  0.17200000000E+03 0. -1.
</event>
<event>
 4    1  0.4450588E+000  0.1873802E+03  0.7818608E-02  0.1160846E+00
         21   -1    0    0  501  502  0.00000000000E+00  0.00000000000E+00  0.28704459950E+03  0.28704459950E+03  0.00000000000E+00 0. -1.
         21   -1    0    0  502  503 -0.00000000000E+00 -0.00000000000E+00 -0.17133526539E+03  0.17133526539E+03  0.00000000000E+00 0. -1.
          6    1    1    2  501    0  0.21202921865E+02 -0.71258441540E+02  0.18043966119E+03  0.26013419752E+03  0.17200000000E+03 0. -1.
         -6    1    1    2    0  503 -0.21202921865E+02  0.71258441540E+02 -0.64730327080E+02  0.19824566737E+03  0.17200000000E+03 0. -1.
</event>
<event>
 4    1  0.4450588E+000  0.1761256E+03  0.7818608E-02  0.1171606E+00
         21   -1    0    0  503  502  0.00000000000E+00  0.00000000000E+00  0.13252112057E+03  0.13252112057E+03  0.00000000000E+00 0. -1.
         21   -1    0    0  501  503 -0.00000000000E+00 -0.00000000000E+00 -0.47946106734E+03  0.47946106734E+03  0.00000000000E+00 0. -1.
          6    1    1    2  501    0 -0.22939753060E+01 -0.37827889564E+02 -0.39237455800E+03  0.43009069430E+03  0.17200000000E+03 0. -1.
         -6    1    1    2    0  502  0.22939753060E+01  0.37827889564E+02  0.45434611226E+02  0.18189149361E+03  0.17200000000E+03 0. -1.
</event>
<event>
 4    1  0.4450588E+000  0.1720828E+03  0.7818608E-02  0.1175693E+00
         21   -1    0    0  501  502  0.00000000000E+00  0.00000000000E+00  0.63507214566E+03  0.63507214566E+03  0.00000000000E+00 0. -1.
         21   -1    0    0  502  503 -0.00000000000E+00 -0.00000000000E+00 -0.66980216489E+02  0.66980216489E+02  0.00000000000E+00 0. -1.
          6    1    1    2  501    0 -0.41665385663E+01 -0.33341535834E+01  0.47753951986E+03  0.50759872897E+03  0.17200000000E+03 0. -1.
         -6    1    1    2    0  503  0.41665385663E+01  0.33341535834E+01  0.90552409307E+02  0.19445363318E+03  0.17200000000E+03 0. -1.
</event>
<event>
 4    1  0.4450588E+000  0.1831839E+03  0.7818608E-02  0.1164757E+00
         21   -1    0    0  503  502  0.00000000000E+00  0.00000000000E+00  0.25756057564E+03  0.25756057564E+03  0.00000000000E+00 0.  1.
         21   -1    0    0  501  503 -0.00000000000E+00 -0.00000000000E+00 -0.28354680290E+03  0.28354680290E+03  0.00000000000E+00 0.  1.
          6    1    1    2  501    0 -0.62396542690E+02 -0.88890390039E+01 -0.21190360772E+03  0.28010619864E+03  0.17200000000E+03 0.  1.
         -6    1    1    2    0  502  0.62396542690E+02  0.88890390039E+01  0.18591738046E+03  0.26100117990E+03  0.17200000000E+03 0.  1.
</event>
<event>
 4    1  0.4450588E+000  0.2205785E+03  0.7818608E-02  0.1133452E+00
         21   -1    0    0  501  502  0.00000000000E+00  0.00000000000E+00  0.16958096579E+03  0.16958096579E+03  0.00000000000E+00 0.  1.
         21   -1    0    0  502  503 -0.00000000000E+00 -0.00000000000E+00 -0.62868193604E+03  0.62868193604E+03  0.00000000000E+00 0.  1.
          6    1    1    2  501    0  0.21279709576E+02  0.13644804430E+03  0.64733809863E+02  0.22988118882E+03  0.17200000000E+03 0.  1.
         -6    1    1    2    0  503 -0.21279709576E+02 -0.13644804430E+03 -0.52383478012E+03  0.56838171302E+03  0.17200000000E+03 0.  1.
</event>
<event>
 4    1  0.4450588E+000  0.1973991E+03  0.7818608E-02  0.1151952E+00
         21   -1    0    0  503  502  0.00000000000E+00  0.00000000000E+00  0.87066052454E+03  0.87066052454E+03  0.00000000000E+00 0.  1.
         21   -1    0    0  501  503 -0.00000000000E+00 -0.00000000000E+00 -0.50269279578E+02  0.50269279578E+02  0.00000000000E+00 0. -1.
          6    1    1    2  501    0  0.52219879073E+01  0.96721976632E+02  0.25768865813E+03  0.32460723105E+03  0.17200000000E+03 0. -1.
         -6    1    1    2    0  502 -0.52219879073E+01 -0.96721976632E+02  0.56270258683E+03  0.59632257307E+03  0.17200000000E+03 0.  1.
</event>
<event>
 4    1  0.4450588E+000  0.2304500E+03  0.7818608E-02  0.1126323E+00
         21   -1    0    0  503  502  0.00000000000E+00  0.00000000000E+00  0.10350934421E+03  0.10350934421E+03  0.00000000000E+00 0. -1.
         21   -1    0    0  501  503 -0.00000000000E+00 -0.00000000000E+00 -0.52397089902E+03  0.52397089902E+03  0.00000000000E+00 0.  1.
          6    1    1    2  501    0 -0.13128888640E+03 -0.79286901009E+02 -0.16497063475E+03  0.28341223455E+03  0.17200000000E+03 0. -1.
         -6    1    1    2    0  502  0.13128888640E+03  0.79286901009E+02 -0.25549092006E+03  0.34406800868E+03  0.17200000000E+03 0. -1.
</event>
<event>
 4    1  0.4450588E+000  0.1838417E+03  0.7818608E-02  0.1164136E+00
         21   -1    0    0  503  502  0.00000000000E+00  0.00000000000E+00  0.92146993240E+03  0.92146993240E+03  0.00000000000E+00 0.  1.
         21   -1    0    0  501  503 -0.00000000000E+00 -0.00000000000E+00 -0.40493392515E+02  0.40493392515E+02  0.00000000000E+00 0.  1.
          6    1    1    2  501    0 -0.63875299981E+02 -0.11564291539E+02  0.29284995014E+03  0.34577287355E+03  0.17200000000E+03 0.  1.
         -6    1    1    2    0  502  0.63875299981E+02  0.11564291539E+02  0.58812658975E+03  0.61619045137E+03  0.17200000000E+03 0.  1.
</event>
<event>
 4    1  0.4450588E+000  0.2429344E+03  0.7818608E-02  0.1117853E+00
         21   -1    0    0  501  502  0.00000000000E+00  0.00000000000E+00  0.20578508679E+03  0.20578508679E+03  0.00000000000E+00 0.  1.
         21   -1    0    0  502  503 -0.00000000000E+00 -0.00000000000E+00 -0.51023811963E+03  0.51023811963E+03  0.00000000000E+00 0. -1.
          6    1    1    2  501    0 -0.12718649282E+03 -0.11513790343E+03  0.84691907674E+02  0.25727390071E+03  0.17200000000E+03 0.  1.
         -6    1    1    2    0  503  0.12718649282E+03  0.11513790343E+03 -0.38914494052E+03  0.45874930571E+03  0.17200000000E+03 0. -1.
</event>
<event>
 4    1  0.4450588E+000  0.4089455E+03  0.7818608E-02  0.1040725E+00
         21   -1    0    0  503  502  0.00000000000E+00  0.00000000000E+00  0.30302506180E+03  0.30302506180E+03  0.00000000000E+00 0. -1.
         21   -1    0    0  501  503 -0.00000000000E+00 -0.00000000000E+00 -0.57122654626E+03  0.57122654626E+03  0.00000000000E+00 0.  1.
          6    1    1    2  501    0  0.27626938231E+02  0.36998538334E+03 -0.21452633886E+03  0.46179863758E+03  0.17200000000E+03 0. -1.
         -6    1    1    2    0  502 -0.27626938231E+02 -0.36998538334E+03 -0.53675145598E+02  0.41245297048E+03  0.17200000000E+03 0. -1.
</event>
<event>
 4    1  0.4450588E+000  0.2372218E+03  0.7818608E-02  0.1121658E+00
         21   -1    0    0  503  502  0.00000000000E+00  0.00000000000E+00  0.32666693361E+03  0.32666693361E+03  0.00000000000E+00 0.  1.
         21   -1    0    0  501  503 -0.00000000000E+00 -0.00000000000E+00 -0.17441852415E+03  0.17441852415E+03  0.00000000000E+00 0.  1.
          6    1    1    2  501    0  0.12770536415E+03 -0.10188980164E+03  0.10394557773E+03  0.25899589734E+03  0.17200000000E+03 0.  1.
         -6    1    1    2    0  502 -0.12770536415E+03  0.10188980164E+03  0.48302831731E+02  0.24208956042E+03  0.17200000000E+03 0.  1.
</event>
<event>
 4    1  0.4450588E+000  0.2632807E+03  0.7818608E-02  0.1105188E+00
         21   -1    0    0  503  502  0.00000000000E+00  0.00000000000E+00  0.99604669610E+03  0.99604669610E+03  0.00000000000E+00 0. -1.
         21   -1    0    0  501  503 -0.00000000000E+00 -0.00000000000E+00 -0.89269546196E+02  0.89269546196E+02  0.00000000000E+00 0.  1.
          6    1    1    2  501    0 -0.18943619995E+03 -0.62021333046E+02  0.19861058367E+03  0.32979218237E+03  0.17200000000E+03 0. -1.
         -6    1    1    2    0  502  0.18943619995E+03  0.62021333046E+02  0.70816656623E+03  0.75552405993E+03  0.17200000000E+03 0. -1.
</event>
<event>
 4    1  0.4450588E+000  0.1894353E+03  0.7818608E-02  0.1158972E+00
         21   -1    0    0  501  502  0.00000000000E+00  0.00000000000E+00  0.38123817001E+03  0.38123817001E+03  0.00000000000E+00 0.  1.
         21   -1    0    0  502  503 -0.00000000000E+00 -0.00000000000E+00 -0.19954331563E+03  0.19954331563E+03  0.00000000000E+00 0.  1.
          6    1    1    2  501    0 -0.32949145550E+01  0.79314996178E+02  0.30191092056E+03  0.35642099971E+03  0.17200000000E+03 0.  1.
         -6    1    1    2    0  503  0.32949145550E+01 -0.79314996178E+02 -0.12021606618E+03  0.22436048594E+03  0.17200000000E+03 0.  1.
</event>
<event>
 4    1  0.4450588E+000  0.1900332E+03  0.7818608E-02  0.1158431E+00
         21   -1    0    0  503  502  0.00000000000E+00  0.00000000000E+00  0.17853838317E+03  0.17853838317E+03  0.00000000000E+00 0. -1.
         21   -1    0    0  501  503 -0.00000000000E+00 -0.00000000000E+00 -0.20852459511E+03  0.20852459511E+03  0.00000000000E+00 0. -1.
          6    1    1    2  501    0 -0.77052356853E+02 -0.24321465410E+02 -0.48516074517E+02  0.19612855188E+03  0.17200000000E+03 0. -1.
         -6    1    1    2    0  502  0.77052356853E+02  0.24321465410E+02  0.18529862582E+02  0.19093442640E+03  0.17200000000E+03 0. -1.
</event>
<event>
 4    1  0.4450588E+000  0.1785270E+03  0.7818608E-02  0.1169236E+00
         21   -1    0    0  503  502  0.00000000000E+00  0.00000000000E+00  0.10491651695E+04  0.10491651695E+04  0.00000000000E+00 0. -1.
         21   -1    0    0  501  503 -0.00000000000E+00 -0.00000000000E+00 -0.32500526805E+02  0.32500526805E+02  0.00000000000E+00 0. -1.
          6    1    1    2  501    0  0.47260164298E+02 -0.73737231631E+01  0.37013176422E+03  0.41093724315E+03  0.17200000000E+03 0. -1.
         -6    1    1    2    0  502 -0.47260164298E+02  0.73737231631E+01  0.64653287847E+03  0.67072845315E+03  0.17200000000E+03 0. -1.
</event>
<event>
 4    1  0.4450588E+000  0.2114030E+03  0.7818608E-02  0.1140460E+00
         21   -1    0    0  501  502  0.00000000000E+00  0.00000000000E+00  0.56325003674E+03  0.56325003674E+03  0.00000000000E+00 0.  1.
         21   -1    0    0  502  503 -0.00000000000E+00 -0.00000000000E+00 -0.30729649637E+03  0.30729649637E+03  0.00000000000E+00 0.  1.
          6    1    1    2  501    0  0.14256630419E+02  0.12208178932E+03  0.50286704658E+03  0.54549654566E+03  0.17200000000E+03 0.  1.
         -6    1    1    2    0  503 -0.14256630419E+02 -0.12208178932E+03 -0.24691350621E+03  0.32504998745E+03  0.17200000000E+03 0.  1.
</event>
<event>
 4    1  0.4450588E+000  0.2344341E+03  0.7818608E-02  0.1123557E+00
         21   -1    0    0  501  502  0.00000000000E+00  0.00000000000E+00  0.65367467099E+03  0.65367467099E+03  0.00000000000E+00 0.  1.
         21   -1    0    0  502  503 -0.00000000000E+00 -0.00000000000E+00 -0.87140233050E+02  0.87140233050E+02  0.00000000000E+00 0.  1.
          6    1    1    2  501    0  0.12116965478E+03 -0.10340823882E+03  0.35270935825E+03  0.42351297558E+03  0.17200000000E+03 0.  1.
         -6    1    1    2    0  503 -0.12116965478E+03  0.10340823882E+03  0.21382507969E+03  0.31730192845E+03  0.17200000000E+03 0.  1.
</event>
<event>
 4    1  0.4450588E+000  0.2894774E+03  0.7818608E-02  0.1090622E+00
         21   -1    0    0  501  502  0.00000000000E+00  0.00000000000E+00  0.12058360311E+04  0.12058360311E+04  0.00000000000E+00 0. -1.
         21   -1    0    0  502  503 -0.00000000000E+00 -0.00000000000E+00 -0.71596229980E+02  0.71596229980E+02  0.00000000000E+00 0. -1.
          6    1    1    2  501    0  0.15732738329E+03  0.17164279035E+03  0.67659291343E+03  0.73591787824E+03  0.17200000000E+03 0. -1.
         -6    1    1    2    0  503 -0.15732738329E+03 -0.17164279035E+03  0.45764688769E+03  0.54151438284E+03  0.17200000000E+03 0. -1.
</event>
<event>
 4    1  0.4450588E+000  0.2108333E+03  0.7818608E-02  0.1140908E+00
         21   -1    0    0  501  502  0.00000000000E+00  0.00000000000E+00  0.22284914435E+03  0.22284914435E+03  0.00000000000E+00 0.  1.
         21   -1    0    0  502  503 -0.00000000000E+00 -0.00000000000E+00 -0.19994877084E+03  0.19994877084E+03  0.00000000000E+00 0.  1.
          6    1    1    2  501    0 -0.10300874297E+03  0.65237159302E+02  0.21844482199E+02  0.21196195292E+03  0.17200000000E+03 0.  1.
         -6    1    1    2    0  503  0.10300874297E+03 -0.65237159302E+02  0.10558913196E+01  0.21083596227E+03  0.17200000000E+03 0.  1.
</event>
<event>
 4    1  0.4450588E+000  0.2161865E+03  0.7818608E-02  0.1136759E+00
         21   -1    0    0  503  502  0.00000000000E+00  0.00000000000E+00  0.88442266926E+02  0.88442266926E+02  0.00000000000E+00 0. -1.
         21   -1    0    0  501  503 -0.00000000000E+00 -0.00000000000E+00 -0.55372946456E+03  0.55372946456E+03  0.00000000000E+00 0.  1.
          6    1    1    2  501    0 -0.10225992500E+03  0.81825974686E+02 -0.30125993768E+03  0.37080201246E+03  0.17200000000E+03 0.  1.
         -6    1    1    2    0  502  0.10225992500E+03 -0.81825974686E+02 -0.16402725995E+03  0.27136971902E+03  0.17200000000E+03 0.  1.
</event>
<event>
 4    1  0.4450588E+000  0.1722309E+03  0.7818608E-02  0.1175541E+00
         21   -1    0    0  503  502  0.00000000000E+00  0.00000000000E+00  0.33331847812E+02  0.33331847812E+02  0.00000000000E+00 0.  1.
         21   -1    0    0  501  503 -0.00000000000E+00 -0.00000000000E+00 -0.16365232890E+04  0.16365232890E+04  0.00000000000E+00 0.  1.
          6    1    1    2  501    0  0.89032275928E+01 -0.46121463463E+00 -0.13655263140E+04  0.13763450129E+04  0.17200000000E+03 0.  1.
         -6    1    1    2    0  502 -0.89032275928E+01  0.46121463463E+00 -0.23766512715E+03  0.29351012392E+03  0.17200000000E+03 0.  1.
</event>
<event>
 4    1  0.4450588E+000  0.1836047E+03  0.7818608E-02  0.1164359E+00
         21   -1    0    0  503  502  0.00000000000E+00  0.00000000000E+00  0.68713027156E+02  0.68713027156E+02  0.00000000000E+00 0.  1.
         21   -1    0    0  501  503 -0.00000000000E+00 -0.00000000000E+00 -0.49458481318E+03  0.49458481318E+03  0.00000000000E+00 0.  1.
          6    1    1    2  501    0  0.51854625201E+02 -0.37918163568E+02 -0.23821313523E+03  0.30075935078E+03  0.17200000000E+03 0.  1.
         -6    1    1    2    0  502 -0.51854625201E+02  0.37918163568E+02 -0.18765865080E+03  0.26253848956E+03  0.17200000000E+03 0.  1.
</event>
<event>
 4    1  0.4450588E+000  0.2001408E+03  0.7818608E-02  0.1149620E+00
         21   -1    0    0  503  502  0.00000000000E+00  0.00000000000E+00  0.41302636653E+03  0.41302636653E+03  0.00000000000E+00 0.  1.
         21   -1    0    0  501  503 -0.00000000000E+00 -0.00000000000E+00 -0.10776180546E+03  0.10776180546E+03  0.00000000000E+00 0.  1.
          6    1    1    2  501    0  0.10060525126E+03  0.18733196204E+02  0.70276683687E+02  0.21212062957E+03  0.17200000000E+03 0.  1.
         -6    1    1    2    0  502 -0.10060525126E+03 -0.18733196204E+02  0.23498787738E+03  0.30866754241E+03  0.17200000000E+03 0.  1.
</event>
<event>
 4    1  0.4450588E+000  0.1728604E+03  0.7818608E-02  0.1174897E+00
         21   -1    0    0  501  502  0.00000000000E+00  0.00000000000E+00  0.14277258738E+03  0.14277258738E+03  0.00000000000E+00 0.  1.
         21   -1    0    0  502  503 -0.00000000000E+00 -0.00000000000E+00 -0.48840692992E+03  0.48840692992E+03  0.00000000000E+00 0.  1.
          6    1    1    2  501    0  0.13109293082E+02 -0.11173625939E+02  0.65758423896E+02  0.18494559685E+03  0.17200000000E+03 0.  1.
         -6    1    1    2    0  503 -0.13109293082E+02  0.11173625939E+02 -0.41139276644E+03  0.44623392045E+03  0.17200000000E+03 0.  1.
</event>
<event>
 4    1  0.4450588E+000  0.2375528E+03  0.7818608E-02  0.1121434E+00
         21   -1    0    0  501  502  0.00000000000E+00  0.00000000000E+00  0.24626664701E+04  0.24626664701E+04  0.00000000000E+00 0. -1.
         21   -1    0    0  502  503 -0.00000000000E+00 -0.00000000000E+00 -0.28415784165E+02  0.28415784165E+02  0.00000000000E+00 0. -1.
          6    1    1    2  501    0 -0.14858187295E+03  0.69070620789E+02  0.17651516776E+04  0.17810647851E+04  0.17200000000E+03 0. -1.
         -6    1    1    2    0  503  0.14858187295E+03 -0.69070620789E+02  0.66909900831E+03  0.71001746918E+03  0.17200000000E+03 0. -1.
</event>
<event>
 4    1  0.4450588E+000  0.1891390E+03  0.7818608E-02  0.1159240E+00
         21   -1    0    0  503  502  0.00000000000E+00  0.00000000000E+00  0.85758195569E+02  0.85758195569E+02  0.00000000000E+00 0.  1.
         21   -1    0    0  501  503 -0.00000000000E+00 -0.00000000000E+00 -0.65044061343E+03  0.65044061343E+03  0.00000000000E+00 0. -1.
          6    1    1    2  501    0 -0.78673470582E+02 -0.21920813188E+00 -0.50279369679E+03  0.53719183218E+03  0.17200000000E+03 0. -1.
         -6    1    1    2    0  502  0.78673470582E+02  0.21920813188E+00 -0.61888721063E+02  0.19900697681E+03  0.17200000000E+03 0.  1.
</event>
<event>
 4    1  0.4450588E+000  0.1906678E+03  0.7818608E-02  0.1157860E+00
         21   -1    0    0  501  502  0.00000000000E+00  0.00000000000E+00  0.91578940601E+03  0.91578940601E+03  0.00000000000E+00 0.  1.
         21   -1    0    0  502  503 -0.00000000000E+00 -0.00000000000E+00 -0.15128733385E+03  0.15128733385E+03  0.00000000000E+00 0.  1.
          6    1    1    2  501    0 -0.75163741711E+01 -0.81937251815E+02  0.84047459347E+03  0.86183046557E+03  0.17200000000E+03 0.  1.
         -6    1    1    2    0  503  0.75163741711E+01  0.81937251815E+02 -0.75972521306E+02  0.20524627429E+03  0.17200000000E+03 0.  1.
</event>
<event>
 4    1  0.4450588E+000  0.2702998E+03  0.7818608E-02  0.1101108E+00
         21   -1    0    0  501  502  0.00000000000E+00  0.00000000000E+00  0.92499148444E+03  0.92499148444E+03  0.00000000000E+00 0. -1.
         21   -1    0    0  502  503 -0.00000000000E+00 -0.00000000000E+00 -0.79752309593E+02  0.79752309593E+02  0.00000000000E+00 0.  1.
          6    1    1    2  501    0  0.20343211096E+03  0.45753389680E+02  0.47184236407E+03  0.54378048233E+03  0.17200000000E+03 0.  1.
         -6    1    1    2    0  503 -0.20343211096E+03 -0.45753389680E+02  0.37339681078E+03  0.46096331171E+03  0.17200000000E+03 0. -1.
</event>
<event>
 4    1  0.4450588E+000  0.1918846E+03  0.7818608E-02  0.1156772E+00
         21   -1    0    0  501  502  0.00000000000E+00  0.00000000000E+00  0.15175703004E+04  0.15175703004E+04  0.00000000000E+00 0.  1.
         21   -1    0    0  502  503 -0.00000000000E+00 -0.00000000000E+00 -0.30447134050E+02  0.30447134050E+02  0.00000000000E+00 0.  1.
          6    1    1    2  501    0  0.78395699385E+02  0.33012517700E+02  0.10924105588E+04  0.11091350418E+04  0.17200000000E+03 0.  1.
         -6    1    1    2    0  503 -0.78395699385E+02 -0.33012517700E+02  0.39471260758E+03  0.43888239266E+03  0.17200000000E+03 0.  1.
</event>
<event>
 4    1  0.4450588E+000  0.2589558E+03  0.7818608E-02  0.1107772E+00
         21   -1    0    0  503  502  0.00000000000E+00  0.00000000000E+00  0.15008579708E+04  0.15008579708E+04  0.00000000000E+00 0.  1.
         21   -1    0    0  501  503 -0.00000000000E+00 -0.00000000000E+00 -0.10924982225E+03  0.10924982225E+03  0.00000000000E+00 0. -1.
          6    1    1    2  501    0  0.17401567866E+03  0.84809412924E+02  0.76890621415E+02  0.27013008089E+03  0.17200000000E+03 0. -1.
         -6    1    1    2    0  502 -0.17401567866E+03 -0.84809412924E+02  0.13147175271E+04  0.13399777122E+04  0.17200000000E+03 0.  1.
</event>
<event>
 4    1  0.4450588E+000  0.1736471E+03  0.7818608E-02  0.1174097E+00
         21   -1    0    0  501  502  0.00000000000E+00  0.00000000000E+00  0.71854307063E+03  0.71854307063E+03  0.00000000000E+00 0.  1.
         21   -1    0    0  502  503 -0.00000000000E+00 -0.00000000000E+00 -0.52137495254E+02  0.52137495254E+02  0.00000000000E+00 0.  1.
          6    1    1    2  501    0  0.51049691228E+01  0.23307939950E+02  0.50341595555E+03  0.53252318736E+03  0.17200000000E+03 0.  1.
         -6    1    1    2    0  503 -0.51049691228E+01 -0.23307939950E+02  0.16298961983E+03  0.23815737852E+03  0.17200000000E+03 0.  1.
</event>
<event>
 4    1  0.4450588E+000  0.1818387E+03  0.7818608E-02  0.1166035E+00
         21   -1    0    0  503  502  0.00000000000E+00  0.00000000000E+00  0.54725883928E+02  0.54725883928E+02  0.00000000000E+00 0.  1.
         21   -1    0    0  501  503 -0.00000000000E+00 -0.00000000000E+00 -0.94745540462E+03  0.94745540462E+03  0.00000000000E+00 0.  1.
          6    1    1    2  501    0 -0.25623414185E+02  0.53148316577E+02 -0.74797527511E+03  0.76976120653E+03  0.17200000000E+03 0.  1.
         -6    1    1    2    0  502  0.25623414185E+02 -0.53148316577E+02 -0.14475424558E+03  0.23242008201E+03  0.17200000000E+03 0.  1.
</event>
<event>
 4    1  0.4450588E+000  0.1794022E+03  0.7818608E-02  0.1168383E+00
         21   -1    0    0  503  502  0.00000000000E+00  0.00000000000E+00  0.74259957077E+03  0.74259957077E+03  0.00000000000E+00 0.  1.
         21   -1    0    0  501  503 -0.00000000000E+00 -0.00000000000E+00 -0.51800572391E+02  0.51800572391E+02  0.00000000000E+00 0.  1.
          6    1    1    2  501    0 -0.30025853183E+02  0.41226160627E+02  0.18488606052E+03  0.25761988191E+03  0.17200000000E+03 0.  1.
         -6    1    1    2    0  502  0.30025853183E+02 -0.41226160627E+02  0.50591293786E+03  0.53678026125E+03  0.17200000000E+03 0.  1.
</event>
<event>
 4    1  0.4450588E+000  0.2276227E+03  0.7818608E-02  0.1128324E+00
         21   -1    0    0  503  502  0.00000000000E+00  0.00000000000E+00  0.11208461040E+04  0.11208461040E+04  0.00000000000E+00 0. -1.
         21   -1    0    0  501  503 -0.00000000000E+00 -0.00000000000E+00 -0.92156233192E+02  0.92156233192E+02  0.00000000000E+00 0.  1.
          6    1    1    2  501    0 -0.57911733016E+02  0.13738393948E+03  0.86172110255E+02  0.24338806099E+03  0.17200000000E+03 0.  1.
         -6    1    1    2    0  502  0.57911733016E+02 -0.13738393948E+03  0.94251776053E+03  0.96961427617E+03  0.17200000000E+03 0. -1.
</event>
<event>
 4    1  0.4450588E+000  0.1766152E+03  0.7818608E-02  0.1171120E+00
         21   -1    0    0  501  502  0.00000000000E+00  0.00000000000E+00  0.30141477499E+03  0.30141477499E+03  0.00000000000E+00 0.  1.
         21   -1    0    0  502  503 -0.00000000000E+00 -0.00000000000E+00 -0.10883541488E+03  0.10883541488E+03  0.00000000000E+00 0.  1.
          6    1    1    2  501    0  0.28978784270E+01  0.40006766559E+02  0.14175586645E+03  0.22646780067E+03  0.17200000000E+03 0.  1.
         -6    1    1    2    0  503 -0.28978784270E+01 -0.40006766559E+02  0.50823493661E+02  0.18378238919E+03  0.17200000000E+03 0.  1.
</event>
<event>
 4    1  0.4450588E+000  0.4326964E+03  0.7818608E-02  0.1033012E+00
         21   -1    0    0  501  502  0.00000000000E+00  0.00000000000E+00  0.85462472585E+03  0.85462472585E+03  0.00000000000E+00 0. -1.
         21   -1    0    0  502  503 -0.00000000000E+00 -0.00000000000E+00 -0.30703175705E+03  0.30703175705E+03  0.00000000000E+00 0.  1.
          6    1    1    2  501    0 -0.80756661912E+02  0.38874225214E+03  0.58467649830E+03  0.72737389609E+03  0.17200000000E+03 0. -1.
         -6    1    1    2    0  503  0.80756661912E+02 -0.38874225214E+03 -0.37083529507E+02  0.43428258681E+03  0.17200000000E+03 0. -1.
</event>
<event>
 4    1  0.4450588E+000  0.1780358E+03  0.7818608E-02  0.1169718E+00
         21   -1    0    0  501  502  0.00000000000E+00  0.00000000000E+00  0.14533190385E+03  0.14533190385E+03  0.00000000000E+00 0.  1.
         21   -1    0    0  502  503 -0.00000000000E+00 -0.00000000000E+00 -0.23224086050E+03  0.23224086050E+03  0.00000000000E+00 0.  1.
          6    1    1    2  501    0 -0.45175641569E+02  0.84796026131E+01  0.31314431695E+01  0.17806332634E+03  0.17200000000E+03 0. -1.
         -6    1    1    2    0  503  0.45175641569E+02 -0.84796026131E+01 -0.90040399823E+02  0.19950943800E+03  0.17200000000E+03 0. -1.
</event>
<event>
 4    1  0.4450588E+000  0.2562947E+03  0.7818608E-02  0.1109390E+00
         21   -1    0    0  501  502  0.00000000000E+00  0.00000000000E+00  0.13504174788E+03  0.13504174788E+03  0.00000000000E+00 0.  1.
         21   -1    0    0  502  503 -0.00000000000E+00 -0.00000000000E+00 -0.50677833849E+03  0.50677833849E+03  0.00000000000E+00 0. -1.
          6    1    1    2  501    0  0.16652278787E+02 -0.18927674891E+03 -0.12154813672E+03  0.28365636888E+03  0.17200000000E+03 0.  1.
         -6    1    1    2    0  503 -0.16652278787E+02  0.18927674891E+03 -0.25018845389E+03  0.35816371749E+03  0.17200000000E+03 0. -1.
</event>
<event>
 4    1  0.4450588E+000  0.2044972E+03  0.7818608E-02  0.1145999E+00
         21   -1    0    0  501  502  0.00000000000E+00  0.00000000000E+00  0.39650633843E+03  0.39650633843E+03  0.00000000000E+00 0.  1.
         21   -1    0    0  502  503 -0.00000000000E+00 -0.00000000000E+00 -0.17521805382E+03  0.17521805382E+03  0.00000000000E+00 0.  1.
          6    1    1    2  501    0  0.65061922655E+02 -0.89454114952E+02  0.29100269070E+03  0.35567071634E+03  0.17200000000E+03 0.  1.
         -6    1    1    2    0  503 -0.65061922655E+02  0.89454114952E+02 -0.69714406090E+02  0.21605367592E+03  0.17200000000E+03 0.  1.
</event>
<event>
 4    1  0.4450588E+000  0.1911279E+03  0.7818608E-02  0.1157448E+00
         21   -1    0    0  503  502  0.00000000000E+00  0.00000000000E+00  0.17574570254E+03  0.17574570254E+03  0.00000000000E+00 0.  1.
         21   -1    0    0  501  503 -0.00000000000E+00 -0.00000000000E+00 -0.23563810667E+03  0.23563810667E+03  0.00000000000E+00 0.  1.
          6    1    1    2  501    0 -0.40591787338E+02  0.72788514599E+02 -0.10057377030E+03  0.21597440665E+03  0.17200000000E+03 0.  1.
         -6    1    1    2    0  502  0.40591787338E+02 -0.72788514599E+02  0.40681366165E+02  0.19540940256E+03  0.17200000000E+03 0.  1.
</event>
<event>
 4    1  0.4450588E+000  0.1892036E+03  0.7818608E-02  0.1159182E+00
         21   -1    0    0  503  502  0.00000000000E+00  0.00000000000E+00  0.17436414738E+03  0.17436414738E+03  0.00000000000E+00 0.  1.
         21   -1    0    0  501  503 -0.00000000000E+00 -0.00000000000E+00 -0.26466150128E+03  0.26466150128E+03  0.00000000000E+00 0.  1.
          6    1    1    2  501    0 -0.63736226994E+02  0.46386363036E+02 -0.14910360717E+03  0.24089393305E+03  0.17200000000E+03 0.  1.
         -6    1    1    2    0  502  0.63736226994E+02 -0.46386363036E+02  0.58806253265E+02  0.19813171561E+03  0.17200000000E+03 0.  1.
</event>
<event>
 4    1  0.4450588E+000  0.1814217E+03  0.7818608E-02  0.1166434E+00
         21   -1    0    0  501  502  0.00000000000E+00  0.00000000000E+00  0.62420048865E+03  0.62420048865E+03  0.00000000000E+00 0. -1.
         21   -1    0    0  502  503 -0.00000000000E+00 -0.00000000000E+00 -0.53840254446E+02  0.53840254446E+02  0.00000000000E+00 0. -1.
          6    1    1    2  501    0 -0.56948046929E+02  0.93150542576E+01  0.33387229000E+03  0.37997967882E+03  0.17200000000E+03 0. -1.
         -6    1    1    2    0  503  0.56948046929E+02 -0.93150542576E+01  0.23648794420E+03  0.29806106428E+03  0.17200000000E+03 0. -1.
</event>
<event>
 4    1  0.4450588E+000  0.1962429E+03  0.7818608E-02  0.1152948E+00
         21   -1    0    0  501  502  0.00000000000E+00  0.00000000000E+00  0.30844404499E+03  0.30844404499E+03  0.00000000000E+00 0. -1.
         21   -1    0    0  502  503 -0.00000000000E+00 -0.00000000000E+00 -0.12556225308E+03  0.12556225308E+03  0.00000000000E+00 0.  1.
          6    1    1    2  501    0 -0.13439608715E+01 -0.94474776931E+02  0.10770825985E+03  0.22385789900E+03  0.17200000000E+03 0.  1.
         -6    1    1    2    0  503  0.13439608715E+01  0.94474776931E+02  0.75173532065E+02  0.21014839907E+03  0.17200000000E+03 0. -1.
</event>
<event>
 4    1  0.4450588E+000  0.2026485E+03  0.7818608E-02  0.1147524E+00
         21   -1    0    0  501  502  0.00000000000E+00  0.00000000000E+00  0.56673899518E+02  0.56673899518E+02  0.00000000000E+00 0.  1.
         21   -1    0    0  502  503 -0.00000000000E+00 -0.00000000000E+00 -0.72608674104E+03  0.72608674104E+03  0.00000000000E+00 0.  1.
          6    1    1    2  501    0  0.89198805518E+02 -0.59380045869E+02 -0.31704985488E+03  0.37628051668E+03  0.17200000000E+03 0.  1.
         -6    1    1    2    0  503 -0.89198805518E+02  0.59380045869E+02 -0.35236298664E+03  0.40648012388E+03  0.17200000000E+03 0.  1.
</event>
<event>
 4    1  0.4450588E+000  0.2115673E+03  0.7818608E-02  0.1140331E+00
         21   -1    0    0  503  502  0.00000000000E+00  0.00000000000E+00  0.21287515880E+03  0.21287515880E+03  0.00000000000E+00 0.  1.
         21   -1    0    0  501  503 -0.00000000000E+00 -0.00000000000E+00 -0.21951187419E+03  0.21951187419E+03  0.00000000000E+00 0.  1.
          6    1    1    2  501    0 -0.12297762573E+03  0.72950761896E+01 -0.47684721578E+02  0.21687449652E+03  0.17200000000E+03 0.  1.
         -6    1    1    2    0  502  0.12297762573E+03 -0.72950761896E+01  0.41048006188E+02  0.21551253648E+03  0.17200000000E+03 0.  1.
</event>
<event>
 4    1  0.4450588E+000  0.2281710E+03  0.7818608E-02  0.1127934E+00
         21   -1    0    0  501  502  0.00000000000E+00  0.00000000000E+00  0.52466529874E+02  0.52466529874E+02  0.00000000000E+00 0.  1.
         21   -1    0    0  502  503 -0.00000000000E+00 -0.00000000000E+00 -0.19278440207E+04  0.19278440207E+04  0.00000000000E+00 0.  1.
          6    1    1    2  501    0 -0.55713324933E+02 -0.13919057668E+03 -0.24792257580E+03  0.33693856235E+03  0.17200000000E+03 0.  1.
         -6    1    1    2    0  503  0.55713324933E+02  0.13919057668E+03 -0.16274549151E+04  0.16433719883E+04  0.17200000000E+03 0.  1.
</event>
<event>
 4    1  0.4450588E+000  0.1842005E+03  0.7818608E-02  0.1163799E+00
         21   -1    0    0  501  502  0.00000000000E+00  0.00000000000E+00  0.25497448137E+03  0.25497448137E+03  0.00000000000E+00 0.  1.
         21   -1    0    0  502  503 -0.00000000000E+00 -0.00000000000E+00 -0.14827885605E+03  0.14827885605E+03  0.00000000000E+00 0.  1.
          6    1    1    2  501    0 -0.43884153915E+02 -0.49193655855E+02 -0.11222862584E+02  0.18454210193E+03  0.17200000000E+03 0. -1.
         -6    1    1    2    0  503  0.43884153915E+02  0.49193655855E+02  0.11791848790E+03  0.21871123549E+03  0.17200000000E+03 0. -1.
</event>
<event>
 4    1  0.4450588E+000  0.1916500E+03  0.7818608E-02  0.1156982E+00
         21   -1    0    0  501  502  0.00000000000E+00  0.00000000000E+00  0.20477268495E+02  0.20477268495E+02  0.00000000000E+00 0. -1.
         21   -1    0    0  502  503 -0.00000000000E+00 -0.00000000000E+00 -0.20095167658E+04  0.20095167658E+04  0.00000000000E+00 0. -1.
          6    1    1    2  501    0 -0.36848286903E+02  0.76078303416E+02 -0.66187565488E+03  0.68906392085E+03  0.17200000000E+03 0. -1.
         -6    1    1    2    0  503  0.36848286903E+02 -0.76078303416E+02 -0.13271638424E+04  0.13409301135E+04  0.17200000000E+03 0. -1.
</event>
<event>
 4    1  0.4450588E+000  0.1986079E+03  0.7818608E-02  0.1150919E+00
         21   -1    0    0  503  502  0.00000000000E+00  0.00000000000E+00  0.13437955715E+03  0.13437955715E+03  0.00000000000E+00 0. -1.
         21   -1    0    0  501  503 -0.00000000000E+00 -0.00000000000E+00 -0.69947181632E+03  0.69947181632E+03  0.00000000000E+00 0. -1.
          6    1    1    2  501    0  0.99285294700E+02 -0.18742455413E+01 -0.60016247621E+03  0.63217092656E+03  0.17200000000E+03 0. -1.
         -6    1    1    2    0  502 -0.99285294700E+02  0.18742455413E+01  0.35070217046E+02  0.20168044690E+03  0.17200000000E+03 0. -1.
</event>
<event>
 4    1  0.4450588E+000  0.3522708E+03  0.7818608E-02  0.1061687E+00
         21   -1    0    0  503  502  0.00000000000E+00  0.00000000000E+00  0.21712547327E+04  0.21712547327E+04  0.00000000000E+00 0. -1.
         21   -1    0    0  501  503 -0.00000000000E+00 -0.00000000000E+00 -0.61942822286E+02  0.61942822286E+02  0.00000000000E+00 0. -1.
          6    1    1    2  501    0  0.20917478593E+02  0.30671355409E+03  0.13651404976E+04  0.14098593275E+04  0.17200000000E+03 0. -1.
         -6    1    1    2    0  502 -0.20917478593E+02 -0.30671355409E+03  0.74417141279E+03  0.82333822745E+03  0.17200000000E+03 0. -1.
</event>
<event>
 4    1  0.4450588E+000  0.1853997E+03  0.7818608E-02  0.1162677E+00
         21   -1    0    0  501  502  0.00000000000E+00  0.00000000000E+00  0.59029511471E+03  0.59029511471E+03  0.00000000000E+00 0. -1.
         21   -1    0    0  502  503 -0.00000000000E+00 -0.00000000000E+00 -0.10460493417E+03  0.10460493417E+03  0.00000000000E+00 0. -1.
          6    1    1    2  501    0 -0.35935727080E+02  0.59141253312E+02  0.47418815691E+03  0.50914386226E+03  0.17200000000E+03 0. -1.
         -6    1    1    2    0  503  0.35935727080E+02 -0.59141253312E+02  0.11502023635E+02  0.18575618663E+03  0.17200000000E+03 0. -1.
</event>
<event>
 4    1  0.4450588E+000  0.3905156E+03  0.7818608E-02  0.1047114E+00
         21   -1    0    0  503  502  0.00000000000E+00  0.00000000000E+00  0.49887374250E+03  0.49887374250E+03  0.00000000000E+00 0. -1.
         21   -1    0    0  501  503 -0.00000000000E+00 -0.00000000000E+00 -0.36298009212E+03  0.36298009212E+03  0.00000000000E+00 0.  1.
          6    1    1    2  501    0 -0.14122018672E+02  0.35031271317E+03 -0.10324733906E+03  0.40393370922E+03  0.17200000000E+03 0.  1.
         -6    1    1    2    0  502  0.14122018672E+02 -0.35031271317E+03  0.23914098944E+03  0.45792012540E+03  0.17200000000E+03 0. -1.
</event>
<event>
 4    1  0.4450588E+000  0.1893845E+03  0.7818608E-02  0.1159018E+00
         21   -1    0    0  501  502  0.00000000000E+00  0.00000000000E+00  0.22537894251E+03  0.22537894251E+03  0.00000000000E+00 0.  1.
         21   -1    0    0  502  503 -0.00000000000E+00 -0.00000000000E+00 -0.23618951574E+03  0.23618951574E+03  0.00000000000E+00 0.  1.
          6    1    1    2  501    0 -0.46893067686E+02  0.63902422262E+02  0.12640971740E+03  0.22769693898E+03  0.17200000000E+03 0.  1.
         -6    1    1    2    0  503  0.46893067686E+02 -0.63902422262E+02 -0.13722029063E+03  0.23387151927E+03  0.17200000000E+03 0.  1.
</event>
<event>
 4    1  0.4450588E+000  0.2121444E+03  0.7818608E-02  0.1139879E+00
         21   -1    0    0  501  502  0.00000000000E+00  0.00000000000E+00  0.25802928771E+03  0.25802928771E+03  0.00000000000E+00 0. -1.
         21   -1    0    0  502  503 -0.00000000000E+00 -0.00000000000E+00 -0.33456786642E+03  0.33456786642E+03  0.00000000000E+00 0.  1.
          6    1    1    2  501    0  0.91595605964E+02  0.83854085492E+02  0.16672846888E+03  0.26982150585E+03  0.17200000000E+03 0. -1.
         -6    1    1    2    0  503 -0.91595605964E+02 -0.83854085492E+02 -0.24326704759E+03  0.32277564829E+03  0.17200000000E+03 0.  1.
</event>
<event>
 4    1  0.4450588E+000  0.2660618E+03  0.7818608E-02  0.1103555E+00
         21   -1    0    0  503  502  0.00000000000E+00  0.00000000000E+00  0.28072761736E+03  0.28072761736E+03  0.00000000000E+00 0. -1.
         21   -1    0    0  501  503 -0.00000000000E+00 -0.00000000000E+00 -0.49075947379E+03  0.49075947379E+03  0.00000000000E+00 0.  1.
          6    1    1    2  501    0  0.19964608990E+03 -0.36691945389E+02 -0.37398179499E+03  0.45896758388E+03  0.17200000000E+03 0.  1.
         -6    1    1    2    0  502 -0.19964608990E+03  0.36691945389E+02  0.16394993856E+03  0.31251950727E+03  0.17200000000E+03 0. -1.
</event>
<event>
 4    1  0.4450588E+000  0.2532520E+03  0.7818608E-02  0.1111267E+00
         21   -1    0    0  501  502  0.00000000000E+00  0.00000000000E+00  0.49876052431E+03  0.49876052431E+03  0.00000000000E+00 0.  1.
         21   -1    0    0  502  503 -0.00000000000E+00 -0.00000000000E+00 -0.23432919712E+03  0.23432919712E+03  0.00000000000E+00 0. -1.
          6    1    1    2  501    0 -0.73230768759E+02 -0.17085029809E+03  0.37843831776E+03  0.45535934184E+03  0.17200000000E+03 0.  1.
         -6    1    1    2    0  503  0.73230768759E+02  0.17085029809E+03 -0.11400699057E+03  0.27773037959E+03  0.17200000000E+03 0. -1.
</event>
<event>
 4    1  0.4450588E+000  0.2339914E+03  0.7818608E-02  0.1123862E+00
         21   -1    0    0  501  502  0.00000000000E+00  0.00000000000E+00  0.14305309499E+04  0.14305309499E+04  0.00000000000E+00 0.  1.
         21   -1    0    0  502  503 -0.00000000000E+00 -0.00000000000E+00 -0.46883491895E+02  0.46883491895E+02  0.00000000000E+00 0. -1.
          6    1    1    2  501    0 -0.94513763483E+02  0.12741719353E+03  0.10083820653E+04  0.10351745661E+04  0.17200000000E+03 0.  1.
         -6    1    1    2    0  503  0.94513763483E+02 -0.12741719353E+03  0.37526539276E+03  0.44223987574E+03  0.17200000000E+03 0.  1.
</event>
<event>
 4    1  0.4450588E+000  0.1758411E+03  0.7818608E-02  0.1171890E+00
         21   -1    0    0  503  502  0.00000000000E+00  0.00000000000E+00  0.70172271546E+03  0.70172271546E+03  0.00000000000E+00 0.  1.
         21   -1    0    0  501  503 -0.00000000000E+00 -0.00000000000E+00 -0.51950221569E+02  0.51950221569E+02  0.00000000000E+00 0.  1.
          6    1    1    2  501    0  0.35116008325E+02  0.10146000130E+02  0.17805496133E+03  0.25024716705E+03  0.17200000000E+03 0.  1.
         -6    1    1    2    0  502 -0.35116008325E+02 -0.10146000130E+02  0.47171753256E+03  0.50342576998E+03  0.17200000000E+03 0.  1.
</event>
<event>
 4    1  0.4450588E+000  0.1791406E+03  0.7818608E-02  0.1168637E+00
         21   -1    0    0  501  502  0.00000000000E+00  0.00000000000E+00  0.19561206553E+04  0.19561206553E+04  0.00000000000E+00 0.  1.
         21   -1    0    0  502  503 -0.00000000000E+00 -0.00000000000E+00 -0.68456294019E+02  0.68456294019E+02  0.00000000000E+00 0.  1.
          6    1    1    2  501    0  0.16063232208E+02 -0.47427093733E+02  0.18265274763E+04  0.18352912516E+04  0.17200000000E+03 0.  1.
         -6    1    1    2    0  503 -0.16063232208E+02  0.47427093733E+02  0.61136885007E+02  0.18928569771E+03  0.17200000000E+03 0.  1.
</event>
<event>
 4    1  0.4450588E+000  0.2672202E+03  0.7818608E-02  0.1102881E+00
         21   -1    0    0  501  502  0.00000000000E+00  0.00000000000E+00  0.92469267828E+03  0.92469267828E+03  0.00000000000E+00 0. -1.
         21   -1    0    0  502  503 -0.00000000000E+00 -0.00000000000E+00 -0.13746277776E+03  0.13746277776E+03  0.00000000000E+00 0.  1.
          6    1    1    2  501    0  0.23505873718E+02 -0.20315040792E+03  0.74518415801E+03  0.79164767648E+03  0.17200000000E+03 0.  1.
         -6    1    1    2    0  503 -0.23505873718E+02  0.20315040792E+03  0.42045742516E+02  0.27050777956E+03  0.17200000000E+03 0. -1.
</event>
<event>
 4    1  0.4450588E+000  0.1927658E+03  0.7818608E-02  0.1155990E+00
         21   -1    0    0  503  502  0.00000000000E+00  0.00000000000E+00  0.12307908901E+03  0.12307908901E+03  0.00000000000E+00 0.  1.
         21   -1    0    0  501  503 -0.00000000000E+00 -0.00000000000E+00 -0.48318256848E+03  0.48318256848E+03  0.00000000000E+00 0.  1.
          6    1    1    2  501    0 -0.11706725893E+02  0.86241504431E+02  0.56184198995E+01  0.19284763716E+03  0.17200000000E+03 0.  1.
         -6    1    1    2    0  502  0.11706725893E+02 -0.86241504431E+02 -0.36572189938E+03  0.41341402033E+03  0.17200000000E+03 0.  1.
</event>
<event>
 4    1  0.4450588E+000  0.2113111E+03  0.7818608E-02  0.1140532E+00
         21   -1    0    0  501  502  0.00000000000E+00  0.00000000000E+00  0.26057932208E+03  0.26057932208E+03  0.00000000000E+00 0.  1.
         21   -1    0    0  502  503 -0.00000000000E+00 -0.00000000000E+00 -0.29984904057E+03  0.29984904057E+03  0.00000000000E+00 0.  1.
          6    1    1    2  501    0  0.81015994478E+02 -0.92221416332E+02  0.16379710243E+03  0.26736093910E+03  0.17200000000E+03 0.  1.
         -6    1    1    2    0  503 -0.81015994478E+02  0.92221416332E+02 -0.20306682091E+03  0.29306742355E+03  0.17200000000E+03 0.  1.
</event>
<event>
 4    1  0.4450588E+000  0.1746411E+03  0.7818608E-02  0.1173093E+00
         21   -1    0    0  501  502  0.00000000000E+00  0.00000000000E+00  0.72259720493E+02  0.72259720493E+02  0.00000000000E+00 0.  1.
         21   -1    0    0  502  503 -0.00000000000E+00 -0.00000000000E+00 -0.45236664158E+03  0.45236664158E+03  0.00000000000E+00 0.  1.
          6    1    1    2  501    0 -0.29818724164E+02 -0.51347059467E+01 -0.25792483212E+03  0.31148794606E+03  0.17200000000E+03 0.  1.
         -6    1    1    2    0  503  0.29818724164E+02  0.51347059467E+01 -0.12218208896E+03  0.21313841601E+03  0.17200000000E+03 0.  1.
</event>
<event>
 4    1  0.4450588E+000  0.2985502E+03  0.7818608E-02  0.1085968E+00
         21   -1    0    0  503  502  0.00000000000E+00  0.00000000000E+00  0.19541352381E+03  0.19541352381E+03  0.00000000000E+00 0. -1.
         21   -1    0    0  501  503 -0.00000000000E+00 -0.00000000000E+00 -0.55941347494E+03  0.55941347494E+03  0.00000000000E+00 0. -1.
          6    1    1    2  501    0 -0.12638042575E+03  0.20874912861E+03 -0.34417550443E+03  0.45561934612E+03  0.17200000000E+03 0. -1.
         -6    1    1    2    0  502  0.12638042575E+03 -0.20874912861E+03 -0.19824446697E+02  0.29920765263E+03  0.17200000000E+03 0. -1.
</event>
<event>
 4    1  0.4450588E+000  0.2143732E+03  0.7818608E-02  0.1138149E+00
         21   -1    0    0  501  502  0.00000000000E+00  0.00000000000E+00  0.96520442800E+02  0.96520442800E+02  0.00000000000E+00 0. -1.
         21   -1    0    0  502  503 -0.00000000000E+00 -0.00000000000E+00 -0.50496407492E+03  0.50496407492E+03  0.00000000000E+00 0.  1.
          6    1    1    2  501    0 -0.49069469815E+02  0.11816963404E+03 -0.13235164459E+03  0.25193815333E+03  0.17200000000E+03 0. -1.
         -6    1    1    2    0  503  0.49069469815E+02 -0.11816963404E+03 -0.27609198753E+03  0.34954636439E+03  0.17200000000E+03 0. -1.
</event>
<event>
 4    1  0.4450588E+000  0.2413421E+03  0.7818608E-02  0.1118902E+00
         21   -1    0    0  501  502  0.00000000000E+00  0.00000000000E+00  0.88564711486E+02  0.88564711486E+02  0.00000000000E+00 0.  1.
         21   -1    0    0  502  503 -0.00000000000E+00 -0.00000000000E+00 -0.78583158185E+03  0.78583158185E+03  0.00000000000E+00 0.  1.
          6    1    1    2  501    0 -0.62803981383E+02 -0.15721859964E+03 -0.17207082831E+03  0.29640242594E+03  0.17200000000E+03 0.  1.
         -6    1    1    2    0  503  0.62803981383E+02  0.15721859964E+03 -0.52519604205E+03  0.57799386739E+03  0.17200000000E+03 0.  1.
</event>
<event>
 4    1  0.4450588E+000  0.2106600E+03  0.7818608E-02  0.1141044E+00
         21   -1    0    0  503  502  0.00000000000E+00  0.00000000000E+00  0.22237714067E+03  0.22237714067E+03  0.00000000000E+00 0.  1.
         21   -1    0    0  501  503 -0.00000000000E+00 -0.00000000000E+00 -0.56567527489E+03  0.56567527489E+03  0.00000000000E+00 0.  1.
          6    1    1    2  501    0  0.14923483685E+02 -0.12071007901E+03 -0.48864252404E+03  0.53211760903E+03  0.17200000000E+03 0.  1.
         -6    1    1    2    0  502 -0.14923483685E+02  0.12071007901E+03  0.14534438982E+03  0.25593480653E+03  0.17200000000E+03 0.  1.
</event>
<event>
 4    1  0.4450588E+000  0.1754639E+03  0.7818608E-02  0.1172267E+00
         21   -1    0    0  501  502  0.00000000000E+00  0.00000000000E+00  0.44433660251E+03  0.44433660251E+03  0.00000000000E+00 0. -1.
         21   -1    0    0  502  503 -0.00000000000E+00 -0.00000000000E+00 -0.99873943315E+02  0.99873943315E+02  0.00000000000E+00 0. -1.
          6    1    1    2  501    0 -0.18828826704E+02 -0.29138450659E+02  0.32281078941E+03  0.36741581319E+03  0.17200000000E+03 0. -1.
         -6    1    1    2    0  503  0.18828826704E+02  0.29138450659E+02  0.21651869783E+02  0.17679473263E+03  0.17200000000E+03 0. -1.
</event>
<event>
 4    1  0.4450588E+000  0.2400524E+03  0.7818608E-02  0.1119758E+00
         21   -1    0    0  503  502  0.00000000000E+00  0.00000000000E+00  0.34336716862E+03  0.34336716862E+03  0.00000000000E+00 0. -1.
         21   -1    0    0  501  503 -0.00000000000E+00 -0.00000000000E+00 -0.22728356754E+03  0.22728356754E+03  0.00000000000E+00 0. -1.
          6    1    1    2  501    0  0.13864696815E+03 -0.93905249146E+02 -0.87896077996E+02  0.25563821726E+03  0.17200000000E+03 0. -1.
         -6    1    1    2    0  502 -0.13864696815E+03  0.93905249146E+02  0.20397967907E+03  0.31501251891E+03  0.17200000000E+03 0. -1.
</event>
<event>
 4    1  0.4450588E+000  0.2045713E+03  0.7818608E-02  0.1145938E+00
         21   -1    0    0  501  502  0.00000000000E+00  0.00000000000E+00  0.32627039320E+02  0.32627039320E+02  0.00000000000E+00 0. -1.
         21   -1    0    0  502  503 -0.00000000000E+00 -0.00000000000E+00 -0.14117394820E+04  0.14117394820E+04  0.00000000000E+00 0. -1.
          6    1    1    2  501    0 -0.90574046369E+02  0.63731983880E+02 -0.47118397824E+03  0.51367671253E+03  0.17200000000E+03 0. -1.
         -6    1    1    2    0  503  0.90574046369E+02 -0.63731983880E+02 -0.90792846444E+03  0.93068980879E+03  0.17200000000E+03 0. -1.
</event>
<event>
 4    1  0.4450588E+000  0.1866487E+03  0.7818608E-02  0.1161519E+00
         21   -1    0    0  501  502  0.00000000000E+00  0.00000000000E+00  0.23478703297E+03  0.23478703297E+03  0.00000000000E+00 0. -1.
         21   -1    0    0  502  503 -0.00000000000E+00 -0.00000000000E+00 -0.16059946450E+03  0.16059946450E+03  0.00000000000E+00 0. -1.
          6    1    1    2  501    0 -0.48880375190E+02  0.53520382249E+02  0.91624874432E+02  0.20792508268E+03  0.17200000000E+03 0. -1.
         -6    1    1    2    0  503  0.48880375190E+02 -0.53520382249E+02 -0.17437305954E+02  0.18746141479E+03  0.17200000000E+03 0. -1.
</event>
<event>
 4    1  0.4450588E+000  0.1911168E+03  0.7818608E-02  0.1157458E+00
         21   -1    0    0  501  502  0.00000000000E+00  0.00000000000E+00  0.83178049247E+02  0.83178049247E+02  0.00000000000E+00 0. -1.
         21   -1    0    0  502  503 -0.00000000000E+00 -0.00000000000E+00 -0.52924931468E+03  0.52924931468E+03  0.00000000000E+00 0. -1.
          6    1    1    2  501    0  0.34338154336E+02 -0.75911283576E+02 -0.96674540228E+02  0.21417655928E+03  0.17200000000E+03 0. -1.
         -6    1    1    2    0  503 -0.34338154336E+02  0.75911283576E+02 -0.34939672521E+03  0.39825080465E+03  0.17200000000E+03 0. -1.
</event>
<event>
 4    1  0.4450588E+000  0.1983545E+03  0.7818608E-02  0.1151135E+00
         21   -1    0    0  503  502  0.00000000000E+00  0.00000000000E+00  0.71943031856E+02  0.71943031856E+02  0.00000000000E+00 0. -1.
         21   -1    0    0  501  503 -0.00000000000E+00 -0.00000000000E+00 -0.55149672337E+03  0.55149672337E+03  0.00000000000E+00 0.  1.
          6    1    1    2  501    0 -0.94331192797E+01  0.98343886273E+02 -0.26828471447E+03  0.33364830544E+03  0.17200000000E+03 0.  1.
         -6    1    1    2    0  502  0.94331192797E+01 -0.98343886273E+02 -0.21126897705E+03  0.28979144979E+03  0.17200000000E+03 0. -1.
</event>
<event>
 4    1  0.4450588E+000  0.1954014E+03  0.7818608E-02  0.1153678E+00
         21   -1    0    0  501  502  0.00000000000E+00  0.00000000000E+00  0.21891086764E+03  0.21891086764E+03  0.00000000000E+00 0. -1.
         21   -1    0    0  502  503 -0.00000000000E+00 -0.00000000000E+00 -0.17447170992E+03  0.17447170992E+03  0.00000000000E+00 0.  1.
          6    1    1    2  501    0  0.77332465457E+02 -0.51160686221E+02  0.25709971357E+02  0.19708558713E+03  0.17200000000E+03 0. -1.
         -6    1    1    2    0  503 -0.77332465457E+02  0.51160686221E+02  0.18729186371E+02  0.19629699043E+03  0.17200000000E+03 0.  1.
</event>
<event>
 4    1  0.4450588E+000  0.1891213E+03  0.7818608E-02  0.1159256E+00
         21   -1    0    0  503  502  0.00000000000E+00  0.00000000000E+00  0.54327879707E+02  0.54327879707E+02  0.00000000000E+00 0. -1.
         21   -1    0    0  501  503 -0.00000000000E+00 -0.00000000000E+00 -0.33488435627E+04  0.33488435627E+04  0.00000000000E+00 0. -1.
          6    1    1    2  501    0 -0.52365183575E+02  0.58657840437E+02 -0.31724418382E+04  0.31780739562E+04  0.17200000000E+03 0. -1.
         -6    1    1    2    0  502  0.52365183575E+02 -0.58657840437E+02 -0.12207384483E+03  0.22509748619E+03  0.17200000000E+03 0. -1.
</event>
<event>
 4    1  0.4450588E+000  0.2520653E+03  0.7818608E-02  0.1112007E+00
         21   -1    0    0  501  502  0.00000000000E+00  0.00000000000E+00  0.13801105745E+04  0.13801105745E+04  0.00000000000E+00 0. -1.
         21   -1    0    0  502  503 -0.00000000000E+00 -0.00000000000E+00 -0.57000018680E+02  0.57000018680E+02  0.00000000000E+00 0. -1.
          6    1    1    2  501    0  0.51000569974E+01 -0.18419255478E+03  0.97667595721E+03  0.10086787562E+04  0.17200000000E+03 0. -1.
         -6    1    1    2    0  503 -0.51000569974E+01  0.18419255478E+03  0.34643459858E+03  0.42843183695E+03  0.17200000000E+03 0. -1.
</event>
<event>
 4    1  0.4450588E+000  0.2772653E+03  0.7818608E-02  0.1097192E+00
         21   -1    0    0  503  502  0.00000000000E+00  0.00000000000E+00  0.87044946317E+03  0.87044946317E+03  0.00000000000E+00 0. -1.
         21   -1    0    0  501  503 -0.00000000000E+00 -0.00000000000E+00 -0.33538374296E+03  0.33538374296E+03  0.00000000000E+00 0. -1.
          6    1    1    2  501    0 -0.14204550952E+03  0.16466661381E+03 -0.24994627612E+03  0.37329500589E+03  0.17200000000E+03 0. -1.
         -6    1    1    2    0  502  0.14204550952E+03 -0.16466661381E+03  0.78501199633E+03  0.83253820024E+03  0.17200000000E+03 0. -1.
</event>
<event>
 4    1  0.4450588E+000  0.2251454E+03  0.7818608E-02  0.1130104E+00
         21   -1    0    0  501  502  0.00000000000E+00  0.00000000000E+00  0.38197898204E+03  0.38197898204E+03  0.00000000000E+00 0.  1.
         21   -1    0    0  502  503 -0.00000000000E+00 -0.00000000000E+00 -0.13657140038E+03  0.13657140038E+03  0.00000000000E+00 0.  1.
          6    1    1    2  501    0  0.14261630970E+03  0.27695474260E+02  0.79077856081E+02  0.23862891361E+03  0.17200000000E+03 0.  1.
         -6    1    1    2    0  503 -0.14261630970E+03 -0.27695474260E+02  0.16632972558E+03  0.27992146880E+03  0.17200000000E+03 0.  1.
</event>
<event>
 4    1  0.4450588E+000  0.1935885E+03  0.7818608E-02  0.1155264E+00
         21   -1    0    0  503  502  0.00000000000E+00  0.00000000000E+00  0.27176427330E+03  0.27176427330E+03  0.00000000000E+00 0. -1.
         21   -1    0    0  501  503 -0.00000000000E+00 -0.00000000000E+00 -0.18589687779E+03  0.18589687779E+03  0.00000000000E+00 0. -1.
          6    1    1    2  501    0  0.67494732996E+00 -0.88837137523E+02 -0.73339918926E+02  0.20701506289E+03  0.17200000000E+03 0. -1.
         -6    1    1    2    0  502 -0.67494732996E+00  0.88837137523E+02  0.15920731444E+03  0.25064608820E+03  0.17200000000E+03 0. -1.
</event>
<event>
 4    1  0.4450588E+000  0.2277271E+03  0.7818608E-02  0.1128250E+00
         21   -1    0    0  501  502  0.00000000000E+00  0.00000000000E+00  0.72132526364E+03  0.72132526364E+03  0.00000000000E+00 0. -1.
         21   -1    0    0  502  503 -0.00000000000E+00 -0.00000000000E+00 -0.10211139109E+03  0.10211139109E+03  0.00000000000E+00 0. -1.
          6    1    1    2  501    0  0.14617848712E+03 -0.30124676183E+02  0.53357429832E+03  0.58013892994E+03  0.17200000000E+03 0. -1.
         -6    1    1    2    0  503 -0.14617848712E+03  0.30124676183E+02  0.85639574234E+02  0.24329772479E+03  0.17200000000E+03 0. -1.
</event>
<event>
 4    1  0.4450588E+000  0.2121784E+03  0.7818608E-02  0.1139852E+00
         21   -1    0    0  501  502  0.00000000000E+00  0.00000000000E+00  0.14303624557E+03  0.14303624557E+03  0.00000000000E+00 0.  1.
         21   -1    0    0  502  503 -0.00000000000E+00 -0.00000000000E+00 -0.33230651302E+03  0.33230651302E+03  0.00000000000E+00 0.  1.
          6    1    1    2  501    0 -0.55171715099E+02 -0.11131834638E+03 -0.39995208276E+02  0.21591505059E+03  0.17200000000E+03 0.  1.
         -6    1    1    2    0  503  0.55171715099E+02  0.11131834638E+03 -0.14927505918E+03  0.25942770800E+03  0.17200000000E+03 0.  1.
</event>
<event>
 4    1  0.4450588E+000  0.3847173E+03  0.7818608E-02  0.1049204E+00
         21   -1    0    0  501  502  0.00000000000E+00  0.00000000000E+00  0.60423605359E+03  0.60423605359E+03  0.00000000000E+00 0.  1.
         21   -1    0    0  502  503 -0.00000000000E+00 -0.00000000000E+00 -0.30322899097E+03  0.30322899097E+03  0.00000000000E+00 0. -1.
          6    1    1    2  501    0  0.22401702134E+03  0.26122748464E+03  0.34942047334E+03  0.51971347084E+03  0.17200000000E+03 0.  1.
         -6    1    1    2    0  503 -0.22401702134E+03 -0.26122748464E+03 -0.48413410721E+02  0.38775157372E+03  0.17200000000E+03 0. -1.
</event>
<event>
 4    1  0.4450588E+000  0.3412686E+03  0.7818608E-02  0.1066257E+00
         21   -1    0    0  503  502  0.00000000000E+00  0.00000000000E+00  0.20044001009E+03  0.20044001009E+03  0.00000000000E+00 0. -1.
         21   -1    0    0  501  503 -0.00000000000E+00 -0.00000000000E+00 -0.64861885147E+03  0.64861885147E+03  0.00000000000E+00 0.  1.
          6    1    1    2  501    0 -0.99000582723E+02  0.27763134863E+03 -0.36111716900E+03  0.49686003147E+03  0.17200000000E+03 0.  1.
         -6    1    1    2    0  502  0.99000582723E+02 -0.27763134863E+03 -0.87061672380E+02  0.35219883010E+03  0.17200000000E+03 0. -1.
</event>
<event>
 4    1  0.4450588E+000  0.1804018E+03  0.7818608E-02  0.1167415E+00
         21   -1    0    0  503  502  0.00000000000E+00  0.00000000000E+00  0.11181707884E+04  0.11181707884E+04  0.00000000000E+00 0. -1.
         21   -1    0    0  501  503 -0.00000000000E+00 -0.00000000000E+00 -0.29125878892E+02  0.29125878892E+02  0.00000000000E+00 0. -1.
          6    1    1    2  501    0  0.29755472878E+02 -0.45556845368E+02  0.55973143344E+03  0.58808510601E+03  0.17200000000E+03 0. -1.
         -6    1    1    2    0  502 -0.29755472878E+02  0.45556845368E+02  0.52931347602E+03  0.55921156124E+03  0.17200000000E+03 0. -1.
</event>
<event>
 4    1  0.4450588E+000  0.1755812E+03  0.7818608E-02  0.1172149E+00
         21   -1    0    0  503  502  0.00000000000E+00  0.00000000000E+00  0.24376155644E+03  0.24376155644E+03  0.00000000000E+00 0.  1.
         21   -1    0    0  501  503 -0.00000000000E+00 -0.00000000000E+00 -0.19239307423E+03  0.19239307423E+03  0.00000000000E+00 0.  1.
          6    1    1    2  501    0 -0.14369654474E+02  0.32222084993E+02 -0.10196888396E+03  0.20304286007E+03  0.17200000000E+03 0.  1.
         -6    1    1    2    0  502  0.14369654474E+02 -0.32222084993E+02  0.15333736617E+03  0.23311177060E+03  0.17200000000E+03 0.  1.
</event>
<event>
 4    1  0.4450588E+000  0.2178097E+03  0.7818608E-02  0.1135527E+00
         21   -1    0    0  501  502  0.00000000000E+00  0.00000000000E+00  0.79316451304E+03  0.79316451304E+03  0.00000000000E+00 0.  1.
         21   -1    0    0  502  503 -0.00000000000E+00 -0.00000000000E+00 -0.63753277288E+02  0.63753277288E+02  0.00000000000E+00 0. -1.
          6    1    1    2  501    0 -0.46942185865E+02  0.12511396565E+03  0.47123130778E+03  0.51913391206E+03  0.17200000000E+03 0.  1.
         -6    1    1    2    0  503  0.46942185865E+02 -0.12511396565E+03  0.25817992797E+03  0.33778387827E+03  0.17200000000E+03 0. -1.
</event>
<event>
 4    1  0.4450588E+000  0.1736693E+03  0.7818608E-02  0.1174074E+00
         21   -1    0    0  503  502  0.00000000000E+00  0.00000000000E+00  0.97830409213E+03  0.97830409213E+03  0.00000000000E+00 0.  1.
         21   -1    0    0  501  503 -0.00000000000E+00 -0.00000000000E+00 -0.54196193395E+02  0.54196193395E+02  0.00000000000E+00 0.  1.
          6    1    1    2  501    0  0.66973648953E+01 -0.23068793201E+02  0.12307662838E+03  0.21285882732E+03  0.17200000000E+03 0.  1.
         -6    1    1    2    0  502 -0.66973648953E+01  0.23068793201E+02  0.80103127036E+03  0.81964145820E+03  0.17200000000E+03 0.  1.
</event>
<event>
 4    1  0.4450588E+000  0.2333260E+03  0.7818608E-02  0.1124320E+00
         21   -1    0    0  503  502  0.00000000000E+00  0.00000000000E+00  0.20244288297E+03  0.20244288297E+03  0.00000000000E+00 0.  1.
         21   -1    0    0  501  503 -0.00000000000E+00 -0.00000000000E+00 -0.29778416726E+03  0.29778416726E+03  0.00000000000E+00 0.  1.
          6    1    1    2  501    0 -0.23842727316E+02  0.15584780389E+03 -0.12553938425E+03  0.26495499735E+03  0.17200000000E+03 0.  1.
         -6    1    1    2    0  502  0.23842727316E+02 -0.15584780389E+03  0.30198099956E+02  0.23527205288E+03  0.17200000000E+03 0.  1.
</event>
<event>
 4    1  0.4450588E+000  0.1858813E+03  0.7818608E-02  0.1162229E+00
         21   -1    0    0  501  502  0.00000000000E+00  0.00000000000E+00  0.76944373104E+03  0.76944373104E+03  0.00000000000E+00 0.  1.
         21   -1    0    0  502  503 -0.00000000000E+00 -0.00000000000E+00 -0.45335476217E+02  0.45335476217E+02  0.00000000000E+00 0. -1.
          6    1    1    2  501    0  0.54799983352E+02 -0.44326312066E+02  0.32235578277E+03  0.37210900393E+03  0.17200000000E+03 0.  1.
         -6    1    1    2    0  503 -0.54799983352E+02  0.44326312066E+02  0.40175247205E+03  0.44267020333E+03  0.17200000000E+03 0. -1.
</event>
<event>
 4    1  0.4450588E+000  0.2393089E+03  0.7818608E-02  0.1120254E+00
         21   -1    0    0  501  502  0.00000000000E+00  0.00000000000E+00  0.11464640039E+04  0.11464640039E+04  0.00000000000E+00 0. -1.
         21   -1    0    0  502  503 -0.00000000000E+00 -0.00000000000E+00 -0.85898461116E+02  0.85898461116E+02  0.00000000000E+00 0.  1.
          6    1    1    2  501    0 -0.14020343343E+03 -0.89597812270E+02  0.92888587849E+03  0.95921725692E+03  0.17200000000E+03 0. -1.
         -6    1    1    2    0  503  0.14020343343E+03  0.89597812270E+02  0.13167966426E+03  0.27314520807E+03  0.17200000000E+03 0.  1.
</event>
<event>
 4    1  0.4450588E+000  0.2187499E+03  0.7818608E-02  0.1134818E+00
         21   -1    0    0  501  502  0.00000000000E+00  0.00000000000E+00  0.71691370273E+03  0.71691370273E+03  0.00000000000E+00 0.  1.
         21   -1    0    0  502  503 -0.00000000000E+00 -0.00000000000E+00 -0.11025410609E+03  0.11025410609E+03  0.00000000000E+00 0.  1.
          6    1    1    2  501    0  0.87027076863E+02 -0.10341087464E+03  0.56313542567E+03  0.60412997670E+03  0.17200000000E+03 0. -1.
         -6    1    1    2    0  503 -0.87027076863E+02  0.10341087464E+03  0.43524170972E+02  0.22303783213E+03  0.17200000000E+03 0. -1.
</event>
<event>
 4    1  0.4450588E+000  0.1747031E+03  0.7818608E-02  0.1173030E+00
         21   -1    0    0  501  502  0.00000000000E+00  0.00000000000E+00  0.11992657212E+03  0.11992657212E+03  0.00000000000E+00 0. -1.
         21   -1    0    0  502  503 -0.00000000000E+00 -0.00000000000E+00 -0.35928969649E+03  0.35928969649E+03  0.00000000000E+00 0. -1.
          6    1    1    2  501    0  0.24392517972E+02  0.18497688723E+02  0.97204751908E+01  0.17497327527E+03  0.17200000000E+03 0. -1.
         -6    1    1    2    0  503 -0.24392517972E+02 -0.18497688723E+02 -0.24908359956E+03  0.30424299333E+03  0.17200000000E+03 0. -1.
</event>
<event>
 4    1  0.4450588E+000  0.1949344E+03  0.7818608E-02  0.1154085E+00
         21   -1    0    0  503  502  0.00000000000E+00  0.00000000000E+00  0.93016312580E+03  0.93016312580E+03  0.00000000000E+00 0.  1.
         21   -1    0    0  501  503 -0.00000000000E+00 -0.00000000000E+00 -0.41335992301E+02  0.41335992301E+02  0.00000000000E+00 0.  1.
          6    1    1    2  501    0  0.63961312374E+02 -0.65759873716E+02  0.39187466710E+03  0.43768157968E+03  0.17200000000E+03 0.  1.
         -6    1    1    2    0  502 -0.63961312374E+02  0.65759873716E+02  0.49695246639E+03  0.53381753842E+03  0.17200000000E+03 0.  1.
</event>
<event>
 4    1  0.4450588E+000  0.1882981E+03  0.7818608E-02  0.1160005E+00
         21   -1    0    0  501  502  0.00000000000E+00  0.00000000000E+00  0.24878053645E+03  0.24878053645E+03  0.00000000000E+00 0.  1.
         21   -1    0    0  502  503 -0.00000000000E+00 -0.00000000000E+00 -0.14824655586E+03  0.14824655586E+03  0.00000000000E+00 0. -1.
          6    1    1    2  501    0  0.73982940191E+02  0.19967305978E+02  0.89283612507E+02  0.20839321536E+03  0.17200000000E+03 0.  1.
         -6    1    1    2    0  503 -0.73982940191E+02 -0.19967305978E+02  0.11250368085E+02  0.18863387694E+03  0.17200000000E+03 0.  1.
</event>
<event>
 4    1  0.4450588E+000  0.2561632E+03  0.7818608E-02  0.1109471E+00
         21   -1    0    0  501  502  0.00000000000E+00  0.00000000000E+00  0.89343318291E+02  0.89343318291E+02  0.00000000000E+00 0. -1.
         21   -1    0    0  502  503 -0.00000000000E+00 -0.00000000000E+00 -0.77303237685E+03  0.77303237685E+03  0.00000000000E+00 0.  1.
          6    1    1    2  501    0  0.88097717589E+02  0.16814980655E+03 -0.24553347330E+03  0.35483270960E+03  0.17200000000E+03 0.  1.
         -6    1    1    2    0  503 -0.88097717589E+02 -0.16814980655E+03 -0.43815558526E+03  0.50754298555E+03  0.17200000000E+03 0.  1.
</event>
<event>
 4    1  0.4450588E+000  0.1784720E+03  0.7818608E-02  0.1169290E+00
         21   -1    0    0  503  502  0.00000000000E+00  0.00000000000E+00  0.26832210065E+03  0.26832210065E+03  0.00000000000E+00 0. -1.
         21   -1    0    0  501  503 -0.00000000000E+00 -0.00000000000E+00 -0.38239947526E+03  0.38239947526E+03  0.00000000000E+00 0. -1.
          6    1    1    2  501    0 -0.34062076193E+02  0.33286948848E+02 -0.32721905956E+03  0.37272584957E+03  0.17200000000E+03 0. -1.
         -6    1    1    2    0  502  0.34062076193E+02 -0.33286948848E+02  0.21314168495E+03  0.27799572634E+03  0.17200000000E+03 0. -1.
</event>
<event>
 4    1  0.4450588E+000  0.2139920E+03  0.7818608E-02  0.1138443E+00
         21   -1    0    0  501  502  0.00000000000E+00  0.00000000000E+00  0.17743779577E+03  0.17743779577E+03  0.00000000000E+00 0. -1.
         21   -1    0    0  502  503 -0.00000000000E+00 -0.00000000000E+00 -0.51731960651E+03  0.51731960651E+03  0.00000000000E+00 0. -1.
          6    1    1    2  501    0  0.12523346609E+03 -0.22915816406E+02  0.75969656913E+02  0.22707695709E+03  0.17200000000E+03 0. -1.
         -6    1    1    2    0  503 -0.12523346609E+03  0.22915816406E+02 -0.41585146765E+03  0.46768044519E+03  0.17200000000E+03 0. -1.
</event>
<event>
 4    1  0.4450588E+000  0.1942393E+03  0.7818608E-02  0.1154692E+00
         21   -1    0    0  503  502  0.00000000000E+00  0.00000000000E+00  0.26611197103E+03  0.26611197103E+03  0.00000000000E+00 0. -1.
         21   -1    0    0  501  503 -0.00000000000E+00 -0.00000000000E+00 -0.16822323634E+03  0.16822323634E+03  0.00000000000E+00 0. -1.
          6    1    1    2  501    0  0.87586394332E+02  0.21760614900E+02 -0.37159641699E+02  0.19776182595E+03  0.17200000000E+03 0. -1.
         -6    1    1    2    0  502 -0.87586394332E+02 -0.21760614900E+02  0.13504837639E+03  0.23657338142E+03  0.17200000000E+03 0. -1.
</event>
<event>
 4    1  0.4450588E+000  0.2233208E+03  0.7818608E-02  0.1131431E+00
         21   -1    0    0  503  502  0.00000000000E+00  0.00000000000E+00  0.12226721206E+03  0.12226721206E+03  0.00000000000E+00 0.  1.
         21   -1    0    0  501  503 -0.00000000000E+00 -0.00000000000E+00 -0.65631206831E+03  0.65631206831E+03  0.00000000000E+00 0.  1.
          6    1    1    2  501    0 -0.14155639898E+03 -0.15809870259E+02 -0.50652407205E+03  0.55356914804E+03  0.17200000000E+03 0.  1.
         -6    1    1    2    0  502  0.14155639898E+03  0.15809870259E+02 -0.27520784199E+02  0.22501013233E+03  0.17200000000E+03 0.  1.
</event>
<event>
 4    1  0.4450588E+000  0.1895308E+03  0.7818608E-02  0.1158885E+00
         21   -1    0    0  503  502  0.00000000000E+00  0.00000000000E+00  0.55618656972E+03  0.55618656972E+03  0.00000000000E+00 0. -1.
         21   -1    0    0  501  503 -0.00000000000E+00 -0.00000000000E+00 -0.72460630424E+02  0.72460630424E+02  0.00000000000E+00 0. -1.
          6    1    1    2  501    0 -0.17701391345E+02  0.77618135657E+02  0.34548178532E+03  0.39405529844E+03  0.17200000000E+03 0. -1.
         -6    1    1    2    0  502  0.17701391345E+02 -0.77618135657E+02  0.13824415398E+03  0.23459190171E+03  0.17200000000E+03 0. -1.
</event>
<event>
 4    1  0.4450588E+000  0.2258716E+03  0.7818608E-02  0.1129580E+00
         21   -1    0    0  503  502  0.00000000000E+00  0.00000000000E+00  0.53355092608E+03  0.53355092608E+03  0.00000000000E+00 0. -1.
         21   -1    0    0  501  503 -0.00000000000E+00 -0.00000000000E+00 -0.28624130303E+03  0.28624130303E+03  0.00000000000E+00 0. -1.
          6    1    1    2  501    0 -0.47243576681E+02  0.13857142183E+03 -0.21084330614E+03  0.30898688359E+03  0.17200000000E+03 0. -1.
         -6    1    1    2    0  502  0.47243576681E+02 -0.13857142183E+03  0.45815292919E+03  0.51080534552E+03  0.17200000000E+03 0. -1.
</event>
<event>
 4    1  0.4450588E+000  0.1784485E+03  0.7818608E-02  0.1169313E+00
         21   -1    0    0  503  502  0.00000000000E+00  0.00000000000E+00  0.58076459191E+03  0.58076459191E+03  0.00000000000E+00 0.  1.
         21   -1    0    0  501  503 -0.00000000000E+00 -0.00000000000E+00 -0.55558001714E+02  0.55558001714E+02  0.00000000000E+00 0.  1.
          6    1    1    2  501    0  0.32831015527E+02 -0.34380057604E+02  0.22620659429E+03  0.28812026524E+03  0.17200000000E+03 0. -1.
         -6    1    1    2    0  502 -0.32831015527E+02  0.34380057604E+02  0.29899999591E+03  0.34820232839E+03  0.17200000000E+03 0. -1.
</event>
<event>
 4    1  0.4450588E+000  0.1914379E+03  0.7818608E-02  0.1157171E+00
         21   -1    0    0  503  502  0.00000000000E+00  0.00000000000E+00  0.94140527987E+02  0.94140527987E+02  0.00000000000E+00 0. -1.
         21   -1    0    0  501  503 -0.00000000000E+00 -0.00000000000E+00 -0.39774728219E+03  0.39774728219E+03  0.00000000000E+00 0. -1.
          6    1    1    2  501    0  0.83655912610E+02  0.81333525106E+01 -0.11595146920E+03  0.22381511644E+03  0.17200000000E+03 0.  1.
         -6    1    1    2    0  502 -0.83655912610E+02 -0.81333525106E+01 -0.18765528501E+03  0.26807269374E+03  0.17200000000E+03 0.  1.
</event>
<event>
 4    1  0.4450588E+000  0.2307100E+03  0.7818608E-02  0.1126141E+00
         21   -1    0    0  503  502  0.00000000000E+00  0.00000000000E+00  0.28884646846E+03  0.28884646846E+03  0.00000000000E+00 0. -1.
         21   -1    0    0  501  503 -0.00000000000E+00 -0.00000000000E+00 -0.19533673310E+03  0.19533673310E+03  0.00000000000E+00 0. -1.
          6    1    1    2  501    0 -0.11570336270E+03  0.10127107486E+03 -0.10856087300E+02  0.23096526443E+03  0.17200000000E+03 0. -1.
         -6    1    1    2    0  502  0.11570336270E+03 -0.10127107486E+03  0.10436582265E+03  0.25321793712E+03  0.17200000000E+03 0. -1.
</event>
<event>
 4    1  0.4450588E+000  0.2492007E+03  0.7818608E-02  0.1113811E+00
         21   -1    0    0  503  502  0.00000000000E+00  0.00000000000E+00  0.25306296148E+03  0.25306296148E+03  0.00000000000E+00 0. -1.
         21   -1    0    0  501  503 -0.00000000000E+00 -0.00000000000E+00 -0.27372165582E+03  0.27372165582E+03  0.00000000000E+00 0. -1.
          6    1    1    2  501    0 -0.47785666048E+02 -0.17387782588E+03 -0.95057650184E+02  0.26671506345E+03  0.17200000000E+03 0. -1.
         -6    1    1    2    0  502  0.47785666048E+02  0.17387782588E+03  0.74398955838E+02  0.26006955385E+03  0.17200000000E+03 0. -1.
</event>
<event>
 4    1  0.4450588E+000  0.2020403E+03  0.7818608E-02  0.1148029E+00
         21   -1    0    0  501  502  0.00000000000E+00  0.00000000000E+00  0.32400637647E+03  0.32400637647E+03  0.00000000000E+00 0.  1.
         21   -1    0    0  502  503 -0.00000000000E+00 -0.00000000000E+00 -0.12673003282E+03  0.12673003282E+03  0.00000000000E+00 0. -1.
          6    1    1    2  501    0  0.99718236255E+02 -0.35952322274E+02  0.11590541474E+03  0.23292565613E+03  0.17200000000E+03 0.  1.
         -6    1    1    2    0  503 -0.99718236255E+02  0.35952322274E+02  0.81370928910E+02  0.21781075316E+03  0.17200000000E+03 0. -1.
</event>
<event>
 4    1  0.4450588E+000  0.1852171E+03  0.7818608E-02  0.1162847E+00
         21   -1    0    0  503  502  0.00000000000E+00  0.00000000000E+00  0.18352909048E+04  0.18352909048E+04  0.00000000000E+00 0. -1.
         21   -1    0    0  501  503 -0.00000000000E+00 -0.00000000000E+00 -0.19265414851E+02  0.19265414851E+02  0.00000000000E+00 0. -1.
          6    1    1    2  501    0  0.67236681199E+02 -0.14163194207E+02  0.74804491095E+03  0.77063386649E+03  0.17200000000E+03 0. -1.
         -6    1    1    2    0  502 -0.67236681199E+02  0.14163194207E+02  0.10679805790E+04  0.10839224532E+04  0.17200000000E+03 0. -1.
</event>
<event>
 4    1  0.4450588E+000  0.4182957E+03  0.7818608E-02  0.1037622E+00
         21   -1    0    0  501  502  0.00000000000E+00  0.00000000000E+00  0.16305318088E+03  0.16305318088E+03  0.00000000000E+00 0. -1.
         21   -1    0    0  502  503 -0.00000000000E+00 -0.00000000000E+00 -0.10945035909E+04  0.10945035909E+04  0.00000000000E+00 0.  1.
          6    1    1    2  501    0  0.14528510908E+03  0.35253306045E+03 -0.37778297953E+03  0.56364111033E+03  0.17200000000E+03 0. -1.
         -6    1    1    2    0  503 -0.14528510908E+03 -0.35253306045E+03 -0.55366743048E+03  0.69391566145E+03  0.17200000000E+03 0.  1.
</event>
<event>
 4    1  0.4450588E+000  0.1977337E+03  0.7818608E-02  0.1151665E+00
         21   -1    0    0  503  502  0.00000000000E+00  0.00000000000E+00  0.39633019282E+03  0.39633019282E+03  0.00000000000E+00 0. -1.
         21   -1    0    0  501  503 -0.00000000000E+00 -0.00000000000E+00 -0.81199680370E+03  0.81199680370E+03  0.00000000000E+00 0. -1.
          6    1    1    2  501    0 -0.86731775641E+02  0.44634189163E+02 -0.77410804985E+03  0.79896300577E+03  0.17200000000E+03 0. -1.
         -6    1    1    2    0  502  0.86731775641E+02 -0.44634189163E+02  0.35844143897E+03  0.40936399075E+03  0.17200000000E+03 0. -1.
</event>
<event>
 4    1  0.4450588E+000  0.2780612E+03  0.7818608E-02  0.1096753E+00
         21   -1    0    0  503  502  0.00000000000E+00  0.00000000000E+00  0.53089637088E+02  0.53089637088E+02  0.00000000000E+00 0.  1.
         21   -1    0    0  501  503 -0.00000000000E+00 -0.00000000000E+00 -0.21320699639E+04  0.21320699639E+04  0.00000000000E+00 0. -1.
          6    1    1    2  501    0 -0.20763297257E+03 -0.67989450721E+02 -0.16545682074E+04  0.16777705355E+04  0.17200000000E+03 0. -1.
         -6    1    1    2    0  502  0.20763297257E+03  0.67989450721E+02 -0.42441211937E+03  0.50738906548E+03  0.17200000000E+03 0.  1.
</event>
<event>
 4    1  0.4450588E+000  0.1752028E+03  0.7818608E-02  0.1172528E+00
         21   -1    0    0  503  502  0.00000000000E+00  0.00000000000E+00  0.90388593511E+03  0.90388593511E+03  0.00000000000E+00 0. -1.
         21   -1    0    0  501  503 -0.00000000000E+00 -0.00000000000E+00 -0.34447397625E+03  0.34447397625E+03  0.00000000000E+00 0. -1.
          6    1    1    2  501    0  0.33343534681E+02 -0.46228703375E+00 -0.31290835931E+03  0.35861908251E+03  0.17200000000E+03 0. -1.
         -6    1    1    2    0  502 -0.33343534681E+02  0.46228703375E+00  0.87232031817E+03  0.88974082884E+03  0.17200000000E+03 0. -1.
</event>
<event>
 4    1  0.4450588E+000  0.2042780E+03  0.7818608E-02  0.1146179E+00
         21   -1    0    0  503  502  0.00000000000E+00  0.00000000000E+00  0.16951553642E+03  0.16951553642E+03  0.00000000000E+00 0.  1.
         21   -1    0    0  501  503 -0.00000000000E+00 -0.00000000000E+00 -0.31612663445E+03  0.31612663445E+03  0.00000000000E+00 0.  1.
          6    1    1    2  501    0 -0.10645071921E+03  0.28526381925E+02 -0.18753357659E+03  0.27730552182E+03  0.17200000000E+03 0.  1.
         -6    1    1    2    0  502  0.10645071921E+03 -0.28526381925E+02  0.40922478560E+02  0.20833664905E+03  0.17200000000E+03 0.  1.
</event>
<event>
 4    1  0.4450588E+000  0.2411808E+03  0.7818608E-02  0.1119009E+00
         21   -1    0    0  501  502  0.00000000000E+00  0.00000000000E+00  0.92330833592E+03  0.92330833592E+03  0.00000000000E+00 0. -1.
         21   -1    0    0  502  503 -0.00000000000E+00 -0.00000000000E+00 -0.10065921592E+03  0.10065921592E+03  0.00000000000E+00 0. -1.
          6    1    1    2  501    0  0.16897485971E+03 -0.56296256409E+01  0.72448471255E+03  0.76357468175E+03  0.17200000000E+03 0. -1.
         -6    1    1    2    0  503 -0.16897485971E+03  0.56296256409E+01  0.98164407454E+02  0.26039287008E+03  0.17200000000E+03 0. -1.
</event>
<event>
 4    1  0.4450588E+000  0.2459032E+03  0.7818608E-02  0.1115922E+00
         21   -1    0    0  503  502  0.00000000000E+00  0.00000000000E+00  0.84117254343E+02  0.84117254343E+02  0.00000000000E+00 0.  1.
         21   -1    0    0  501  503 -0.00000000000E+00 -0.00000000000E+00 -0.90732599078E+03  0.90732599078E+03  0.00000000000E+00 0.  1.
          6    1    1    2  501    0 -0.13979379562E+03  0.10649916107E+03 -0.63753482293E+03  0.68331473498E+03  0.17200000000E+03 0.  1.
         -6    1    1    2    0  502  0.13979379562E+03 -0.10649916107E+03 -0.18567391351E+03  0.30812851014E+03  0.17200000000E+03 0.  1.
</event>
<event>
 4    1  0.4450588E+000  0.2067960E+03  0.7818608E-02  0.1144129E+00
         21   -1    0    0  503  502  0.00000000000E+00  0.00000000000E+00  0.65455148536E+02  0.65455148536E+02  0.00000000000E+00 0.  1.
         21   -1    0    0  501  503 -0.00000000000E+00 -0.00000000000E+00 -0.68769156068E+03  0.68769156068E+03  0.00000000000E+00 0. -1.
          6    1    1    2  501    0  0.35188709514E+02 -0.10928110481E+03 -0.39527953993E+03  0.44610595135E+03  0.17200000000E+03 0.  1.
         -6    1    1    2    0  502 -0.35188709514E+02  0.10928110481E+03 -0.22695687222E+03  0.30704075787E+03  0.17200000000E+03 0. -1.
</event>
<event>
 4    1  0.4450588E+000  0.2195888E+03  0.7818608E-02  0.1134190E+00
         21   -1    0    0  503  502  0.00000000000E+00  0.00000000000E+00  0.23653870588E+03  0.23653870588E+03  0.00000000000E+00 0.  1.
         21   -1    0    0  501  503 -0.00000000000E+00 -0.00000000000E+00 -0.21130401783E+03  0.21130401783E+03  0.00000000000E+00 0.  1.
          6    1    1    2  501    0  0.47015352328E+02 -0.12815920027E+03  0.54664558813E+02  0.22629060510E+03  0.17200000000E+03 0.  1.
         -6    1    1    2    0  502 -0.47015352328E+02  0.12815920027E+03 -0.29429870759E+02  0.22155211861E+03  0.17200000000E+03 0.  1.
</event>
<event>
 4    1  0.4450588E+000  0.1788838E+03  0.7818608E-02  0.1168888E+00
         21   -1    0    0  503  502  0.00000000000E+00  0.00000000000E+00  0.16759389726E+03  0.16759389726E+03  0.00000000000E+00 0. -1.
         21   -1    0    0  501  503 -0.00000000000E+00 -0.00000000000E+00 -0.55131202734E+03  0.55131202734E+03  0.00000000000E+00 0. -1.
          6    1    1    2  501    0  0.27574809541E+02  0.40682140195E+02 -0.48247696822E+03  0.51457111415E+03  0.17200000000E+03 0. -1.
         -6    1    1    2    0  502 -0.27574809541E+02 -0.40682140195E+02  0.98758838144E+02  0.20433481045E+03  0.17200000000E+03 0. -1.
</event>
<event>
 4    1  0.4450588E+000  0.1778002E+03  0.7818608E-02  0.1169949E+00
         21   -1    0    0  503  502  0.00000000000E+00  0.00000000000E+00  0.27385594001E+03  0.27385594001E+03  0.00000000000E+00 0.  1.
         21   -1    0    0  501  503 -0.00000000000E+00 -0.00000000000E+00 -0.11570814343E+03  0.11570814343E+03  0.00000000000E+00 0.  1.
          6    1    1    2  501    0  0.29301720790E+02 -0.34209707121E+02  0.69631350235E+02  0.19094873615E+03  0.17200000000E+03 0.  1.
         -6    1    1    2    0  502 -0.29301720790E+02  0.34209707121E+02  0.88516446349E+02  0.19861534728E+03  0.17200000000E+03 0.  1.
</event>
<event>
 4    1  0.4450588E+000  0.1757872E+03  0.7818608E-02  0.1171944E+00
         21   -1    0    0  503  502  0.00000000000E+00  0.00000000000E+00  0.88891722258E+03  0.88891722258E+03  0.00000000000E+00 0. -1.
         21   -1    0    0  501  503 -0.00000000000E+00 -0.00000000000E+00 -0.35159840069E+02  0.35159840069E+02  0.00000000000E+00 0. -1.
          6    1    1    2  501    0  0.23746345229E+02 -0.27445672326E+02  0.47598441002E+03  0.50740744222E+03  0.17200000000E+03 0. -1.
         -6    1    1    2    0  502 -0.23746345229E+02  0.27445672326E+02  0.37777297249E+03  0.41666962043E+03  0.17200000000E+03 0. -1.
</event>
<event>
 4    1  0.4450588E+000  0.1829973E+03  0.7818608E-02  0.1164933E+00
         21   -1    0    0  503  502  0.00000000000E+00  0.00000000000E+00  0.80916926737E+02  0.80916926737E+02  0.00000000000E+00 0. -1.
         21   -1    0    0  501  503 -0.00000000000E+00 -0.00000000000E+00 -0.88989489938E+03  0.88989489938E+03  0.00000000000E+00 0. -1.
          6    1    1    2  501    0 -0.34978601850E+02  0.51773539613E+02 -0.75951212858E+03  0.78124687228E+03  0.17200000000E+03 0. -1.
         -6    1    1    2    0  502  0.34978601850E+02 -0.51773539613E+02 -0.49465844056E+02  0.18956495383E+03  0.17200000000E+03 0. -1.
</event>
<event>
 4    1  0.4450588E+000  0.1804963E+03  0.7818608E-02  0.1167324E+00
         21   -1    0    0  501  502  0.00000000000E+00  0.00000000000E+00  0.17462635933E+04  0.17462635933E+04  0.00000000000E+00 0.  1.
         21   -1    0    0  502  503 -0.00000000000E+00 -0.00000000000E+00 -0.21075608435E+02  0.21075608435E+02  0.00000000000E+00 0.  1.
          6    1    1    2  501    0 -0.11882863254E+02  0.53420243814E+02  0.11619858283E+04  0.11759209114E+04  0.17200000000E+03 0. -1.
         -6    1    1    2    0  503  0.11882863254E+02 -0.53420243814E+02  0.56320215659E+03  0.59141829028E+03  0.17200000000E+03 0. -1.
</event>
<event>
 4    1  0.4450588E+000  0.1769741E+03  0.7818608E-02  0.1170764E+00
         21   -1    0    0  503  502  0.00000000000E+00  0.00000000000E+00  0.52475611752E+02  0.52475611752E+02  0.00000000000E+00 0.  1.
         21   -1    0    0  501  503 -0.00000000000E+00 -0.00000000000E+00 -0.73372985275E+03  0.73372985275E+03  0.00000000000E+00 0.  1.
          6    1    1    2  501    0  0.36200531987E+02 -0.20623832411E+02 -0.51041833956E+03  0.54022837980E+03  0.17200000000E+03 0.  1.
         -6    1    1    2    0  502 -0.36200531987E+02  0.20623832411E+02 -0.17083590144E+03  0.24597708470E+03  0.17200000000E+03 0.  1.
</event>
<event>
 4    1  0.4450588E+000  0.1929625E+03  0.7818608E-02  0.1155816E+00
         21   -1    0    0  501  502  0.00000000000E+00  0.00000000000E+00  0.92561016695E+03  0.92561016695E+03  0.00000000000E+00 0.  1.
         21   -1    0    0  502  503 -0.00000000000E+00 -0.00000000000E+00 -0.11450812977E+03  0.11450812977E+03  0.00000000000E+00 0. -1.
          6    1    1    2  501    0  0.77893492258E+02  0.39788487763E+02  0.82441578543E+03  0.84669705749E+03  0.17200000000E+03 0.  1.
         -6    1    1    2    0  503 -0.77893492258E+02 -0.39788487763E+02 -0.13313748241E+02  0.19342123923E+03  0.17200000000E+03 0. -1.
</event>
<event>
 4    1  0.4450588E+000  0.2396877E+03  0.7818608E-02  0.1120001E+00
         21   -1    0    0  501  502  0.00000000000E+00  0.00000000000E+00  0.24111323244E+03  0.24111323244E+03  0.00000000000E+00 0. -1.
         21   -1    0    0  502  503 -0.00000000000E+00 -0.00000000000E+00 -0.26052187512E+03  0.26052187512E+03  0.00000000000E+00 0. -1.
          6    1    1    2  501    0  0.14492630590E+03 -0.82840694754E+02  0.63597110958E+02  0.24798146578E+03  0.17200000000E+03 0. -1.
         -6    1    1    2    0  503 -0.14492630590E+03  0.82840694754E+02 -0.83005753633E+02  0.25365364178E+03  0.17200000000E+03 0. -1.
</event>
<event>
 4    1  0.4450588E+000  0.2060362E+03  0.7818608E-02  0.1144744E+00
         21   -1    0    0  503  502  0.00000000000E+00  0.00000000000E+00  0.30464638078E+03  0.30464638078E+03  0.00000000000E+00 0. -1.
         21   -1    0    0  501  503 -0.00000000000E+00 -0.00000000000E+00 -0.16622765459E+03  0.16622765459E+03  0.00000000000E+00 0.  1.
          6    1    1    2  501    0  0.72026358889E+02 -0.87630605137E+02  0.16388974401E+03  0.26326938205E+03  0.17200000000E+03 0. -1.
         -6    1    1    2    0  502 -0.72026358889E+02  0.87630605137E+02 -0.25471017824E+02  0.20760465332E+03  0.17200000000E+03 0.  1.
</event>
<event>
 4    1  0.4450588E+000  0.1924655E+03  0.7818608E-02  0.1156256E+00
         21   -1    0    0  501  502  0.00000000000E+00  0.00000000000E+00  0.70510138516E+03  0.70510138516E+03  0.00000000000E+00 0. -1.
         21   -1    0    0  502  503 -0.00000000000E+00 -0.00000000000E+00 -0.95323548771E+02  0.95323548771E+02  0.00000000000E+00 0. -1.
          6    1    1    2  501    0 -0.58503688186E+02 -0.63531922083E+02  0.57302224526E+03  0.60448116614E+03  0.17200000000E+03 0. -1.
         -6    1    1    2    0  503  0.58503688186E+02  0.63531922083E+02  0.36755591123E+02  0.19594376778E+03  0.17200000000E+03 0. -1.
</event>
<event>
 4    1  0.4450588E+000  0.1770511E+03  0.7818608E-02  0.1170688E+00
         21   -1    0    0  501  502  0.00000000000E+00  0.00000000000E+00  0.84807516575E+03  0.84807516575E+03  0.00000000000E+00 0. -1.
         21   -1    0    0  502  503 -0.00000000000E+00 -0.00000000000E+00 -0.10379490303E+03  0.10379490303E+03  0.00000000000E+00 0. -1.
          6    1    1    2  501    0  0.38170543096E+02  0.17495328512E+02  0.75404291352E+03  0.77455005797E+03  0.17200000000E+03 0. -1.
         -6    1    1    2    0  503 -0.38170543096E+02 -0.17495328512E+02 -0.97626508011E+01  0.17732001080E+03  0.17200000000E+03 0. -1.
</event>
<event>
 4    1  0.4450588E+000  0.1867377E+03  0.7818608E-02  0.1161437E+00
         21   -1    0    0  501  502  0.00000000000E+00  0.00000000000E+00  0.30064484427E+02  0.30064484427E+02  0.00000000000E+00 0.  1.
         21   -1    0    0  502  503 -0.00000000000E+00 -0.00000000000E+00 -0.15854637619E+04  0.15854637619E+04  0.00000000000E+00 0. -1.
          6    1    1    2  501    0 -0.14959166272E+01 -0.72696215718E+02 -0.35919275919E+03  0.40483381257E+03  0.17200000000E+03 0.  1.
         -6    1    1    2    0  503  0.14959166272E+01  0.72696215718E+02 -0.11962065183E+04  0.12106944338E+04  0.17200000000E+03 0. -1.
</event>
<event>
 4    1  0.4450588E+000  0.2222110E+03  0.7818608E-02  0.1132245E+00
         21   -1    0    0  503  502  0.00000000000E+00  0.00000000000E+00  0.73348791806E+03  0.73348791806E+03  0.00000000000E+00 0.  1.
         21   -1    0    0  501  503 -0.00000000000E+00 -0.00000000000E+00 -0.81321124573E+02  0.81321124573E+02  0.00000000000E+00 0.  1.
          6    1    1    2  501    0  0.73840433428E+02  0.11975523107E+03  0.15703150718E+03  0.27209670933E+03  0.17200000000E+03 0.  1.
         -6    1    1    2    0  502 -0.73840433428E+02 -0.11975523107E+03  0.49513528630E+03  0.54271233330E+03  0.17200000000E+03 0.  1.
</event>
<event>
 4    1  0.4450588E+000  0.1855440E+03  0.7818608E-02  0.1162543E+00
         21   -1    0    0  503  502  0.00000000000E+00  0.00000000000E+00  0.30804015276E+03  0.30804015276E+03  0.00000000000E+00 0. -1.
         21   -1    0    0  501  503 -0.00000000000E+00 -0.00000000000E+00 -0.16736755290E+03  0.16736755290E+03  0.00000000000E+00 0. -1.
          6    1    1    2  501    0  0.69508025445E+02  0.33505917115E+01 -0.66678401286E+02  0.19716135845E+03  0.17200000000E+03 0. -1.
         -6    1    1    2    0  502 -0.69508025445E+02 -0.33505917115E+01  0.20735100114E+03  0.27824634722E+03  0.17200000000E+03 0. -1.
</event>
<event>
 4    1  0.4450588E+000  0.2022526E+03  0.7818608E-02  0.1147852E+00
         21   -1    0    0  503  502  0.00000000000E+00  0.00000000000E+00  0.19623976916E+03  0.19623976916E+03  0.00000000000E+00 0.  1.
         21   -1    0    0  501  503 -0.00000000000E+00 -0.00000000000E+00 -0.22419467775E+03  0.22419467775E+03  0.00000000000E+00 0.  1.
          6    1    1    2  501    0  0.10362423965E+03 -0.24168905345E+02 -0.69686640109E+02  0.21392135667E+03  0.17200000000E+03 0. -1.
         -6    1    1    2    0  502 -0.10362423965E+03  0.24168905345E+02  0.41731731517E+02  0.20651309025E+03  0.17200000000E+03 0. -1.
</event>
<event>
 4    1  0.4450588E+000  0.2065195E+03  0.7818608E-02  0.1144352E+00
         21   -1    0    0  501  502  0.00000000000E+00  0.00000000000E+00  0.89338864902E+03  0.89338864902E+03  0.00000000000E+00 0. -1.
         21   -1    0    0  502  503 -0.00000000000E+00 -0.00000000000E+00 -0.50699273314E+02  0.50699273314E+02  0.00000000000E+00 0. -1.
          6    1    1    2  501    0 -0.61597721082E+02  0.96291287714E+02  0.30729846240E+03  0.37024672359E+03  0.17200000000E+03 0. -1.
         -6    1    1    2    0  503  0.61597721082E+02 -0.96291287714E+02  0.53539091330E+03  0.57384119874E+03  0.17200000000E+03 0. -1.
</event>
<event>
 4    1  0.4450588E+000  0.1769659E+03  0.7818608E-02  0.1170772E+00
         21   -1    0    0  503  502  0.00000000000E+00  0.00000000000E+00  0.20748734682E+03  0.20748734682E+03  0.00000000000E+00 0.  1.
         21   -1    0    0  501  503 -0.00000000000E+00 -0.00000000000E+00 -0.15352974258E+03  0.15352974258E+03  0.00000000000E+00 0.  1.
          6    1    1    2  501    0 -0.20754249056E+02  0.36085908166E+02  0.35085567115E+01  0.17700068246E+03  0.17200000000E+03 0.  1.
         -6    1    1    2    0  502  0.20754249056E+02 -0.36085908166E+02  0.50449047528E+02  0.18401640693E+03  0.17200000000E+03 0.  1.
</event>
<event>
 4    1  0.4450588E+000  0.2145614E+03  0.7818608E-02  0.1138004E+00
         21   -1    0    0  501  502  0.00000000000E+00  0.00000000000E+00  0.14999555859E+02  0.14999555859E+02  0.00000000000E+00 0.  1.
         21   -1    0    0  502  503 -0.00000000000E+00 -0.00000000000E+00 -0.39314943848E+04  0.39314943848E+04  0.00000000000E+00 0.  1.
          6    1    1    2  501    0 -0.62052135156E+02  0.11225918650E+03 -0.10341215203E+04  0.10561457812E+04  0.17200000000E+03 0.  1.
         -6    1    1    2    0  503  0.62052135156E+02 -0.11225918650E+03 -0.28823733086E+04  0.28903481594E+04  0.17200000000E+03 0.  1.
</event>
<event>
 4    1  0.4450588E+000  0.3132685E+03  0.7818608E-02  0.1078790E+00
         21   -1    0    0  503  502  0.00000000000E+00  0.00000000000E+00  0.85911569883E+02  0.85911569883E+02  0.00000000000E+00 0.  1.
         21   -1    0    0  501  503 -0.00000000000E+00 -0.00000000000E+00 -0.17185673872E+04  0.17185673872E+04  0.00000000000E+00 0.  1.
          6    1    1    2  501    0  0.21819212508E+01  0.26181749799E+03 -0.13387829351E+04  0.13749461481E+04  0.17200000000E+03 0.  1.
         -6    1    1    2    0  502 -0.21819212508E+01 -0.26181749799E+03 -0.29387288222E+03  0.42953280892E+03  0.17200000000E+03 0.  1.
</event>
<event>
 4    1  0.4450588E+000  0.1926126E+03  0.7818608E-02  0.1156126E+00
         21   -1    0    0  503  502  0.00000000000E+00  0.00000000000E+00  0.12671505113E+04  0.12671505113E+04  0.00000000000E+00 0. -1.
         21   -1    0    0  501  503 -0.00000000000E+00 -0.00000000000E+00 -0.32920219844E+02  0.32920219844E+02  0.00000000000E+00 0. -1.
          6    1    1    2  501    0 -0.61303876817E+02 -0.61298130426E+02  0.40089855815E+03  0.44476879391E+03  0.17200000000E+03 0. -1.
         -6    1    1    2    0  502  0.61303876817E+02  0.61298130426E+02  0.83333173328E+03  0.85530193721E+03  0.17200000000E+03 0. -1.
</event>
<event>
 4    1  0.4450588E+000  0.1752192E+03  0.7818608E-02  0.1172512E+00
         21   -1    0    0  503  502  0.00000000000E+00  0.00000000000E+00  0.29360059734E+03  0.29360059734E+03  0.00000000000E+00 0. -1.
         21   -1    0    0  501  503 -0.00000000000E+00 -0.00000000000E+00 -0.35172665394E+03  0.35172665394E+03  0.00000000000E+00 0. -1.
          6    1    1    2  501    0  0.32151341519E+02  0.91687748234E+01 -0.29954208319E+03  0.34702627393E+03  0.17200000000E+03 0. -1.
         -6    1    1    2    0  502 -0.32151341519E+02 -0.91687748234E+01  0.24141602659E+03  0.29830097735E+03  0.17200000000E+03 0. -1.
</event>
<event>
 4    1  0.4450588E+000  0.1748673E+03  0.7818608E-02  0.1172865E+00
         21   -1    0    0  501  502  0.00000000000E+00  0.00000000000E+00  0.33616837309E+03  0.33616837309E+03  0.00000000000E+00 0.  1.
         21   -1    0    0  502  503 -0.00000000000E+00 -0.00000000000E+00 -0.17130204912E+03  0.17130204912E+03  0.00000000000E+00 0.  1.
          6    1    1    2  501    0 -0.13654506619E+02 -0.28427700401E+02  0.25619933959E+03  0.31018813856E+03  0.17200000000E+03 0.  1.
         -6    1    1    2    0  503  0.13654506619E+02  0.28427700401E+02 -0.91333015618E+02  0.19728228365E+03  0.17200000000E+03 0.  1.
</event>
<event>
 4    1  0.4450588E+000  0.2112604E+03  0.7818608E-02  0.1140572E+00
         21   -1    0    0  503  502  0.00000000000E+00  0.00000000000E+00  0.40870630168E+02  0.40870630168E+02  0.00000000000E+00 0.  1.
         21   -1    0    0  501  503 -0.00000000000E+00 -0.00000000000E+00 -0.18218364130E+04  0.18218364130E+04  0.00000000000E+00 0.  1.
          6    1    1    2  501    0 -0.35760798365E+02  0.11733759755E+03 -0.14799655670E+04  0.14949679014E+04  0.17200000000E+03 0.  1.
         -6    1    1    2    0  502  0.35760798365E+02 -0.11733759755E+03 -0.30100021576E+03  0.36773914176E+03  0.17200000000E+03 0.  1.
</event>
<event>
 4    1  0.4450588E+000  0.2474601E+03  0.7818608E-02  0.1114921E+00
         21   -1    0    0  501  502  0.00000000000E+00  0.00000000000E+00  0.11204569683E+04  0.11204569683E+04  0.00000000000E+00 0.  1.
         21   -1    0    0  502  503 -0.00000000000E+00 -0.00000000000E+00 -0.71053296076E+02  0.71053296076E+02  0.00000000000E+00 0. -1.
          6    1    1    2  501    0 -0.17733472829E+03 -0.14313853874E+02  0.81092162685E+03  0.84783865044E+03  0.17200000000E+03 0. -1.
         -6    1    1    2    0  503  0.17733472829E+03  0.14313853874E+02  0.23848204540E+03  0.34367161397E+03  0.17200000000E+03 0. -1.
</event>
<event>
 4    1  0.4450588E+000  0.2480332E+03  0.7818608E-02  0.1114554E+00
         21   -1    0    0  503  502  0.00000000000E+00  0.00000000000E+00  0.32907017935E+03  0.32907017935E+03  0.00000000000E+00 0. -1.
         21   -1    0    0  501  503 -0.00000000000E+00 -0.00000000000E+00 -0.27896797464E+03  0.27896797464E+03  0.00000000000E+00 0. -1.
          6    1    1    2  501    0  0.15213940024E+03  0.93755492320E+02 -0.14955287009E+03  0.28963174963E+03  0.17200000000E+03 0. -1.
         -6    1    1    2    0  502 -0.15213940024E+03 -0.93755492320E+02  0.19965507480E+03  0.31840640436E+03  0.17200000000E+03 0. -1.
</event>
<event>
 4    1  0.4450588E+000  0.2090060E+03  0.7818608E-02  0.1142356E+00
         21   -1    0    0  503  502  0.00000000000E+00  0.00000000000E+00  0.85985848463E+03  0.85985848463E+03  0.00000000000E+00 0. -1.
         21   -1    0    0  501  503 -0.00000000000E+00 -0.00000000000E+00 -0.54516898169E+02  0.54516898169E+02  0.00000000000E+00 0. -1.
          6    1    1    2  501    0 -0.10674836270E+03  0.52002647652E+02  0.28334418057E+03  0.35209006372E+03  0.17200000000E+03 0. -1.
         -6    1    1    2    0  502  0.10674836270E+03 -0.52002647652E+02  0.52199740589E+03  0.56228531908E+03  0.17200000000E+03 0. -1.
</event>
<event>
 4    1  0.4450588E+000  0.2224376E+03  0.7818608E-02  0.1132079E+00
         21   -1    0    0  503  502  0.00000000000E+00  0.00000000000E+00  0.11471608140E+03  0.11471608140E+03  0.00000000000E+00 0.  1.
         21   -1    0    0  501  503 -0.00000000000E+00 -0.00000000000E+00 -0.43161001897E+03  0.43161001897E+03  0.00000000000E+00 0. -1.
          6    1    1    2  501    0 -0.12940859430E+03 -0.56106361851E+02 -0.16561588712E+03  0.27732134824E+03  0.17200000000E+03 0.  1.
         -6    1    1    2    0  502  0.12940859430E+03  0.56106361851E+02 -0.15127805045E+03  0.26900475213E+03  0.17200000000E+03 0. -1.
</event>
<event>
 4    1  0.4450588E+000  0.1768463E+03  0.7818608E-02  0.1170891E+00
         21   -1    0    0  501  502  0.00000000000E+00  0.00000000000E+00  0.52124555649E+02  0.52124555649E+02  0.00000000000E+00 0. -1.
         21   -1    0    0  502  503 -0.00000000000E+00 -0.00000000000E+00 -0.60009825507E+03  0.60009825507E+03  0.00000000000E+00 0. -1.
          6    1    1    2  501    0  0.18124219890E+02 -0.36906980318E+02 -0.26976506037E+03  0.32256441270E+03  0.17200000000E+03 0. -1.
         -6    1    1    2    0  503 -0.18124219890E+02  0.36906980318E+02 -0.27820863905E+03  0.32965839802E+03  0.17200000000E+03 0. -1.
</event>
<event>
 4    1  0.4450588E+000  0.2819408E+03  0.7818608E-02  0.1094634E+00
         21   -1    0    0  501  502  0.00000000000E+00  0.00000000000E+00  0.11554232145E+03  0.11554232145E+03  0.00000000000E+00 0. -1.
         21   -1    0    0  502  503 -0.00000000000E+00 -0.00000000000E+00 -0.10729000485E+04  0.10729000485E+04  0.00000000000E+00 0. -1.
          6    1    1    2  501    0 -0.15474115617E+03  0.16112654949E+03 -0.12275687519E+03  0.30750583859E+03  0.17200000000E+03 0. -1.
         -6    1    1    2    0  503  0.15474115617E+03 -0.16112654949E+03 -0.83460085185E+03  0.88093653135E+03  0.17200000000E+03 0. -1.
</event>
<event>
 4    1  0.4450588E+000  0.1881410E+03  0.7818608E-02  0.1160149E+00
         21   -1    0    0  503  502  0.00000000000E+00  0.00000000000E+00  0.77745151450E+02  0.77745151450E+02  0.00000000000E+00 0. -1.
         21   -1    0    0  501  503 -0.00000000000E+00 -0.00000000000E+00 -0.67921752768E+03  0.67921752768E+03  0.00000000000E+00 0. -1.
          6    1    1    2  501    0  0.65264865139E+02  0.39414920074E+02 -0.51805042425E+03  0.55115631232E+03  0.17200000000E+03 0. -1.
         -6    1    1    2    0  502 -0.65264865139E+02 -0.39414920074E+02 -0.83421951977E+02  0.20580636681E+03  0.17200000000E+03 0. -1.
</event>
<event>
 4    1  0.4450588E+000  0.2002214E+03  0.7818608E-02  0.1149552E+00
         21   -1    0    0  503  502  0.00000000000E+00  0.00000000000E+00  0.72012240813E+03  0.72012240813E+03  0.00000000000E+00 0.  1.
         21   -1    0    0  501  503 -0.00000000000E+00 -0.00000000000E+00 -0.96208341980E+02  0.96208341980E+02  0.00000000000E+00 0.  1.
          6    1    1    2  501    0 -0.15821043266E+02  0.10126351540E+03  0.47004961151E+02  0.20566494921E+03  0.17200000000E+03 0.  1.
         -6    1    1    2    0  502  0.15821043266E+02 -0.10126351540E+03  0.57690910500E+03  0.61066580090E+03  0.17200000000E+03 0.  1.
</event>
<event>
 4    1  0.4450588E+000  0.2045657E+03  0.7818608E-02  0.1145943E+00
         21   -1    0    0  501  502  0.00000000000E+00  0.00000000000E+00  0.42427692789E+02  0.42427692789E+02  0.00000000000E+00 0. -1.
         21   -1    0    0  502  503 -0.00000000000E+00 -0.00000000000E+00 -0.11631414579E+04  0.11631414579E+04  0.00000000000E+00 0. -1.
          6    1    1    2  501    0  0.10969164215E+03  0.15194093489E+02 -0.32532968315E+03  0.38430003848E+03  0.17200000000E+03 0. -1.
         -6    1    1    2    0  503 -0.10969164215E+03 -0.15194093489E+02 -0.79538408196E+03  0.82126911221E+03  0.17200000000E+03 0. -1.
</event>
<event>
 4    1  0.4450588E+000  0.2367045E+03  0.7818608E-02  0.1122008E+00
         21   -1    0    0  501  502  0.00000000000E+00  0.00000000000E+00  0.17948360658E+04  0.17948360658E+04  0.00000000000E+00 0. -1.
         21   -1    0    0  502  503 -0.00000000000E+00 -0.00000000000E+00 -0.36136186798E+02  0.36136186798E+02  0.00000000000E+00 0.  1.
          6    1    1    2  501    0  0.15997491246E+03 -0.29206975282E+02  0.12171319730E+04  0.12399351837E+04  0.17200000000E+03 0. -1.
         -6    1    1    2    0  503 -0.15997491246E+03  0.29206975282E+02  0.54156790598E+03  0.59103706889E+03  0.17200000000E+03 0. -1.
</event>
<event>
 4    1  0.4450588E+000  0.2029420E+03  0.7818608E-02  0.1147280E+00
         21   -1    0    0  501  502  0.00000000000E+00  0.00000000000E+00  0.72835997980E+03  0.72835997980E+03  0.00000000000E+00 0. -1.
         21   -1    0    0  502  503 -0.00000000000E+00 -0.00000000000E+00 -0.45076180181E+03  0.45076180181E+03  0.00000000000E+00 0.  1.
          6    1    1    2  501    0  0.10764974480E+03  0.36044017252E+01  0.69014279115E+03  0.71936258691E+03  0.17200000000E+03 0. -1.
         -6    1    1    2    0  503 -0.10764974480E+03 -0.36044017252E+01 -0.41254461315E+03  0.45975919470E+03  0.17200000000E+03 0.  1.
</event>
<event>
 4    1  0.4450588E+000  0.2141505E+03  0.7818608E-02  0.1138321E+00
         21   -1    0    0  501  502  0.00000000000E+00  0.00000000000E+00  0.51734591193E+03  0.51734591193E+03  0.00000000000E+00 0. -1.
         21   -1    0    0  502  503 -0.00000000000E+00 -0.00000000000E+00 -0.25124147970E+03  0.25124147970E+03  0.00000000000E+00 0. -1.
          6    1    1    2  501    0 -0.63401876455E+02  0.11070979949E+03  0.44220439245E+03  0.49133001368E+03  0.17200000000E+03 0. -1.
         -6    1    1    2    0  503  0.63401876455E+02 -0.11070979949E+03 -0.17609996021E+03  0.27725737795E+03  0.17200000000E+03 0. -1.
</event>
<event>
 4    1  0.4450588E+000  0.1934619E+03  0.7818608E-02  0.1155375E+00
         21   -1    0    0  501  502  0.00000000000E+00  0.00000000000E+00  0.27749304802E+03  0.27749304802E+03  0.00000000000E+00 0. -1.
         21   -1    0    0  502  503 -0.00000000000E+00 -0.00000000000E+00 -0.13497353136E+03  0.13497353136E+03  0.00000000000E+00 0.  1.
          6    1    1    2  501    0 -0.88373041212E+02 -0.58070286692E+01  0.76766175539E+02  0.20813592122E+03  0.17200000000E+03 0. -1.
         -6    1    1    2    0  503  0.88373041212E+02  0.58070286692E+01  0.65753341127E+02  0.20433065816E+03  0.17200000000E+03 0.  1.
</event>
<event>
 4    1  0.4450588E+000  0.1904052E+03  0.7818608E-02  0.1158096E+00
         21   -1    0    0  503  502  0.00000000000E+00  0.00000000000E+00  0.96362013883E+03  0.96362013883E+03  0.00000000000E+00 0. -1.
         21   -1    0    0  501  503 -0.00000000000E+00 -0.00000000000E+00 -0.87523850598E+02  0.87523850598E+02  0.00000000000E+00 0. -1.
          6    1    1    2  501    0  0.69496464910E+02  0.42899733395E+02  0.41200697575E+02  0.19481181494E+03  0.17200000000E+03 0. -1.
         -6    1    1    2    0  502 -0.69496464910E+02 -0.42899733395E+02  0.83489559066E+03  0.85633217449E+03  0.17200000000E+03 0. -1.
</event>
<event>
 4    1  0.4450588E+000  0.1782628E+03  0.7818608E-02  0.1169495E+00
         21   -1    0    0  503  502  0.00000000000E+00  0.00000000000E+00  0.43921670401E+02  0.43921670401E+02  0.00000000000E+00 0.  1.
         21   -1    0    0  501  503 -0.00000000000E+00 -0.00000000000E+00 -0.72427389107E+03  0.72427389107E+03  0.00000000000E+00 0.  1.
          6    1    1    2  501    0  0.37168467471E+02 -0.28497940444E+02 -0.32767607072E+03  0.37302712355E+03  0.17200000000E+03 0.  1.
         -6    1    1    2    0  502 -0.37168467471E+02  0.28497940444E+02 -0.35267614995E+03  0.39516843792E+03  0.17200000000E+03 0.  1.
</event>
<event>
 4    1  0.4450588E+000  0.2478279E+03  0.7818608E-02  0.1114685E+00
         21   -1    0    0  503  502  0.00000000000E+00  0.00000000000E+00  0.10099829935E+03  0.10099829935E+03  0.00000000000E+00 0. -1.
         21   -1    0    0  501  503 -0.00000000000E+00 -0.00000000000E+00 -0.64391226303E+03  0.64391226303E+03  0.00000000000E+00 0. -1.
          6    1    1    2  501    0  0.13334788517E+00  0.17842269810E+03 -0.18363971346E+03  0.30845132734E+03  0.17200000000E+03 0. -1.
         -6    1    1    2    0  502 -0.13334788517E+00 -0.17842269810E+03 -0.35927425022E+03  0.43645923504E+03  0.17200000000E+03 0. -1.
</event>
<event>
 4    1  0.4450588E+000  0.1799322E+03  0.7818608E-02  0.1167869E+00
         21   -1    0    0  501  502  0.00000000000E+00  0.00000000000E+00  0.59953309113E+02  0.59953309113E+02  0.00000000000E+00 0. -1.
         21   -1    0    0  502  503 -0.00000000000E+00 -0.00000000000E+00 -0.54791580819E+03  0.54791580819E+03  0.00000000000E+00 0. -1.
          6    1    1    2  501    0  0.34735951200E+02 -0.39812244811E+02 -0.20748082410E+03  0.27463410843E+03  0.17200000000E+03 0. -1.
         -6    1    1    2    0  503 -0.34735951200E+02  0.39812244811E+02 -0.28048167497E+03  0.33323500887E+03  0.17200000000E+03 0. -1.
</event>
<event>
 4    1  0.4450588E+000  0.2336587E+03  0.7818608E-02  0.1124091E+00
         21   -1    0    0  503  502  0.00000000000E+00  0.00000000000E+00  0.97747326343E+02  0.97747326343E+02  0.00000000000E+00 0.  1.
         21   -1    0    0  501  503 -0.00000000000E+00 -0.00000000000E+00 -0.57168993976E+03  0.57168993976E+03  0.00000000000E+00 0. -1.
          6    1    1    2  501    0  0.10472727682E+03  0.11850986296E+03 -0.28772414887E+03  0.37065020703E+03  0.17200000000E+03 0. -1.
         -6    1    1    2    0  502 -0.10472727682E+03 -0.11850986296E+03 -0.18621846455E+03  0.29878705907E+03  0.17200000000E+03 0.  1.
</event>
<event>
 4    1  0.4450588E+000  0.2095033E+03  0.7818608E-02  0.1141960E+00
         21   -1    0    0  501  502  0.00000000000E+00  0.00000000000E+00  0.58539193716E+02  0.58539193716E+02  0.00000000000E+00 0.  1.
         21   -1    0    0  502  503 -0.00000000000E+00 -0.00000000000E+00 -0.10604809595E+04  0.10604809595E+04  0.00000000000E+00 0. -1.
          6    1    1    2  501    0 -0.10143337252E+03 -0.63394977461E+02 -0.19812187625E+03  0.28834689192E+03  0.17200000000E+03 0.  1.
         -6    1    1    2    0  503  0.10143337252E+03  0.63394977461E+02 -0.80381988948E+03  0.83067326125E+03  0.17200000000E+03 0. -1.
</event>
<event>
 4    1  0.4450588E+000  0.2057076E+03  0.7818608E-02  0.1145011E+00
         21   -1    0    0  501  502  0.00000000000E+00  0.00000000000E+00  0.31298374875E+03  0.31298374875E+03  0.00000000000E+00 0. -1.
         21   -1    0    0  502  503 -0.00000000000E+00 -0.00000000000E+00 -0.18934368464E+03  0.18934368464E+03  0.00000000000E+00 0. -1.
          6    1    1    2  501    0 -0.81149968231E+02  0.78398384491E+02 -0.72488177052E+02  0.21810584551E+03  0.17200000000E+03 0. -1.
         -6    1    1    2    0  503  0.81149968231E+02 -0.78398384491E+02  0.19612824117E+03  0.28422158788E+03  0.17200000000E+03 0. -1.
</event>
<event>
 4    1  0.4450588E+000  0.2213365E+03  0.7818608E-02  0.1132891E+00
         21   -1    0    0  503  502  0.00000000000E+00  0.00000000000E+00  0.69026854563E+02  0.69026854563E+02  0.00000000000E+00 0.  1.
         21   -1    0    0  501  503 -0.00000000000E+00 -0.00000000000E+00 -0.78604527627E+03  0.78604527627E+03  0.00000000000E+00 0. -1.
          6    1    1    2  501    0 -0.13174199724E+03 -0.45275741924E+02 -0.49173206694E+03  0.53924973092E+03  0.17200000000E+03 0. -1.
         -6    1    1    2    0  502  0.13174199724E+03  0.45275741924E+02 -0.22528635477E+03  0.31582239992E+03  0.17200000000E+03 0.  1.
</event>
<event>
 4    1  0.4450588E+000  0.1985441E+03  0.7818608E-02  0.1150973E+00
         21   -1    0    0  503  502  0.00000000000E+00  0.00000000000E+00  0.18210461166E+03  0.18210461166E+03  0.00000000000E+00 0.  1.
         21   -1    0    0  501  503 -0.00000000000E+00 -0.00000000000E+00 -0.22032405574E+03  0.22032405574E+03  0.00000000000E+00 0.  1.
          6    1    1    2  501    0  0.99175036374E+02  0.28641906322E+00 -0.45730174938E+02  0.20374253060E+03  0.17200000000E+03 0.  1.
         -6    1    1    2    0  502 -0.99175036374E+02 -0.28641906322E+00  0.75107308613E+01  0.19868613679E+03  0.17200000000E+03 0.  1.
</event>
<event>
 4    1  0.4450588E+000  0.2039341E+03  0.7818608E-02  0.1146462E+00
         21   -1    0    0  501  502  0.00000000000E+00  0.00000000000E+00  0.43178063655E+03  0.43178063655E+03  0.00000000000E+00 0. -1.
         21   -1    0    0  502  503 -0.00000000000E+00 -0.00000000000E+00 -0.13329812096E+03  0.13329812096E+03  0.00000000000E+00 0. -1.
          6    1    1    2  501    0 -0.94830370022E+02 -0.54884547256E+02  0.29805374265E+03  0.36114421789E+03  0.17200000000E+03 0. -1.
         -6    1    1    2    0  503  0.94830370022E+02  0.54884547256E+02  0.42877293831E+00  0.20393453963E+03  0.17200000000E+03 0. -1.
</event>
<event>
 4    1  0.4450588E+000  0.1800418E+03  0.7818608E-02  0.1167763E+00
         21   -1    0    0  503  502  0.00000000000E+00  0.00000000000E+00  0.88422317390E+03  0.88422317390E+03  0.00000000000E+00 0. -1.
         21   -1    0    0  501  503 -0.00000000000E+00 -0.00000000000E+00 -0.36668726764E+02  0.36668726764E+02  0.00000000000E+00 0. -1.
          6    1    1    2  501    0  0.17275974651E+02  0.50324729811E+02  0.41641015178E+03  0.45366557312E+03  0.17200000000E+03 0. -1.
         -6    1    1    2    0  502 -0.17275974651E+02 -0.50324729811E+02  0.43114429535E+03  0.46722632754E+03  0.17200000000E+03 0. -1.
</event>
<event>
 4    1  0.4450588E+000  0.2630511E+03  0.7818608E-02  0.1105324E+00
         21   -1    0    0  501  502  0.00000000000E+00  0.00000000000E+00  0.25424367346E+03  0.25424367346E+03  0.00000000000E+00 0.  1.
         21   -1    0    0  502  503 -0.00000000000E+00 -0.00000000000E+00 -0.17364532301E+04  0.17364532301E+04  0.00000000000E+00 0.  1.
          6    1    1    2  501    0  0.12522312502E+03 -0.15469664517E+03  0.17291814502E+03  0.31479607359E+03  0.17200000000E+03 0.  1.
         -6    1    1    2    0  503 -0.12522312502E+03  0.15469664517E+03 -0.16551277017E+04  0.16759008300E+04  0.17200000000E+03 0.  1.
</event>
<event>
 4    1  0.4450588E+000  0.2651602E+03  0.7818608E-02  0.1104082E+00
         21   -1    0    0  501  502  0.00000000000E+00  0.00000000000E+00  0.41320657572E+03  0.41320657572E+03  0.00000000000E+00 0.  1.
         21   -1    0    0  502  503 -0.00000000000E+00 -0.00000000000E+00 -0.27248862564E+03  0.27248862564E+03  0.00000000000E+00 0. -1.
          6    1    1    2  501    0 -0.90466655983E+00 -0.20180468452E+03  0.28046189041E+03  0.38596479254E+03  0.17200000000E+03 0.  1.
         -6    1    1    2    0  503  0.90466655983E+00  0.20180468452E+03 -0.13974394032E+03  0.29973040882E+03  0.17200000000E+03 0. -1.
</event>
<event>
 4    1  0.4450588E+000  0.2254615E+03  0.7818608E-02  0.1129876E+00
         21   -1    0    0  501  502  0.00000000000E+00  0.00000000000E+00  0.25707186989E+03  0.25707186989E+03  0.00000000000E+00 0.  1.
         21   -1    0    0  502  503 -0.00000000000E+00 -0.00000000000E+00 -0.32656321809E+03  0.32656321809E+03  0.00000000000E+00 0. -1.
          6    1    1    2  501    0  0.50442718162E+02  0.13676418384E+03  0.14853977806E+03  0.26999439895E+03  0.17200000000E+03 0.  1.
         -6    1    1    2    0  503 -0.50442718162E+02 -0.13676418384E+03 -0.21803112626E+03  0.31364068903E+03  0.17200000000E+03 0. -1.
</event>
<event>
 4    1  0.4450588E+000  0.2530840E+03  0.7818608E-02  0.1111371E+00
         21   -1    0    0  503  502  0.00000000000E+00  0.00000000000E+00  0.57572709249E+03  0.57572709249E+03  0.00000000000E+00 0.  1.
         21   -1    0    0  501  503 -0.00000000000E+00 -0.00000000000E+00 -0.14455567877E+03  0.14455567877E+03  0.00000000000E+00 0.  1.
          6    1    1    2  501    0  0.15419753767E+03 -0.10339555789E+03  0.42726199015E+02  0.25666524911E+03  0.17200000000E+03 0.  1.
         -6    1    1    2    0  502 -0.15419753767E+03  0.10339555789E+03  0.38844521471E+03  0.46361752215E+03  0.17200000000E+03 0.  1.
</event>
<event>
 4    1  0.4450588E+000  0.1760878E+03  0.7818608E-02  0.1171644E+00
         21   -1    0    0  503  502  0.00000000000E+00  0.00000000000E+00  0.27628811143E+02  0.27628811143E+02  0.00000000000E+00 0. -1.
         21   -1    0    0  501  503 -0.00000000000E+00 -0.00000000000E+00 -0.12025675034E+04  0.12025675034E+04  0.00000000000E+00 0. -1.
          6    1    1    2  501    0 -0.10851559001E+02  0.36127149513E+02 -0.74641419307E+03  0.76690356296E+03  0.17200000000E+03 0. -1.
         -6    1    1    2    0  502  0.10851559001E+02 -0.36127149513E+02 -0.42852449917E+03  0.46329275156E+03  0.17200000000E+03 0. -1.
</event>
<event>
 4    1  0.4450588E+000  0.2234161E+03  0.7818608E-02  0.1131362E+00
         21   -1    0    0  503  502  0.00000000000E+00  0.00000000000E+00  0.86240124716E+02  0.86240124716E+02  0.00000000000E+00 0. -1.
         21   -1    0    0  501  503 -0.00000000000E+00 -0.00000000000E+00 -0.11457639294E+04  0.11457639294E+04  0.00000000000E+00 0.  1.
          6    1    1    2  501    0  0.14223920721E+03 -0.99377356586E+01 -0.96309002287E+03  0.98866432261E+03  0.17200000000E+03 0.  1.
         -6    1    1    2    0  502 -0.14223920721E+03  0.99377356586E+01 -0.96433781837E+02  0.24333973152E+03  0.17200000000E+03 0. -1.
</event>
<event>
 4    1  0.4450588E+000  0.2522106E+03  0.7818608E-02  0.1111916E+00
         21   -1    0    0  501  502  0.00000000000E+00  0.00000000000E+00  0.95897689525E+02  0.95897689525E+02  0.00000000000E+00 0.  1.
         21   -1    0    0  502  503 -0.00000000000E+00 -0.00000000000E+00 -0.66859023692E+03  0.66859023692E+03  0.00000000000E+00 0. -1.
          6    1    1    2  501    0 -0.17673713902E+03  0.52822135884E+02 -0.25238691093E+03  0.35680435417E+03  0.17200000000E+03 0.  1.
         -6    1    1    2    0  503  0.17673713902E+03 -0.52822135884E+02 -0.32030563646E+03  0.40768357227E+03  0.17200000000E+03 0. -1.
</event>
<event>
 4    1  0.4450588E+000  0.1856181E+03  0.7818608E-02  0.1162474E+00
         21   -1    0    0  501  502  0.00000000000E+00  0.00000000000E+00  0.76677523972E+03  0.76677523972E+03  0.00000000000E+00 0.  1.
         21   -1    0    0  502  503 -0.00000000000E+00 -0.00000000000E+00 -0.44943089236E+02  0.44943089236E+02  0.00000000000E+00 0. -1.
          6    1    1    2  501    0 -0.66828817176E+02  0.20099848013E+02  0.35506866043E+03  0.40065926710E+03  0.17200000000E+03 0.  1.
         -6    1    1    2    0  503  0.66828817176E+02 -0.20099848013E+02  0.36676349006E+03  0.41105906185E+03  0.17200000000E+03 0.  1.
</event>
<event>
 4    1  0.4450588E+000  0.2385247E+03  0.7818608E-02  0.1120780E+00
         21   -1    0    0  501  502  0.00000000000E+00  0.00000000000E+00  0.45289987295E+03  0.45289987295E+03  0.00000000000E+00 0.  1.
         21   -1    0    0  502  503 -0.00000000000E+00 -0.00000000000E+00 -0.15411103626E+03  0.15411103626E+03  0.00000000000E+00 0.  1.
          6    1    1    2  501    0 -0.10592625548E+03  0.12684493965E+03  0.18900131895E+02  0.23927228276E+03  0.17200000000E+03 0.  1.
         -6    1    1    2    0  503  0.10592625548E+03 -0.12684493965E+03  0.27988870480E+03  0.36773862645E+03  0.17200000000E+03 0.  1.
</event>
<event>
 4    1  0.4450588E+000  0.2637209E+03  0.7818608E-02  0.1104928E+00
         21   -1    0    0  501  502  0.00000000000E+00  0.00000000000E+00  0.87612692227E+03  0.87612692227E+03  0.00000000000E+00 0.  1.
         21   -1    0    0  502  503 -0.00000000000E+00 -0.00000000000E+00 -0.82363714727E+02  0.82363714727E+02  0.00000000000E+00 0. -1.
          6    1    1    2  501    0 -0.15652023174E+03 -0.12436299427E+03  0.48806598859E+03  0.55475863806E+03  0.17200000000E+03 0.  1.
         -6    1    1    2    0  503  0.15652023174E+03  0.12436299427E+03  0.30569721896E+03  0.40373199894E+03  0.17200000000E+03 0. -1.
</event>
<event>
 4    1  0.4450588E+000  0.1887884E+03  0.7818608E-02  0.1159559E+00
         21   -1    0    0  503  502  0.00000000000E+00  0.00000000000E+00  0.24950941656E+04  0.24950941656E+04  0.00000000000E+00 0. -1.
         21   -1    0    0  501  503 -0.00000000000E+00 -0.00000000000E+00 -0.19026738387E+02  0.19026738387E+02  0.00000000000E+00 0. -1.
          6    1    1    2  501    0  0.23615293820E+02 -0.74157741154E+02  0.61045546642E+03  0.63898116495E+03  0.17200000000E+03 0. -1.
         -6    1    1    2    0  502 -0.23615293820E+02  0.74157741154E+02  0.18656119608E+04  0.18751397391E+04  0.17200000000E+03 0. -1.
</event>
<event>
 4    1  0.4450588E+000  0.2121549E+03  0.7818608E-02  0.1139871E+00
         21   -1    0    0  501  502  0.00000000000E+00  0.00000000000E+00  0.93385861596E+02  0.93385861596E+02  0.00000000000E+00 0. -1.
         21   -1    0    0  502  503 -0.00000000000E+00 -0.00000000000E+00 -0.49612016155E+03  0.49612016155E+03  0.00000000000E+00 0.  1.
          6    1    1    2  501    0 -0.98394490709E+02 -0.75790541946E+02 -0.15159761239E+03  0.26075183246E+03  0.17200000000E+03 0.  1.
         -6    1    1    2    0  503  0.98394490709E+02  0.75790541946E+02 -0.25113668757E+03  0.32875419068E+03  0.17200000000E+03 0.  1.
</event>
<event>
 4    1  0.4450588E+000  0.2449050E+03  0.7818608E-02  0.1116568E+00
         21   -1    0    0  503  502  0.00000000000E+00  0.00000000000E+00  0.50946394306E+02  0.50946394306E+02  0.00000000000E+00 0. -1.
         21   -1    0    0  501  503 -0.00000000000E+00 -0.00000000000E+00 -0.11979624222E+04  0.11979624222E+04  0.00000000000E+00 0.  1.
          6    1    1    2  501    0 -0.16735657377E+03  0.48849232797E+02 -0.65554659897E+03  0.69979983835E+03  0.17200000000E+03 0. -1.
         -6    1    1    2    0  502  0.16735657377E+03 -0.48849232797E+02 -0.49146942894E+03  0.54910897817E+03  0.17200000000E+03 0.  1.
</event>
<event>
 4    1  0.4450588E+000  0.2162250E+03  0.7818608E-02  0.1136729E+00
         21   -1    0    0  503  502  0.00000000000E+00  0.00000000000E+00  0.14046524396E+04  0.14046524396E+04  0.00000000000E+00 0. -1.
         21   -1    0    0  501  503 -0.00000000000E+00 -0.00000000000E+00 -0.37563986755E+02  0.37563986755E+02  0.00000000000E+00 0. -1.
          6    1    1    2  501    0 -0.67139995451E+02  0.11252312737E+03  0.44015150304E+03  0.49039430952E+03  0.17200000000E+03 0. -1.
         -6    1    1    2    0  502  0.67139995451E+02 -0.11252312737E+03  0.92693694985E+03  0.95182211688E+03  0.17200000000E+03 0. -1.
</event>
<event>
 4    1  0.4450588E+000  0.1919660E+03  0.7818608E-02  0.1156700E+00
         21   -1    0    0  503  502  0.00000000000E+00  0.00000000000E+00  0.13047132471E+03  0.13047132471E+03  0.00000000000E+00 0. -1.
         21   -1    0    0  501  503 -0.00000000000E+00 -0.00000000000E+00 -0.18795287712E+04  0.18795287712E+04  0.00000000000E+00 0. -1.
          6    1    1    2  501    0 -0.24288956671E+02  0.81712836003E+02 -0.18009435038E+04  0.18111456167E+04  0.17200000000E+03 0. -1.
         -6    1    1    2    0  502  0.24288956671E+02 -0.81712836003E+02  0.51886057268E+02  0.19885447926E+03  0.17200000000E+03 0. -1.
</event>
<event>
 4    1  0.4450588E+000  0.2014311E+03  0.7818608E-02  0.1148537E+00
         21   -1    0    0  503  502  0.00000000000E+00  0.00000000000E+00  0.13626823702E+03  0.13626823702E+03  0.00000000000E+00 0. -1.
         21   -1    0    0  501  503 -0.00000000000E+00 -0.00000000000E+00 -0.34664293909E+03  0.34664293909E+03  0.00000000000E+00 0. -1.
          6    1    1    2  501    0  0.87124716365E+02  0.58307576679E+02 -0.19586471294E+03  0.28095813829E+03  0.17200000000E+03 0. -1.
         -6    1    1    2    0  502 -0.87124716365E+02 -0.58307576679E+02 -0.14509989126E+02  0.20195303782E+03  0.17200000000E+03 0. -1.
</event>
<event>
 4    1  0.4450588E+000  0.4612813E+03  0.7818608E-02  0.1024410E+00
         21   -1    0    0  501  502  0.00000000000E+00  0.00000000000E+00  0.11403953968E+03  0.11403953968E+03  0.00000000000E+00 0. -1.
         21   -1    0    0  502  503 -0.00000000000E+00 -0.00000000000E+00 -0.24823594188E+04  0.24823594188E+04  0.00000000000E+00 0.  1.
          6    1    1    2  501    0 -0.36262540306E+03 -0.22737460276E+03 -0.53719636639E+03  0.70806802567E+03  0.17200000000E+03 0. -1.
         -6    1    1    2    0  503  0.36262540306E+03  0.22737460276E+03 -0.18311235127E+04  0.18883309328E+04  0.17200000000E+03 0.  1.
</event>
<event>
 4    1  0.4450588E+000  0.2124179E+03  0.7818608E-02  0.1139665E+00
         21   -1    0    0  501  502  0.00000000000E+00  0.00000000000E+00  0.11662958600E+03  0.11662958600E+03  0.00000000000E+00 0.  1.
         21   -1    0    0  502  503 -0.00000000000E+00 -0.00000000000E+00 -0.71774273943E+03  0.71774273943E+03  0.00000000000E+00 0. -1.
          6    1    1    2  501    0 -0.12286401290E+03  0.21019336449E+02 -0.17305887431E+02  0.21312173026E+03  0.17200000000E+03 0.  1.
         -6    1    1    2    0  503  0.12286401290E+03 -0.21019336449E+02 -0.58380726600E+03  0.62125059517E+03  0.17200000000E+03 0. -1.
</event>
<event>
 4    1  0.4450588E+000  0.1946539E+03  0.7818608E-02  0.1154330E+00
         21   -1    0    0  501  502  0.00000000000E+00  0.00000000000E+00  0.19186786355E+03  0.19186786355E+03  0.00000000000E+00 0. -1.
         21   -1    0    0  502  503 -0.00000000000E+00 -0.00000000000E+00 -0.26231589782E+03  0.26231589782E+03  0.00000000000E+00 0. -1.
          6    1    1    2  501    0 -0.74512925188E+02  0.52478256380E+02  0.77676442202E+02  0.20957999209E+03  0.17200000000E+03 0. -1.
         -6    1    1    2    0  503  0.74512925188E+02 -0.52478256380E+02 -0.14812447648E+03  0.24460376928E+03  0.17200000000E+03 0. -1.
</event>
<event>
 4    1  0.4450588E+000  0.1840258E+03  0.7818608E-02  0.1163963E+00
         21   -1    0    0  503  502  0.00000000000E+00  0.00000000000E+00  0.16417774780E+02  0.16417774780E+02  0.00000000000E+00 0.  1.
         21   -1    0    0  501  503 -0.00000000000E+00 -0.00000000000E+00 -0.21565686052E+04  0.21565686052E+04  0.00000000000E+00 0.  1.
          6    1    1    2  501    0 -0.50006487182E+02 -0.42199904819E+02 -0.12967119481E+04  0.13097050649E+04  0.17200000000E+03 0.  1.
         -6    1    1    2    0  502  0.50006487182E+02  0.42199904819E+02 -0.84343888236E+03  0.86328131511E+03  0.17200000000E+03 0.  1.
</event>
<event>
 4    1  0.4450588E+000  0.1992804E+03  0.7818608E-02  0.1150348E+00
         21   -1    0    0  501  502  0.00000000000E+00  0.00000000000E+00  0.11003567475E+03  0.11003567475E+03  0.00000000000E+00 0. -1.
         21   -1    0    0  502  503 -0.00000000000E+00 -0.00000000000E+00 -0.56177139273E+03  0.56177139273E+03  0.00000000000E+00 0.  1.
          6    1    1    2  501    0 -0.34798345915E+02 -0.94433817195E+02 -0.25011312621E+02  0.20084381113E+03  0.17200000000E+03 0. -1.
         -6    1    1    2    0  503  0.34798345915E+02  0.94433817195E+02 -0.42672440536E+03  0.47096325636E+03  0.17200000000E+03 0.  1.
</event>
<event>
 4    1  0.4450588E+000  0.2228606E+03  0.7818608E-02  0.1131768E+00
         21   -1    0    0  501  502  0.00000000000E+00  0.00000000000E+00  0.25026051992E+03  0.25026051992E+03  0.00000000000E+00 0. -1.
         21   -1    0    0  502  503 -0.00000000000E+00 -0.00000000000E+00 -0.40089174014E+03  0.40089174014E+03  0.00000000000E+00 0.  1.
          6    1    1    2  501    0 -0.12800203104E+03  0.60813913110E+02  0.15603873857E+03  0.27205686889E+03  0.17200000000E+03 0. -1.
         -6    1    1    2    0  503  0.12800203104E+03 -0.60813913110E+02 -0.30666995879E+03  0.37909539116E+03  0.17200000000E+03 0.  1.
</event>
<event>
 4    1  0.4450588E+000  0.1815335E+03  0.7818608E-02  0.1166327E+00
         21   -1    0    0  501  502  0.00000000000E+00  0.00000000000E+00  0.39628959848E+02  0.39628959848E+02  0.00000000000E+00 0. -1.
         21   -1    0    0  502  503 -0.00000000000E+00 -0.00000000000E+00 -0.19181235800E+04  0.19181235800E+04  0.00000000000E+00 0. -1.
          6    1    1    2  501    0 -0.57686379894E+02  0.65352062069E+01 -0.20250738036E+03  0.27196261957E+03  0.17200000000E+03 0. -1.
         -6    1    1    2    0  503  0.57686379894E+02 -0.65352062069E+01 -0.16759872398E+04  0.16857899202E+04  0.17200000000E+03 0. -1.
</event>
<event>
 4    1  0.4450588E+000  0.1944880E+03  0.7818608E-02  0.1154475E+00
         21   -1    0    0  501  502  0.00000000000E+00  0.00000000000E+00  0.22152746443E+03  0.22152746443E+03  0.00000000000E+00 0. -1.
         21   -1    0    0  502  503 -0.00000000000E+00 -0.00000000000E+00 -0.18310436600E+03  0.18310436600E+03  0.00000000000E+00 0.  1.
          6    1    1    2  501    0  0.26940861042E+02  0.86693462176E+02  0.71766135231E+02  0.20730640256E+03  0.17200000000E+03 0. -1.
         -6    1    1    2    0  503 -0.26940861042E+02 -0.86693462176E+02 -0.33343036800E+02  0.19732542786E+03  0.17200000000E+03 0. -1.
</event>
<event>
 4    1  0.4450588E+000  0.1826494E+03  0.7818608E-02  0.1165263E+00
         21   -1    0    0  501  502  0.00000000000E+00  0.00000000000E+00  0.35160642317E+03  0.35160642317E+03  0.00000000000E+00 0.  1.
         21   -1    0    0  502  503 -0.00000000000E+00 -0.00000000000E+00 -0.20512568472E+03  0.20512568472E+03  0.00000000000E+00 0.  1.
          6    1    1    2  501    0  0.27658029389E+02  0.54880320159E+02  0.27731302541E+03  0.33205922693E+03  0.17200000000E+03 0.  1.
         -6    1    1    2    0  503 -0.27658029389E+02 -0.54880320159E+02 -0.13083228696E+03  0.22467288096E+03  0.17200000000E+03 0.  1.
</event>
<event>
 4    1  0.4450588E+000  0.1726743E+03  0.7818608E-02  0.1175087E+00
         21   -1    0    0  503  502  0.00000000000E+00  0.00000000000E+00  0.16857167806E+04  0.16857167806E+04  0.00000000000E+00 0. -1.
         21   -1    0    0  501  503 -0.00000000000E+00 -0.00000000000E+00 -0.18224177977E+02  0.18224177977E+02  0.00000000000E+00 0. -1.
          6    1    1    2  501    0  0.55974416712E+01 -0.14180704328E+02  0.68756780890E+03  0.70891883567E+03  0.17200000000E+03 0. -1.
         -6    1    1    2    0  502 -0.55974416712E+01  0.14180704328E+02  0.97992479376E+03  0.99502212294E+03  0.17200000000E+03 0. -1.
</event>
<event>
 4    1  0.4450588E+000  0.1735683E+03  0.7818608E-02  0.1174177E+00
         21   -1    0    0  503  502  0.00000000000E+00  0.00000000000E+00  0.29107113357E+03  0.29107113357E+03  0.00000000000E+00 0. -1.
         21   -1    0    0  501  503 -0.00000000000E+00 -0.00000000000E+00 -0.21049923690E+03  0.21049923690E+03  0.00000000000E+00 0. -1.
          6    1    1    2  501    0  0.10348329006E+02  0.20853396779E+02 -0.13851356368E+03  0.22206296268E+03  0.17200000000E+03 0. -1.
         -6    1    1    2    0  502 -0.10348329006E+02 -0.20853396779E+02  0.21908546036E+03  0.27950740779E+03  0.17200000000E+03 0. -1.
</event>
<event>
 4    1  0.4450588E+000  0.2497858E+03  0.7818608E-02  0.1113440E+00
         21   -1    0    0  503  502  0.00000000000E+00  0.00000000000E+00  0.13058737198E+04  0.13058737198E+04  0.00000000000E+00 0. -1.
         21   -1    0    0  501  503 -0.00000000000E+00 -0.00000000000E+00 -0.60118129109E+02  0.60118129109E+02  0.00000000000E+00 0.  1.
          6    1    1    2  501    0  0.55827284505E+02  0.17231448673E+03  0.31344762468E+03  0.40080217247E+03  0.17200000000E+03 0.  1.
         -6    1    1    2    0  502 -0.55827284505E+02 -0.17231448673E+03  0.93230796605E+03  0.96518967649E+03  0.17200000000E+03 0. -1.
</event>
<event>
 4    1  0.4450588E+000  0.1755817E+03  0.7818608E-02  0.1172149E+00
         21   -1    0    0  501  502  0.00000000000E+00  0.00000000000E+00  0.11032208566E+03  0.11032208566E+03  0.00000000000E+00 0.  1.
         21   -1    0    0  502  503 -0.00000000000E+00 -0.00000000000E+00 -0.34521132219E+03  0.34521132219E+03  0.00000000000E+00 0.  1.
          6    1    1    2  501    0 -0.24363193838E+02 -0.25521639185E+02 -0.18029925398E+02  0.17650495033E+03  0.17200000000E+03 0.  1.
         -6    1    1    2    0  503  0.24363193838E+02  0.25521639185E+02 -0.21685931113E+03  0.27902845752E+03  0.17200000000E+03 0.  1.
</event>
<event>
 4    1  0.4450588E+000  0.2560579E+03  0.7818608E-02  0.1109535E+00
         21   -1    0    0  501  502  0.00000000000E+00  0.00000000000E+00  0.10360543602E+04  0.10360543602E+04  0.00000000000E+00 0.  1.
         21   -1    0    0  502  503 -0.00000000000E+00 -0.00000000000E+00 -0.14966124346E+03  0.14966124346E+03  0.00000000000E+00 0.  1.
          6    1    1    2  501    0  0.16680432366E+03  0.90321555819E+02  0.89359360168E+03  0.92955644842E+03  0.17200000000E+03 0.  1.
         -6    1    1    2    0  503 -0.16680432366E+03 -0.90321555819E+02 -0.72004849238E+01  0.25615915526E+03  0.17200000000E+03 0.  1.
</event>
<event>
 4    1  0.4450588E+000  0.2835187E+03  0.7818608E-02  0.1093782E+00
         21   -1    0    0  501  502  0.00000000000E+00  0.00000000000E+00  0.81593323779E+03  0.81593323779E+03  0.00000000000E+00 0. -1.
         21   -1    0    0  502  503 -0.00000000000E+00 -0.00000000000E+00 -0.21797650704E+03  0.21797650704E+03  0.00000000000E+00 0.  1.
          6    1    1    2  501    0  0.12372949320E+03 -0.18838749806E+03  0.68167898706E+03  0.73828793726E+03  0.17200000000E+03 0. -1.
         -6    1    1    2    0  503 -0.12372949320E+03  0.18838749806E+03 -0.83722256303E+02  0.29562180757E+03  0.17200000000E+03 0.  1.
</event>
<event>
 4    1  0.4450588E+000  0.4942414E+03  0.7818608E-02  0.1015293E+00
         21   -1    0    0  501  502  0.00000000000E+00  0.00000000000E+00  0.13460050923E+04  0.13460050923E+04  0.00000000000E+00 0.  1.
         21   -1    0    0  502  503 -0.00000000000E+00 -0.00000000000E+00 -0.21763625276E+03  0.21763625276E+03  0.00000000000E+00 0.  1.
          6    1    1    2  501    0  0.12649357402E+03  0.44574652733E+03  0.88284339605E+03  0.10117742104E+04  0.17200000000E+03 0.  1.
         -6    1    1    2    0  503 -0.12649357402E+03 -0.44574652733E+03  0.24552544348E+03  0.55186713464E+03  0.17200000000E+03 0.  1.
</event>
<event>
 4    1  0.4450588E+000  0.1866019E+03  0.7818608E-02  0.1161562E+00
         21   -1    0    0  501  502  0.00000000000E+00  0.00000000000E+00  0.17938410030E+03  0.17938410030E+03  0.00000000000E+00 0. -1.
         21   -1    0    0  502  503 -0.00000000000E+00 -0.00000000000E+00 -0.36327968026E+03  0.36327968026E+03  0.00000000000E+00 0. -1.
          6    1    1    2  501    0  0.49274790679E+02  0.52992962123E+02  0.93209779092E+02  0.20858648554E+03  0.17200000000E+03 0. -1.
         -6    1    1    2    0  503 -0.49274790679E+02 -0.52992962123E+02 -0.27710535906E+03  0.33407729502E+03  0.17200000000E+03 0. -1.
</event>
<event>
 4    1  0.4450588E+000  0.3778653E+03  0.7818608E-02  0.1051726E+00
         21   -1    0    0  501  502  0.00000000000E+00  0.00000000000E+00  0.67767874963E+03  0.67767874963E+03  0.00000000000E+00 0.  1.
         21   -1    0    0  502  503 -0.00000000000E+00 -0.00000000000E+00 -0.26247208619E+03  0.26247208619E+03  0.00000000000E+00 0.  1.
          6    1    1    2  501    0  0.33571416968E+03 -0.22230587605E+02  0.41639009416E+03  0.56228365908E+03  0.17200000000E+03 0.  1.
         -6    1    1    2    0  503 -0.33571416968E+03  0.22230587605E+02 -0.11834307097E+01  0.37786717674E+03  0.17200000000E+03 0.  1.
</event>
<event>
 4    1  0.4450588E+000  0.1959198E+03  0.7818608E-02  0.1153228E+00
         21   -1    0    0  501  502  0.00000000000E+00  0.00000000000E+00  0.10046441488E+03  0.10046441488E+03  0.00000000000E+00 0. -1.
         21   -1    0    0  502  503 -0.00000000000E+00 -0.00000000000E+00 -0.74476479903E+03  0.74476479903E+03  0.00000000000E+00 0.  1.
          6    1    1    2  501    0 -0.84951540255E+02 -0.39797053489E+02 -0.27229789518E+02  0.19780301083E+03  0.17200000000E+03 0. -1.
         -6    1    1    2    0  503  0.84951540255E+02  0.39797053489E+02 -0.61707059464E+03  0.64742620307E+03  0.17200000000E+03 0.  1.
</event>
<event>
 4    1  0.4450588E+000  0.1827768E+03  0.7818608E-02  0.1165142E+00
         21   -1    0    0  503  502  0.00000000000E+00  0.00000000000E+00  0.13109515752E+03  0.13109515752E+03  0.00000000000E+00 0.  1.
         21   -1    0    0  501  503 -0.00000000000E+00 -0.00000000000E+00 -0.54632495692E+03  0.54632495692E+03  0.00000000000E+00 0.  1.
          6    1    1    2  501    0 -0.36291931906E+02 -0.50062616879E+02 -0.45502411589E+03  0.49036141362E+03  0.17200000000E+03 0.  1.
         -6    1    1    2    0  502  0.36291931906E+02  0.50062616879E+02  0.39794316484E+02  0.18705870083E+03  0.17200000000E+03 0.  1.
</event>
<event>
 4    1  0.4450588E+000  0.2224694E+03  0.7818608E-02  0.1132055E+00
         21   -1    0    0  501  502  0.00000000000E+00  0.00000000000E+00  0.39411560745E+03  0.39411560745E+03  0.00000000000E+00 0.  1.
         21   -1    0    0  502  503 -0.00000000000E+00 -0.00000000000E+00 -0.26038472603E+03  0.26038472603E+03  0.00000000000E+00 0. -1.
          6    1    1    2  501    0 -0.13761296927E+03  0.31165827736E+02  0.30233041650E+03  0.37536158418E+03  0.17200000000E+03 0.  1.
         -6    1    1    2    0  503  0.13761296927E+03 -0.31165827736E+02 -0.16859953509E+03  0.27913874930E+03  0.17200000000E+03 0. -1.
</event>
<event>
 4    1  0.4450588E+000  0.2294445E+03  0.7818608E-02  0.1127031E+00
         21   -1    0    0  501  502  0.00000000000E+00  0.00000000000E+00  0.64875677986E+02  0.64875677986E+02  0.00000000000E+00 0. -1.
         21   -1    0    0  502  503 -0.00000000000E+00 -0.00000000000E+00 -0.14902705221E+04  0.14902705221E+04  0.00000000000E+00 0.  1.
          6    1    1    2  501    0  0.33440782417E+02  0.14813001959E+03 -0.18791515239E+03  0.29657527397E+03  0.17200000000E+03 0. -1.
         -6    1    1    2    0  503 -0.33440782417E+02 -0.14813001959E+03 -0.12374796918E+04  0.12585709261E+04  0.17200000000E+03 0.  1.
</event>
<event>
 4    1  0.4450588E+000  0.1880347E+03  0.7818608E-02  0.1160246E+00
         21   -1    0    0  501  502  0.00000000000E+00  0.00000000000E+00  0.32263884050E+03  0.32263884050E+03  0.00000000000E+00 0. -1.
         21   -1    0    0  502  503 -0.00000000000E+00 -0.00000000000E+00 -0.20326251278E+03  0.20326251278E+03  0.00000000000E+00 0. -1.
          6    1    1    2  501    0 -0.66003904567E+02 -0.37636951027E+02  0.23819647900E+03  0.30347095101E+03  0.17200000000E+03 0. -1.
         -6    1    1    2    0  503  0.66003904567E+02  0.37636951027E+02 -0.11882015128E+03  0.22243040226E+03  0.17200000000E+03 0. -1.
</event>
<event>
 4    1  0.4450588E+000  0.2913449E+03  0.7818608E-02  0.1089649E+00
         21   -1    0    0  503  502  0.00000000000E+00  0.00000000000E+00  0.12271895876E+03  0.12271895876E+03  0.00000000000E+00 0. -1.
         21   -1    0    0  501  503 -0.00000000000E+00 -0.00000000000E+00 -0.13442169637E+04  0.13442169637E+04  0.00000000000E+00 0.  1.
          6    1    1    2  501    0  0.18690804267E+03 -0.14269982503E+03 -0.11217833450E+04  0.11589994520E+04  0.17200000000E+03 0.  1.
         -6    1    1    2    0  502 -0.18690804267E+03  0.14269982503E+03 -0.99714659948E+02  0.30793647053E+03  0.17200000000E+03 0. -1.
</event>
<event>
 4    1  0.4450588E+000  0.2284230E+03  0.7818608E-02  0.1127755E+00
         21   -1    0    0  503  502  0.00000000000E+00  0.00000000000E+00  0.17917395780E+04  0.17917395780E+04  0.00000000000E+00 0.  1.
         21   -1    0    0  501  503 -0.00000000000E+00 -0.00000000000E+00 -0.29202617442E+02  0.29202617442E+02  0.00000000000E+00 0.  1.
          6    1    1    2  501    0 -0.10824368543E+03 -0.10428985530E+03  0.92943133752E+03  0.95708917062E+03  0.17200000000E+03 0.  1.
         -6    1    1    2    0  502  0.10824368543E+03  0.10428985530E+03  0.83310562302E+03  0.86385302481E+03  0.17200000000E+03 0.  1.
</event>
<event>
 4    1  0.4450588E+000  0.1848379E+03  0.7818608E-02  0.1163201E+00
         21   -1    0    0  501  502  0.00000000000E+00  0.00000000000E+00  0.22736964112E+03  0.22736964112E+03  0.00000000000E+00 0. -1.
         21   -1    0    0  502  503 -0.00000000000E+00 -0.00000000000E+00 -0.27362786936E+03  0.27362786936E+03  0.00000000000E+00 0. -1.
          6    1    1    2  501    0 -0.48088700971E+02 -0.47628986675E+02  0.14506961664E+03  0.23496858770E+03  0.17200000000E+03 0. -1.
         -6    1    1    2    0  503  0.48088700971E+02  0.47628986675E+02 -0.19132784487E+03  0.26602892278E+03  0.17200000000E+03 0. -1.
</event>
<event>
 4    1  0.4450588E+000  0.1948647E+03  0.7818608E-02  0.1154145E+00
         21   -1    0    0  503  502  0.00000000000E+00  0.00000000000E+00  0.10629842490E+03  0.10629842490E+03  0.00000000000E+00 0.  1.
         21   -1    0    0  501  503 -0.00000000000E+00 -0.00000000000E+00 -0.97245119169E+03  0.97245119169E+03  0.00000000000E+00 0.  1.
          6    1    1    2  501    0 -0.76041903603E+02 -0.51047642358E+02 -0.86209377422E+03  0.88384269440E+03  0.17200000000E+03 0.  1.
         -6    1    1    2    0  502  0.76041903603E+02  0.51047642358E+02 -0.40589925622E+01  0.19490692218E+03  0.17200000000E+03 0.  1.
</event>
<event>
 4    1  0.4450588E+000  0.1871900E+03  0.7818608E-02  0.1161020E+00
         21   -1    0    0  501  502  0.00000000000E+00  0.00000000000E+00  0.54718419769E+03  0.54718419769E+03  0.00000000000E+00 0.  1.
         21   -1    0    0  502  503 -0.00000000000E+00 -0.00000000000E+00 -0.64386564000E+02  0.64386564000E+02  0.00000000000E+00 0.  1.
          6    1    1    2  501    0 -0.31921355109E+01 -0.73796477894E+02  0.26392547745E+03  0.32356879875E+03  0.17200000000E+03 0.  1.
         -6    1    1    2    0  503  0.31921355109E+01  0.73796477894E+02  0.21887215623E+03  0.28800196293E+03  0.17200000000E+03 0.  1.
</event>
<event>
 4    1  0.4450588E+000  0.1778956E+03  0.7818608E-02  0.1169855E+00
         21   -1    0    0  503  502  0.00000000000E+00  0.00000000000E+00  0.86291398579E+02  0.86291398579E+02  0.00000000000E+00 0. -1.
         21   -1    0    0  501  503 -0.00000000000E+00 -0.00000000000E+00 -0.50704100605E+03  0.50704100605E+03  0.00000000000E+00 0. -1.
          6    1    1    2  501    0  0.26024466714E+02 -0.37223251554E+02 -0.36642736455E+03  0.40732770200E+03  0.17200000000E+03 0. -1.
         -6    1    1    2    0  502 -0.26024466714E+02  0.37223251554E+02 -0.54322242919E+02  0.18600470263E+03  0.17200000000E+03 0. -1.
</event>
<event>
 4    1  0.4450588E+000  0.2087757E+03  0.7818608E-02  0.1142539E+00
         21   -1    0    0  501  502  0.00000000000E+00  0.00000000000E+00  0.93370616804E+02  0.93370616804E+02  0.00000000000E+00 0.  1.
         21   -1    0    0  502  503 -0.00000000000E+00 -0.00000000000E+00 -0.52816675318E+03  0.52816675318E+03  0.00000000000E+00 0.  1.
          6    1    1    2  501    0 -0.15172922641E+02  0.11735877758E+03 -0.11148576439E+03  0.23667778924E+03  0.17200000000E+03 0.  1.
         -6    1    1    2    0  503  0.15172922641E+02 -0.11735877758E+03 -0.32331037199E+03  0.38485958075E+03  0.17200000000E+03 0.  1.
</event>
<event>
 4    1  0.4450588E+000  0.2211081E+03  0.7818608E-02  0.1133060E+00
         21   -1    0    0  503  502  0.00000000000E+00  0.00000000000E+00  0.96888671369E+03  0.96888671369E+03  0.00000000000E+00 0.  1.
         21   -1    0    0  501  503 -0.00000000000E+00 -0.00000000000E+00 -0.55580284173E+02  0.55580284173E+02  0.00000000000E+00 0.  1.
          6    1    1    2  501    0 -0.74294640098E+02  0.11740991035E+03  0.30116086464E+03  0.37361296416E+03  0.17200000000E+03 0.  1.
         -6    1    1    2    0  502  0.74294640098E+02 -0.11740991035E+03  0.61214556488E+03  0.65085403371E+03  0.17200000000E+03 0.  1.
</event>
<event>
 4    1  0.4450588E+000  0.1899946E+03  0.7818608E-02  0.1158466E+00
         21   -1    0    0  501  502  0.00000000000E+00  0.00000000000E+00  0.10535148971E+03  0.10535148971E+03  0.00000000000E+00 0. -1.
         21   -1    0    0  502  503 -0.00000000000E+00 -0.00000000000E+00 -0.45745449454E+03  0.45745449454E+03  0.00000000000E+00 0. -1.
          6    1    1    2  501    0 -0.34944145684E+02  0.72752023346E+02 -0.35074766339E+02  0.19320504510E+03  0.17200000000E+03 0. -1.
         -6    1    1    2    0  503  0.34944145684E+02 -0.72752023346E+02 -0.31702823849E+03  0.36960093914E+03  0.17200000000E+03 0. -1.
</event>
<event>
 4    1  0.4450588E+000  0.1725959E+03  0.7818608E-02  0.1175167E+00
         21   -1    0    0  501  502  0.00000000000E+00  0.00000000000E+00  0.22746157039E+03  0.22746157039E+03  0.00000000000E+00 0.  1.
         21   -1    0    0  502  503 -0.00000000000E+00 -0.00000000000E+00 -0.15228747307E+03  0.15228747307E+03  0.00000000000E+00 0.  1.
          6    1    1    2  501    0  0.10076968081E+01  0.14294259922E+02  0.10863649512E+03  0.20393927869E+03  0.17200000000E+03 0.  1.
         -6    1    1    2    0  503 -0.10076968081E+01 -0.14294259922E+02 -0.33462397802E+02  0.17580976476E+03  0.17200000000E+03 0.  1.
</event>
<event>
 4    1  0.4450588E+000  0.2190308E+03  0.7818608E-02  0.1134608E+00
         21   -1    0    0  501  502  0.00000000000E+00  0.00000000000E+00  0.59580972386E+03  0.59580972386E+03  0.00000000000E+00 0.  1.
         21   -1    0    0  502  503 -0.00000000000E+00 -0.00000000000E+00 -0.96790806840E+02  0.96790806840E+02  0.00000000000E+00 0.  1.
          6    1    1    2  501    0 -0.12973361399E+03 -0.39492731209E+02  0.39149457920E+03  0.44860059291E+03  0.17200000000E+03 0.  1.
         -6    1    1    2    0  503  0.12973361399E+03  0.39492731209E+02  0.10752433782E+03  0.24399993779E+03  0.17200000000E+03 0.  1.
</event>
<event>
 4    1  0.4450588E+000  0.3176385E+03  0.7818608E-02  0.1076741E+00
         21   -1    0    0  501  502  0.00000000000E+00  0.00000000000E+00  0.19560368526E+03  0.19560368526E+03  0.00000000000E+00 0. -1.
         21   -1    0    0  502  503 -0.00000000000E+00 -0.00000000000E+00 -0.10144543386E+04  0.10144543386E+04  0.00000000000E+00 0.  1.
          6    1    1    2  501    0 -0.24917622403E+03  0.96028174630E+02  0.14760054464E+02  0.31798122610E+03  0.17200000000E+03 0. -1.
         -6    1    1    2    0  503  0.24917622403E+03 -0.96028174630E+02 -0.83361070776E+03  0.89207679773E+03  0.17200000000E+03 0.  1.
</event>
<event>
 4    1  0.4450588E+000  0.2302612E+03  0.7818608E-02  0.1126456E+00
         21   -1    0    0  503  502  0.00000000000E+00  0.00000000000E+00  0.40806300831E+03  0.40806300831E+03  0.00000000000E+00 0.  1.
         21   -1    0    0  501  503 -0.00000000000E+00 -0.00000000000E+00 -0.36955392858E+03  0.36955392858E+03  0.00000000000E+00 0. -1.
          6    1    1    2  501    0 -0.15306031710E+03  0.29608120316E+01 -0.29382923571E+03  0.37330396038E+03  0.17200000000E+03 0. -1.
         -6    1    1    2    0  502  0.15306031710E+03 -0.29608120316E+01  0.33233831543E+03  0.40431297652E+03  0.17200000000E+03 0.  1.
</event>
<event>
 4    1  0.4450588E+000  0.1790809E+03  0.7818608E-02  0.1168696E+00
         21   -1    0    0  501  502  0.00000000000E+00  0.00000000000E+00  0.19471563841E+03  0.19471563841E+03  0.00000000000E+00 0. -1.
         21   -1    0    0  502  503 -0.00000000000E+00 -0.00000000000E+00 -0.17332302322E+03  0.17332302322E+03  0.00000000000E+00 0. -1.
          6    1    1    2  501    0 -0.29382137757E+02 -0.40282318915E+02  0.51737980469E+02  0.18640491909E+03  0.17200000000E+03 0.  1.
         -6    1    1    2    0  503  0.29382137757E+02  0.40282318915E+02 -0.30345365283E+02  0.18163374254E+03  0.17200000000E+03 0.  1.
</event>
<event>
 4    1  0.4450588E+000  0.1859418E+03  0.7818608E-02  0.1162173E+00
         21   -1    0    0  503  502  0.00000000000E+00  0.00000000000E+00  0.18912057804E+04  0.18912057804E+04  0.00000000000E+00 0.  1.
         21   -1    0    0  501  503 -0.00000000000E+00 -0.00000000000E+00 -0.22400690187E+02  0.22400690187E+02  0.00000000000E+00 0.  1.
          6    1    1    2  501    0  0.21299936807E+02 -0.67354842309E+02  0.52411347123E+03  0.55611985472E+03  0.17200000000E+03 0.  1.
         -6    1    1    2    0  502 -0.21299936807E+02  0.67354842309E+02  0.13446916190E+04  0.13574866159E+04  0.17200000000E+03 0.  1.
</event>
<event>
 4    1  0.4450588E+000  0.2170409E+03  0.7818608E-02  0.1136109E+00
         21   -1    0    0  501  502  0.00000000000E+00  0.00000000000E+00  0.11209054873E+03  0.11209054873E+03  0.00000000000E+00 0.  1.
         21   -1    0    0  502  503 -0.00000000000E+00 -0.00000000000E+00 -0.43917523475E+03  0.43917523475E+03  0.00000000000E+00 0.  1.
          6    1    1    2  501    0 -0.10613030382E+03  0.79114631695E+02 -0.22075073448E+03  0.30957657067E+03  0.17200000000E+03 0.  1.
         -6    1    1    2    0  503  0.10613030382E+03 -0.79114631695E+02 -0.10633395155E+03  0.24168921281E+03  0.17200000000E+03 0.  1.
</event>
<event>
 4    1  0.4450588E+000  0.3361747E+03  0.7818608E-02  0.1068437E+00
         21   -1    0    0  503  502  0.00000000000E+00  0.00000000000E+00  0.21854073888E+03  0.21854073888E+03  0.00000000000E+00 0. -1.
         21   -1    0    0  501  503 -0.00000000000E+00 -0.00000000000E+00 -0.58389257829E+03  0.58389257829E+03  0.00000000000E+00 0. -1.
          6    1    1    2  501    0  0.10142250540E+03  0.27044950000E+03 -0.47005020488E+02  0.33944503031E+03  0.17200000000E+03 0. -1.
         -6    1    1    2    0  502 -0.10142250540E+03 -0.27044950000E+03 -0.31834681892E+03  0.46298828686E+03  0.17200000000E+03 0. -1.
</event>
<event>
 4    1  0.4450588E+000  0.1976728E+03  0.7818608E-02  0.1151717E+00
         21   -1    0    0  501  502  0.00000000000E+00  0.00000000000E+00  0.22820001460E+02  0.22820001460E+02  0.00000000000E+00 0.  1.
         21   -1    0    0  502  503 -0.00000000000E+00 -0.00000000000E+00 -0.20652240153E+04  0.20652240153E+04  0.00000000000E+00 0. -1.
          6    1    1    2  501    0 -0.45421997789E+02 -0.86182307109E+02 -0.58961290859E+03  0.62186648882E+03  0.17200000000E+03 0.  1.
         -6    1    1    2    0  503  0.45421997789E+02  0.86182307109E+02 -0.14527911052E+04  0.14661775279E+04  0.17200000000E+03 0. -1.
</event>
<event>
 4    1  0.4450588E+000  0.2022712E+03  0.7818608E-02  0.1147837E+00
         21   -1    0    0  503  502  0.00000000000E+00  0.00000000000E+00  0.87377422259E+02  0.87377422259E+02  0.00000000000E+00 0.  1.
         21   -1    0    0  501  503 -0.00000000000E+00 -0.00000000000E+00 -0.49301733158E+03  0.49301733158E+03  0.00000000000E+00 0. -1.
          6    1    1    2  501    0  0.53471220400E+02  0.92035111808E+02 -0.13776404633E+03  0.24472957663E+03  0.17200000000E+03 0.  1.
         -6    1    1    2    0  502 -0.53471220400E+02 -0.92035111808E+02 -0.26787586299E+03  0.33566517721E+03  0.17200000000E+03 0.  1.
</event>
<event>
 4    1  0.4450588E+000  0.1877848E+03  0.7818608E-02  0.1160475E+00
         21   -1    0    0  501  502  0.00000000000E+00  0.00000000000E+00  0.24006357274E+04  0.24006357274E+04  0.00000000000E+00 0.  1.
         21   -1    0    0  502  503 -0.00000000000E+00 -0.00000000000E+00 -0.19858499810E+02  0.19858499810E+02  0.00000000000E+00 0.  1.
          6    1    1    2  501    0 -0.14044008115E+02 -0.74039756757E+02  0.18078672301E+04  0.18175937503E+04  0.17200000000E+03 0.  1.
         -6    1    1    2    0  503  0.14044008115E+02  0.74039756757E+02  0.57290999756E+03  0.60290047690E+03  0.17200000000E+03 0.  1.
</event>
<event>
 4    1  0.4450588E+000  0.1935191E+03  0.7818608E-02  0.1155325E+00
         21   -1    0    0  501  502  0.00000000000E+00  0.00000000000E+00  0.90892886147E+02  0.90892886147E+02  0.00000000000E+00 0.  1.
         21   -1    0    0  502  503 -0.00000000000E+00 -0.00000000000E+00 -0.63396579927E+03  0.63396579927E+03  0.00000000000E+00 0. -1.
          6    1    1    2  501    0  0.86186943273E+02  0.20915223261E+02 -0.57092183466E+02  0.20176509403E+03  0.17200000000E+03 0.  1.
         -6    1    1    2    0  503 -0.86186943273E+02 -0.20915223261E+02 -0.48598072966E+03  0.52309359139E+03  0.17200000000E+03 0. -1.
</event>
<event>
 4    1  0.4450588E+000  0.2584769E+03  0.7818608E-02  0.1108062E+00
         21   -1    0    0  503  502  0.00000000000E+00  0.00000000000E+00  0.20104154220E+03  0.20104154220E+03  0.00000000000E+00 0.  1.
         21   -1    0    0  501  503 -0.00000000000E+00 -0.00000000000E+00 -0.38810459421E+03  0.38810459421E+03  0.00000000000E+00 0.  1.
          6    1    1    2  501    0  0.12257523208E+03  0.14900207051E+03 -0.20521073138E+03  0.33003295110E+03  0.17200000000E+03 0.  1.
         -6    1    1    2    0  502 -0.12257523208E+03 -0.14900207051E+03  0.18147679362E+02  0.25911318531E+03  0.17200000000E+03 0.  1.
</event>
<event>
 4    1  0.4450588E+000  0.3020894E+03  0.7818608E-02  0.1084201E+00
         21   -1    0    0  503  502  0.00000000000E+00  0.00000000000E+00  0.72611108957E+02  0.72611108957E+02  0.00000000000E+00 0.  1.
         21   -1    0    0  501  503 -0.00000000000E+00 -0.00000000000E+00 -0.13526362693E+04  0.13526362693E+04  0.00000000000E+00 0.  1.
          6    1    1    2  501    0  0.14174244954E+03 -0.20391927574E+03 -0.45033162469E+03  0.54226982694E+03  0.17200000000E+03 0.  1.
         -6    1    1    2    0  502 -0.14174244954E+03  0.20391927574E+03 -0.82969353565E+03  0.88297755131E+03  0.17200000000E+03 0.  1.
</event>
<event>
 4    1  0.4450588E+000  0.2337367E+03  0.7818608E-02  0.1124037E+00
         21   -1    0    0  501  502  0.00000000000E+00  0.00000000000E+00  0.12336632538E+04  0.12336632538E+04  0.00000000000E+00 0. -1.
         21   -1    0    0  502  503 -0.00000000000E+00 -0.00000000000E+00 -0.96445434614E+02  0.96445434614E+02  0.00000000000E+00 0. -1.
          6    1    1    2  501    0 -0.43979140667E+02 -0.15203512270E+03  0.10576965352E+04  0.10832150312E+04  0.17200000000E+03 0. -1.
         -6    1    1    2    0  503  0.43979140667E+02  0.15203512270E+03  0.79521284003E+02  0.24689365718E+03  0.17200000000E+03 0. -1.
</event>
<event>
 4    1  0.4450588E+000  0.1858547E+03  0.7818608E-02  0.1162254E+00
         21   -1    0    0  503  502  0.00000000000E+00  0.00000000000E+00  0.17984597141E+03  0.17984597141E+03  0.00000000000E+00 0. -1.
         21   -1    0    0  501  503 -0.00000000000E+00 -0.00000000000E+00 -0.19276089670E+03  0.19276089670E+03  0.00000000000E+00 0.  1.
          6    1    1    2  501    0 -0.11208967741E+02  0.69514843990E+02 -0.17658666064E+02  0.18669167893E+03  0.17200000000E+03 0. -1.
         -6    1    1    2    0  502  0.11208967741E+02 -0.69514843990E+02  0.47437407826E+01  0.18591518918E+03  0.17200000000E+03 0. -1.
</event>
<event>
 4    1  0.4450588E+000  0.8668014E+03  0.7818608E-02  0.9468060E-01
         21   -1    0    0  503  502  0.00000000000E+00  0.00000000000E+00  0.85851157252E+03  0.85851157252E+03  0.00000000000E+00 0.  1.
         21   -1    0    0  501  503 -0.00000000000E+00 -0.00000000000E+00 -0.88947911485E+03  0.88947911485E+03  0.00000000000E+00 0. -1.
          6    1    1    2  501    0 -0.13179193053E+03  0.83928033313E+03  0.95364682076E+02  0.87203154365E+03  0.17200000000E+03 0.  1.
         -6    1    1    2    0  502  0.13179193053E+03 -0.83928033313E+03 -0.12633222440E+03  0.87595914372E+03  0.17200000000E+03 0. -1.
</event>
<event>
 4    1  0.4450588E+000  0.1895065E+03  0.7818608E-02  0.1158907E+00
         21   -1    0    0  503  502  0.00000000000E+00  0.00000000000E+00  0.60424853117E+03  0.60424853117E+03  0.00000000000E+00 0. -1.
         21   -1    0    0  501  503 -0.00000000000E+00 -0.00000000000E+00 -0.21420744643E+03  0.21420744643E+03  0.00000000000E+00 0. -1.
          6    1    1    2  501    0  0.33652546137E+02  0.72084842599E+02 -0.15283322585E+03  0.24345577282E+03  0.17200000000E+03 0. -1.
         -6    1    1    2    0  502 -0.33652546137E+02 -0.72084842599E+02  0.54287431059E+03  0.57500020478E+03  0.17200000000E+03 0. -1.
</event>
<event>
 4    1  0.4450588E+000  0.2216678E+03  0.7818608E-02  0.1132646E+00
         21   -1    0    0  501  502  0.00000000000E+00  0.00000000000E+00  0.31355350223E+03  0.31355350223E+03  0.00000000000E+00 0. -1.
         21   -1    0    0  502  503 -0.00000000000E+00 -0.00000000000E+00 -0.75670611629E+03  0.75670611629E+03  0.00000000000E+00 0. -1.
          6    1    1    2  501    0 -0.13809363551E+03  0.21971453345E+02  0.25493166543E+03  0.33782651017E+03  0.17200000000E+03 0. -1.
         -6    1    1    2    0  503  0.13809363551E+03 -0.21971453345E+02 -0.69808427950E+03  0.73243310835E+03  0.17200000000E+03 0. -1.
</event>
<event>
 4    1  0.4450588E+000  0.1765786E+03  0.7818608E-02  0.1171156E+00
         21   -1    0    0  501  502  0.00000000000E+00  0.00000000000E+00  0.41404364595E+03  0.41404364595E+03  0.00000000000E+00 0. -1.
         21   -1    0    0  502  503 -0.00000000000E+00 -0.00000000000E+00 -0.31777890906E+03  0.31777890906E+03  0.00000000000E+00 0. -1.
          6    1    1    2  501    0  0.28955207502E+02 -0.27524183233E+02  0.36776038611E+03  0.40795549548E+03  0.17200000000E+03 0. -1.
         -6    1    1    2    0  503 -0.28955207502E+02  0.27524183233E+02 -0.27149564922E+03  0.32386705953E+03  0.17200000000E+03 0. -1.
</event>
<event>
 4    1  0.4450588E+000  0.2132815E+03  0.7818608E-02  0.1138993E+00
         21   -1    0    0  501  502  0.00000000000E+00  0.00000000000E+00  0.52096201821E+03  0.52096201821E+03  0.00000000000E+00 0. -1.
         21   -1    0    0  502  503 -0.00000000000E+00 -0.00000000000E+00 -0.12917595942E+03  0.12917595942E+03  0.00000000000E+00 0. -1.
          6    1    1    2  501    0  0.12593658342E+03  0.67068135244E+01  0.38093799533E+03  0.43658076077E+03  0.17200000000E+03 0. -1.
         -6    1    1    2    0  503 -0.12593658342E+03 -0.67068135244E+01  0.10848063463E+02  0.21355721686E+03  0.17200000000E+03 0. -1.
</event>
<event>
 4    1  0.4450588E+000  0.2783105E+03  0.7818608E-02  0.1096615E+00
         21   -1    0    0  503  502  0.00000000000E+00  0.00000000000E+00  0.87323236190E+02  0.87323236190E+02  0.00000000000E+00 0. -1.
         21   -1    0    0  501  503 -0.00000000000E+00 -0.00000000000E+00 -0.88771320296E+03  0.88771320296E+03  0.00000000000E+00 0.  1.
          6    1    1    2  501    0 -0.48530729655E+02 -0.21334825062E+03 -0.41390240612E+03  0.49877039763E+03  0.17200000000E+03 0.  1.
         -6    1    1    2    0  502  0.48530729655E+02  0.21334825062E+03 -0.38648756066E+03  0.47626604152E+03  0.17200000000E+03 0.  1.
</event>
<event>
 4    1  0.4450588E+000  0.2606869E+03  0.7818608E-02  0.1106731E+00
         21   -1    0    0  503  502  0.00000000000E+00  0.00000000000E+00  0.50303533695E+03  0.50303533695E+03  0.00000000000E+00 0.  1.
         21   -1    0    0  501  503 -0.00000000000E+00 -0.00000000000E+00 -0.27877092731E+03  0.27877092731E+03  0.00000000000E+00 0. -1.
          6    1    1    2  501    0 -0.48140065555E+02 -0.18988471684E+03 -0.16849972064E+03  0.31040268596E+03  0.17200000000E+03 0. -1.
         -6    1    1    2    0  502  0.48140065555E+02  0.18988471684E+03  0.39276413027E+03  0.47140357829E+03  0.17200000000E+03 0.  1.
</event>
<event>
 4    1  0.4450588E+000  0.2118427E+03  0.7818608E-02  0.1140115E+00
         21   -1    0    0  501  502  0.00000000000E+00  0.00000000000E+00  0.50456764548E+03  0.50456764548E+03  0.00000000000E+00 0. -1.
         21   -1    0    0  502  503 -0.00000000000E+00 -0.00000000000E+00 -0.11608032007E+03  0.11608032007E+03  0.00000000000E+00 0. -1.
          6    1    1    2  501    0  0.47267047049E+02  0.11427666592E+03  0.34429032503E+03  0.40424393381E+03  0.17200000000E+03 0. -1.
         -6    1    1    2    0  503 -0.47267047049E+02 -0.11427666592E+03  0.44197000374E+02  0.21640403174E+03  0.17200000000E+03 0. -1.
</event>
<event>
 4    1  0.4450588E+000  0.2162655E+03  0.7818608E-02  0.1136698E+00
         21   -1    0    0  503  502  0.00000000000E+00  0.00000000000E+00  0.80524764927E+03  0.80524764927E+03  0.00000000000E+00 0.  1.
         21   -1    0    0  501  503 -0.00000000000E+00 -0.00000000000E+00 -0.73606842677E+02  0.73606842677E+02  0.00000000000E+00 0.  1.
          6    1    1    2  501    0 -0.45989189532E+02  0.12276714100E+03  0.16401404454E+03  0.27142472855E+03  0.17200000000E+03 0.  1.
         -6    1    1    2    0  502  0.45989189532E+02 -0.12276714100E+03  0.56762676205E+03  0.60742976340E+03  0.17200000000E+03 0.  1.
</event>
<event>
 4    1  0.4450588E+000  0.2271412E+03  0.7818608E-02  0.1128668E+00
         21   -1    0    0  503  502  0.00000000000E+00  0.00000000000E+00  0.13352177158E+03  0.13352177158E+03  0.00000000000E+00 0. -1.
         21   -1    0    0  501  503 -0.00000000000E+00 -0.00000000000E+00 -0.60586798361E+03  0.60586798361E+03  0.00000000000E+00 0. -1.
          6    1    1    2  501    0  0.13053572564E+03 -0.70495146078E+02 -0.45867698271E+03  0.51183758728E+03  0.17200000000E+03 0. -1.
         -6    1    1    2    0  502 -0.13053572564E+03  0.70495146078E+02 -0.13669229317E+02  0.22755216791E+03  0.17200000000E+03 0. -1.
</event>
<event>
 4    1  0.4450588E+000  0.2603870E+03  0.7818608E-02  0.1106911E+00
         21   -1    0    0  503  502  0.00000000000E+00  0.00000000000E+00  0.21748451779E+03  0.21748451779E+03  0.00000000000E+00 0.  1.
         21   -1    0    0  501  503 -0.00000000000E+00 -0.00000000000E+00 -0.33199498660E+03  0.33199498660E+03  0.00000000000E+00 0. -1.
          6    1    1    2  501    0  0.18985023045E+03 -0.46629161610E+02 -0.12509516143E+03  0.28887746213E+03  0.17200000000E+03 0. -1.
         -6    1    1    2    0  502 -0.18985023045E+03  0.46629161610E+02  0.10584692622E+02  0.26060204226E+03  0.17200000000E+03 0.  1.
</event>
<event>
 4    1  0.4450588E+000  0.2005840E+03  0.7818608E-02  0.1149247E+00
         21   -1    0    0  503  502  0.00000000000E+00  0.00000000000E+00  0.70585569480E+02  0.70585569480E+02  0.00000000000E+00 0. -1.
         21   -1    0    0  501  503 -0.00000000000E+00 -0.00000000000E+00 -0.83929331900E+03  0.83929331900E+03  0.00000000000E+00 0. -1.
          6    1    1    2  501    0 -0.65587899193E+02 -0.79675375015E+02 -0.64204984881E+03  0.67265291664E+03  0.17200000000E+03 0. -1.
         -6    1    1    2    0  502  0.65587899193E+02  0.79675375015E+02 -0.12665790071E+03  0.23722597184E+03  0.17200000000E+03 0. -1.
</event>
<event>
 4    1  0.4450588E+000  0.2238972E+03  0.7818608E-02  0.1131010E+00
         21   -1    0    0  503  502  0.00000000000E+00  0.00000000000E+00  0.59167139370E+02  0.59167139370E+02  0.00000000000E+00 0. -1.
         21   -1    0    0  501  503 -0.00000000000E+00 -0.00000000000E+00 -0.99889579252E+03  0.99889579252E+03  0.00000000000E+00 0.  1.
          6    1    1    2  501    0 -0.54467883799E+02 -0.13258655588E+03 -0.67598540401E+03  0.71209986069E+03  0.17200000000E+03 0.  1.
         -6    1    1    2    0  502  0.54467883799E+02  0.13258655588E+03 -0.26374324915E+03  0.34596307120E+03  0.17200000000E+03 0. -1.
</event>
<event>
 4    1  0.4450588E+000  0.2038486E+03  0.7818608E-02  0.1146532E+00
         21   -1    0    0  503  502  0.00000000000E+00  0.00000000000E+00  0.26424933819E+03  0.26424933819E+03  0.00000000000E+00 0. -1.
         21   -1    0    0  501  503 -0.00000000000E+00 -0.00000000000E+00 -0.16018733639E+03  0.16018733639E+03  0.00000000000E+00 0. -1.
          6    1    1    2  501    0 -0.66335915774E+02  0.87004598441E+02  0.23313080340E+02  0.20517737104E+03  0.17200000000E+03 0. -1.
         -6    1    1    2    0  502  0.66335915774E+02 -0.87004598441E+02  0.80748921461E+02  0.21925930354E+03  0.17200000000E+03 0. -1.
</event>
<event>
 4    1  0.4450588E+000  0.2346560E+03  0.7818608E-02  0.1123405E+00
         21   -1    0    0  501  502  0.00000000000E+00  0.00000000000E+00  0.65617848881E+03  0.65617848881E+03  0.00000000000E+00 0.  1.
         21   -1    0    0  502  503 -0.00000000000E+00 -0.00000000000E+00 -0.93913491769E+02  0.93913491769E+02  0.00000000000E+00 0. -1.
          6    1    1    2  501    0  0.10978287520E+03  0.11587569164E+03  0.40350389365E+03  0.46677494341E+03  0.17200000000E+03 0.  1.
         -6    1    1    2    0  503 -0.10978287520E+03 -0.11587569164E+03  0.15876110339E+03  0.28331703717E+03  0.17200000000E+03 0. -1.
</event>
<event>
 4    1  0.4450588E+000  0.2238597E+03  0.7818608E-02  0.1131038E+00
         21   -1    0    0  501  502  0.00000000000E+00  0.00000000000E+00  0.62671303819E+03  0.62671303819E+03  0.00000000000E+00 0.  1.
         21   -1    0    0  502  503 -0.00000000000E+00 -0.00000000000E+00 -0.13292022825E+03  0.13292022825E+03  0.00000000000E+00 0. -1.
          6    1    1    2  501    0 -0.14189357878E+03  0.19883837628E+02  0.48663924374E+03  0.53565932106E+03  0.17200000000E+03 0.  1.
         -6    1    1    2    0  503  0.14189357878E+03 -0.19883837628E+02  0.71535662005E+01  0.22397394538E+03  0.17200000000E+03 0. -1.
</event>
<event>
 4    1  0.4450588E+000  0.2074354E+03  0.7818608E-02  0.1143613E+00
         21   -1    0    0  501  502  0.00000000000E+00  0.00000000000E+00  0.32365994577E+03  0.32365994577E+03  0.00000000000E+00 0.  1.
         21   -1    0    0  502  503 -0.00000000000E+00 -0.00000000000E+00 -0.16463029498E+03  0.16463029498E+03  0.00000000000E+00 0. -1.
          6    1    1    2  501    0 -0.62344531374E+02 -0.97768099613E+02  0.18662040288E+03  0.27902798545E+03  0.17200000000E+03 0.  1.
         -6    1    1    2    0  503  0.62344531374E+02  0.97768099613E+02 -0.27590752094E+02  0.20926225530E+03  0.17200000000E+03 0.  1.
</event>
<event>
 4    1  0.4450588E+000  0.1808951E+03  0.7818608E-02  0.1166940E+00
         21   -1    0    0  501  502  0.00000000000E+00  0.00000000000E+00  0.93608480967E+02  0.93608480967E+02  0.00000000000E+00 0. -1.
         21   -1    0    0  502  503 -0.00000000000E+00 -0.00000000000E+00 -0.35517527126E+03  0.35517527126E+03  0.00000000000E+00 0. -1.
          6    1    1    2  501    0  0.52662595268E+02 -0.19123078887E+02 -0.15896396652E+03  0.24081649391E+03  0.17200000000E+03 0.  1.
         -6    1    1    2    0  503 -0.52662595268E+02  0.19123078887E+02 -0.10260282377E+03  0.20796725832E+03  0.17200000000E+03 0.  1.
</event>
<event>
 4    1  0.4450588E+000  0.1843652E+03  0.7818608E-02  0.1163644E+00
         21   -1    0    0  501  502  0.00000000000E+00  0.00000000000E+00  0.91228808846E+02  0.91228808846E+02  0.00000000000E+00 0. -1.
         21   -1    0    0  502  503 -0.00000000000E+00 -0.00000000000E+00 -0.37260681854E+03  0.37260681854E+03  0.00000000000E+00 0. -1.
          6    1    1    2  501    0 -0.56991100038E+02  0.34037114251E+02 -0.13892544783E+03  0.23084798177E+03  0.17200000000E+03 0. -1.
         -6    1    1    2    0  503  0.56991100038E+02 -0.34037114251E+02 -0.14245256186E+03  0.23298764562E+03  0.17200000000E+03 0. -1.
</event>
<event>
 4    1  0.4450588E+000  0.2661459E+03  0.7818608E-02  0.1103506E+00
         21   -1    0    0  501  502  0.00000000000E+00  0.00000000000E+00  0.63260011916E+03  0.63260011916E+03  0.00000000000E+00 0. -1.
         21   -1    0    0  502  503 -0.00000000000E+00 -0.00000000000E+00 -0.14041813450E+03  0.14041813450E+03  0.00000000000E+00 0. -1.
          6    1    1    2  501    0 -0.17920777363E+03  0.95573103828E+02  0.42005445714E+03  0.49727194900E+03  0.17200000000E+03 0. -1.
         -6    1    1    2    0  503  0.17920777363E+03 -0.95573103828E+02  0.72127527518E+02  0.27574630466E+03  0.17200000000E+03 0. -1.
</event>
<event>
 4    1  0.4450588E+000  0.1776785E+03  0.7818608E-02  0.1170069E+00
         21   -1    0    0  501  502  0.00000000000E+00  0.00000000000E+00  0.18254376617E+03  0.18254376617E+03  0.00000000000E+00 0. -1.
         21   -1    0    0  502  503 -0.00000000000E+00 -0.00000000000E+00 -0.17870379838E+03  0.17870379838E+03  0.00000000000E+00 0. -1.
          6    1    1    2  501    0  0.19464692385E+02 -0.40084616529E+02  0.34350409274E+02  0.18096850927E+03  0.17200000000E+03 0. -1.
         -6    1    1    2    0  503 -0.19464692385E+02  0.40084616529E+02 -0.30510441482E+02  0.18027905528E+03  0.17200000000E+03 0. -1.
</event>
<event>
 4    1  0.4450588E+000  0.1725549E+03  0.7818608E-02  0.1175209E+00
         21   -1    0    0  501  502  0.00000000000E+00  0.00000000000E+00  0.16781398867E+03  0.16781398867E+03  0.00000000000E+00 0.  1.
         21   -1    0    0  502  503 -0.00000000000E+00 -0.00000000000E+00 -0.42619401523E+03  0.42619401523E+03  0.00000000000E+00 0.  1.
          6    1    1    2  501    0  0.90557742164E+01 -0.10449300997E+02  0.97719456197E+02  0.19830352255E+03  0.17200000000E+03 0.  1.
         -6    1    1    2    0  503 -0.90557742164E+01  0.10449300997E+02 -0.35609948276E+03  0.39570448135E+03  0.17200000000E+03 0.  1.
</event>
<event>
 4    1  0.4450588E+000  0.1932065E+03  0.7818608E-02  0.1155601E+00
         21   -1    0    0  501  502  0.00000000000E+00  0.00000000000E+00  0.63720598429E+03  0.63720598429E+03  0.00000000000E+00 0. -1.
         21   -1    0    0  502  503 -0.00000000000E+00 -0.00000000000E+00 -0.59232072799E+02  0.59232072799E+02  0.00000000000E+00 0. -1.
          6    1    1    2  501    0 -0.21183599090E+02  0.85416731800E+02  0.32546864722E+03  0.37849518262E+03  0.17200000000E+03 0. -1.
         -6    1    1    2    0  503  0.21183599090E+02 -0.85416731800E+02  0.25250526426E+03  0.31794287446E+03  0.17200000000E+03 0. -1.
</event>
<event>
 4    1  0.4450588E+000  0.1778092E+03  0.7818608E-02  0.1169940E+00
         21   -1    0    0  503  502  0.00000000000E+00  0.00000000000E+00  0.49316073283E+03  0.49316073283E+03  0.00000000000E+00 0.  1.
         21   -1    0    0  501  503 -0.00000000000E+00 -0.00000000000E+00 -0.73768283677E+02  0.73768283677E+02  0.00000000000E+00 0.  1.
          6    1    1    2  501    0  0.27653588615E+02  0.35600494796E+02  0.10712326130E+03  0.20758494479E+03  0.17200000000E+03 0.  1.
         -6    1    1    2    0  502 -0.27653588615E+02 -0.35600494796E+02  0.31226918785E+03  0.35934407171E+03  0.17200000000E+03 0.  1.
</event>
<event>
 4    1  0.4450588E+000  0.1786121E+03  0.7818608E-02  0.1169153E+00
         21   -1    0    0  501  502  0.00000000000E+00  0.00000000000E+00  0.13010684629E+04  0.13010684629E+04  0.00000000000E+00 0.  1.
         21   -1    0    0  502  503 -0.00000000000E+00 -0.00000000000E+00 -0.33701024971E+02  0.33701024971E+02  0.00000000000E+00 0.  1.
          6    1    1    2  501    0 -0.18196364714E+02 -0.44577548301E+02  0.98202030411E+03  0.99813132562E+03  0.17200000000E+03 0.  1.
         -6    1    1    2    0  503  0.18196364714E+02  0.44577548301E+02  0.28534713379E+03  0.33663816222E+03  0.17200000000E+03 0.  1.
</event>
<event>
 4    1  0.4450588E+000  0.3932565E+03  0.7818608E-02  0.1046140E+00
         21   -1    0    0  503  502  0.00000000000E+00  0.00000000000E+00  0.16067287490E+04  0.16067287490E+04  0.00000000000E+00 0.  1.
         21   -1    0    0  501  503 -0.00000000000E+00 -0.00000000000E+00 -0.10929483077E+03  0.10929483077E+03  0.00000000000E+00 0. -1.
          6    1    1    2  501    0 -0.84607350728E+02  0.34337771678E+03  0.45231477555E+03  0.59936576175E+03  0.17200000000E+03 0. -1.
         -6    1    1    2    0  502  0.84607350728E+02 -0.34337771678E+03  0.10451191427E+04  0.11166578180E+04  0.17200000000E+03 0.  1.
</event>
<event>
 4    1  0.4450588E+000  0.2705891E+03  0.7818608E-02  0.1100943E+00
         21   -1    0    0  503  502  0.00000000000E+00  0.00000000000E+00  0.85718121001E+03  0.85718121001E+03  0.00000000000E+00 0. -1.
         21   -1    0    0  501  503 -0.00000000000E+00 -0.00000000000E+00 -0.15821479998E+03  0.15821479998E+03  0.00000000000E+00 0.  1.
          6    1    1    2  501    0  0.65871944920E+02  0.19823058643E+03  0.51024810093E+01  0.27063723660E+03  0.17200000000E+03 0.  1.
         -6    1    1    2    0  502 -0.65871944920E+02 -0.19823058643E+03  0.69386392902E+03  0.74475877338E+03  0.17200000000E+03 0. -1.
</event>
<event>
 4    1  0.4450588E+000  0.1753833E+03  0.7818608E-02  0.1172347E+00
         21   -1    0    0  503  502  0.00000000000E+00  0.00000000000E+00  0.13621701992E+03  0.13621701992E+03  0.00000000000E+00 0.  1.
         21   -1    0    0  501  503 -0.00000000000E+00 -0.00000000000E+00 -0.27289144517E+03  0.27289144517E+03  0.00000000000E+00 0.  1.
          6    1    1    2  501    0 -0.11421553214E+02 -0.32323888837E+02 -0.15330109040E+03  0.23293885460E+03  0.17200000000E+03 0.  1.
         -6    1    1    2    0  502  0.11421553214E+02  0.32323888837E+02  0.16626665148E+02  0.17616961049E+03  0.17200000000E+03 0.  1.
</event>
<event>
 4    1  0.4450588E+000  0.4070109E+03  0.7818608E-02  0.1041379E+00
         21   -1    0    0  501  502  0.00000000000E+00  0.00000000000E+00  0.10991281661E+04  0.10991281661E+04  0.00000000000E+00 0. -1.
         21   -1    0    0  502  503 -0.00000000000E+00 -0.00000000000E+00 -0.23373407176E+03  0.23373407176E+03  0.00000000000E+00 0.  1.
          6    1    1    2  501    0  0.30662245608E+03 -0.20507686967E+03  0.82986723706E+03  0.92430378349E+03  0.17200000000E+03 0. -1.
         -6    1    1    2    0  503 -0.30662245608E+03  0.20507686967E+03  0.35526857288E+02  0.40855845436E+03  0.17200000000E+03 0.  1.
</event>
<event>
 4    1  0.4450588E+000  0.1856354E+03  0.7818608E-02  0.1162458E+00
         21   -1    0    0  503  502  0.00000000000E+00  0.00000000000E+00  0.26378372725E+04  0.26378372725E+04  0.00000000000E+00 0.  1.
         21   -1    0    0  501  503 -0.00000000000E+00 -0.00000000000E+00 -0.37975678475E+02  0.37975678475E+02  0.00000000000E+00 0.  1.
          6    1    1    2  501    0  0.36792660748E+02 -0.59353040901E+02  0.21631527831E+03  0.28504873790E+03  0.17200000000E+03 0.  1.
         -6    1    1    2    0  502 -0.36792660748E+02  0.59353040901E+02  0.23835463157E+04  0.23907642130E+04  0.17200000000E+03 0.  1.
</event>
<event>
 4    1  0.4450588E+000  0.1757298E+03  0.7818608E-02  0.1172001E+00
         21   -1    0    0  503  502  0.00000000000E+00  0.00000000000E+00  0.19605963003E+02  0.19605963003E+02  0.00000000000E+00 0.  1.
         21   -1    0    0  501  503 -0.00000000000E+00 -0.00000000000E+00 -0.16397126222E+04  0.16397126222E+04  0.00000000000E+00 0.  1.
          6    1    1    2  501    0 -0.45553134893E+01 -0.35724299177E+02 -0.97477055538E+03  0.99048402918E+03  0.17200000000E+03 0.  1.
         -6    1    1    2    0  502  0.45553134893E+01  0.35724299177E+02 -0.64533610378E+03  0.66883455598E+03  0.17200000000E+03 0.  1.
</event>
<event>
 4    1  0.4450588E+000  0.2410188E+03  0.7818608E-02  0.1119116E+00
         21   -1    0    0  501  502  0.00000000000E+00  0.00000000000E+00  0.32083620824E+03  0.32083620824E+03  0.00000000000E+00 0. -1.
         21   -1    0    0  502  503 -0.00000000000E+00 -0.00000000000E+00 -0.29794649023E+03  0.29794649023E+03  0.00000000000E+00 0.  1.
          6    1    1    2  501    0 -0.14771173994E+03 -0.81776083419E+02  0.20523165734E+03  0.31655981917E+03  0.17200000000E+03 0. -1.
         -6    1    1    2    0  503  0.14771173994E+03  0.81776083419E+02 -0.18234193932E+03  0.30222287930E+03  0.17200000000E+03 0.  1.
</event>
<event>
 4    1  0.4450588E+000  0.1754400E+03  0.7818608E-02  0.1172291E+00
         21   -1    0    0  503  502  0.00000000000E+00  0.00000000000E+00  0.14394335279E+03  0.14394335279E+03  0.00000000000E+00 0. -1.
         21   -1    0    0  501  503 -0.00000000000E+00 -0.00000000000E+00 -0.22229269354E+03  0.22229269354E+03  0.00000000000E+00 0. -1.
          6    1    1    2  501    0  0.21292216843E+02 -0.27236796000E+02 -0.34424958535E+01  0.17547379386E+03  0.17200000000E+03 0. -1.
         -6    1    1    2    0  502 -0.21292216843E+02  0.27236796000E+02 -0.74906844891E+02  0.19076225247E+03  0.17200000000E+03 0. -1.
</event>
<event>
 4    1  0.4450588E+000  0.1843390E+03  0.7818608E-02  0.1163669E+00
         21   -1    0    0  503  502  0.00000000000E+00  0.00000000000E+00  0.77786057128E+03  0.77786057128E+03  0.00000000000E+00 0.  1.
         21   -1    0    0  501  503 -0.00000000000E+00 -0.00000000000E+00 -0.46009646204E+02  0.46009646204E+02  0.00000000000E+00 0.  1.
          6    1    1    2  501    0 -0.63139464065E+02 -0.20255690308E+02  0.27333264767E+03  0.32968412336E+03  0.17200000000E+03 0.  1.
         -6    1    1    2    0  502  0.63139464065E+02  0.20255690308E+02  0.45851827741E+03  0.49418609413E+03  0.17200000000E+03 0.  1.
</event>
<event>
 4    1  0.4450588E+000  0.1970029E+03  0.7818608E-02  0.1152293E+00
         21   -1    0    0  503  502  0.00000000000E+00  0.00000000000E+00  0.40028720403E+03  0.40028720403E+03  0.00000000000E+00 0. -1.
         21   -1    0    0  501  503 -0.00000000000E+00 -0.00000000000E+00 -0.17242319879E+03  0.17242319879E+03  0.00000000000E+00 0. -1.
          6    1    1    2  501    0  0.39252014974E+02  0.87666590544E+02 -0.75514686901E+02  0.21098014057E+03  0.17200000000E+03 0. -1.
         -6    1    1    2    0  502 -0.39252014974E+02 -0.87666590544E+02  0.30337869214E+03  0.36173026224E+03  0.17200000000E+03 0. -1.
</event>
<event>
 4    1  0.4450588E+000  0.2364802E+03  0.7818608E-02  0.1122160E+00
         21   -1    0    0  503  502  0.00000000000E+00  0.00000000000E+00  0.13776066030E+04  0.13776066030E+04  0.00000000000E+00 0.  1.
         21   -1    0    0  501  503 -0.00000000000E+00 -0.00000000000E+00 -0.15221737166E+03  0.15221737166E+03  0.00000000000E+00 0.  1.
          6    1    1    2  501    0  0.16168589877E+03  0.14020609283E+02 -0.42328217130E+02  0.24023860079E+03  0.17200000000E+03 0.  1.
         -6    1    1    2    0  502 -0.16168589877E+03 -0.14020609283E+02  0.12677174484E+04  0.12895853738E+04  0.17200000000E+03 0.  1.
</event>
<event>
 4    1  0.4450588E+000  0.1961683E+03  0.7818608E-02  0.1153013E+00
         21   -1    0    0  501  502  0.00000000000E+00  0.00000000000E+00  0.59857597636E+03  0.59857597636E+03  0.00000000000E+00 0. -1.
         21   -1    0    0  502  503 -0.00000000000E+00 -0.00000000000E+00 -0.10861855945E+03  0.10861855945E+03  0.00000000000E+00 0.  1.
          6    1    1    2  501    0 -0.70452534344E+02  0.62725103975E+02  0.47087150575E+03  0.51009996392E+03  0.17200000000E+03 0. -1.
         -6    1    1    2    0  503  0.70452534344E+02 -0.62725103975E+02  0.19085911156E+02  0.19709457189E+03  0.17200000000E+03 0.  1.
</event>
<event>
 4    1  0.4450588E+000  0.1744850E+03  0.7818608E-02  0.1173250E+00
         21   -1    0    0  503  502  0.00000000000E+00  0.00000000000E+00  0.68177835677E+02  0.68177835677E+02  0.00000000000E+00 0. -1.
         21   -1    0    0  501  503 -0.00000000000E+00 -0.00000000000E+00 -0.55844248815E+03  0.55844248815E+03  0.00000000000E+00 0. -1.
          6    1    1    2  501    0 -0.23643649350E+02 -0.17377591208E+02 -0.38537503865E+03  0.42303536879E+03  0.17200000000E+03 0. -1.
         -6    1    1    2    0  502  0.23643649350E+02  0.17377591208E+02 -0.10488961382E+03  0.20358495504E+03  0.17200000000E+03 0. -1.
</event>
<event>
 4    1  0.4450588E+000  0.3056553E+03  0.7818608E-02  0.1082447E+00
         21   -1    0    0  503  502  0.00000000000E+00  0.00000000000E+00  0.37750383220E+03  0.37750383220E+03  0.00000000000E+00 0.  1.
         21   -1    0    0  501  503 -0.00000000000E+00 -0.00000000000E+00 -0.38689817846E+03  0.38689817846E+03  0.00000000000E+00 0. -1.
          6    1    1    2  501    0 -0.16008190918E+03 -0.19548648445E+03 -0.23412758139E+03  0.38502065869E+03  0.17200000000E+03 0.  1.
         -6    1    1    2    0  502  0.16008190918E+03  0.19548648445E+03  0.22473323513E+03  0.37938135197E+03  0.17200000000E+03 0. -1.
</event>
<event>
 4    1  0.4450588E+000  0.4814916E+03  0.7818608E-02  0.1018726E+00
         21   -1    0    0  501  502  0.00000000000E+00  0.00000000000E+00  0.21914468539E+04  0.21914468539E+04  0.00000000000E+00 0. -1.
         21   -1    0    0  502  503 -0.00000000000E+00 -0.00000000000E+00 -0.12805670772E+03  0.12805670772E+03  0.00000000000E+00 0.  1.
          6    1    1    2  501    0  0.40247151961E+03  0.20066587202E+03  0.15152965767E+04  0.15899552923E+04  0.17200000000E+03 0. -1.
         -6    1    1    2    0  503 -0.40247151961E+03 -0.20066587202E+03  0.54809356948E+03  0.72954826927E+03  0.17200000000E+03 0.  1.
</event>
<event>
 4    1  0.4450588E+000  0.1980849E+03  0.7818608E-02  0.1151365E+00
         21   -1    0    0  501  502  0.00000000000E+00  0.00000000000E+00  0.12973224529E+03  0.12973224529E+03  0.00000000000E+00 0.  1.
         21   -1    0    0  502  503 -0.00000000000E+00 -0.00000000000E+00 -0.59329258092E+03  0.59329258092E+03  0.00000000000E+00 0. -1.
          6    1    1    2  501    0  0.95744609112E+02 -0.22059196923E+02  0.21334349836E+02  0.19923050175E+03  0.17200000000E+03 0.  1.
         -6    1    1    2    0  503 -0.95744609112E+02  0.22059196923E+02 -0.48489468547E+03  0.52379432447E+03  0.17200000000E+03 0. -1.
</event>
<event>
 4    1  0.4450588E+000  0.2366428E+03  0.7818608E-02  0.1122050E+00
         21   -1    0    0  501  502  0.00000000000E+00  0.00000000000E+00  0.49007839752E+03  0.49007839752E+03  0.00000000000E+00 0. -1.
         21   -1    0    0  502  503 -0.00000000000E+00 -0.00000000000E+00 -0.12137440941E+03  0.12137440941E+03  0.00000000000E+00 0. -1.
          6    1    1    2  501    0  0.15155263455E+03  0.58716513495E+02  0.11037061095E+03  0.26111587803E+03  0.17200000000E+03 0. -1.
         -6    1    1    2    0  503 -0.15155263455E+03 -0.58716513495E+02  0.25833337717E+03  0.35033692891E+03  0.17200000000E+03 0. -1.
</event>
<event>
 4    1  0.4450588E+000  0.1855326E+03  0.7818608E-02  0.1162554E+00
         21   -1    0    0  503  502  0.00000000000E+00  0.00000000000E+00  0.90965162940E+03  0.90965162940E+03  0.00000000000E+00 0. -1.
         21   -1    0    0  501  503 -0.00000000000E+00 -0.00000000000E+00 -0.55590359898E+02  0.55590359898E+02  0.00000000000E+00 0.  1.
          6    1    1    2  501    0 -0.40539350576E+02  0.56523344665E+02  0.15432436448E+03  0.24132620436E+03  0.17200000000E+03 0.  1.
         -6    1    1    2    0  502  0.40539350576E+02 -0.56523344665E+02  0.69973690502E+03  0.72391578494E+03  0.17200000000E+03 0. -1.
</event>
<event>
 4    1  0.4450588E+000  0.2079740E+03  0.7818608E-02  0.1143180E+00
         21   -1    0    0  501  502  0.00000000000E+00  0.00000000000E+00  0.48049082569E+03  0.48049082569E+03  0.00000000000E+00 0. -1.
         21   -1    0    0  502  503 -0.00000000000E+00 -0.00000000000E+00 -0.94281298153E+02  0.94281298153E+02  0.00000000000E+00 0. -1.
          6    1    1    2  501    0  0.32672304091E+02  0.11225727971E+03  0.25421139445E+03  0.32844574798E+03  0.17200000000E+03 0. -1.
         -6    1    1    2    0  503 -0.32672304091E+02 -0.11225727971E+03  0.13199813309E+03  0.24632637586E+03  0.17200000000E+03 0. -1.
</event>
<event>
 4    1  0.4450588E+000  0.2533579E+03  0.7818608E-02  0.1111201E+00
         21   -1    0    0  503  502  0.00000000000E+00  0.00000000000E+00  0.17044822096E+03  0.17044822096E+03  0.00000000000E+00 0. -1.
         21   -1    0    0  501  503 -0.00000000000E+00 -0.00000000000E+00 -0.37902913874E+03  0.37902913874E+03  0.00000000000E+00 0.  1.
          6    1    1    2  501    0 -0.62006400190E+02  0.17538935699E+03 -0.82280788611E+02  0.26638383657E+03  0.17200000000E+03 0. -1.
         -6    1    1    2    0  502  0.62006400190E+02 -0.17538935699E+03 -0.12630012917E+03  0.28309352313E+03  0.17200000000E+03 0.  1.
</event>
<event>
 4    1  0.4450588E+000  0.2004639E+03  0.7818608E-02  0.1149348E+00
         21   -1    0    0  503  502  0.00000000000E+00  0.00000000000E+00  0.64648582167E+02  0.64648582167E+02  0.00000000000E+00 0. -1.
         21   -1    0    0  501  503 -0.00000000000E+00 -0.00000000000E+00 -0.79843783757E+03  0.79843783757E+03  0.00000000000E+00 0.  1.
          6    1    1    2  501    0  0.53378248321E+02  0.88048550203E+02 -0.56998392618E+03  0.60420812697E+03  0.17200000000E+03 0.  1.
         -6    1    1    2    0  502 -0.53378248321E+02 -0.88048550203E+02 -0.16380532922E+03  0.25887829277E+03  0.17200000000E+03 0. -1.
</event>
<event>
 4    1  0.4450588E+000  0.1734154E+03  0.7818608E-02  0.1174332E+00
         21   -1    0    0  501  502  0.00000000000E+00  0.00000000000E+00  0.93619970692E+02  0.93619970692E+02  0.00000000000E+00 0. -1.
         21   -1    0    0  502  503 -0.00000000000E+00 -0.00000000000E+00 -0.38247470442E+03  0.38247470442E+03  0.00000000000E+00 0. -1.
          6    1    1    2  501    0 -0.12805646598E+02 -0.18025618443E+02 -0.49165231076E+02  0.18025018017E+03  0.17200000000E+03 0. -1.
         -6    1    1    2    0  503  0.12805646598E+02  0.18025618443E+02 -0.23968950266E+03  0.29584449494E+03  0.17200000000E+03 0. -1.
</event>
<event>
 4    1  0.4450588E+000  0.2226720E+03  0.7818608E-02  0.1131906E+00
         21   -1    0    0  503  502  0.00000000000E+00  0.00000000000E+00  0.30108034093E+03  0.30108034093E+03  0.00000000000E+00 0. -1.
         21   -1    0    0  501  503 -0.00000000000E+00 -0.00000000000E+00 -0.17760863937E+03  0.17760863937E+03  0.00000000000E+00 0.  1.
          6    1    1    2  501    0  0.14116026456E+03  0.85215073157E+01  0.12630367432E+03  0.25599893462E+03  0.17200000000E+03 0. -1.
         -6    1    1    2    0  502 -0.14116026456E+03 -0.85215073157E+01 -0.28319727571E+01  0.22269004569E+03  0.17200000000E+03 0.  1.
</event>
<event>
 4    1  0.4450588E+000  0.1927812E+03  0.7818608E-02  0.1155977E+00
         21   -1    0    0  503  502  0.00000000000E+00  0.00000000000E+00  0.17638998948E+03  0.17638998948E+03  0.00000000000E+00 0. -1.
         21   -1    0    0  501  503 -0.00000000000E+00 -0.00000000000E+00 -0.43400271167E+03  0.43400271167E+03  0.00000000000E+00 0. -1.
          6    1    1    2  501    0  0.64256701988E+02 -0.58750951934E+02 -0.34772582345E+03  0.39759004816E+03  0.17200000000E+03 0. -1.
         -6    1    1    2    0  502 -0.64256701988E+02  0.58750951934E+02  0.90113101254E+02  0.21280265299E+03  0.17200000000E+03 0. -1.
</event>
<event>
 4    1  0.4450588E+000  0.1919393E+03  0.7818608E-02  0.1156724E+00
         21   -1    0    0  503  502  0.00000000000E+00  0.00000000000E+00  0.18367137121E+04  0.18367137121E+04  0.00000000000E+00 0. -1.
         21   -1    0    0  501  503 -0.00000000000E+00 -0.00000000000E+00 -0.25943849508E+02  0.25943849508E+02  0.00000000000E+00 0. -1.
          6    1    1    2  501    0 -0.84609093245E+02 -0.98985899665E+01  0.13489862834E+04  0.13625728141E+04  0.17200000000E+03 0. -1.
         -6    1    1    2    0  502  0.84609093245E+02  0.98985899665E+01  0.46178357916E+03  0.50008474755E+03  0.17200000000E+03 0. -1.
</event>
<event>
 4    1  0.4450588E+000  0.1819619E+03  0.7818608E-02  0.1165918E+00
         21   -1    0    0  503  502  0.00000000000E+00  0.00000000000E+00  0.18629004346E+03  0.18629004346E+03  0.00000000000E+00 0.  1.
         21   -1    0    0  501  503 -0.00000000000E+00 -0.00000000000E+00 -0.19174868593E+03  0.19174868593E+03  0.00000000000E+00 0.  1.
          6    1    1    2  501    0 -0.42676913177E+02  0.41289269618E+02 -0.53830131152E+02  0.18975722838E+03  0.17200000000E+03 0.  1.
         -6    1    1    2    0  502  0.42676913177E+02 -0.41289269618E+02  0.48371488683E+02  0.18828150101E+03  0.17200000000E+03 0.  1.
</event>
<event>
 4    1  0.4450588E+000  0.2751502E+03  0.7818608E-02  0.1098368E+00
         21   -1    0    0  503  502  0.00000000000E+00  0.00000000000E+00  0.36139785608E+02  0.36139785608E+02  0.00000000000E+00 0. -1.
         21   -1    0    0  501  503 -0.00000000000E+00 -0.00000000000E+00 -0.26299386284E+04  0.26299386284E+04  0.00000000000E+00 0.  1.
          6    1    1    2  501    0  0.75447212976E+02 -0.20107543215E+03 -0.18981852092E+04  0.19180236442E+04  0.17200000000E+03 0.  1.
         -6    1    1    2    0  502 -0.75447212976E+02  0.20107543215E+03 -0.69561363353E+03  0.74805476973E+03  0.17200000000E+03 0. -1.
</event>
<event>
 4    1  0.4450588E+000  0.1812689E+03  0.7818608E-02  0.1166581E+00
         21   -1    0    0  501  502  0.00000000000E+00  0.00000000000E+00  0.62836121558E+02  0.62836121558E+02  0.00000000000E+00 0.  1.
         21   -1    0    0  502  503 -0.00000000000E+00 -0.00000000000E+00 -0.57000936127E+03  0.57000936127E+03  0.00000000000E+00 0.  1.
          6    1    1    2  501    0 -0.50566111213E+02 -0.26786060502E+02 -0.16264213746E+03  0.24353827116E+03  0.17200000000E+03 0.  1.
         -6    1    1    2    0  503  0.50566111213E+02  0.26786060502E+02 -0.34453110224E+03  0.38930721166E+03  0.17200000000E+03 0.  1.
</event>
<event>
 4    1  0.4450588E+000  0.1900808E+03  0.7818608E-02  0.1158388E+00
         21   -1    0    0  501  502  0.00000000000E+00  0.00000000000E+00  0.36602628489E+03  0.36602628489E+03  0.00000000000E+00 0. -1.
         21   -1    0    0  502  503 -0.00000000000E+00 -0.00000000000E+00 -0.10015492013E+03  0.10015492013E+03  0.00000000000E+00 0. -1.
          6    1    1    2  501    0 -0.80581701960E+02  0.73019406300E+01  0.16092535573E+03  0.24905360697E+03  0.17200000000E+03 0.  1.
         -6    1    1    2    0  503  0.80581701960E+02 -0.73019406300E+01  0.10494600903E+03  0.21712759806E+03  0.17200000000E+03 0.  1.
</event>
<event>
 4    1  0.4450588E+000  0.2615925E+03  0.7818608E-02  0.1106190E+00
         21   -1    0    0  501  502  0.00000000000E+00  0.00000000000E+00  0.14354318307E+03  0.14354318307E+03  0.00000000000E+00 0. -1.
         21   -1    0    0  502  503 -0.00000000000E+00 -0.00000000000E+00 -0.90345343567E+03  0.90345343567E+03  0.00000000000E+00 0.  1.
          6    1    1    2  501    0  0.15854050379E+03  0.11709632024E+03 -0.20174202075E+02  0.26236927790E+03  0.17200000000E+03 0. -1.
         -6    1    1    2    0  503 -0.15854050379E+03 -0.11709632024E+03 -0.73973605052E+03  0.78462734084E+03  0.17200000000E+03 0.  1.
</event>
<event>
 4    1  0.4450588E+000  0.2211656E+03  0.7818608E-02  0.1133017E+00
         21   -1    0    0  501  502  0.00000000000E+00  0.00000000000E+00  0.99312937110E+02  0.99312937110E+02  0.00000000000E+00 0. -1.
         21   -1    0    0  502  503 -0.00000000000E+00 -0.00000000000E+00 -0.50533712141E+03  0.50533712141E+03  0.00000000000E+00 0. -1.
          6    1    1    2  501    0  0.89112279963E+02  0.10672037880E+03 -0.25114823289E+03  0.33464858072E+03  0.17200000000E+03 0. -1.
         -6    1    1    2    0  503 -0.89112279963E+02 -0.10672037880E+03 -0.15487595141E+03  0.27000147781E+03  0.17200000000E+03 0. -1.
</event>
<event>
 4    1  0.4450588E+000  0.2800148E+03  0.7818608E-02  0.1095681E+00
         21   -1    0    0  501  502  0.00000000000E+00  0.00000000000E+00  0.20524428674E+03  0.20524428674E+03  0.00000000000E+00 0. -1.
         21   -1    0    0  502  503 -0.00000000000E+00 -0.00000000000E+00 -0.80748859966E+03  0.80748859966E+03  0.00000000000E+00 0.  1.
          6    1    1    2  501    0 -0.85477245683E+02 -0.20375947418E+03 -0.66868223439E+03  0.72494428299E+03  0.17200000000E+03 0.  1.
         -6    1    1    2    0  503  0.85477245683E+02  0.20375947418E+03  0.66437921469E+02  0.28778860342E+03  0.17200000000E+03 0. -1.
</event>
<event>
 4    1  0.4450588E+000  0.2421246E+03  0.7818608E-02  0.1118386E+00
         21   -1    0    0  501  502  0.00000000000E+00  0.00000000000E+00  0.93621894464E+03  0.93621894464E+03  0.00000000000E+00 0.  1.
         21   -1    0    0  502  503 -0.00000000000E+00 -0.00000000000E+00 -0.16752971191E+03  0.16752971191E+03  0.00000000000E+00 0.  1.
          6    1    1    2  501    0 -0.30165291256E+02  0.16772114773E+03  0.82106743252E+03  0.85602339743E+03  0.17200000000E+03 0.  1.
         -6    1    1    2    0  503  0.30165291256E+02 -0.16772114773E+03 -0.52378199791E+02  0.24772525912E+03  0.17200000000E+03 0.  1.
</event>
<event>
 4    1  0.4450588E+000  0.1728674E+03  0.7818608E-02  0.1174890E+00
         21   -1    0    0  501  502  0.00000000000E+00  0.00000000000E+00  0.15104572204E+03  0.15104572204E+03  0.00000000000E+00 0.  1.
         21   -1    0    0  502  503 -0.00000000000E+00 -0.00000000000E+00 -0.19819534146E+03  0.19819534146E+03  0.00000000000E+00 0.  1.
          6    1    1    2  501    0 -0.17264043947E+02  0.10449063995E+01 -0.30951200672E+02  0.17561638837E+03  0.17200000000E+03 0.  1.
         -6    1    1    2    0  503  0.17264043947E+02 -0.10449063995E+01 -0.16198418755E+02  0.17362467513E+03  0.17200000000E+03 0.  1.
</event>
<event>
 4    1  0.4450588E+000  0.2182883E+03  0.7818608E-02  0.1135166E+00
         21   -1    0    0  503  502  0.00000000000E+00  0.00000000000E+00  0.28106314695E+02  0.28106314695E+02  0.00000000000E+00 0.  1.
         21   -1    0    0  501  503 -0.00000000000E+00 -0.00000000000E+00 -0.21284009112E+04  0.21284009112E+04  0.00000000000E+00 0.  1.
          6    1    1    2  501    0  0.11685635690E+03 -0.66410705164E+02 -0.15365188392E+04  0.15519471425E+04  0.17200000000E+03 0.  1.
         -6    1    1    2    0  502 -0.11685635690E+03  0.66410705164E+02 -0.56377575736E+03  0.60456008345E+03  0.17200000000E+03 0.  1.
</event>
<event>
 4    1  0.4450588E+000  0.3607780E+03  0.7818608E-02  0.1058276E+00
         21   -1    0    0  501  502  0.00000000000E+00  0.00000000000E+00  0.31876046114E+03  0.31876046114E+03  0.00000000000E+00 0.  1.
         21   -1    0    0  502  503 -0.00000000000E+00 -0.00000000000E+00 -0.49861532359E+03  0.49861532359E+03  0.00000000000E+00 0. -1.
          6    1    1    2  501    0  0.28743542205E+03 -0.13400613402E+03 -0.26383067420E+03  0.44695345446E+03  0.17200000000E+03 0. -1.
         -6    1    1    2    0  503 -0.28743542205E+03  0.13400613402E+03  0.83975811756E+02  0.37042233027E+03  0.17200000000E+03 0.  1.
</event>
<event>
 4    1  0.4450588E+000  0.1751603E+03  0.7818608E-02  0.1172571E+00
         21   -1    0    0  503  502  0.00000000000E+00  0.00000000000E+00  0.78634342523E+03  0.78634342523E+03  0.00000000000E+00 0.  1.
         21   -1    0    0  501  503 -0.00000000000E+00 -0.00000000000E+00 -0.75830947721E+02  0.75830947721E+02  0.00000000000E+00 0.  1.
          6    1    1    2  501    0 -0.19157103233E+01 -0.33067710788E+02  0.54894090169E+02  0.18356062916E+03  0.17200000000E+03 0.  1.
         -6    1    1    2    0  502  0.19157103233E+01  0.33067710788E+02  0.65561838734E+03  0.67861374379E+03  0.17200000000E+03 0.  1.
</event>
<event>
 4    1  0.4450588E+000  0.2703241E+03  0.7818608E-02  0.1101094E+00
         21   -1    0    0  501  502  0.00000000000E+00  0.00000000000E+00  0.16325096800E+03  0.16325096800E+03  0.00000000000E+00 0. -1.
         21   -1    0    0  502  503 -0.00000000000E+00 -0.00000000000E+00 -0.86920477705E+03  0.86920477705E+03  0.00000000000E+00 0. -1.
          6    1    1    2  501    0 -0.11017662377E+03 -0.17706557810E+03  0.65410799957E+01  0.27040320468E+03  0.17200000000E+03 0. -1.
         -6    1    1    2    0  503  0.11017662377E+03  0.17706557810E+03 -0.71249488904E+03  0.76205254037E+03  0.17200000000E+03 0. -1.
</event>
<event>
 4    1  0.4450588E+000  0.2065843E+03  0.7818608E-02  0.1144300E+00
         21   -1    0    0  501  502  0.00000000000E+00  0.00000000000E+00  0.13586605244E+03  0.13586605244E+03  0.00000000000E+00 0.  1.
         21   -1    0    0  502  503 -0.00000000000E+00 -0.00000000000E+00 -0.34788445318E+03  0.34788445318E+03  0.00000000000E+00 0.  1.
          6    1    1    2  501    0  0.10765051204E+03 -0.38786873514E+02 -0.30645864768E+02  0.20884497439E+03  0.17200000000E+03 0.  1.
         -6    1    1    2    0  503 -0.10765051204E+03  0.38786873514E+02 -0.18137253597E+03  0.27490553124E+03  0.17200000000E+03 0.  1.
</event>
<event>
 4    1  0.4450588E+000  0.2006296E+03  0.7818608E-02  0.1149209E+00
         21   -1    0    0  501  502  0.00000000000E+00  0.00000000000E+00  0.70758170670E+03  0.70758170670E+03  0.00000000000E+00 0. -1.
         21   -1    0    0  502  503 -0.00000000000E+00 -0.00000000000E+00 -0.44322681306E+03  0.44322681306E+03  0.00000000000E+00 0.  1.
          6    1    1    2  501    0 -0.65931885442E+02 -0.79506096376E+02  0.66938828650E+03  0.69880820758E+03  0.17200000000E+03 0. -1.
         -6    1    1    2    0  503  0.65931885442E+02  0.79506096376E+02 -0.40503339286E+03  0.45200031218E+03  0.17200000000E+03 0.  1.
</event>
<event>
 4    1  0.4450588E+000  0.2149829E+03  0.7818608E-02  0.1137680E+00
         21   -1    0    0  503  502  0.00000000000E+00  0.00000000000E+00  0.17056758298E+03  0.17056758298E+03  0.00000000000E+00 0.  1.
         21   -1    0    0  501  503 -0.00000000000E+00 -0.00000000000E+00 -0.33489794907E+03  0.33489794907E+03  0.00000000000E+00 0.  1.
          6    1    1    2  501    0 -0.12880674984E+03 -0.65178087738E+01 -0.19259118514E+03  0.28863302865E+03  0.17200000000E+03 0.  1.
         -6    1    1    2    0  502  0.12880674984E+03  0.65178087738E+01  0.28260819053E+02  0.21683250340E+03  0.17200000000E+03 0.  1.
</event>
<event>
 4    1  0.4450588E+000  0.2144692E+03  0.7818608E-02  0.1138075E+00
         21   -1    0    0  503  502  0.00000000000E+00  0.00000000000E+00  0.30088069616E+02  0.30088069616E+02  0.00000000000E+00 0.  1.
         21   -1    0    0  501  503 -0.00000000000E+00 -0.00000000000E+00 -0.16033813958E+04  0.16033813958E+04  0.00000000000E+00 0.  1.
          6    1    1    2  501    0 -0.28264282559E+02  0.12495668129E+03 -0.96285746627E+03  0.98645402439E+03  0.17200000000E+03 0.  1.
         -6    1    1    2    0  502  0.28264282559E+02 -0.12495668129E+03 -0.61043585993E+03  0.64701544105E+03  0.17200000000E+03 0.  1.
</event>
<event>
 4    1  0.4450588E+000  0.1906895E+03  0.7818608E-02  0.1157841E+00
         21   -1    0    0  503  502  0.00000000000E+00  0.00000000000E+00  0.11664733300E+03  0.11664733300E+03  0.00000000000E+00 0.  1.
         21   -1    0    0  501  503 -0.00000000000E+00 -0.00000000000E+00 -0.50381320722E+03  0.50381320722E+03  0.00000000000E+00 0.  1.
          6    1    1    2  501    0  0.80193506360E+02 -0.18640751904E+02 -0.38513819065E+03  0.42976028434E+03  0.17200000000E+03 0.  1.
         -6    1    1    2    0  502 -0.80193506360E+02  0.18640751904E+02 -0.20276835637E+01  0.19070025588E+03  0.17200000000E+03 0.  1.
</event>
<event>
 4    1  0.4450588E+000  0.1776033E+03  0.7818608E-02  0.1170143E+00
         21   -1    0    0  501  502  0.00000000000E+00  0.00000000000E+00  0.32761556613E+03  0.32761556613E+03  0.00000000000E+00 0. -1.
         21   -1    0    0  502  503 -0.00000000000E+00 -0.00000000000E+00 -0.11185987715E+03  0.11185987715E+03  0.00000000000E+00 0.  1.
          6    1    1    2  501    0 -0.34171679522E+02  0.28128600921E+02  0.18988380394E+03  0.25999765551E+03  0.17200000000E+03 0. -1.
         -6    1    1    2    0  503  0.34171679522E+02 -0.28128600921E+02  0.25871885044E+02  0.17947778778E+03  0.17200000000E+03 0.  1.
</event>
<event>
 4    1  0.4450588E+000  0.2077687E+03  0.7818608E-02  0.1143345E+00
         21   -1    0    0  503  502  0.00000000000E+00  0.00000000000E+00  0.64733834160E+03  0.64733834160E+03  0.00000000000E+00 0. -1.
         21   -1    0    0  501  503 -0.00000000000E+00 -0.00000000000E+00 -0.67881547597E+02  0.67881547597E+02  0.00000000000E+00 0.  1.
          6    1    1    2  501    0 -0.72965421220E+02  0.90883815913E+02  0.24225165152E+03  0.31914523865E+03  0.17200000000E+03 0.  1.
         -6    1    1    2    0  502  0.72965421220E+02 -0.90883815913E+02  0.33720514248E+03  0.39607465055E+03  0.17200000000E+03 0. -1.
</event>
<event>
 4    1  0.4450588E+000  0.1897230E+03  0.7818608E-02  0.1158711E+00
         21   -1    0    0  503  502  0.00000000000E+00  0.00000000000E+00  0.11816543796E+03  0.11816543796E+03  0.00000000000E+00 0. -1.
         21   -1    0    0  501  503 -0.00000000000E+00 -0.00000000000E+00 -0.56098149085E+03  0.56098149085E+03  0.00000000000E+00 0.  1.
          6    1    1    2  501    0  0.59747996500E+02 -0.53301034234E+02 -0.45096533453E+03  0.48924897167E+03  0.17200000000E+03 0.  1.
         -6    1    1    2    0  502 -0.59747996500E+02  0.53301034234E+02  0.81492816288E+01  0.18989795714E+03  0.17200000000E+03 0. -1.
</event>
<event>
 4    1  0.4450588E+000  0.1946573E+03  0.7818608E-02  0.1154327E+00
         21   -1    0    0  503  502  0.00000000000E+00  0.00000000000E+00  0.15122492261E+03  0.15122492261E+03  0.00000000000E+00 0. -1.
         21   -1    0    0  501  503 -0.00000000000E+00 -0.00000000000E+00 -0.57889212707E+03  0.57889212707E+03  0.00000000000E+00 0. -1.
          6    1    1    2  501    0  0.48774397998E+02 -0.76996847535E+02 -0.48876098782E+03  0.52609767120E+03  0.17200000000E+03 0. -1.
         -6    1    1    2    0  502 -0.48774397998E+02  0.76996847535E+02  0.61093783363E+02  0.20401937848E+03  0.17200000000E+03 0. -1.
</event>
<event>
 4    1  0.4450588E+000  0.2446720E+03  0.7818608E-02  0.1116719E+00
         21   -1    0    0  501  502  0.00000000000E+00  0.00000000000E+00  0.15774901002E+03  0.15774901002E+03  0.00000000000E+00 0. -1.
         21   -1    0    0  502  503 -0.00000000000E+00 -0.00000000000E+00 -0.41761676839E+03  0.41761676839E+03  0.00000000000E+00 0.  1.
          6    1    1    2  501    0  0.12439956800E+03 -0.12167642763E+03 -0.43011495784E+02  0.24842381997E+03  0.17200000000E+03 0. -1.
         -6    1    1    2    0  503 -0.12439956800E+03  0.12167642763E+03 -0.21685626258E+03  0.32694195843E+03  0.17200000000E+03 0.  1.
</event>
<event>
 4    1  0.4450588E+000  0.3277842E+03  0.7818608E-02  0.1072122E+00
         21   -1    0    0  501  502  0.00000000000E+00  0.00000000000E+00  0.29386481692E+03  0.29386481692E+03  0.00000000000E+00 0. -1.
         21   -1    0    0  502  503 -0.00000000000E+00 -0.00000000000E+00 -0.44915931711E+03  0.44915931711E+03  0.00000000000E+00 0. -1.
          6    1    1    2  501    0  0.18237845509E+03 -0.21117902192E+03  0.82574506296E+02  0.33802519029E+03  0.17200000000E+03 0. -1.
         -6    1    1    2    0  503 -0.18237845509E+03  0.21117902192E+03 -0.23786900648E+03  0.40499894374E+03  0.17200000000E+03 0. -1.
</event>
<event>
 4    1  0.4450588E+000  0.2179650E+03  0.7818608E-02  0.1135409E+00
         21   -1    0    0  501  502  0.00000000000E+00  0.00000000000E+00  0.87421483101E+03  0.87421483101E+03  0.00000000000E+00 0.  1.
         21   -1    0    0  502  503 -0.00000000000E+00 -0.00000000000E+00 -0.59091343330E+02  0.59091343330E+02  0.00000000000E+00 0. -1.
          6    1    1    2  501    0 -0.92685326538E+02  0.96613428505E+02  0.53982430866E+03  0.58216750901E+03  0.17200000000E+03 0.  1.
         -6    1    1    2    0  503  0.92685326538E+02 -0.96613428505E+02  0.27529917902E+03  0.35113866533E+03  0.17200000000E+03 0. -1.
</event>
<event>
 4    1  0.4450588E+000  0.2678599E+03  0.7818608E-02  0.1102511E+00
         21   -1    0    0  503  502  0.00000000000E+00  0.00000000000E+00  0.44758790098E+03  0.44758790098E+03  0.00000000000E+00 0. -1.
         21   -1    0    0  501  503 -0.00000000000E+00 -0.00000000000E+00 -0.18984444985E+03  0.18984444985E+03  0.00000000000E+00 0. -1.
          6    1    1    2  501    0 -0.19791431426E+03  0.54725246245E+02  0.31433068809E+01  0.26787834691E+03  0.17200000000E+03 0. -1.
         -6    1    1    2    0  502  0.19791431426E+03 -0.54725246245E+02  0.25460014425E+03  0.36955400392E+03  0.17200000000E+03 0. -1.
</event>
<event>
 4    1  0.4450588E+000  0.2312877E+03  0.7818608E-02  0.1125737E+00
         21   -1    0    0  503  502  0.00000000000E+00  0.00000000000E+00  0.54705241509E+02  0.54705241509E+02  0.00000000000E+00 0. -1.
         21   -1    0    0  501  503 -0.00000000000E+00 -0.00000000000E+00 -0.10446466799E+04  0.10446466799E+04  0.00000000000E+00 0.  1.
          6    1    1    2  501    0 -0.12062406006E+03 -0.96746281407E+02 -0.63395656056E+03  0.67482955441E+03  0.17200000000E+03 0.  1.
         -6    1    1    2    0  502  0.12062406006E+03  0.96746281407E+02 -0.35598487779E+03  0.42452236696E+03  0.17200000000E+03 0. -1.
</event>
<event>
 4    1  0.4450588E+000  0.2367562E+03  0.7818608E-02  0.1121973E+00
         21   -1    0    0  501  502  0.00000000000E+00  0.00000000000E+00  0.52061520902E+03  0.52061520902E+03  0.00000000000E+00 0.  1.
         21   -1    0    0  502  503 -0.00000000000E+00 -0.00000000000E+00 -0.20891830433E+03  0.20891830433E+03  0.00000000000E+00 0. -1.
          6    1    1    2  501    0 -0.11864671510E+03  0.11132143988E+03  0.40978520093E+03  0.47326252428E+03  0.17200000000E+03 0.  1.
         -6    1    1    2    0  503  0.11864671510E+03 -0.11132143988E+03 -0.98088296239E+02  0.25627098907E+03  0.17200000000E+03 0. -1.
</event>
<event>
 4    1  0.4450588E+000  0.2347587E+03  0.7818608E-02  0.1123334E+00
         21   -1    0    0  501  502  0.00000000000E+00  0.00000000000E+00  0.26961575169E+03  0.26961575169E+03  0.00000000000E+00 0.  1.
         21   -1    0    0  502  503 -0.00000000000E+00 -0.00000000000E+00 -0.40882037744E+03  0.40882037744E+03  0.00000000000E+00 0.  1.
          6    1    1    2  501    0 -0.38181609469E+02 -0.15514452774E+03  0.17026227099E+03  0.29000155295E+03  0.17200000000E+03 0.  1.
         -6    1    1    2    0  503  0.38181609469E+02  0.15514452774E+03 -0.30946689674E+03  0.38843457618E+03  0.17200000000E+03 0.  1.
</event>
<event>
 4    1  0.4450588E+000  0.2150112E+03  0.7818608E-02  0.1137658E+00
         21   -1    0    0  501  502  0.00000000000E+00  0.00000000000E+00  0.53086575490E+03  0.53086575490E+03  0.00000000000E+00 0.  1.
         21   -1    0    0  502  503 -0.00000000000E+00 -0.00000000000E+00 -0.13239526111E+03  0.13239526111E+03  0.00000000000E+00 0.  1.
          6    1    1    2  501    0  0.12861476628E+03 -0.10200772029E+02  0.39324440426E+03  0.44818631766E+03  0.17200000000E+03 0.  1.
         -6    1    1    2    0  503 -0.12861476628E+03  0.10200772029E+02  0.52260895325E+01  0.21507469834E+03  0.17200000000E+03 0.  1.
</event>
<event>
 4    1  0.4450588E+000  0.2077594E+03  0.7818608E-02  0.1143353E+00
         21   -1    0    0  501  502  0.00000000000E+00  0.00000000000E+00  0.57557564999E+03  0.57557564999E+03  0.00000000000E+00 0. -1.
         21   -1    0    0  502  503 -0.00000000000E+00 -0.00000000000E+00 -0.74994476967E+02  0.74994476967E+02  0.00000000000E+00 0. -1.
          6    1    1    2  501    0  0.42164819140E+02 -0.10863743798E+03  0.24870167214E+03  0.32406247335E+03  0.17200000000E+03 0. -1.
         -6    1    1    2    0  503 -0.42164819140E+02  0.10863743798E+03  0.25187950087E+03  0.32650765361E+03  0.17200000000E+03 0. -1.
</event>
<event>
 4    1  0.4450588E+000  0.1929830E+03  0.7818608E-02  0.1155798E+00
         21   -1    0    0  503  502  0.00000000000E+00  0.00000000000E+00  0.55928727839E+03  0.55928727839E+03  0.00000000000E+00 0. -1.
         21   -1    0    0  501  503 -0.00000000000E+00 -0.00000000000E+00 -0.28342247757E+03  0.28342247757E+03  0.00000000000E+00 0. -1.
          6    1    1    2  501    0  0.57504594386E+02  0.65967172225E+02 -0.23061549122E+03  0.30070908030E+03  0.17200000000E+03 0. -1.
         -6    1    1    2    0  502 -0.57504594386E+02 -0.65967172225E+02  0.50648029204E+03  0.54200067566E+03  0.17200000000E+03 0. -1.
</event>
<event>
 4    1  0.4450588E+000  0.1900743E+03  0.7818608E-02  0.1158394E+00
         21   -1    0    0  501  502  0.00000000000E+00  0.00000000000E+00  0.16998326352E+04  0.16998326352E+04  0.00000000000E+00 0. -1.
         21   -1    0    0  502  503 -0.00000000000E+00 -0.00000000000E+00 -0.19215898806E+03  0.19215898806E+03  0.00000000000E+00 0. -1.
          6    1    1    2  501    0 -0.80780834951E+02  0.43233369777E+01  0.16459834497E+04  0.16569217698E+04  0.17200000000E+03 0. -1.
         -6    1    1    2    0  503  0.80780834951E+02 -0.43233369777E+01 -0.13830980254E+03  0.23506985349E+03  0.17200000000E+03 0. -1.
</event>
<event>
 4    1  0.4450588E+000  0.4254650E+03  0.7818608E-02  0.1035302E+00
         21   -1    0    0  503  502  0.00000000000E+00  0.00000000000E+00  0.49059520525E+03  0.49059520525E+03  0.00000000000E+00 0.  1.
         21   -1    0    0  501  503 -0.00000000000E+00 -0.00000000000E+00 -0.45048290746E+03  0.45048290746E+03  0.00000000000E+00 0. -1.
          6    1    1    2  501    0  0.27631899467E+03 -0.27401503231E+03 -0.18008656239E+03  0.46200821930E+03  0.17200000000E+03 0.  1.
         -6    1    1    2    0  502 -0.27631899467E+03  0.27401503231E+03  0.22019886018E+03  0.47906989341E+03  0.17200000000E+03 0.  1.
</event>
<event>
 4    1  0.4450588E+000  0.1907965E+03  0.7818608E-02  0.1157745E+00
         21   -1    0    0  501  502  0.00000000000E+00  0.00000000000E+00  0.40299576465E+02  0.40299576465E+02  0.00000000000E+00 0.  1.
         21   -1    0    0  502  503 -0.00000000000E+00 -0.00000000000E+00 -0.10167308012E+04  0.10167308012E+04  0.00000000000E+00 0.  1.
          6    1    1    2  501    0 -0.39739230746E+02  0.72388523987E+02 -0.31169848584E+03  0.36545759116E+03  0.17200000000E+03 0.  1.
         -6    1    1    2    0  503  0.39739230746E+02 -0.72388523987E+02 -0.66473273886E+03  0.69157278646E+03  0.17200000000E+03 0.  1.
</event>
<event>
 4    1  0.4450588E+000  0.2062219E+03  0.7818608E-02  0.1144593E+00
         21   -1    0    0  503  502  0.00000000000E+00  0.00000000000E+00  0.17797039938E+03  0.17797039938E+03  0.00000000000E+00 0.  1.
         21   -1    0    0  501  503 -0.00000000000E+00 -0.00000000000E+00 -0.31362777582E+03  0.31362777582E+03  0.00000000000E+00 0. -1.
          6    1    1    2  501    0  0.86676502092E+02  0.73692922382E+02 -0.18776349310E+03  0.27889530682E+03  0.17200000000E+03 0. -1.
         -6    1    1    2    0  502 -0.86676502092E+02 -0.73692922382E+02  0.52106116663E+02  0.21270286838E+03  0.17200000000E+03 0.  1.
</event>
<event>
 4    1  0.4450588E+000  0.1763619E+03  0.7818608E-02  0.1171371E+00
         21   -1    0    0  501  502  0.00000000000E+00  0.00000000000E+00  0.10796837732E+04  0.10796837732E+04  0.00000000000E+00 0. -1.
         21   -1    0    0  502  503 -0.00000000000E+00 -0.00000000000E+00 -0.34441647504E+02  0.34441647504E+02  0.00000000000E+00 0. -1.
          6    1    1    2  501    0 -0.83763336357E+01  0.38070515470E+02  0.74791892565E+03  0.76843102908E+03  0.17200000000E+03 0. -1.
         -6    1    1    2    0  503  0.83763336357E+01 -0.38070515470E+02  0.29732320007E+03  0.34569439164E+03  0.17200000000E+03 0. -1.
</event>
<event>
 4    1  0.4450588E+000  0.2350376E+03  0.7818608E-02  0.1123143E+00
         21   -1    0    0  503  502  0.00000000000E+00  0.00000000000E+00  0.13191185897E+03  0.13191185897E+03  0.00000000000E+00 0.  1.
         21   -1    0    0  501  503 -0.00000000000E+00 -0.00000000000E+00 -0.83908766834E+03  0.83908766834E+03  0.00000000000E+00 0. -1.
          6    1    1    2  501    0 -0.15846410225E+03  0.23405625403E+02 -0.69719844507E+03  0.73575020680E+03  0.17200000000E+03 0. -1.
         -6    1    1    2    0  502  0.15846410225E+03 -0.23405625403E+02 -0.99773643050E+01  0.23524932051E+03  0.17200000000E+03 0.  1.
</event>
<event>
 4    1  0.4450588E+000  0.2171174E+03  0.7818608E-02  0.1136051E+00
         21   -1    0    0  501  502  0.00000000000E+00  0.00000000000E+00  0.26601957993E+03  0.26601957993E+03  0.00000000000E+00 0. -1.
         21   -1    0    0  502  503 -0.00000000000E+00 -0.00000000000E+00 -0.18011560832E+03  0.18011560832E+03  0.00000000000E+00 0.  1.
          6    1    1    2  501    0  0.22727117420E+02 -0.13053526444E+03  0.14595068861E+02  0.21760742902E+03  0.17200000000E+03 0. -1.
         -6    1    1    2    0  503 -0.22727117420E+02  0.13053526444E+03  0.71308902743E+02  0.22852775923E+03  0.17200000000E+03 0. -1.
</event>
<event>
 4    1  0.4450588E+000  0.1882885E+03  0.7818608E-02  0.1160014E+00
         21   -1    0    0  501  502  0.00000000000E+00  0.00000000000E+00  0.39046560708E+02  0.39046560708E+02  0.00000000000E+00 0.  1.
         21   -1    0    0  502  503 -0.00000000000E+00 -0.00000000000E+00 -0.16895461662E+04  0.16895461662E+04  0.00000000000E+00 0.  1.
          6    1    1    2  501    0  0.57819272050E+02 -0.50254159280E+02 -0.23739878982E+03  0.30300286163E+03  0.17200000000E+03 0.  1.
         -6    1    1    2    0  503 -0.57819272050E+02  0.50254159280E+02 -0.14131008157E+04  0.14255898653E+04  0.17200000000E+03 0.  1.
</event>
<event>
 4    1  0.4450588E+000  0.1997166E+03  0.7818608E-02  0.1149978E+00
         21   -1    0    0  503  502  0.00000000000E+00  0.00000000000E+00  0.10215693352E+03  0.10215693352E+03  0.00000000000E+00 0. -1.
         21   -1    0    0  501  503 -0.00000000000E+00 -0.00000000000E+00 -0.88529873410E+03  0.88529873410E+03  0.00000000000E+00 0. -1.
          6    1    1    2  501    0  0.13464052107E-01 -0.10150238162E+03 -0.76070215240E+03  0.78648235729E+03  0.17200000000E+03 0. -1.
         -6    1    1    2    0  502 -0.13464052107E-01  0.10150238162E+03 -0.22439648170E+02  0.20097331033E+03  0.17200000000E+03 0. -1.
</event>
<event>
 4    1  0.4450588E+000  0.2182293E+03  0.7818608E-02  0.1135210E+00
         21   -1    0    0  503  502  0.00000000000E+00  0.00000000000E+00  0.33527373277E+03  0.33527373277E+03  0.00000000000E+00 0.  1.
         21   -1    0    0  501  503 -0.00000000000E+00 -0.00000000000E+00 -0.14455089213E+03  0.14455089213E+03  0.00000000000E+00 0. -1.
          6    1    1    2  501    0 -0.13093054478E+03 -0.29953311831E+02  0.12694854784E+03  0.25246770535E+03  0.17200000000E+03 0. -1.
         -6    1    1    2    0  502  0.13093054478E+03  0.29953311831E+02  0.63774292805E+02  0.22735691955E+03  0.17200000000E+03 0. -1.
</event>
<event>
 4    1  0.4450588E+000  0.2220451E+03  0.7818608E-02  0.1132367E+00
         21   -1    0    0  501  502  0.00000000000E+00  0.00000000000E+00  0.30464185317E+03  0.30464185317E+03  0.00000000000E+00 0. -1.
         21   -1    0    0  502  503 -0.00000000000E+00 -0.00000000000E+00 -0.16312030969E+03  0.16312030969E+03  0.00000000000E+00 0.  1.
          6    1    1    2  501    0 -0.13591270978E+03 -0.35323751140E+02  0.91460077608E+02  0.24014366090E+03  0.17200000000E+03 0. -1.
         -6    1    1    2    0  503  0.13591270978E+03  0.35323751140E+02  0.50061465873E+02  0.22761850197E+03  0.17200000000E+03 0.  1.
</event>
<event>
 4    1  0.4450588E+000  0.2064934E+03  0.7818608E-02  0.1144373E+00
         21   -1    0    0  501  502  0.00000000000E+00  0.00000000000E+00  0.35666243626E+03  0.35666243626E+03  0.00000000000E+00 0. -1.
         21   -1    0    0  502  503 -0.00000000000E+00 -0.00000000000E+00 -0.12816973476E+03  0.12816973476E+03  0.00000000000E+00 0.  1.
          6    1    1    2  501    0  0.54429146490E+02  0.10046396095E+03  0.17710674948E+03  0.27204106335E+03  0.17200000000E+03 0. -1.
         -6    1    1    2    0  503 -0.54429146490E+02 -0.10046396095E+03  0.51385952016E+02  0.21279110767E+03  0.17200000000E+03 0.  1.
</event>
<event>
 4    1  0.4450588E+000  0.2109672E+03  0.7818608E-02  0.1140802E+00
         21   -1    0    0  501  502  0.00000000000E+00  0.00000000000E+00  0.53416117540E+02  0.53416117540E+02  0.00000000000E+00 0.  1.
         21   -1    0    0  502  503 -0.00000000000E+00 -0.00000000000E+00 -0.10672881851E+04  0.10672881851E+04  0.00000000000E+00 0.  1.
          6    1    1    2  501    0 -0.83501528675E+02  0.89166540088E+02 -0.24451728212E+03  0.32294872413E+03  0.17200000000E+03 0.  1.
         -6    1    1    2    0  503  0.83501528675E+02 -0.89166540088E+02 -0.76935478545E+03  0.79775557852E+03  0.17200000000E+03 0.  1.
</event>
<event>
 4    1  0.4450588E+000  0.2355832E+03  0.7818608E-02  0.1122771E+00
         21   -1    0    0  503  502  0.00000000000E+00  0.00000000000E+00  0.70170697847E+02  0.70170697847E+02  0.00000000000E+00 0.  1.
         21   -1    0    0  501  503 -0.00000000000E+00 -0.00000000000E+00 -0.79093293434E+03  0.79093293434E+03  0.00000000000E+00 0. -1.
          6    1    1    2  501    0 -0.50545503050E+02  0.15284176739E+03 -0.35868410511E+03  0.42913137964E+03  0.17200000000E+03 0.  1.
         -6    1    1    2    0  502  0.50545503050E+02 -0.15284176739E+03 -0.36207813138E+03  0.43197225254E+03  0.17200000000E+03 0. -1.
</event>
<event>
 4    1  0.4450588E+000  0.1896296E+03  0.7818608E-02  0.1158796E+00
         21   -1    0    0  501  502  0.00000000000E+00  0.00000000000E+00  0.20328164121E+04  0.20328164121E+04  0.00000000000E+00 0.  1.
         21   -1    0    0  502  503 -0.00000000000E+00 -0.00000000000E+00 -0.25549833331E+02  0.25549833331E+02  0.00000000000E+00 0.  1.
          6    1    1    2  501    0  0.71233717225E+02  0.36071371616E+02  0.15744816091E+04  0.15858599320E+04  0.17200000000E+03 0. -1.
         -6    1    1    2    0  503 -0.71233717225E+02 -0.36071371616E+02  0.43278496962E+03  0.47250631345E+03  0.17200000000E+03 0. -1.
</event>
<event>
 4    1  0.4450588E+000  0.1839208E+03  0.7818608E-02  0.1164062E+00
         21   -1    0    0  503  502  0.00000000000E+00  0.00000000000E+00  0.11178752314E+04  0.11178752314E+04  0.00000000000E+00 0.  1.
         21   -1    0    0  501  503 -0.00000000000E+00 -0.00000000000E+00 -0.55405652469E+02  0.55405652469E+02  0.00000000000E+00 0.  1.
          6    1    1    2  501    0 -0.38313668766E+02  0.52677455362E+02  0.13602578942E+03  0.22875722263E+03  0.17200000000E+03 0.  1.
         -6    1    1    2    0  502  0.38313668766E+02 -0.52677455362E+02  0.92644378946E+03  0.94452366119E+03  0.17200000000E+03 0.  1.
</event>
<event>
 4    1  0.4450588E+000  0.2012883E+03  0.7818608E-02  0.1148657E+00
         21   -1    0    0  501  502  0.00000000000E+00  0.00000000000E+00  0.49062121543E+02  0.49062121543E+02  0.00000000000E+00 0. -1.
         21   -1    0    0  502  503 -0.00000000000E+00 -0.00000000000E+00 -0.12238182181E+04  0.12238182181E+04  0.00000000000E+00 0. -1.
          6    1    1    2  501    0  0.91059876983E+02  0.51391512913E+02 -0.22443870828E+03  0.30147922411E+03  0.17200000000E+03 0. -1.
         -6    1    1    2    0  503 -0.91059876983E+02 -0.51391512913E+02 -0.95031738831E+03  0.97140111557E+03  0.17200000000E+03 0. -1.
</event>
<event>
 4    1  0.4450588E+000  0.1961594E+03  0.7818608E-02  0.1153020E+00
         21   -1    0    0  501  502  0.00000000000E+00  0.00000000000E+00  0.69272675788E+03  0.69272675788E+03  0.00000000000E+00 0. -1.
         21   -1    0    0  502  503 -0.00000000000E+00 -0.00000000000E+00 -0.10382883375E+03  0.10382883375E+03  0.00000000000E+00 0. -1.
          6    1    1    2  501    0  0.83338349015E+02 -0.44150119691E+02  0.56604376203E+03  0.59906932322E+03  0.17200000000E+03 0. -1.
         -6    1    1    2    0  503 -0.83338349015E+02  0.44150119691E+02  0.22854162103E+02  0.19748626841E+03  0.17200000000E+03 0. -1.
</event>
<event>
 4    1  0.4450588E+000  0.2519937E+03  0.7818608E-02  0.1112051E+00
         21   -1    0    0  501  502  0.00000000000E+00  0.00000000000E+00  0.24887846687E+03  0.24887846687E+03  0.00000000000E+00 0.  1.
         21   -1    0    0  502  503 -0.00000000000E+00 -0.00000000000E+00 -0.26130382951E+03  0.26130382951E+03  0.00000000000E+00 0.  1.
          6    1    1    2  501    0 -0.16534920919E+03  0.81095448951E+02  0.32940517053E+02  0.25413758180E+03  0.17200000000E+03 0.  1.
         -6    1    1    2    0  503  0.16534920919E+03 -0.81095448951E+02 -0.45365879696E+02  0.25604471458E+03  0.17200000000E+03 0.  1.
</event>
<event>
 4    1  0.4450588E+000  0.2417781E+03  0.7818608E-02  0.1118614E+00
         21   -1    0    0  501  502  0.00000000000E+00  0.00000000000E+00  0.30322672390E+03  0.30322672390E+03  0.00000000000E+00 0.  1.
         21   -1    0    0  502  503 -0.00000000000E+00 -0.00000000000E+00 -0.19368809351E+03  0.19368809351E+03  0.00000000000E+00 0. -1.
          6    1    1    2  501    0  0.51419890279E+02  0.16195261971E+03  0.71762920518E+02  0.25220343556E+03  0.17200000000E+03 0. -1.
         -6    1    1    2    0  503 -0.51419890279E+02 -0.16195261971E+03  0.37775709873E+02  0.24471138185E+03  0.17200000000E+03 0. -1.
</event>
<event>
 4    1  0.4450588E+000  0.1978408E+03  0.7818608E-02  0.1151574E+00
         21   -1    0    0  503  502  0.00000000000E+00  0.00000000000E+00  0.75461573356E+03  0.75461573356E+03  0.00000000000E+00 0.  1.
         21   -1    0    0  501  503 -0.00000000000E+00 -0.00000000000E+00 -0.92228616536E+02  0.92228616536E+02  0.00000000000E+00 0.  1.
          6    1    1    2  501    0 -0.94895626739E+02 -0.23490551162E+02  0.51091995046E+02  0.20433153923E+03  0.17200000000E+03 0.  1.
         -6    1    1    2    0  502  0.94895626739E+02  0.23490551162E+02  0.61129512198E+03  0.64251281086E+03  0.17200000000E+03 0.  1.
</event>
<event>
 4    1  0.4450588E+000  0.3091218E+03  0.7818608E-02  0.1080768E+00
         21   -1    0    0  503  502  0.00000000000E+00  0.00000000000E+00  0.42625336337E+03  0.42625336337E+03  0.00000000000E+00 0.  1.
         21   -1    0    0  501  503 -0.00000000000E+00 -0.00000000000E+00 -0.33797004080E+03  0.33797004080E+03  0.00000000000E+00 0.  1.
          6    1    1    2  501    0 -0.87844471539E+02 -0.24136202692E+03 -0.17758031137E+03  0.35649831165E+03  0.17200000000E+03 0.  1.
         -6    1    1    2    0  502  0.87844471539E+02  0.24136202692E+03  0.26586363394E+03  0.40772509252E+03  0.17200000000E+03 0.  1.
</event>
<event>
 4    1  0.4450588E+000  0.2690729E+03  0.7818608E-02  0.1101811E+00
         21   -1    0    0  503  502  0.00000000000E+00  0.00000000000E+00  0.38493390707E+03  0.38493390707E+03  0.00000000000E+00 0. -1.
         21   -1    0    0  501  503 -0.00000000000E+00 -0.00000000000E+00 -0.24981852005E+03  0.24981852005E+03  0.00000000000E+00 0. -1.
          6    1    1    2  501    0 -0.18780833856E+03  0.86857698783E+02 -0.90211841802E+02  0.28379289680E+03  0.17200000000E+03 0. -1.
         -6    1    1    2    0  502  0.18780833856E+03 -0.86857698783E+02  0.22532722883E+03  0.35095953032E+03  0.17200000000E+03 0. -1.
</event>
<event>
 4    1  0.4450588E+000  0.2265875E+03  0.7818608E-02  0.1129065E+00
         21   -1    0    0  503  502  0.00000000000E+00  0.00000000000E+00  0.15550305660E+04  0.15550305660E+04  0.00000000000E+00 0. -1.
         21   -1    0    0  501  503 -0.00000000000E+00 -0.00000000000E+00 -0.98218361007E+02  0.98218361007E+02  0.00000000000E+00 0. -1.
          6    1    1    2  501    0 -0.14681176734E+03 -0.14290565520E+02  0.54900246963E+02  0.23314363043E+03  0.17200000000E+03 0. -1.
         -6    1    1    2    0  502  0.14681176734E+03  0.14290565520E+02  0.14019119580E+04  0.14201052965E+04  0.17200000000E+03 0. -1.
</event>
<event>
 4    1  0.4450588E+000  0.2430044E+03  0.7818608E-02  0.1117807E+00
         21   -1    0    0  501  502  0.00000000000E+00  0.00000000000E+00  0.10797971243E+04  0.10797971243E+04  0.00000000000E+00 0. -1.
         21   -1    0    0  502  503 -0.00000000000E+00 -0.00000000000E+00 -0.69544568176E+02  0.69544568176E+02  0.00000000000E+00 0. -1.
          6    1    1    2  501    0 -0.76176518342E+02 -0.15383197013E+03  0.77074442780E+03  0.80814485704E+03  0.17200000000E+03 0. -1.
         -6    1    1    2    0  503  0.76176518342E+02  0.15383197013E+03  0.23950812835E+03  0.34119683546E+03  0.17200000000E+03 0. -1.
</event>
<event>
 4    1  0.4450588E+000  0.2367155E+03  0.7818608E-02  0.1122000E+00
         21   -1    0    0  501  502  0.00000000000E+00  0.00000000000E+00  0.11804485799E+03  0.11804485799E+03  0.00000000000E+00 0. -1.
         21   -1    0    0  502  503 -0.00000000000E+00 -0.00000000000E+00 -0.47518443030E+03  0.47518443030E+03  0.00000000000E+00 0.  1.
          6    1    1    2  501    0  0.13671799315E+03  0.88081988178E+02 -0.16896371334E+03  0.29083153666E+03  0.17200000000E+03 0. -1.
         -6    1    1    2    0  503 -0.13671799315E+03 -0.88081988178E+02 -0.18817585897E+03  0.30239775163E+03  0.17200000000E+03 0.  1.
</event>
<event>
 4    1  0.4450588E+000  0.1894824E+03  0.7818608E-02  0.1158929E+00
         21   -1    0    0  503  502  0.00000000000E+00  0.00000000000E+00  0.14890291943E+03  0.14890291943E+03  0.00000000000E+00 0. -1.
         21   -1    0    0  501  503 -0.00000000000E+00 -0.00000000000E+00 -0.28797585749E+03  0.28797585749E+03  0.00000000000E+00 0. -1.
          6    1    1    2  501    0 -0.10683151656E+02 -0.78774686451E+02 -0.15764773960E+03  0.24648811483E+03  0.17200000000E+03 0.  1.
         -6    1    1    2    0  502  0.10683151656E+02  0.78774686451E+02  0.18574801539E+02  0.19039066208E+03  0.17200000000E+03 0.  1.
</event>
<event>
 4    1  0.4450588E+000  0.1898108E+03  0.7818608E-02  0.1158632E+00
         21   -1    0    0  501  502  0.00000000000E+00  0.00000000000E+00  0.69903626089E+03  0.69903626089E+03  0.00000000000E+00 0.  1.
         21   -1    0    0  502  503 -0.00000000000E+00 -0.00000000000E+00 -0.51581081097E+02  0.51581081097E+02  0.00000000000E+00 0. -1.
          6    1    1    2  501    0 -0.58430040633E+02  0.55046117299E+02  0.33435317491E+03  0.38447391361E+03  0.17200000000E+03 0.  1.
         -6    1    1    2    0  503  0.58430040633E+02 -0.55046117299E+02  0.31310200489E+03  0.36614342838E+03  0.17200000000E+03 0. -1.
</event>
<event>
 4    1  0.4450588E+000  0.2270990E+03  0.7818608E-02  0.1128698E+00
         21   -1    0    0  501  502  0.00000000000E+00  0.00000000000E+00  0.31216214429E+03  0.31216214429E+03  0.00000000000E+00 0.  1.
         21   -1    0    0  502  503 -0.00000000000E+00 -0.00000000000E+00 -0.16567521647E+03  0.16567521647E+03  0.00000000000E+00 0.  1.
          6    1    1    2  501    0  0.22203567142E+02 -0.14661848259E+03  0.85830902031E+02  0.24277751456E+03  0.17200000000E+03 0.  1.
         -6    1    1    2    0  503 -0.22203567142E+02  0.14661848259E+03  0.60656025791E+02  0.23505984620E+03  0.17200000000E+03 0.  1.
</event>
<event>
 4    1  0.4450588E+000  0.3901341E+03  0.7818608E-02  0.1047250E+00
         21   -1    0    0  501  502  0.00000000000E+00  0.00000000000E+00  0.88877418411E+03  0.88877418411E+03  0.00000000000E+00 0. -1.
         21   -1    0    0  502  503 -0.00000000000E+00 -0.00000000000E+00 -0.45056909332E+03  0.45056909332E+03  0.00000000000E+00 0. -1.
          6    1    1    2  501    0 -0.80052436938E+02 -0.34089913606E+03  0.74636851167E+03  0.84218202833E+03  0.17200000000E+03 0. -1.
         -6    1    1    2    0  503  0.80052436938E+02  0.34089913606E+03 -0.30816342089E+03  0.49716124909E+03  0.17200000000E+03 0. -1.
</event>
<event>
 4    1  0.4450588E+000  0.2558573E+03  0.7818608E-02  0.1109658E+00
         21   -1    0    0  501  502  0.00000000000E+00  0.00000000000E+00  0.33048704220E+03  0.33048704220E+03  0.00000000000E+00 0. -1.
         21   -1    0    0  502  503 -0.00000000000E+00 -0.00000000000E+00 -0.25293709160E+03  0.25293709160E+03  0.00000000000E+00 0.  1.
          6    1    1    2  501    0 -0.82961989387E+02  0.17028290952E+03  0.17462617367E+03  0.30976969104E+03  0.17200000000E+03 0. -1.
         -6    1    1    2    0  503  0.82961989387E+02 -0.17028290952E+03 -0.97076223072E+02  0.27365444276E+03  0.17200000000E+03 0.  1.
</event>
<event>
 4    1  0.4450588E+000  0.1759883E+03  0.7818608E-02  0.1171743E+00
         21   -1    0    0  501  502  0.00000000000E+00  0.00000000000E+00  0.12368134964E+04  0.12368134964E+04  0.00000000000E+00 0.  1.
         21   -1    0    0  502  503 -0.00000000000E+00 -0.00000000000E+00 -0.38646378139E+02  0.38646378139E+02  0.00000000000E+00 0.  1.
          6    1    1    2  501    0 -0.33528008754E+02 -0.16240110058E+02  0.97746263204E+03  0.99317927163E+03  0.17200000000E+03 0.  1.
         -6    1    1    2    0  503  0.33528008754E+02  0.16240110058E+02  0.22070448623E+03  0.28228060292E+03  0.17200000000E+03 0.  1.
</event>
<event>
 4    1  0.4450588E+000  0.2769064E+03  0.7818608E-02  0.1097391E+00
         21   -1    0    0  503  502  0.00000000000E+00  0.00000000000E+00  0.29361193109E+03  0.29361193109E+03  0.00000000000E+00 0. -1.
         21   -1    0    0  501  503 -0.00000000000E+00 -0.00000000000E+00 -0.27065742071E+03  0.27065742071E+03  0.00000000000E+00 0. -1.
          6    1    1    2  501    0 -0.19896470948E+03  0.86638279431E+02  0.64351894065E+02  0.28428561931E+03  0.17200000000E+03 0. -1.
         -6    1    1    2    0  502  0.19896470948E+03 -0.86638279431E+02 -0.41397383690E+02  0.27998373248E+03  0.17200000000E+03 0. -1.
</event>
<event>
 4    1  0.4450588E+000  0.2946895E+03  0.7818608E-02  0.1087926E+00
         21   -1    0    0  503  502  0.00000000000E+00  0.00000000000E+00  0.54097320262E+03  0.54097320262E+03  0.00000000000E+00 0.  1.
         21   -1    0    0  501  503 -0.00000000000E+00 -0.00000000000E+00 -0.18734863797E+03  0.18734863797E+03  0.00000000000E+00 0.  1.
          6    1    1    2  501    0 -0.14190775647E+03 -0.19266579466E+03  0.39029789964E+02  0.29726292114E+03  0.17200000000E+03 0.  1.
         -6    1    1    2    0  502  0.14190775647E+03  0.19266579466E+03  0.31459477469E+03  0.43105891945E+03  0.17200000000E+03 0.  1.
</event>
<event>
 4    1  0.4450588E+000  0.3030621E+03  0.7818608E-02  0.1083720E+00
         21   -1    0    0  501  502  0.00000000000E+00  0.00000000000E+00  0.19803374632E+03  0.19803374632E+03  0.00000000000E+00 0. -1.
         21   -1    0    0  502  503 -0.00000000000E+00 -0.00000000000E+00 -0.51504251597E+03  0.51504251597E+03  0.00000000000E+00 0.  1.
          6    1    1    2  501    0  0.23004972559E+03  0.96642302784E+02 -0.46035991601E+02  0.30653861658E+03  0.17200000000E+03 0. -1.
         -6    1    1    2    0  503 -0.23004972559E+03 -0.96642302784E+02 -0.27097277806E+03  0.40653764571E+03  0.17200000000E+03 0.  1.
</event>
<event>
 4    1  0.4450588E+000  0.1735591E+03  0.7818608E-02  0.1174186E+00
         21   -1    0    0  501  502  0.00000000000E+00  0.00000000000E+00  0.20811482899E+03  0.20811482899E+03  0.00000000000E+00 0.  1.
         21   -1    0    0  502  503 -0.00000000000E+00 -0.00000000000E+00 -0.18003216920E+03  0.18003216920E+03  0.00000000000E+00 0.  1.
          6    1    1    2  501    0 -0.21152512009E+02  0.95573484703E+01  0.99967116420E+02  0.20029027944E+03  0.17200000000E+03 0.  1.
         -6    1    1    2    0  503  0.21152512009E+02 -0.95573484703E+01 -0.71884456634E+02  0.18785671875E+03  0.17200000000E+03 0.  1.
</event>
<event>
 4    1  0.4450588E+000  0.1763501E+03  0.7818608E-02  0.1171383E+00
         21   -1    0    0  503  502  0.00000000000E+00  0.00000000000E+00  0.19571789159E+03  0.19571789159E+03  0.00000000000E+00 0. -1.
         21   -1    0    0  501  503 -0.00000000000E+00 -0.00000000000E+00 -0.16776358765E+03  0.16776358765E+03  0.00000000000E+00 0. -1.
          6    1    1    2  501    0 -0.30470138881E+02 -0.24226870050E+02 -0.27799491268E+02  0.17852781943E+03  0.17200000000E+03 0. -1.
         -6    1    1    2    0  502  0.30470138881E+02  0.24226870050E+02  0.55753795212E+02  0.18495365981E+03  0.17200000000E+03 0. -1.
</event>
<event>
 4    1  0.4450588E+000  0.1969406E+03  0.7818608E-02  0.1152346E+00
         21   -1    0    0  503  502  0.00000000000E+00  0.00000000000E+00  0.41923867345E+03  0.41923867345E+03  0.00000000000E+00 0.  1.
         21   -1    0    0  501  503 -0.00000000000E+00 -0.00000000000E+00 -0.99432538442E+02  0.99432538442E+02  0.00000000000E+00 0.  1.
          6    1    1    2  501    0  0.55804594130E+02  0.78022195554E+02  0.91497349668E+02  0.21715750211E+03  0.17200000000E+03 0.  1.
         -6    1    1    2    0  502 -0.55804594130E+02 -0.78022195554E+02  0.22830878534E+03  0.30151370979E+03  0.17200000000E+03 0.  1.
</event>
<event>
 4    1  0.4450588E+000  0.1887971E+03  0.7818608E-02  0.1159551E+00
         21   -1    0    0  503  502  0.00000000000E+00  0.00000000000E+00  0.96200863249E+02  0.96200863249E+02  0.00000000000E+00 0. -1.
         21   -1    0    0  501  503 -0.00000000000E+00 -0.00000000000E+00 -0.41364691494E+03  0.41364691494E+03  0.00000000000E+00 0. -1.
          6    1    1    2  501    0  0.24697674594E+02  0.73826546052E+02 -0.24103638980E+03  0.30617458295E+03  0.17200000000E+03 0. -1.
         -6    1    1    2    0  502 -0.24697674594E+02 -0.73826546052E+02 -0.76409661891E+02  0.20367319525E+03  0.17200000000E+03 0. -1.
</event>
<event>
 4    1  0.4450588E+000  0.1813398E+03  0.7818608E-02  0.1166513E+00
         21   -1    0    0  503  502  0.00000000000E+00  0.00000000000E+00  0.42641730585E+02  0.42641730585E+02  0.00000000000E+00 0. -1.
         21   -1    0    0  501  503 -0.00000000000E+00 -0.00000000000E+00 -0.92477525288E+03  0.92477525288E+03  0.00000000000E+00 0. -1.
          6    1    1    2  501    0  0.48115523670E+02 -0.31385301728E+02 -0.63820222243E+03  0.66346530994E+03  0.17200000000E+03 0. -1.
         -6    1    1    2    0  502 -0.48115523670E+02  0.31385301728E+02 -0.24393129986E+03  0.30395167352E+03  0.17200000000E+03 0. -1.
</event>
<event>
 4    1  0.4450588E+000  0.2703949E+03  0.7818608E-02  0.1101054E+00
         21   -1    0    0  503  502  0.00000000000E+00  0.00000000000E+00  0.48244081743E+02  0.48244081743E+02  0.00000000000E+00 0.  1.
         21   -1    0    0  501  503 -0.00000000000E+00 -0.00000000000E+00 -0.17227844603E+04  0.17227844603E+04  0.00000000000E+00 0.  1.
          6    1    1    2  501    0 -0.15250867913E+03 -0.14237445942E+03 -0.11444373607E+04  0.11759465364E+04  0.17200000000E+03 0.  1.
         -6    1    1    2    0  502  0.15250867913E+03  0.14237445942E+03 -0.53010301788E+03  0.59508200567E+03  0.17200000000E+03 0.  1.
</event>
<event>
 4    1  0.4450588E+000  0.2200125E+03  0.7818608E-02  0.1133874E+00
         21   -1    0    0  501  502  0.00000000000E+00  0.00000000000E+00  0.21765403394E+03  0.21765403394E+03  0.00000000000E+00 0. -1.
         21   -1    0    0  502  503 -0.00000000000E+00 -0.00000000000E+00 -0.46189660100E+03  0.46189660100E+03  0.00000000000E+00 0. -1.
          6    1    1    2  501    0 -0.13408679407E+03  0.29021213497E+02  0.12254395956E+03  0.25183828383E+03  0.17200000000E+03 0. -1.
         -6    1    1    2    0  503  0.13408679407E+03 -0.29021213497E+02 -0.36678652662E+03  0.42771235111E+03  0.17200000000E+03 0. -1.
</event>
<event>
 4    1  0.4450588E+000  0.1963125E+03  0.7818608E-02  0.1152888E+00
         21   -1    0    0  503  502  0.00000000000E+00  0.00000000000E+00  0.45059209055E+03  0.45059209055E+03  0.00000000000E+00 0. -1.
         21   -1    0    0  501  503 -0.00000000000E+00 -0.00000000000E+00 -0.16702926235E+03  0.16702926235E+03  0.00000000000E+00 0. -1.
          6    1    1    2  501    0  0.84178659564E+02  0.43226687581E+02 -0.73931480226E+02  0.20977239335E+03  0.17200000000E+03 0. -1.
         -6    1    1    2    0  502 -0.84178659564E+02 -0.43226687581E+02  0.35749430842E+03  0.40784895954E+03  0.17200000000E+03 0. -1.
</event>
<event>
 4    1  0.4450588E+000  0.1950409E+03  0.7818608E-02  0.1153992E+00
         21   -1    0    0  503  502  0.00000000000E+00  0.00000000000E+00  0.17896193759E+03  0.17896193759E+03  0.00000000000E+00 0. -1.
         21   -1    0    0  501  503 -0.00000000000E+00 -0.00000000000E+00 -0.21931269069E+03  0.21931269069E+03  0.00000000000E+00 0. -1.
          6    1    1    2  501    0  0.78062994004E+02 -0.48611967700E+02  0.14755903373E+02  0.19559829018E+03  0.17200000000E+03 0. -1.
         -6    1    1    2    0  502 -0.78062994004E+02  0.48611967700E+02 -0.55106656477E+02  0.20267633810E+03  0.17200000000E+03 0. -1.
</event>
<event>
 4    1  0.4450588E+000  0.1956372E+03  0.7818608E-02  0.1153473E+00
         21   -1    0    0  503  502  0.00000000000E+00  0.00000000000E+00  0.10451586557E+03  0.10451586557E+03  0.00000000000E+00 0.  1.
         21   -1    0    0  501  503 -0.00000000000E+00 -0.00000000000E+00 -0.40479478294E+03  0.40479478294E+03  0.00000000000E+00 0.  1.
          6    1    1    2  501    0 -0.86564145846E+02  0.34591310502E+02 -0.22876955988E+03  0.30101398911E+03  0.17200000000E+03 0.  1.
         -6    1    1    2    0  502  0.86564145846E+02 -0.34591310502E+02 -0.71509357488E+02  0.20829665940E+03  0.17200000000E+03 0.  1.
</event>
<event>
 4    1  0.4450588E+000  0.2484778E+03  0.7818608E-02  0.1114271E+00
         21   -1    0    0  501  502  0.00000000000E+00  0.00000000000E+00  0.22396537059E+03  0.22396537059E+03  0.00000000000E+00 0.  1.
         21   -1    0    0  502  503 -0.00000000000E+00 -0.00000000000E+00 -0.33673069107E+03  0.33673069107E+03  0.00000000000E+00 0.  1.
          6    1    1    2  501    0  0.17561852593E+03  0.36267500199E+02 -0.17576125572E+03  0.30435705550E+03  0.17200000000E+03 0.  1.
         -6    1    1    2    0  503 -0.17561852593E+03 -0.36267500199E+02  0.62995935241E+02  0.25633900616E+03  0.17200000000E+03 0.  1.
</event>
<event>
 4    1  0.4450588E+000  0.1853470E+03  0.7818608E-02  0.1162726E+00
         21   -1    0    0  501  502  0.00000000000E+00  0.00000000000E+00  0.27017551513E+03  0.27017551513E+03  0.00000000000E+00 0.  1.
         21   -1    0    0  502  503 -0.00000000000E+00 -0.00000000000E+00 -0.17704482699E+03  0.17704482699E+03  0.00000000000E+00 0.  1.
          6    1    1    2  501    0  0.67600882768E+02 -0.14129681535E+02  0.16526958853E+03  0.24832954746E+03  0.17200000000E+03 0.  1.
         -6    1    1    2    0  503 -0.67600882768E+02  0.14129681535E+02 -0.72138900383E+02  0.19889079466E+03  0.17200000000E+03 0.  1.
</event>
<event>
 4    1  0.4450588E+000  0.2666242E+03  0.7818608E-02  0.1103227E+00
         21   -1    0    0  501  502  0.00000000000E+00  0.00000000000E+00  0.59505993745E+03  0.59505993745E+03  0.00000000000E+00 0.  1.
         21   -1    0    0  502  503 -0.00000000000E+00 -0.00000000000E+00 -0.12329644120E+03  0.12329644120E+03  0.00000000000E+00 0. -1.
          6    1    1    2  501    0 -0.12653740708E+03  0.15966449667E+03  0.29920320029E+03  0.40076304963E+03  0.17200000000E+03 0.  1.
         -6    1    1    2    0  503  0.12653740708E+03 -0.15966449667E+03  0.17256029597E+03  0.31759332901E+03  0.17200000000E+03 0. -1.
</event>
<event>
 4    1  0.4450588E+000  0.2329585E+03  0.7818608E-02  0.1124575E+00
         21   -1    0    0  503  502  0.00000000000E+00  0.00000000000E+00  0.83574912563E+02  0.83574912563E+02  0.00000000000E+00 0.  1.
         21   -1    0    0  501  503 -0.00000000000E+00 -0.00000000000E+00 -0.16710092904E+04  0.16710092904E+04  0.00000000000E+00 0.  1.
          6    1    1    2  501    0 -0.10830313124E+03  0.11382493743E+03 -0.14796902012E+04  0.14979161445E+04  0.17200000000E+03 0.  1.
         -6    1    1    2    0  502  0.10830313124E+03 -0.11382493743E+03 -0.10774417669E+03  0.25666805845E+03  0.17200000000E+03 0.  1.
</event>
<event>
 4    1  0.4450588E+000  0.2525293E+03  0.7818608E-02  0.1111717E+00
         21   -1    0    0  503  502  0.00000000000E+00  0.00000000000E+00  0.15311138408E+04  0.15311138408E+04  0.00000000000E+00 0. -1.
         21   -1    0    0  501  503 -0.00000000000E+00 -0.00000000000E+00 -0.41890185036E+02  0.41890185036E+02  0.00000000000E+00 0. -1.
          6    1    1    2  501    0  0.13327489545E+02  0.18441643688E+03  0.80415424899E+03  0.84287312232E+03  0.17200000000E+03 0. -1.
         -6    1    1    2    0  502 -0.13327489545E+02 -0.18441643688E+03  0.68506940680E+03  0.73013090354E+03  0.17200000000E+03 0. -1.
</event>
<event>
 4    1  0.4450588E+000  0.1977743E+03  0.7818608E-02  0.1151631E+00
         21   -1    0    0  503  502  0.00000000000E+00  0.00000000000E+00  0.20425870066E+03  0.20425870066E+03  0.00000000000E+00 0. -1.
         21   -1    0    0  501  503 -0.00000000000E+00 -0.00000000000E+00 -0.34260970534E+03  0.34260970534E+03  0.00000000000E+00 0. -1.
          6    1    1    2  501    0  0.97287390533E+02 -0.81135013290E+01 -0.25077111385E+03  0.31937566720E+03  0.17200000000E+03 0. -1.
         -6    1    1    2    0  502 -0.97287390533E+02  0.81135013290E+01  0.11242010917E+03  0.22749273880E+03  0.17200000000E+03 0. -1.
</event>
<event>
 4    1  0.4450588E+000  0.1824489E+03  0.7818608E-02  0.1165454E+00
         21   -1    0    0  501  502  0.00000000000E+00  0.00000000000E+00  0.12841005507E+03  0.12841005507E+03  0.00000000000E+00 0. -1.
         21   -1    0    0  502  503 -0.00000000000E+00 -0.00000000000E+00 -0.89162001329E+03  0.89162001329E+03  0.00000000000E+00 0. -1.
          6    1    1    2  501    0 -0.53431398713E+02 -0.29132006065E+02  0.47917579559E+02  0.18863637660E+03  0.17200000000E+03 0. -1.
         -6    1    1    2    0  503  0.53431398713E+02  0.29132006065E+02 -0.81112753778E+03  0.83139369175E+03  0.17200000000E+03 0. -1.
</event>
<event>
 4    1  0.4450588E+000  0.1828006E+03  0.7818608E-02  0.1165120E+00
         21   -1    0    0  503  502  0.00000000000E+00  0.00000000000E+00  0.20376265140E+03  0.20376265140E+03  0.00000000000E+00 0. -1.
         21   -1    0    0  501  503 -0.00000000000E+00 -0.00000000000E+00 -0.38106408570E+03  0.38106408570E+03  0.00000000000E+00 0. -1.
          6    1    1    2  501    0 -0.33766270870E+02 -0.51883336714E+02 -0.30934814565E+03  0.35932202394E+03  0.17200000000E+03 0. -1.
         -6    1    1    2    0  502  0.33766270870E+02  0.51883336714E+02  0.13204671134E+03  0.22550471315E+03  0.17200000000E+03 0. -1.
</event>
<event>
 4    1  0.4450588E+000  0.2581068E+03  0.7818608E-02  0.1108286E+00
         21   -1    0    0  501  502  0.00000000000E+00  0.00000000000E+00  0.11940148403E+03  0.11940148403E+03  0.00000000000E+00 0. -1.
         21   -1    0    0  502  503 -0.00000000000E+00 -0.00000000000E+00 -0.98008341993E+03  0.98008341993E+03  0.00000000000E+00 0.  1.
          6    1    1    2  501    0  0.19137674218E+03 -0.20249954277E+02 -0.69549157135E+02  0.26731293152E+03  0.17200000000E+03 0.  1.
         -6    1    1    2    0  503 -0.19137674218E+03  0.20249954277E+02 -0.79113277876E+03  0.83217197245E+03  0.17200000000E+03 0. -1.
</event>
<event>
 4    1  0.4450588E+000  0.2462204E+03  0.7818608E-02  0.1115717E+00
         21   -1    0    0  501  502  0.00000000000E+00  0.00000000000E+00  0.52938176696E+02  0.52938176696E+02  0.00000000000E+00 0.  1.
         21   -1    0    0  502  503 -0.00000000000E+00 -0.00000000000E+00 -0.11453602283E+04  0.11453602283E+04  0.00000000000E+00 0. -1.
          6    1    1    2  501    0 -0.38214587571E+02  0.17198873074E+03 -0.55343070756E+03  0.60573098507E+03  0.17200000000E+03 0. -1.
         -6    1    1    2    0  503  0.38214587571E+02 -0.17198873074E+03 -0.53899134406E+03  0.59256741994E+03  0.17200000000E+03 0.  1.
</event>
<event>
 4    1  0.4450588E+000  0.2004767E+03  0.7818608E-02  0.1149337E+00
         21   -1    0    0  501  502  0.00000000000E+00  0.00000000000E+00  0.79348611118E+02  0.79348611118E+02  0.00000000000E+00 0. -1.
         21   -1    0    0  502  503 -0.00000000000E+00 -0.00000000000E+00 -0.56433739005E+03  0.56433739005E+03  0.00000000000E+00 0.  1.
          6    1    1    2  501    0 -0.98391764702E+02 -0.30429673172E+02 -0.13947010917E+03  0.24421878659E+03  0.17200000000E+03 0. -1.
         -6    1    1    2    0  503  0.98391764702E+02  0.30429673172E+02 -0.34551866976E+03  0.39946721458E+03  0.17200000000E+03 0.  1.
</event>
<event>
 4    1  0.4450588E+000  0.2686308E+03  0.7818608E-02  0.1102066E+00
         21   -1    0    0  501  502  0.00000000000E+00  0.00000000000E+00  0.39429430943E+02  0.39429430943E+02  0.00000000000E+00 0.  1.
         21   -1    0    0  502  503 -0.00000000000E+00 -0.00000000000E+00 -0.18404520102E+04  0.18404520102E+04  0.00000000000E+00 0.  1.
          6    1    1    2  501    0  0.95449418141E+02 -0.18294234555E+03 -0.83025036353E+03  0.87262715942E+03  0.17200000000E+03 0.  1.
         -6    1    1    2    0  503 -0.95449418141E+02  0.18294234555E+03 -0.97077221576E+03  0.10072542818E+04  0.17200000000E+03 0.  1.
</event>
<event>
 4    1  0.4450588E+000  0.1823627E+03  0.7818608E-02  0.1165536E+00
         21   -1    0    0  503  502  0.00000000000E+00  0.00000000000E+00  0.48208742517E+03  0.48208742517E+03  0.00000000000E+00 0. -1.
         21   -1    0    0  501  503 -0.00000000000E+00 -0.00000000000E+00 -0.69887091115E+02  0.69887091115E+02  0.00000000000E+00 0. -1.
          6    1    1    2  501    0  0.11502824233E+02 -0.59496398963E+02  0.17472057218E+03  0.25255378595E+03  0.17200000000E+03 0. -1.
         -6    1    1    2    0  502 -0.11502824233E+02  0.59496398963E+02  0.23747976187E+03  0.29942073034E+03  0.17200000000E+03 0. -1.
</event>
<event>
 4    1  0.4450588E+000  0.1758065E+03  0.7818608E-02  0.1171924E+00
         21   -1    0    0  503  502  0.00000000000E+00  0.00000000000E+00  0.22380458282E+04  0.22380458282E+04  0.00000000000E+00 0. -1.
         21   -1    0    0  501  503 -0.00000000000E+00 -0.00000000000E+00 -0.13919035337E+02  0.13919035337E+02  0.00000000000E+00 0. -1.
          6    1    1    2  501    0  0.24340857097E+02  0.27045382103E+02  0.10125113887E+04  0.10276610542E+04  0.17200000000E+03 0. -1.
         -6    1    1    2    0  502 -0.24340857097E+02 -0.27045382103E+02  0.12116154041E+04  0.12243038093E+04  0.17200000000E+03 0. -1.
</event>
<event>
 4    1  0.4450588E+000  0.2110776E+03  0.7818608E-02  0.1140715E+00
         21   -1    0    0  503  502  0.00000000000E+00  0.00000000000E+00  0.11084036325E+03  0.11084036325E+03  0.00000000000E+00 0.  1.
         21   -1    0    0  501  503 -0.00000000000E+00 -0.00000000000E+00 -0.48385178447E+03  0.48385178447E+03  0.00000000000E+00 0.  1.
          6    1    1    2  501    0  0.30351057104E+02 -0.11852665484E+03 -0.30883136228E+03  0.37407294062E+03  0.17200000000E+03 0.  1.
         -6    1    1    2    0  502 -0.30351057104E+02  0.11852665484E+03 -0.64180058941E+02  0.22061920710E+03  0.17200000000E+03 0.  1.
</event>
<event>
 4    1  0.4450588E+000  0.1753864E+03  0.7818608E-02  0.1172344E+00
         21   -1    0    0  501  502  0.00000000000E+00  0.00000000000E+00  0.15605851618E+04  0.15605851618E+04  0.00000000000E+00 0.  1.
         21   -1    0    0  502  503 -0.00000000000E+00 -0.00000000000E+00 -0.21067200253E+02  0.21067200253E+02  0.00000000000E+00 0.  1.
          6    1    1    2  501    0  0.28077894547E+02 -0.19697936162E+02  0.97042419207E+03  0.98614577493E+03  0.17200000000E+03 0.  1.
         -6    1    1    2    0  503 -0.28077894547E+02  0.19697936162E+02  0.56909376943E+03  0.59550658708E+03  0.17200000000E+03 0.  1.
</event>
<event>
 4    1  0.4450588E+000  0.1831513E+03  0.7818608E-02  0.1164788E+00
         21   -1    0    0  501  502  0.00000000000E+00  0.00000000000E+00  0.71904670230E+02  0.71904670230E+02  0.00000000000E+00 0.  1.
         21   -1    0    0  502  503 -0.00000000000E+00 -0.00000000000E+00 -0.49508130636E+03  0.49508130636E+03  0.00000000000E+00 0.  1.
          6    1    1    2  501    0  0.36418170743E+02  0.51323505515E+02 -0.27968948516E+03  0.33432109340E+03  0.17200000000E+03 0.  1.
         -6    1    1    2    0  503 -0.36418170743E+02 -0.51323505515E+02 -0.14348715097E+03  0.23266488319E+03  0.17200000000E+03 0.  1.
</event>
<event>
 4    1  0.4450588E+000  0.2260498E+03  0.7818608E-02  0.1129451E+00
         21   -1    0    0  503  502  0.00000000000E+00  0.00000000000E+00  0.18929181128E+03  0.18929181128E+03  0.00000000000E+00 0.  1.
         21   -1    0    0  501  503 -0.00000000000E+00 -0.00000000000E+00 -0.72444166932E+03  0.72444166932E+03  0.00000000000E+00 0.  1.
          6    1    1    2  501    0  0.58448185557E+02  0.13452994763E+03 -0.62944518117E+03  0.66880470490E+03  0.17200000000E+03 0.  1.
         -6    1    1    2    0  502 -0.58448185557E+02 -0.13452994763E+03  0.94295323125E+02  0.24492877570E+03  0.17200000000E+03 0.  1.
</event>
<event>
 4    1  0.4450588E+000  0.2233269E+03  0.7818608E-02  0.1131427E+00
         21   -1    0    0  501  502  0.00000000000E+00  0.00000000000E+00  0.80724829798E+03  0.80724829798E+03  0.00000000000E+00 0.  1.
         21   -1    0    0  502  503 -0.00000000000E+00 -0.00000000000E+00 -0.71820595881E+02  0.71820595881E+02  0.00000000000E+00 0.  1.
          6    1    1    2  501    0  0.10806209022E+03 -0.92808782749E+02  0.20340329108E+03  0.30207248190E+03  0.17200000000E+03 0.  1.
         -6    1    1    2    0  503 -0.10806209022E+03  0.92808782749E+02  0.53202441101E+03  0.57699641196E+03  0.17200000000E+03 0.  1.
</event>
<event>
 4    1  0.4450588E+000  0.2008447E+03  0.7818608E-02  0.1149028E+00
         21   -1    0    0  501  502  0.00000000000E+00  0.00000000000E+00  0.24834388603E+03  0.24834388603E+03  0.00000000000E+00 0.  1.
         21   -1    0    0  502  503 -0.00000000000E+00 -0.00000000000E+00 -0.46824548290E+03  0.46824548290E+03  0.00000000000E+00 0.  1.
          6    1    1    2  501    0  0.52697336828E+02  0.89317376200E+02  0.17960548897E+03  0.26943781225E+03  0.17200000000E+03 0.  1.
         -6    1    1    2    0  503 -0.52697336828E+02 -0.89317376200E+02 -0.39950708584E+03  0.44715155668E+03  0.17200000000E+03 0.  1.
</event>
<event>
 4    1  0.4450588E+000  0.1857700E+03  0.7818608E-02  0.1162333E+00
         21   -1    0    0  503  502  0.00000000000E+00  0.00000000000E+00  0.36295628713E+02  0.36295628713E+02  0.00000000000E+00 0. -1.
         21   -1    0    0  501  503 -0.00000000000E+00 -0.00000000000E+00 -0.13081619008E+04  0.13081619008E+04  0.00000000000E+00 0. -1.
          6    1    1    2  501    0 -0.19894304667E+02  0.67310548577E+02 -0.98727529368E+03  0.10046009152E+04  0.17200000000E+03 0. -1.
         -6    1    1    2    0  502  0.19894304667E+02 -0.67310548577E+02 -0.28459097846E+03  0.33985661436E+03  0.17200000000E+03 0. -1.
</event>
<event>
 4    1  0.4450588E+000  0.1843040E+03  0.7818608E-02  0.1163701E+00
         21   -1    0    0  503  502  0.00000000000E+00  0.00000000000E+00  0.13909091669E+03  0.13909091669E+03  0.00000000000E+00 0. -1.
         21   -1    0    0  501  503 -0.00000000000E+00 -0.00000000000E+00 -0.82855285244E+03  0.82855285244E+03  0.00000000000E+00 0. -1.
          6    1    1    2  501    0 -0.77909963228E+01 -0.65751658289E+02 -0.75104114362E+03  0.77332449825E+03  0.17200000000E+03 0. -1.
         -6    1    1    2    0  502  0.77909963228E+01  0.65751658289E+02  0.61579207869E+02  0.19431927087E+03  0.17200000000E+03 0. -1.
</event>
<event>
 4    1  0.4450588E+000  0.2140708E+03  0.7818608E-02  0.1138382E+00
         21   -1    0    0  503  502  0.00000000000E+00  0.00000000000E+00  0.94178492926E+02  0.94178492926E+02  0.00000000000E+00 0. -1.
         21   -1    0    0  501  503 -0.00000000000E+00 -0.00000000000E+00 -0.56726731769E+03  0.56726731769E+03  0.00000000000E+00 0. -1.
          6    1    1    2  501    0 -0.12739846466E+03  0.34577640583E+01 -0.36126718985E+03  0.41992893136E+03  0.17200000000E+03 0. -1.
         -6    1    1    2    0  502  0.12739846466E+03 -0.34577640583E+01 -0.11182163491E+03  0.24151687925E+03  0.17200000000E+03 0. -1.
</event>
<event>
 4    1  0.4450588E+000  0.1730913E+03  0.7818608E-02  0.1174662E+00
         21   -1    0    0  503  502  0.00000000000E+00  0.00000000000E+00  0.50614169704E+03  0.50614169704E+03  0.00000000000E+00 0. -1.
         21   -1    0    0  501  503 -0.00000000000E+00 -0.00000000000E+00 -0.63146212711E+02  0.63146212711E+02  0.00000000000E+00 0. -1.
          6    1    1    2  501    0  0.26248087211E+01  0.19227984546E+02  0.15028746604E+03  0.22923116599E+03  0.17200000000E+03 0. -1.
         -6    1    1    2    0  502 -0.26248087211E+01 -0.19227984546E+02  0.29270801829E+03  0.34005674376E+03  0.17200000000E+03 0. -1.
</event>
<event>
 4    1  0.4450588E+000  0.1725161E+03  0.7818608E-02  0.1175249E+00
         21   -1    0    0  501  502  0.00000000000E+00  0.00000000000E+00  0.43397283738E+03  0.43397283738E+03  0.00000000000E+00 0.  1.
         21   -1    0    0  502  503 -0.00000000000E+00 -0.00000000000E+00 -0.11117771631E+03  0.11117771631E+03  0.00000000000E+00 0.  1.
          6    1    1    2  501    0  0.13266759646E+02  0.13400399669E+01  0.33011943311E+03  0.37247905006E+03  0.17200000000E+03 0.  1.
         -6    1    1    2    0  503 -0.13266759646E+02 -0.13400399669E+01 -0.73243120361E+01  0.17267150363E+03  0.17200000000E+03 0.  1.
</event>
<event>
 4    1  0.4450588E+000  0.1896639E+03  0.7818608E-02  0.1158765E+00
         21   -1    0    0  503  502  0.00000000000E+00  0.00000000000E+00  0.47001274521E+03  0.47001274521E+03  0.00000000000E+00 0.  1.
         21   -1    0    0  501  503 -0.00000000000E+00 -0.00000000000E+00 -0.59100346490E+03  0.59100346490E+03  0.00000000000E+00 0.  1.
          6    1    1    2  501    0 -0.76318778629E+02  0.23745544473E+02 -0.55546254354E+03  0.58695063177E+03  0.17200000000E+03 0.  1.
         -6    1    1    2    0  502  0.76318778629E+02 -0.23745544473E+02  0.43447182385E+03  0.47406557834E+03  0.17200000000E+03 0.  1.
</event>
<event>
 4    1  0.4450588E+000  0.1730355E+03  0.7818608E-02  0.1174719E+00
         21   -1    0    0  503  502  0.00000000000E+00  0.00000000000E+00  0.44049112132E+03  0.44049112132E+03  0.00000000000E+00 0.  1.
         21   -1    0    0  501  503 -0.00000000000E+00 -0.00000000000E+00 -0.12912642391E+03  0.12912642391E+03  0.00000000000E+00 0.  1.
          6    1    1    2  501    0  0.15236550951E+02  0.11186913653E+02 -0.40318444723E+02  0.17767069682E+03  0.17200000000E+03 0.  1.
         -6    1    1    2    0  502 -0.15236550951E+02 -0.11186913653E+02  0.35168314214E+03  0.39194684842E+03  0.17200000000E+03 0.  1.
</event>
<event>
 4    1  0.4450588E+000  0.5409527E+03  0.7818608E-02  0.1003610E+00
         21   -1    0    0  501  502  0.00000000000E+00  0.00000000000E+00  0.11571151077E+04  0.11571151077E+04  0.00000000000E+00 0. -1.
         21   -1    0    0  502  503 -0.00000000000E+00 -0.00000000000E+00 -0.26887046525E+03  0.26887046525E+03  0.00000000000E+00 0.  1.
          6    1    1    2  501    0  0.12727982372E+03  0.49683564546E+03  0.61791296841E+03  0.82124676477E+03  0.17200000000E+03 0. -1.
         -6    1    1    2    0  503 -0.12727982372E+03 -0.49683564546E+03  0.27033167403E+03  0.60473880817E+03  0.17200000000E+03 0.  1.
</event>
<event>
 4    1  0.4450588E+000  0.2405597E+03  0.7818608E-02  0.1119421E+00
         21   -1    0    0  501  502  0.00000000000E+00  0.00000000000E+00  0.97330607354E+03  0.97330607354E+03  0.00000000000E+00 0.  1.
         21   -1    0    0  502  503 -0.00000000000E+00 -0.00000000000E+00 -0.61246017710E+02  0.61246017710E+02  0.00000000000E+00 0. -1.
          6    1    1    2  501    0  0.53736500292E+02 -0.15936543291E+03  0.54446087436E+03  0.59523658858E+03  0.17200000000E+03 0. -1.
         -6    1    1    2    0  503 -0.53736500292E+02  0.15936543291E+03  0.36759918147E+03  0.43931550267E+03  0.17200000000E+03 0.  1.
</event>
<event>
 4    1  0.4450588E+000  0.2015076E+03  0.7818608E-02  0.1148473E+00
         21   -1    0    0  503  502  0.00000000000E+00  0.00000000000E+00  0.12181979308E+04  0.12181979308E+04  0.00000000000E+00 0.  1.
         21   -1    0    0  501  503 -0.00000000000E+00 -0.00000000000E+00 -0.39512486936E+02  0.39512486936E+02  0.00000000000E+00 0. -1.
          6    1    1    2  501    0 -0.15484923363E+01 -0.10497110379E+03  0.34063771482E+03  0.39577693618E+03  0.17200000000E+03 0. -1.
         -6    1    1    2    0  502  0.15484923363E+01  0.10497110379E+03  0.83804772905E+03  0.86193348156E+03  0.17200000000E+03 0.  1.
</event>
<event>
 4    1  0.4450588E+000  0.2810156E+03  0.7818608E-02  0.1095136E+00
         21   -1    0    0  501  502  0.00000000000E+00  0.00000000000E+00  0.51527300188E+03  0.51527300188E+03  0.00000000000E+00 0.  1.
         21   -1    0    0  502  503 -0.00000000000E+00 -0.00000000000E+00 -0.16355132093E+03  0.16355132093E+03  0.00000000000E+00 0.  1.
          6    1    1    2  501    0 -0.18199944498E+03 -0.12752244646E+03  0.90712622139E+02  0.29529400966E+03  0.17200000000E+03 0.  1.
         -6    1    1    2    0  503  0.18199944498E+03  0.12752244646E+03  0.26100905881E+03  0.38353031315E+03  0.17200000000E+03 0.  1.
</event>
<event>
 4    1  0.4450588E+000  0.2043232E+03  0.7818608E-02  0.1146142E+00
         21   -1    0    0  503  502  0.00000000000E+00  0.00000000000E+00  0.20566927425E+03  0.20566927425E+03  0.00000000000E+00 0. -1.
         21   -1    0    0  501  503 -0.00000000000E+00 -0.00000000000E+00 -0.10488270030E+04  0.10488270030E+04  0.00000000000E+00 0. -1.
          6    1    1    2  501    0 -0.10919291718E+03  0.15519710925E+02 -0.98486862145E+03  0.10058400251E+04  0.17200000000E+03 0. -1.
         -6    1    1    2    0  502  0.10919291718E+03 -0.15519710925E+02  0.14171089274E+03  0.24865625211E+03  0.17200000000E+03 0. -1.
</event>
<event>
 4    1  0.4450588E+000  0.1840525E+03  0.7818608E-02  0.1163938E+00
         21   -1    0    0  501  502  0.00000000000E+00  0.00000000000E+00  0.14495680379E+03  0.14495680379E+03  0.00000000000E+00 0.  1.
         21   -1    0    0  502  503 -0.00000000000E+00 -0.00000000000E+00 -0.49211680177E+03  0.49211680177E+03  0.00000000000E+00 0.  1.
          6    1    1    2  501    0 -0.96285871955E+01 -0.64796649156E+02  0.57249978962E+02  0.19275081199E+03  0.17200000000E+03 0.  1.
         -6    1    1    2    0  503  0.96285871955E+01  0.64796649156E+02 -0.40440997695E+03  0.44432279357E+03  0.17200000000E+03 0.  1.
</event>
<event>
 4    1  0.4450588E+000  0.1813301E+03  0.7818608E-02  0.1166522E+00
         21   -1    0    0  503  502  0.00000000000E+00  0.00000000000E+00  0.64033464098E+03  0.64033464098E+03  0.00000000000E+00 0. -1.
         21   -1    0    0  501  503 -0.00000000000E+00 -0.00000000000E+00 -0.51352453070E+02  0.51352453070E+02  0.00000000000E+00 0. -1.
          6    1    1    2  501    0  0.48017336608E+02 -0.31479143088E+02  0.29169229572E+03  0.34346032733E+03  0.17200000000E+03 0. -1.
         -6    1    1    2    0  502 -0.48017336608E+02  0.31479143088E+02  0.29728989219E+03  0.34822676672E+03  0.17200000000E+03 0. -1.
</event>
<event>
 4    1  0.4450588E+000  0.1961441E+03  0.7818608E-02  0.1153034E+00
         21   -1    0    0  503  502  0.00000000000E+00  0.00000000000E+00  0.77270240437E+03  0.77270240437E+03  0.00000000000E+00 0.  1.
         21   -1    0    0  501  503 -0.00000000000E+00 -0.00000000000E+00 -0.56988762419E+02  0.56988762419E+02  0.00000000000E+00 0.  1.
          6    1    1    2  501    0 -0.89551419382E+02 -0.29479651496E+02  0.50530326077E+03  0.54203679941E+03  0.17200000000E+03 0.  1.
         -6    1    1    2    0  502  0.89551419382E+02  0.29479651496E+02  0.21041038118E+03  0.28765436738E+03  0.17200000000E+03 0.  1.
</event>
<event>
 4    1  0.4450588E+000  0.2156875E+03  0.7818608E-02  0.1137140E+00
         21   -1    0    0  503  502  0.00000000000E+00  0.00000000000E+00  0.80657731626E+03  0.80657731626E+03  0.00000000000E+00 0. -1.
         21   -1    0    0  501  503 -0.00000000000E+00 -0.00000000000E+00 -0.60647857073E+02  0.60647857073E+02  0.00000000000E+00 0.  1.
          6    1    1    2  501    0 -0.46883472514E+01 -0.13005814219E+03  0.27699765767E+03  0.35106808927E+03  0.17200000000E+03 0.  1.
         -6    1    1    2    0  502  0.46883472514E+01  0.13005814219E+03  0.46893180152E+03  0.51615708406E+03  0.17200000000E+03 0.  1.
</event>
<event>
 4    1  0.4450588E+000  0.2013853E+03  0.7818608E-02  0.1148575E+00
         21   -1    0    0  501  502  0.00000000000E+00  0.00000000000E+00  0.18280386899E+03  0.18280386899E+03  0.00000000000E+00 0.  1.
         21   -1    0    0  502  503 -0.00000000000E+00 -0.00000000000E+00 -0.24975089347E+03  0.24975089347E+03  0.00000000000E+00 0.  1.
          6    1    1    2  501    0  0.96916079930E+02  0.39740647822E+02  0.38807419576E+02  0.20509037387E+03  0.17200000000E+03 0.  1.
         -6    1    1    2    0  503 -0.96916079930E+02 -0.39740647822E+02 -0.10575444406E+03  0.22746438859E+03  0.17200000000E+03 0.  1.
</event>
<event>
 4    1  0.4450588E+000  0.2011627E+03  0.7818608E-02  0.1148762E+00
         21   -1    0    0  501  502  0.00000000000E+00  0.00000000000E+00  0.94157824651E+03  0.94157824651E+03  0.00000000000E+00 0. -1.
         21   -1    0    0  502  503 -0.00000000000E+00 -0.00000000000E+00 -0.53362358954E+02  0.53362358954E+02  0.00000000000E+00 0. -1.
          6    1    1    2  501    0  0.34547664552E+02  0.98432263064E+02  0.66356775660E+03  0.69338922629E+03  0.17200000000E+03 0. -1.
         -6    1    1    2    0  503 -0.34547664552E+02 -0.98432263064E+02  0.22464813095E+03  0.30155137917E+03  0.17200000000E+03 0. -1.
</event>
<event>
 4    1  0.4450588E+000  0.2520468E+03  0.7818608E-02  0.1112018E+00
         21   -1    0    0  501  502  0.00000000000E+00  0.00000000000E+00  0.73485514989E+03  0.73485514989E+03  0.00000000000E+00 0.  1.
         21   -1    0    0  502  503 -0.00000000000E+00 -0.00000000000E+00 -0.14165525009E+03  0.14165525009E+03  0.00000000000E+00 0.  1.
          6    1    1    2  501    0 -0.17646703971E+03  0.52942963421E+02  0.57019260425E+03  0.62341573562E+03  0.17200000000E+03 0.  1.
         -6    1    1    2    0  503  0.17646703971E+03 -0.52942963421E+02  0.23007295560E+02  0.25309466436E+03  0.17200000000E+03 0.  1.
</event>
<event>
 4    1  0.4450588E+000  0.2145681E+03  0.7818608E-02  0.1137999E+00
         21   -1    0    0  503  502  0.00000000000E+00  0.00000000000E+00  0.12952009188E+03  0.12952009188E+03  0.00000000000E+00 0. -1.
         21   -1    0    0  501  503 -0.00000000000E+00 -0.00000000000E+00 -0.48530906784E+03  0.48530906784E+03  0.00000000000E+00 0.  1.
          6    1    1    2  501    0  0.98207096614E+01  0.12790238572E+03 -0.33690703240E+03  0.39943186539E+03  0.17200000000E+03 0.  1.
         -6    1    1    2    0  502 -0.98207096614E+01 -0.12790238572E+03 -0.18881943553E+02  0.21539729433E+03  0.17200000000E+03 0. -1.
</event>
<event>
 4    1  0.4450588E+000  0.1991752E+03  0.7818608E-02  0.1150437E+00
         21   -1    0    0  503  502  0.00000000000E+00  0.00000000000E+00  0.12575983601E+03  0.12575983601E+03  0.00000000000E+00 0. -1.
         21   -1    0    0  501  503 -0.00000000000E+00 -0.00000000000E+00 -0.45687342123E+03  0.45687342123E+03  0.00000000000E+00 0. -1.
          6    1    1    2  501    0  0.10042806127E+03  0.98062236780E+00 -0.32763709353E+03  0.38342772744E+03  0.17200000000E+03 0. -1.
         -6    1    1    2    0  502 -0.10042806127E+03 -0.98062236780E+00 -0.34764916844E+01  0.19920552980E+03  0.17200000000E+03 0. -1.
</event>
<event>
 4    1  0.4450588E+000  0.1732292E+03  0.7818608E-02  0.1174522E+00
         21   -1    0    0  501  502  0.00000000000E+00  0.00000000000E+00  0.39220940345E+03  0.39220940345E+03  0.00000000000E+00 0.  1.
         21   -1    0    0  502  503 -0.00000000000E+00 -0.00000000000E+00 -0.22160057568E+03  0.22160057568E+03  0.00000000000E+00 0.  1.
          6    1    1    2  501    0 -0.18660921824E+02 -0.87256912714E+01  0.33363858458E+03  0.37592961151E+03  0.17200000000E+03 0.  1.
         -6    1    1    2    0  503  0.18660921824E+02  0.87256912714E+01 -0.16302975681E+03  0.23788036761E+03  0.17200000000E+03 0.  1.
</event>
<event>
 4    1  0.4450588E+000  0.1774638E+03  0.7818608E-02  0.1170280E+00
         21   -1    0    0  503  502  0.00000000000E+00  0.00000000000E+00  0.77393404777E+02  0.77393404777E+02  0.00000000000E+00 0.  1.
         21   -1    0    0  501  503 -0.00000000000E+00 -0.00000000000E+00 -0.41728388269E+03  0.41728388269E+03  0.00000000000E+00 0.  1.
          6    1    1    2  501    0  0.43381262790E+02 -0.52396049591E+01 -0.13097689125E+03  0.22056367213E+03  0.17200000000E+03 0.  1.
         -6    1    1    2    0  502 -0.43381262790E+02  0.52396049591E+01 -0.20891358666E+03  0.27411361533E+03  0.17200000000E+03 0.  1.
</event>
<event>
 4    1  0.4450588E+000  0.1843050E+03  0.7818608E-02  0.1163700E+00
         21   -1    0    0  501  502  0.00000000000E+00  0.00000000000E+00  0.13294534602E+03  0.13294534602E+03  0.00000000000E+00 0. -1.
         21   -1    0    0  502  503 -0.00000000000E+00 -0.00000000000E+00 -0.46057849090E+03  0.46057849090E+03  0.00000000000E+00 0. -1.
          6    1    1    2  501    0  0.59411010168E+02  0.29234925171E+02  0.34203823425E+02  0.18745199523E+03  0.17200000000E+03 0. -1.
         -6    1    1    2    0  503 -0.59411010168E+02 -0.29234925171E+02 -0.36183696831E+03  0.40607184169E+03  0.17200000000E+03 0. -1.
</event>
<event>
 4    1  0.4450588E+000  0.1847170E+03  0.7818608E-02  0.1163314E+00
         21   -1    0    0  501  502  0.00000000000E+00  0.00000000000E+00  0.95179708731E+03  0.95179708731E+03  0.00000000000E+00 0.  1.
         21   -1    0    0  502  503 -0.00000000000E+00 -0.00000000000E+00 -0.46153217564E+02  0.46153217564E+02  0.00000000000E+00 0.  1.
          6    1    1    2  501    0  0.40460992312E+02  0.53844805994E+02  0.68859768601E+03  0.71294258409E+03  0.17200000000E+03 0.  1.
         -6    1    1    2    0  503 -0.40460992312E+02 -0.53844805994E+02  0.21704618374E+03  0.28500772078E+03  0.17200000000E+03 0.  1.
</event>
<event>
 4    1  0.4450588E+000  0.2963590E+03  0.7818608E-02  0.1087075E+00
         21   -1    0    0  501  502  0.00000000000E+00  0.00000000000E+00  0.33612644190E+03  0.33612644190E+03  0.00000000000E+00 0. -1.
         21   -1    0    0  502  503 -0.00000000000E+00 -0.00000000000E+00 -0.29958037638E+03  0.29958037638E+03  0.00000000000E+00 0.  1.
          6    1    1    2  501    0 -0.18407777504E+03  0.15607706076E+03  0.13189908562E+03  0.32438564232E+03  0.17200000000E+03 0. -1.
         -6    1    1    2    0  503  0.18407777504E+03 -0.15607706076E+03 -0.95353020090E+02  0.31132117596E+03  0.17200000000E+03 0.  1.
</event>
<event>
 4    1  0.4450588E+000  0.2203889E+03  0.7818608E-02  0.1133593E+00
         21   -1    0    0  501  502  0.00000000000E+00  0.00000000000E+00  0.25566636990E+02  0.25566636990E+02  0.00000000000E+00 0.  1.
         21   -1    0    0  502  503 -0.00000000000E+00 -0.00000000000E+00 -0.27720418774E+04  0.27720418774E+04  0.00000000000E+00 0.  1.
          6    1    1    2  501    0  0.96692800682E+02 -0.98172202948E+02 -0.58858461966E+03  0.62849274748E+03  0.17200000000E+03 0.  1.
         -6    1    1    2    0  503 -0.96692800682E+02  0.98172202948E+02 -0.21578906208E+04  0.21691157669E+04  0.17200000000E+03 0.  1.
</event>
<event>
 4    1  0.4450588E+000  0.2185226E+03  0.7818608E-02  0.1134989E+00
         21   -1    0    0  501  502  0.00000000000E+00  0.00000000000E+00  0.29045877191E+03  0.29045877191E+03  0.00000000000E+00 0.  1.
         21   -1    0    0  502  503 -0.00000000000E+00 -0.00000000000E+00 -0.28909427922E+03  0.28909427922E+03  0.00000000000E+00 0. -1.
          6    1    1    2  501    0 -0.10926295736E+03 -0.78928680397E+02  0.19099262344E+03  0.29022459001E+03  0.17200000000E+03 0.  1.
         -6    1    1    2    0  503  0.10926295736E+03  0.78928680397E+02 -0.18962813075E+03  0.28932846111E+03  0.17200000000E+03 0. -1.
</event>
<event>
 4    1  0.4450588E+000  0.1951993E+03  0.7818608E-02  0.1153854E+00
         21   -1    0    0  503  502  0.00000000000E+00  0.00000000000E+00  0.28091956760E+03  0.28091956760E+03  0.00000000000E+00 0.  1.
         21   -1    0    0  501  503 -0.00000000000E+00 -0.00000000000E+00 -0.14047044703E+03  0.14047044703E+03  0.00000000000E+00 0.  1.
          6    1    1    2  501    0 -0.38569859181E+02 -0.83851880040E+02  0.10931231328E+03  0.22372293950E+03  0.17200000000E+03 0.  1.
         -6    1    1    2    0  502  0.38569859181E+02  0.83851880040E+02  0.31136807295E+02  0.19766707513E+03  0.17200000000E+03 0.  1.
</event>
<event>
 4    1  0.4450588E+000  0.1780140E+03  0.7818608E-02  0.1169739E+00
         21   -1    0    0  501  502  0.00000000000E+00  0.00000000000E+00  0.65666741964E+02  0.65666741964E+02  0.00000000000E+00 0. -1.
         21   -1    0    0  502  503 -0.00000000000E+00 -0.00000000000E+00 -0.57469790312E+03  0.57469790312E+03  0.00000000000E+00 0. -1.
          6    1    1    2  501    0  0.21212113787E+02  0.40682259422E+02 -0.12632209777E+03  0.21828026111E+03  0.17200000000E+03 0. -1.
         -6    1    1    2    0  503 -0.21212113787E+02 -0.40682259422E+02 -0.38270906339E+03  0.42208438398E+03  0.17200000000E+03 0. -1.
</event>
<event>
 4    1  0.4450588E+000  0.1917084E+03  0.7818608E-02  0.1156929E+00
         21   -1    0    0  503  502  0.00000000000E+00  0.00000000000E+00  0.20647797751E+03  0.20647797751E+03  0.00000000000E+00 0.  1.
         21   -1    0    0  501  503 -0.00000000000E+00 -0.00000000000E+00 -0.17980902435E+03  0.17980902435E+03  0.00000000000E+00 0.  1.
          6    1    1    2  501    0  0.17624588828E+02  0.82809894359E+02  0.32732737246E+02  0.19448274171E+03  0.17200000000E+03 0.  1.
         -6    1    1    2    0  502 -0.17624588828E+02 -0.82809894359E+02 -0.60637840889E+01  0.19180426015E+03  0.17200000000E+03 0.  1.
</event>
<event>
 4    1  0.4450588E+000  0.2500275E+03  0.7818608E-02  0.1113287E+00
         21   -1    0    0  501  502  0.00000000000E+00  0.00000000000E+00  0.50725198289E+03  0.50725198289E+03  0.00000000000E+00 0.  1.
         21   -1    0    0  502  503 -0.00000000000E+00 -0.00000000000E+00 -0.15277107591E+03  0.15277107591E+03  0.00000000000E+00 0.  1.
          6    1    1    2  501    0  0.18060659681E+03 -0.17635255470E+02  0.32146930971E+02  0.25208564064E+03  0.17200000000E+03 0.  1.
         -6    1    1    2    0  503 -0.18060659681E+03  0.17635255470E+02  0.32233397601E+03  0.40793741816E+03  0.17200000000E+03 0.  1.
</event>
<event>
 4    1  0.4450588E+000  0.2276639E+03  0.7818608E-02  0.1128295E+00
         21   -1    0    0  501  502  0.00000000000E+00  0.00000000000E+00  0.56031187674E+02  0.56031187674E+02  0.00000000000E+00 0. -1.
         21   -1    0    0  502  503 -0.00000000000E+00 -0.00000000000E+00 -0.92507017007E+03  0.92507017007E+03  0.00000000000E+00 0.  1.
          6    1    1    2  501    0  0.11446364245E+03  0.95629200230E+02 -0.43154094605E+03  0.48791234612E+03  0.17200000000E+03 0.  1.
         -6    1    1    2    0  503 -0.11446364245E+03 -0.95629200230E+02 -0.43749803635E+03  0.49318901162E+03  0.17200000000E+03 0. -1.
</event>
<event>
 4    1  0.4450588E+000  0.2112878E+03  0.7818608E-02  0.1140550E+00
         21   -1    0    0  503  502  0.00000000000E+00  0.00000000000E+00  0.21481747480E+03  0.21481747480E+03  0.00000000000E+00 0. -1.
         21   -1    0    0  501  503 -0.00000000000E+00 -0.00000000000E+00 -0.31002627349E+03  0.31002627349E+03  0.00000000000E+00 0. -1.
          6    1    1    2  501    0 -0.51896077025E+02  0.11119959871E+03 -0.19828162345E+03  0.28975533776E+03  0.17200000000E+03 0. -1.
         -6    1    1    2    0  502  0.51896077025E+02 -0.11119959871E+03  0.10307282476E+03  0.23508841053E+03  0.17200000000E+03 0. -1.
</event>
<event>
 4    1  0.4450588E+000  0.1757608E+03  0.7818608E-02  0.1171970E+00
         21   -1    0    0  501  502  0.00000000000E+00  0.00000000000E+00  0.18103847230E+03  0.18103847230E+03  0.00000000000E+00 0.  1.
         21   -1    0    0  502  503 -0.00000000000E+00 -0.00000000000E+00 -0.17334558519E+03  0.17334558519E+03  0.00000000000E+00 0.  1.
          6    1    1    2  501    0 -0.25762823340E+02 -0.25379973483E+02 -0.18302709453E+02  0.17671122006E+03  0.17200000000E+03 0. -1.
         -6    1    1    2    0  503  0.25762823340E+02  0.25379973483E+02  0.25995596567E+02  0.17767283743E+03  0.17200000000E+03 0. -1.
</event>
<event>
 4    1  0.4450588E+000  0.2110261E+03  0.7818608E-02  0.1140756E+00
         21   -1    0    0  503  502  0.00000000000E+00  0.00000000000E+00  0.14206119897E+03  0.14206119897E+03  0.00000000000E+00 0. -1.
         21   -1    0    0  501  503 -0.00000000000E+00 -0.00000000000E+00 -0.31406875376E+03  0.31406875376E+03  0.00000000000E+00 0. -1.
          6    1    1    2  501    0 -0.12065075284E+03  0.19783661142E+02 -0.76050113259E+02  0.22431142890E+03  0.17200000000E+03 0. -1.
         -6    1    1    2    0  502  0.12065075284E+03 -0.19783661142E+02 -0.95957441526E+02  0.23181852383E+03  0.17200000000E+03 0. -1.
</event>
<event>
 4    1  0.4450588E+000  0.1819346E+03  0.7818608E-02  0.1165944E+00
         21   -1    0    0  501  502  0.00000000000E+00  0.00000000000E+00  0.16274420681E+03  0.16274420681E+03  0.00000000000E+00 0. -1.
         21   -1    0    0  502  503 -0.00000000000E+00 -0.00000000000E+00 -0.31814466747E+03  0.31814466747E+03  0.00000000000E+00 0. -1.
          6    1    1    2  501    0  0.32681005138E+02  0.49478917451E+02  0.66707838176E+02  0.19377860316E+03  0.17200000000E+03 0. -1.
         -6    1    1    2    0  503 -0.32681005138E+02 -0.49478917451E+02 -0.22210829884E+03  0.28711027112E+03  0.17200000000E+03 0. -1.
</event>
<event>
 4    1  0.4450588E+000  0.1812083E+03  0.7818608E-02  0.1166639E+00
         21   -1    0    0  503  502  0.00000000000E+00  0.00000000000E+00  0.21359247140E+03  0.21359247140E+03  0.00000000000E+00 0. -1.
         21   -1    0    0  501  503 -0.00000000000E+00 -0.00000000000E+00 -0.16663028096E+03  0.16663028096E+03  0.00000000000E+00 0. -1.
          6    1    1    2  501    0 -0.56557510172E+02 -0.73289806541E+01 -0.29407272043E+02  0.18357901177E+03  0.17200000000E+03 0. -1.
         -6    1    1    2    0  502  0.56557510172E+02  0.73289806541E+01  0.76369462486E+02  0.19664374059E+03  0.17200000000E+03 0. -1.
</event>
<event>
 4    1  0.4450588E+000  0.2233131E+03  0.7818608E-02  0.1131437E+00
         21   -1    0    0  501  502  0.00000000000E+00  0.00000000000E+00  0.25164584818E+03  0.25164584818E+03  0.00000000000E+00 0. -1.
         21   -1    0    0  502  503 -0.00000000000E+00 -0.00000000000E+00 -0.20230434577E+03  0.20230434577E+03  0.00000000000E+00 0. -1.
          6    1    1    2  501    0  0.11168004205E+03 -0.88387370707E+02  0.57116503303E+02  0.23050174412E+03  0.17200000000E+03 0. -1.
         -6    1    1    2    0  503 -0.11168004205E+03  0.88387370707E+02 -0.77750008871E+01  0.22344844983E+03  0.17200000000E+03 0. -1.
</event>
<event>
 4    1  0.4450588E+000  0.3463824E+03  0.7818608E-02  0.1064110E+00
         21   -1    0    0  501  502  0.00000000000E+00  0.00000000000E+00  0.13706609907E+03  0.13706609907E+03  0.00000000000E+00 0. -1.
         21   -1    0    0  502  503 -0.00000000000E+00 -0.00000000000E+00 -0.99685750584E+03  0.99685750584E+03  0.00000000000E+00 0.  1.
          6    1    1    2  501    0 -0.11207131528E+03  0.27899248646E+03 -0.23195317798E+03  0.41687295905E+03  0.17200000000E+03 0. -1.
         -6    1    1    2    0  503  0.11207131528E+03 -0.27899248646E+03 -0.62783822878E+03  0.71705064586E+03  0.17200000000E+03 0.  1.
</event>
<event>
 4    1  0.4450588E+000  0.2422563E+03  0.7818608E-02  0.1118299E+00
         21   -1    0    0  501  502  0.00000000000E+00  0.00000000000E+00  0.49713333533E+03  0.49713333533E+03  0.00000000000E+00 0. -1.
         21   -1    0    0  502  503 -0.00000000000E+00 -0.00000000000E+00 -0.11988580549E+03  0.11988580549E+03  0.00000000000E+00 0.  1.
          6    1    1    2  501    0  0.10461690635E+03  0.13475692568E+03  0.15047922809E+03  0.28518787527E+03  0.17200000000E+03 0.  1.
         -6    1    1    2    0  503 -0.10461690635E+03 -0.13475692568E+03  0.22676830175E+03  0.33183126555E+03  0.17200000000E+03 0. -1.
</event>
<event>
 4    1  0.4450588E+000  0.2173412E+03  0.7818608E-02  0.1135881E+00
         21   -1    0    0  503  502  0.00000000000E+00  0.00000000000E+00  0.16503182389E+04  0.16503182389E+04  0.00000000000E+00 0.  1.
         21   -1    0    0  501  503 -0.00000000000E+00 -0.00000000000E+00 -0.58817419193E+02  0.58817419193E+02  0.00000000000E+00 0. -1.
          6    1    1    2  501    0 -0.12928969651E+03  0.30616753742E+02  0.18346172516E+03  0.28442119441E+03  0.17200000000E+03 0. -1.
         -6    1    1    2    0  502  0.12928969651E+03 -0.30616753742E+02  0.14080390945E+04  0.14247144637E+04  0.17200000000E+03 0.  1.
</event>
<event>
 4    1  0.4450588E+000  0.1794371E+03  0.7818608E-02  0.1168349E+00
         21   -1    0    0  503  502  0.00000000000E+00  0.00000000000E+00  0.89787977043E+03  0.89787977043E+03  0.00000000000E+00 0.  1.
         21   -1    0    0  501  503 -0.00000000000E+00 -0.00000000000E+00 -0.36404414998E+02  0.36404414998E+02  0.00000000000E+00 0.  1.
          6    1    1    2  501    0 -0.29718325360E+02 -0.41599138557E+02  0.37359364932E+03  0.41445130233E+03  0.17200000000E+03 0.  1.
         -6    1    1    2    0  502  0.29718325360E+02  0.41599138557E+02  0.48788170612E+03  0.51983288310E+03  0.17200000000E+03 0.  1.
</event>
<event>
 4    1  0.4450588E+000  0.2110052E+03  0.7818608E-02  0.1140772E+00
         21   -1    0    0  501  502  0.00000000000E+00  0.00000000000E+00  0.10391154041E+03  0.10391154041E+03  0.00000000000E+00 0.  1.
         21   -1    0    0  502  503 -0.00000000000E+00 -0.00000000000E+00 -0.47914938221E+03  0.47914938221E+03  0.00000000000E+00 0.  1.
          6    1    1    2  501    0  0.29735193260E+02  0.11855391288E+03 -0.92808850312E+02  0.23051397934E+03  0.17200000000E+03 0.  1.
         -6    1    1    2    0  503 -0.29735193260E+02 -0.11855391288E+03 -0.28242899149E+03  0.35254694327E+03  0.17200000000E+03 0.  1.
</event>
<event>
 4    1  0.4450588E+000  0.2023356E+03  0.7818608E-02  0.1147783E+00
         21   -1    0    0  503  502  0.00000000000E+00  0.00000000000E+00  0.16683679650E+03  0.16683679650E+03  0.00000000000E+00 0. -1.
         21   -1    0    0  501  503 -0.00000000000E+00 -0.00000000000E+00 -0.25719568077E+03  0.25719568077E+03  0.00000000000E+00 0. -1.
          6    1    1    2  501    0  0.29924193060E+02  0.10227534419E+03 -0.90607533670E+02  0.22169670390E+03  0.17200000000E+03 0. -1.
         -6    1    1    2    0  502 -0.29924193060E+02 -0.10227534419E+03  0.24864939095E+00  0.20233577337E+03  0.17200000000E+03 0. -1.
</event>
<event>
 4    1  0.4450588E+000  0.1829993E+03  0.7818608E-02  0.1164932E+00
         21   -1    0    0  503  502  0.00000000000E+00  0.00000000000E+00  0.84189863777E+02  0.84189863777E+02  0.00000000000E+00 0.  1.
         21   -1    0    0  501  503 -0.00000000000E+00 -0.00000000000E+00 -0.51278020377E+03  0.51278020377E+03  0.00000000000E+00 0.  1.
          6    1    1    2  501    0 -0.22710149773E+01  0.62446571007E+02 -0.35565084329E+03  0.39997031649E+03  0.17200000000E+03 0.  1.
         -6    1    1    2    0  502  0.22710149773E+01 -0.62446571007E+02 -0.72939496711E+02  0.19699975107E+03  0.17200000000E+03 0.  1.
</event>
<event>
 4    1  0.4450588E+000  0.2207324E+03  0.7818608E-02  0.1133338E+00
         21   -1    0    0  503  502  0.00000000000E+00  0.00000000000E+00  0.21576622111E+03  0.21576622111E+03  0.00000000000E+00 0.  1.
         21   -1    0    0  501  503 -0.00000000000E+00 -0.00000000000E+00 -0.26686244963E+03  0.26686244963E+03  0.00000000000E+00 0. -1.
          6    1    1    2  501    0  0.11840324062E+03 -0.71550425452E+02 -0.12019225163E+03  0.25133437513E+03  0.17200000000E+03 0. -1.
         -6    1    1    2    0  502 -0.11840324062E+03  0.71550425452E+02  0.69096023115E+02  0.23129429561E+03  0.17200000000E+03 0. -1.
</event>
<event>
 4    1  0.4450588E+000  0.2130614E+03  0.7818608E-02  0.1139164E+00
         21   -1    0    0  501  502  0.00000000000E+00  0.00000000000E+00  0.26047660194E+03  0.26047660194E+03  0.00000000000E+00 0. -1.
         21   -1    0    0  502  503 -0.00000000000E+00 -0.00000000000E+00 -0.27434216864E+03  0.27434216864E+03  0.00000000000E+00 0. -1.
          6    1    1    2  501    0 -0.92993722913E+02  0.84636398530E+02  0.15456673463E+03  0.26322239250E+03  0.17200000000E+03 0. -1.
         -6    1    1    2    0  503  0.92993722913E+02 -0.84636398530E+02 -0.16843230132E+03  0.27159637808E+03  0.17200000000E+03 0. -1.
</event>
<event>
 4    1  0.4450588E+000  0.2561951E+03  0.7818608E-02  0.1109451E+00
         21   -1    0    0  501  502  0.00000000000E+00  0.00000000000E+00  0.15572040064E+03  0.15572040064E+03  0.00000000000E+00 0. -1.
         21   -1    0    0  502  503 -0.00000000000E+00 -0.00000000000E+00 -0.72066948311E+03  0.72066948311E+03  0.00000000000E+00 0. -1.
          6    1    1    2  501    0  0.18756556662E+03  0.29514179918E+02 -0.14328124376E+00  0.25619513877E+03  0.17200000000E+03 0. -1.
         -6    1    1    2    0  503 -0.18756556662E+03 -0.29514179918E+02 -0.56480580123E+03  0.62019474498E+03  0.17200000000E+03 0. -1.
</event>
<event>
 4    1  0.4450588E+000  0.3618784E+03  0.7818608E-02  0.1057843E+00
         21   -1    0    0  501  502  0.00000000000E+00  0.00000000000E+00  0.16388825492E+04  0.16388825492E+04  0.00000000000E+00 0. -1.
         21   -1    0    0  502  503 -0.00000000000E+00 -0.00000000000E+00 -0.84900348286E+02  0.84900348286E+02  0.00000000000E+00 0.  1.
          6    1    1    2  501    0  0.30043322357E+03  0.10541262055E+03  0.98604262554E+03  0.10503504186E+04  0.17200000000E+03 0.  1.
         -6    1    1    2    0  503 -0.30043322357E+03 -0.10541262055E+03  0.56793957540E+03  0.67343247895E+03  0.17200000000E+03 0. -1.
</event>
<event>
 4    1  0.4450588E+000  0.2253106E+03  0.7818608E-02  0.1129985E+00
         21   -1    0    0  503  502  0.00000000000E+00  0.00000000000E+00  0.25327074869E+04  0.25327074869E+04  0.00000000000E+00 0.  1.
         21   -1    0    0  501  503 -0.00000000000E+00 -0.00000000000E+00 -0.23246092801E+02  0.23246092801E+02  0.00000000000E+00 0. -1.
          6    1    1    2  501    0 -0.25232927550E+02  0.14333231251E+03  0.78039625881E+03  0.81227038184E+03  0.17200000000E+03 0. -1.
         -6    1    1    2    0  502  0.25232927550E+02 -0.14333231251E+03  0.17290651353E+04  0.17436831979E+04  0.17200000000E+03 0.  1.
</event>
<event>
 4    1  0.4450588E+000  0.1743581E+03  0.7818608E-02  0.1173378E+00
         21   -1    0    0  501  502  0.00000000000E+00  0.00000000000E+00  0.44997812355E+03  0.44997812355E+03  0.00000000000E+00 0. -1.
         21   -1    0    0  502  503 -0.00000000000E+00 -0.00000000000E+00 -0.68009293371E+02  0.68009293371E+02  0.00000000000E+00 0. -1.
          6    1    1    2  501    0  0.25261057422E+02 -0.13364555037E+02  0.21202433418E+03  0.27450874419E+03  0.17200000000E+03 0.  1.
         -6    1    1    2    0  503 -0.25261057422E+02  0.13364555037E+02  0.16994449600E+03  0.24347867273E+03  0.17200000000E+03 0.  1.
</event>
<event>
 4    1  0.4450588E+000  0.2653523E+03  0.7818608E-02  0.1103969E+00
         21   -1    0    0  501  502  0.00000000000E+00  0.00000000000E+00  0.20075417792E+03  0.20075417792E+03  0.00000000000E+00 0.  1.
         21   -1    0    0  502  503 -0.00000000000E+00 -0.00000000000E+00 -0.49602614579E+03  0.49602614579E+03  0.00000000000E+00 0. -1.
          6    1    1    2  501    0  0.17415356382E+03 -0.10246171304E+03  0.40915766211E+02  0.26848829836E+03  0.17200000000E+03 0.  1.
         -6    1    1    2    0  503 -0.17415356382E+03  0.10246171304E+03 -0.33618773408E+03  0.42829202535E+03  0.17200000000E+03 0.  1.
</event>
<event>
 4    1  0.4450588E+000  0.2318614E+03  0.7818608E-02  0.1125336E+00
         21   -1    0    0  503  502  0.00000000000E+00  0.00000000000E+00  0.74286552285E+03  0.74286552285E+03  0.00000000000E+00 0. -1.
         21   -1    0    0  501  503 -0.00000000000E+00 -0.00000000000E+00 -0.10007264747E+03  0.10007264747E+03  0.00000000000E+00 0.  1.
          6    1    1    2  501    0 -0.41600208246E+02 -0.14981692456E+03  0.99635838869E+02  0.25236281144E+03  0.17200000000E+03 0.  1.
         -6    1    1    2    0  502  0.41600208246E+02  0.14981692456E+03  0.54315703650E+03  0.59057535888E+03  0.17200000000E+03 0. -1.
</event>
<event>
 4    1  0.4450588E+000  0.2735279E+03  0.7818608E-02  0.1099277E+00
         21   -1    0    0  501  502  0.00000000000E+00  0.00000000000E+00  0.48577048485E+03  0.48577048485E+03  0.00000000000E+00 0.  1.
         21   -1    0    0  502  503 -0.00000000000E+00 -0.00000000000E+00 -0.15436744183E+03  0.15436744183E+03  0.00000000000E+00 0. -1.
          6    1    1    2  501    0 -0.82942404378E+02 -0.19584196794E+03  0.15047855850E+03  0.31218794887E+03  0.17200000000E+03 0. -1.
         -6    1    1    2    0  503  0.82942404378E+02  0.19584196794E+03  0.18092448452E+03  0.32794997782E+03  0.17200000000E+03 0. -1.
</event>
<event>
 4    1  0.4450588E+000  0.1751006E+03  0.7818608E-02  0.1172631E+00
         21   -1    0    0  501  502  0.00000000000E+00  0.00000000000E+00  0.23161767860E+03  0.23161767860E+03  0.00000000000E+00 0.  1.
         21   -1    0    0  502  503 -0.00000000000E+00 -0.00000000000E+00 -0.16415722877E+03  0.16415722877E+03  0.00000000000E+00 0.  1.
          6    1    1    2  501    0 -0.32495762827E+02 -0.44981573252E+01  0.12080368509E+03  0.21272926069E+03  0.17200000000E+03 0.  1.
         -6    1    1    2    0  503  0.32495762827E+02  0.44981573252E+01 -0.53343235267E+02  0.18304564668E+03  0.17200000000E+03 0.  1.
</event>
<event>
 4    1  0.4450588E+000  0.1943046E+03  0.7818608E-02  0.1154635E+00
         21   -1    0    0  503  502  0.00000000000E+00  0.00000000000E+00  0.24431160831E+03  0.24431160831E+03  0.00000000000E+00 0.  1.
         21   -1    0    0  501  503 -0.00000000000E+00 -0.00000000000E+00 -0.17030165984E+03  0.17030165984E+03  0.00000000000E+00 0.  1.
          6    1    1    2  501    0 -0.74678180030E+02 -0.50925928932E+02 -0.26075786527E+02  0.19604649309E+03  0.17200000000E+03 0.  1.
         -6    1    1    2    0  502  0.74678180030E+02  0.50925928932E+02  0.10008573500E+03  0.21856677506E+03  0.17200000000E+03 0.  1.
</event>
<event>
 4    1  0.4450588E+000  0.1729047E+03  0.7818608E-02  0.1174852E+00
         21   -1    0    0  503  502  0.00000000000E+00  0.00000000000E+00  0.92821190777E+02  0.92821190777E+02  0.00000000000E+00 0.  1.
         21   -1    0    0  501  503 -0.00000000000E+00 -0.00000000000E+00 -0.51664641640E+03  0.51664641640E+03  0.00000000000E+00 0.  1.
          6    1    1    2  501    0  0.11946747359E+02  0.13011926092E+02 -0.39891864985E+03  0.43477824714E+03  0.17200000000E+03 0.  1.
         -6    1    1    2    0  502 -0.11946747359E+02 -0.13011926092E+02 -0.24906575778E+02  0.17468936004E+03  0.17200000000E+03 0.  1.
</event>
<event>
 4    1  0.4450588E+000  0.2798029E+03  0.7818608E-02  0.1095797E+00
         21   -1    0    0  503  502  0.00000000000E+00  0.00000000000E+00  0.13003339364E+03  0.13003339364E+03  0.00000000000E+00 0. -1.
         21   -1    0    0  501  503 -0.00000000000E+00 -0.00000000000E+00 -0.61599575973E+03  0.61599575973E+03  0.00000000000E+00 0. -1.
          6    1    1    2  501    0  0.21970217127E+03 -0.20895601071E+02 -0.29905894012E+03  0.40954355064E+03  0.17200000000E+03 0. -1.
         -6    1    1    2    0  502 -0.21970217127E+03  0.20895601071E+02 -0.18690342597E+03  0.33648560273E+03  0.17200000000E+03 0. -1.
</event>
<event>
 4    1  0.4450588E+000  0.1788835E+03  0.7818608E-02  0.1168888E+00
         21   -1    0    0  503  502  0.00000000000E+00  0.00000000000E+00  0.18659831967E+03  0.18659831967E+03  0.00000000000E+00 0. -1.
         21   -1    0    0  501  503 -0.00000000000E+00 -0.00000000000E+00 -0.17315912921E+03  0.17315912921E+03  0.00000000000E+00 0. -1.
          6    1    1    2  501    0 -0.29202053228E+02  0.39529000424E+02  0.24392643128E+02  0.18053892330E+03  0.17200000000E+03 0.  1.
         -6    1    1    2    0  502  0.29202053228E+02 -0.39529000424E+02 -0.10953452666E+02  0.17921852558E+03  0.17200000000E+03 0.  1.
</event>
<event>
 4    1  0.4450588E+000  0.3130703E+03  0.7818608E-02  0.1078883E+00
         21   -1    0    0  501  502  0.00000000000E+00  0.00000000000E+00  0.26546960763E+03  0.26546960763E+03  0.00000000000E+00 0. -1.
         21   -1    0    0  502  503 -0.00000000000E+00 -0.00000000000E+00 -0.36934589572E+03  0.36934589572E+03  0.00000000000E+00 0. -1.
          6    1    1    2  501    0 -0.74732330602E+02 -0.25068724315E+03 -0.45764371796E+02  0.31639752344E+03  0.17200000000E+03 0. -1.
         -6    1    1    2    0  503  0.74732330602E+02  0.25068724315E+03 -0.58111916296E+02  0.31841797991E+03  0.17200000000E+03 0. -1.
</event>
<event>
 4    1  0.4450588E+000  0.1874239E+03  0.7818608E-02  0.1160806E+00
         21   -1    0    0  501  502  0.00000000000E+00  0.00000000000E+00  0.49581357115E+03  0.49581357115E+03  0.00000000000E+00 0. -1.
         21   -1    0    0  502  503 -0.00000000000E+00 -0.00000000000E+00 -0.74250837389E+02  0.74250837389E+02  0.00000000000E+00 0. -1.
          6    1    1    2  501    0  0.73660482804E+02  0.10855220634E+02  0.27179472026E+03  0.33015159019E+03  0.17200000000E+03 0. -1.
         -6    1    1    2    0  503 -0.73660482804E+02 -0.10855220634E+02  0.14976801351E+03  0.23991281836E+03  0.17200000000E+03 0. -1.
</event>
<event>
 4    1  0.4450588E+000  0.2232116E+03  0.7818608E-02  0.1131511E+00
         21   -1    0    0  503  502  0.00000000000E+00  0.00000000000E+00  0.18477735664E+03  0.18477735664E+03  0.00000000000E+00 0. -1.
         21   -1    0    0  501  503 -0.00000000000E+00 -0.00000000000E+00 -0.55117344817E+03  0.55117344817E+03  0.00000000000E+00 0.  1.
          6    1    1    2  501    0 -0.49574760705E+02 -0.13334828852E+03 -0.44618815095E+03  0.49890609237E+03  0.17200000000E+03 0.  1.
         -6    1    1    2    0  502  0.49574760705E+02  0.13334828852E+03  0.79792059422E+02  0.23704471244E+03  0.17200000000E+03 0. -1.
</event>
<event>
 4    1  0.4450588E+000  0.2104570E+03  0.7818608E-02  0.1141205E+00
         21   -1    0    0  501  502  0.00000000000E+00  0.00000000000E+00  0.98396260435E+03  0.98396260435E+03  0.00000000000E+00 0. -1.
         21   -1    0    0  502  503 -0.00000000000E+00 -0.00000000000E+00 -0.47734094043E+02  0.47734094043E+02  0.00000000000E+00 0. -1.
          6    1    1    2  501    0 -0.31875590206E+02  0.11701324383E+03  0.59125302482E+03  0.62759245681E+03  0.17200000000E+03 0. -1.
         -6    1    1    2    0  503  0.31875590206E+02 -0.11701324383E+03  0.34497548549E+03  0.40410424159E+03  0.17200000000E+03 0. -1.
</event>
<event>
 4    1  0.4450588E+000  0.2289913E+03  0.7818608E-02  0.1127352E+00
         21   -1    0    0  503  502  0.00000000000E+00  0.00000000000E+00  0.45733070228E+03  0.45733070228E+03  0.00000000000E+00 0.  1.
         21   -1    0    0  501  503 -0.00000000000E+00 -0.00000000000E+00 -0.13994248424E+03  0.13994248424E+03  0.00000000000E+00 0. -1.
          6    1    1    2  501    0  0.15016226923E+03  0.17444167024E+02  0.31757146591E+02  0.23118287658E+03  0.17200000000E+03 0. -1.
         -6    1    1    2    0  502 -0.15016226923E+03 -0.17444167024E+02  0.28563107144E+03  0.36609030994E+03  0.17200000000E+03 0.  1.
</event>
<event>
 4    1  0.4450588E+000  0.1855042E+03  0.7818608E-02  0.1162580E+00
         21   -1    0    0  501  502  0.00000000000E+00  0.00000000000E+00  0.10402914631E+03  0.10402914631E+03  0.00000000000E+00 0.  1.
         21   -1    0    0  502  503 -0.00000000000E+00 -0.00000000000E+00 -0.33126025157E+03  0.33126025157E+03  0.00000000000E+00 0.  1.
          6    1    1    2  501    0 -0.36962020447E+02  0.58835369257E+02 -0.10541446407E+03  0.21336354156E+03  0.17200000000E+03 0.  1.
         -6    1    1    2    0  503  0.36962020447E+02 -0.58835369257E+02 -0.12181664120E+03  0.22192585632E+03  0.17200000000E+03 0.  1.
</event>
<event>
 4    1  0.4450588E+000  0.1839969E+03  0.7818608E-02  0.1163990E+00
         21   -1    0    0  501  502  0.00000000000E+00  0.00000000000E+00  0.13572392266E+03  0.13572392266E+03  0.00000000000E+00 0.  1.
         21   -1    0    0  502  503 -0.00000000000E+00 -0.00000000000E+00 -0.56076767735E+03  0.56076767735E+03  0.00000000000E+00 0.  1.
          6    1    1    2  501    0  0.64074192874E+02 -0.12859209731E+02  0.46958100099E+02  0.18989450922E+03  0.17200000000E+03 0.  1.
         -6    1    1    2    0  503 -0.64074192874E+02  0.12859209731E+02 -0.47200185479E+03  0.50659709079E+03  0.17200000000E+03 0.  1.
</event>
<event>
 4    1  0.4450588E+000  0.1836606E+03  0.7818608E-02  0.1164307E+00
         21   -1    0    0  503  502  0.00000000000E+00  0.00000000000E+00  0.72283444868E+02  0.72283444868E+02  0.00000000000E+00 0.  1.
         21   -1    0    0  501  503 -0.00000000000E+00 -0.00000000000E+00 -0.68839279305E+03  0.68839279305E+03  0.00000000000E+00 0. -1.
          6    1    1    2  501    0  0.37915654973E+01  0.64287259800E+02 -0.52391573659E+03  0.55517468133E+03  0.17200000000E+03 0. -1.
         -6    1    1    2    0  502 -0.37915654973E+01 -0.64287259800E+02 -0.92193611588E+02  0.20550155659E+03  0.17200000000E+03 0.  1.
</event>
<event>
 4    1  0.4450588E+000  0.2724279E+03  0.7818608E-02  0.1099898E+00
         21   -1    0    0  501  502  0.00000000000E+00  0.00000000000E+00  0.21977284844E+03  0.21977284844E+03  0.00000000000E+00 0. -1.
         21   -1    0    0  502  503 -0.00000000000E+00 -0.00000000000E+00 -0.90891613312E+03  0.90891613312E+03  0.00000000000E+00 0.  1.
          6    1    1    2  501    0 -0.14165667843E+03  0.15673660964E+03  0.10281514616E+03  0.29118367679E+03  0.17200000000E+03 0. -1.
         -6    1    1    2    0  503  0.14165667843E+03 -0.15673660964E+03 -0.79195843084E+03  0.83750530478E+03  0.17200000000E+03 0.  1.
</event>
<event>
 4    1  0.4450588E+000  0.1794897E+03  0.7818608E-02  0.1168298E+00
         21   -1    0    0  501  502  0.00000000000E+00  0.00000000000E+00  0.11770047396E+03  0.11770047396E+03  0.00000000000E+00 0.  1.
         21   -1    0    0  502  503 -0.00000000000E+00 -0.00000000000E+00 -0.27719595437E+03  0.27719595437E+03  0.00000000000E+00 0. -1.
          6    1    1    2  501    0  0.38449977609E+02  0.33972690547E+02 -0.57625733875E+02  0.18851331435E+03  0.17200000000E+03 0.  1.
         -6    1    1    2    0  503 -0.38449977609E+02 -0.33972690547E+02 -0.10186974653E+03  0.20638311399E+03  0.17200000000E+03 0. -1.
</event>
<event>
 4    1  0.4450588E+000  0.1739405E+03  0.7818608E-02  0.1173800E+00
         21   -1    0    0  501  502  0.00000000000E+00  0.00000000000E+00  0.79820043609E+02  0.79820043609E+02  0.00000000000E+00 0. -1.
         21   -1    0    0  502  503 -0.00000000000E+00 -0.00000000000E+00 -0.39661412793E+03  0.39661412793E+03  0.00000000000E+00 0. -1.
          6    1    1    2  501    0 -0.23876404503E+02 -0.10060953198E+02 -0.10825791550E+03  0.20487821197E+03  0.17200000000E+03 0.  1.
         -6    1    1    2    0  503  0.23876404503E+02  0.10060953198E+02 -0.20853616882E+03  0.27155595957E+03  0.17200000000E+03 0.  1.
</event>
<event>
 4    1  0.4450588E+000  0.1770980E+03  0.7818608E-02  0.1170642E+00
         21   -1    0    0  503  502  0.00000000000E+00  0.00000000000E+00  0.14142015203E+03  0.14142015203E+03  0.00000000000E+00 0.  1.
         21   -1    0    0  501  503 -0.00000000000E+00 -0.00000000000E+00 -0.30939980473E+03  0.30939980473E+03  0.00000000000E+00 0.  1.
          6    1    1    2  501    0 -0.28534347133E+01 -0.42089749785E+02 -0.20394598084E+03  0.27010674228E+03  0.17200000000E+03 0.  1.
         -6    1    1    2    0  502  0.28534347133E+01  0.42089749785E+02  0.35966328131E+02  0.18071321448E+03  0.17200000000E+03 0.  1.
</event>
<event>
 4    1  0.4450588E+000  0.3110672E+03  0.7818608E-02  0.1079835E+00
         21   -1    0    0  501  502  0.00000000000E+00  0.00000000000E+00  0.16789275072E+03  0.16789275072E+03  0.00000000000E+00 0. -1.
         21   -1    0    0  502  503 -0.00000000000E+00 -0.00000000000E+00 -0.65479841409E+03  0.65479841409E+03  0.00000000000E+00 0.  1.
          6    1    1    2  501    0 -0.88999957855E+02  0.24342921384E+03 -0.38584351756E+03  0.49561879978E+03  0.17200000000E+03 0.  1.
         -6    1    1    2    0  503  0.88999957855E+02 -0.24342921384E+03 -0.10106214581E+03  0.32707236503E+03  0.17200000000E+03 0.  1.
</event>
<event>
 4    1  0.4450588E+000  0.2204830E+03  0.7818608E-02  0.1133523E+00
         21   -1    0    0  501  502  0.00000000000E+00  0.00000000000E+00  0.11452082631E+03  0.11452082631E+03  0.00000000000E+00 0. -1.
         21   -1    0    0  502  503 -0.00000000000E+00 -0.00000000000E+00 -0.52244984571E+03  0.52244984571E+03  0.00000000000E+00 0. -1.
          6    1    1    2  501    0  0.43013034928E+02  0.13106731481E+03 -0.66054835025E+02  0.23016516551E+03  0.17200000000E+03 0. -1.
         -6    1    1    2    0  503 -0.43013034928E+02 -0.13106731481E+03 -0.34187418437E+03  0.40680550650E+03  0.17200000000E+03 0. -1.
</event>
<event>
 4    1  0.4450588E+000  0.1886127E+03  0.7818608E-02  0.1159719E+00
         21   -1    0    0  503  502  0.00000000000E+00  0.00000000000E+00  0.19642886635E+03  0.19642886635E+03  0.00000000000E+00 0.  1.
         21   -1    0    0  501  503 -0.00000000000E+00 -0.00000000000E+00 -0.18568701618E+03  0.18568701618E+03  0.00000000000E+00 0.  1.
          6    1    1    2  501    0 -0.74537250664E+02 -0.20855477493E+02 -0.24633221835E+02  0.19021447972E+03  0.17200000000E+03 0.  1.
         -6    1    1    2    0  502  0.74537250664E+02  0.20855477493E+02  0.35375072005E+02  0.19190140280E+03  0.17200000000E+03 0.  1.
</event>
<event>
 4    1  0.4450588E+000  0.1918574E+03  0.7818608E-02  0.1156797E+00
         21   -1    0    0  503  502  0.00000000000E+00  0.00000000000E+00  0.20852053531E+03  0.20852053531E+03  0.00000000000E+00 0. -1.
         21   -1    0    0  501  503 -0.00000000000E+00 -0.00000000000E+00 -0.26778464443E+03  0.26778464443E+03  0.00000000000E+00 0. -1.
          6    1    1    2  501    0 -0.64320902040E+02  0.55570410056E+02 -0.16865933201E+03  0.25545101133E+03  0.17200000000E+03 0. -1.
         -6    1    1    2    0  502  0.64320902040E+02 -0.55570410056E+02  0.10939522290E+03  0.22085416841E+03  0.17200000000E+03 0. -1.
</event>
<event>
 4    1  0.4450588E+000  0.1932082E+03  0.7818608E-02  0.1155599E+00
         21   -1    0    0  501  502  0.00000000000E+00  0.00000000000E+00  0.21317673869E+04  0.21317673869E+04  0.00000000000E+00 0.  1.
         21   -1    0    0  502  503 -0.00000000000E+00 -0.00000000000E+00 -0.80546839855E+02  0.80546839855E+02  0.00000000000E+00 0. -1.
          6    1    1    2  501    0 -0.87909183436E+02  0.41679816370E+01  0.20041676753E+04  0.20134590801E+04  0.17200000000E+03 0.  1.
         -6    1    1    2    0  503  0.87909183436E+02 -0.41679816370E+01  0.47052871745E+02  0.19885514663E+03  0.17200000000E+03 0. -1.
</event>
<event>
 4    1  0.4450588E+000  0.2451139E+03  0.7818608E-02  0.1116432E+00
         21   -1    0    0  503  502  0.00000000000E+00  0.00000000000E+00  0.55208876123E+02  0.55208876123E+02  0.00000000000E+00 0.  1.
         21   -1    0    0  501  503 -0.00000000000E+00 -0.00000000000E+00 -0.17310137865E+04  0.17310137865E+04  0.00000000000E+00 0. -1.
          6    1    1    2  501    0 -0.50719039719E+02  0.16710592990E+03 -0.13821325399E+04  0.14036991026E+04  0.17200000000E+03 0.  1.
         -6    1    1    2    0  502  0.50719039719E+02 -0.16710592990E+03 -0.29367237054E+03  0.38252356008E+03  0.17200000000E+03 0.  1.
</event>
<event>
 4    1  0.4450588E+000  0.1910646E+03  0.7818608E-02  0.1157505E+00
         21   -1    0    0  501  502  0.00000000000E+00  0.00000000000E+00  0.13564950725E+03  0.13564950725E+03  0.00000000000E+00 0. -1.
         21   -1    0    0  502  503 -0.00000000000E+00 -0.00000000000E+00 -0.26949865409E+03  0.26949865409E+03  0.00000000000E+00 0. -1.
          6    1    1    2  501    0  0.35324571689E+02  0.75324893521E+02 -0.59306951641E+02  0.20005744041E+03  0.17200000000E+03 0. -1.
         -6    1    1    2    0  503 -0.35324571689E+02 -0.75324893521E+02 -0.74542195201E+02  0.20509072094E+03  0.17200000000E+03 0. -1.
</event>
<event>
 4    1  0.4450588E+000  0.1777479E+03  0.7818608E-02  0.1170001E+00
         21   -1    0    0  501  502  0.00000000000E+00  0.00000000000E+00  0.28149816922E+04  0.28149816922E+04  0.00000000000E+00 0. -1.
         21   -1    0    0  502  503 -0.00000000000E+00 -0.00000000000E+00 -0.15442565011E+02  0.15442565011E+02  0.00000000000E+00 0. -1.
          6    1    1    2  501    0 -0.43251269120E+02 -0.11817572553E+02  0.66005702823E+03  0.68357121635E+03  0.17200000000E+03 0. -1.
         -6    1    1    2    0  503  0.43251269120E+02  0.11817572553E+02  0.21394820989E+04  0.21468530409E+04  0.17200000000E+03 0. -1.
</event>
<event>
 4    1  0.4450588E+000  0.1945218E+03  0.7818608E-02  0.1154445E+00
         21   -1    0    0  501  502  0.00000000000E+00  0.00000000000E+00  0.88440447824E+03  0.88440447824E+03  0.00000000000E+00 0.  1.
         21   -1    0    0  502  503 -0.00000000000E+00 -0.00000000000E+00 -0.57741972887E+02  0.57741972887E+02  0.00000000000E+00 0.  1.
          6    1    1    2  501    0  0.25843233781E+01 -0.90818724236E+02  0.65308925019E+03  0.68144279886E+03  0.17200000000E+03 0.  1.
         -6    1    1    2    0  503 -0.25843233781E+01  0.90818724236E+02  0.17357325516E+03  0.26070365227E+03  0.17200000000E+03 0.  1.
</event>
<event>
 4    1  0.4450588E+000  0.1764548E+03  0.7818608E-02  0.1171279E+00
         21   -1    0    0  501  502  0.00000000000E+00  0.00000000000E+00  0.37275654432E+03  0.37275654432E+03  0.00000000000E+00 0. -1.
         21   -1    0    0  502  503 -0.00000000000E+00 -0.00000000000E+00 -0.12422130919E+03  0.12422130919E+03  0.00000000000E+00 0. -1.
          6    1    1    2  501    0 -0.32012644992E+02  0.22967264708E+02  0.26648756993E+03  0.31961215499E+03  0.17200000000E+03 0. -1.
         -6    1    1    2    0  503  0.32012644992E+02 -0.22967264708E+02 -0.17952334794E+02  0.17736569852E+03  0.17200000000E+03 0. -1.
</event>
<event>
 4    1  0.4450588E+000  0.1856026E+03  0.7818608E-02  0.1162488E+00
         21   -1    0    0  501  502  0.00000000000E+00  0.00000000000E+00  0.14420857539E+03  0.14420857539E+03  0.00000000000E+00 0. -1.
         21   -1    0    0  502  503 -0.00000000000E+00 -0.00000000000E+00 -0.65905403334E+03  0.65905403334E+03  0.00000000000E+00 0.  1.
          6    1    1    2  501    0 -0.69598938485E+02  0.45050966998E+01  0.63265113947E+02  0.19608871150E+03  0.17200000000E+03 0. -1.
         -6    1    1    2    0  503  0.69598938485E+02 -0.45050966998E+01 -0.57811057190E+03  0.60717389723E+03  0.17200000000E+03 0.  1.
</event>
<event>
 4    1  0.4450588E+000  0.2080313E+03  0.7818608E-02  0.1143135E+00
         21   -1    0    0  503  502  0.00000000000E+00  0.00000000000E+00  0.26706897481E+04  0.26706897481E+04  0.00000000000E+00 0. -1.
         21   -1    0    0  501  503 -0.00000000000E+00 -0.00000000000E+00 -0.17534712504E+02  0.17534712504E+02  0.00000000000E+00 0. -1.
          6    1    1    2  501    0  0.89487579405E+02  0.75398828744E+02  0.95635926096E+03  0.97872368229E+03  0.17200000000E+03 0. -1.
         -6    1    1    2    0  502 -0.89487579405E+02 -0.75398828744E+02  0.16967957746E+04  0.17095007783E+04  0.17200000000E+03 0. -1.
</event>
<event>
 4    1  0.4450588E+000  0.1749096E+03  0.7818608E-02  0.1172822E+00
         21   -1    0    0  501  502  0.00000000000E+00  0.00000000000E+00  0.68068272563E+02  0.68068272563E+02  0.00000000000E+00 0.  1.
         21   -1    0    0  502  503 -0.00000000000E+00 -0.00000000000E+00 -0.51317404648E+03  0.51317404648E+03  0.00000000000E+00 0.  1.
          6    1    1    2  501    0  0.19507391788E+02  0.25076726819E+02 -0.12014302444E+03  0.21219737718E+03  0.17200000000E+03 0.  1.
         -6    1    1    2    0  503 -0.19507391788E+02 -0.25076726819E+02 -0.32496274948E+03  0.36904494186E+03  0.17200000000E+03 0.  1.
</event>
<event>
 4    1  0.4450588E+000  0.1834950E+03  0.7818608E-02  0.1164463E+00
         21   -1    0    0  501  502  0.00000000000E+00  0.00000000000E+00  0.12962949568E+03  0.12962949568E+03  0.00000000000E+00 0. -1.
         21   -1    0    0  502  503 -0.00000000000E+00 -0.00000000000E+00 -0.26112465313E+03  0.26112465313E+03  0.00000000000E+00 0. -1.
          6    1    1    2  501    0  0.33694413633E+02  0.54324193136E+02 -0.51538845962E+02  0.19059560360E+03  0.17200000000E+03 0.  1.
         -6    1    1    2    0  503 -0.33694413633E+02 -0.54324193136E+02 -0.79956311494E+02  0.20015854520E+03  0.17200000000E+03 0.  1.
</event>
<event>
 4    1  0.4450588E+000  0.1875243E+03  0.7818608E-02  0.1160713E+00
         21   -1    0    0  501  502  0.00000000000E+00  0.00000000000E+00  0.59176383518E+03  0.59176383518E+03  0.00000000000E+00 0.  1.
         21   -1    0    0  502  503 -0.00000000000E+00 -0.00000000000E+00 -0.65126310342E+02  0.65126310342E+02  0.00000000000E+00 0.  1.
          6    1    1    2  501    0 -0.44188821128E+02 -0.60238809936E+02  0.16613701316E+03  0.25053317800E+03  0.17200000000E+03 0. -1.
         -6    1    1    2    0  503  0.44188821128E+02  0.60238809936E+02  0.36050051168E+03  0.40635696752E+03  0.17200000000E+03 0. -1.
</event>
<event>
 4    1  0.4450588E+000  0.1784437E+03  0.7818608E-02  0.1169318E+00
         21   -1    0    0  503  502  0.00000000000E+00  0.00000000000E+00  0.72073640357E+02  0.72073640357E+02  0.00000000000E+00 0. -1.
         21   -1    0    0  501  503 -0.00000000000E+00 -0.00000000000E+00 -0.55619461347E+03  0.55619461347E+03  0.00000000000E+00 0. -1.
          6    1    1    2  501    0  0.44921323816E+02 -0.15499604504E+02 -0.99596937068E+02  0.20435682750E+03  0.17200000000E+03 0. -1.
         -6    1    1    2    0  502 -0.44921323816E+02  0.15499604504E+02 -0.38452403605E+03  0.42391142633E+03  0.17200000000E+03 0. -1.
</event>
<event>
 4    1  0.4450588E+000  0.2367078E+03  0.7818608E-02  0.1122006E+00
         21   -1    0    0  501  502  0.00000000000E+00  0.00000000000E+00  0.26625329486E+03  0.26625329486E+03  0.00000000000E+00 0. -1.
         21   -1    0    0  502  503 -0.00000000000E+00 -0.00000000000E+00 -0.21100608828E+03  0.21100608828E+03  0.00000000000E+00 0.  1.
          6    1    1    2  501    0  0.21011613325E+02  0.16126090795E+03  0.39974393121E+02  0.24005941021E+03  0.17200000000E+03 0. -1.
         -6    1    1    2    0  503 -0.21011613325E+02 -0.16126090795E+03  0.15272813453E+02  0.23719997293E+03  0.17200000000E+03 0.  1.
</event>
<event>
 4    1  0.4450588E+000  0.1917725E+03  0.7818608E-02  0.1156872E+00
         21   -1    0    0  501  502  0.00000000000E+00  0.00000000000E+00  0.89754993827E+03  0.89754993827E+03  0.00000000000E+00 0.  1.
         21   -1    0    0  502  503 -0.00000000000E+00 -0.00000000000E+00 -0.91403620428E+02  0.91403620428E+02  0.00000000000E+00 0. -1.
          6    1    1    2  501    0  0.84678431724E+02 -0.47155468317E+01  0.77035954927E+03  0.79387058664E+03  0.17200000000E+03 0.  1.
         -6    1    1    2    0  503 -0.84678431724E+02  0.47155468317E+01  0.35786768569E+02  0.19508297205E+03  0.17200000000E+03 0. -1.
</event>
<event>
 4    1  0.4450588E+000  0.2995506E+03  0.7818608E-02  0.1085465E+00
         21   -1    0    0  501  502  0.00000000000E+00  0.00000000000E+00  0.49321873686E+02  0.49321873686E+02  0.00000000000E+00 0.  1.
         21   -1    0    0  502  503 -0.00000000000E+00 -0.00000000000E+00 -0.20215765986E+04  0.20215765986E+04  0.00000000000E+00 0.  1.
          6    1    1    2  501    0 -0.12669487108E+03 -0.20998797981E+03 -0.13136736629E+04  0.13473934224E+04  0.17200000000E+03 0.  1.
         -6    1    1    2    0  503  0.12669487108E+03  0.20998797981E+03 -0.65858106199E+03  0.72350504990E+03  0.17200000000E+03 0.  1.
</event>
<event>
 4    1  0.4450588E+000  0.3747116E+03  0.7818608E-02  0.1052906E+00
         21   -1    0    0  503  502  0.00000000000E+00  0.00000000000E+00  0.10780341611E+04  0.10780341611E+04  0.00000000000E+00 0.  1.
         21   -1    0    0  501  503 -0.00000000000E+00 -0.00000000000E+00 -0.18064977015E+03  0.18064977015E+03  0.00000000000E+00 0.  1.
          6    1    1    2  501    0 -0.33095315236E+03  0.35983004991E+02  0.11626007480E+03  0.39233298447E+03  0.17200000000E+03 0.  1.
         -6    1    1    2    0  502  0.33095315236E+03 -0.35983004991E+02  0.78112431617E+03  0.86635094680E+03  0.17200000000E+03 0.  1.
</event>
<event>
 4    1  0.4450588E+000  0.2360897E+03  0.7818608E-02  0.1122425E+00
         21   -1    0    0  501  502  0.00000000000E+00  0.00000000000E+00  0.28834303835E+03  0.28834303835E+03  0.00000000000E+00 0.  1.
         21   -1    0    0  502  503 -0.00000000000E+00 -0.00000000000E+00 -0.40187024638E+03  0.40187024638E+03  0.00000000000E+00 0.  1.
          6    1    1    2  501    0  0.30993377991E+02 -0.15872545368E+03  0.19185327586E+03  0.30421380407E+03  0.17200000000E+03 0.  1.
         -6    1    1    2    0  503 -0.30993377991E+02  0.15872545368E+03 -0.30538048390E+03  0.38599948066E+03  0.17200000000E+03 0.  1.
</event>
<event>
 4    1  0.4450588E+000  0.3629839E+03  0.7818608E-02  0.1057409E+00
         21   -1    0    0  503  502  0.00000000000E+00  0.00000000000E+00  0.11239267023E+03  0.11239267023E+03  0.00000000000E+00 0.  1.
         21   -1    0    0  501  503 -0.00000000000E+00 -0.00000000000E+00 -0.13154477513E+04  0.13154477513E+04  0.00000000000E+00 0.  1.
          6    1    1    2  501    0 -0.30668100961E+03  0.90111442530E+02 -0.83703974726E+03  0.91235566103E+03  0.17200000000E+03 0.  1.
         -6    1    1    2    0  502  0.30668100961E+03 -0.90111442530E+02 -0.36601533382E+03  0.51548476051E+03  0.17200000000E+03 0.  1.
</event>
<event>
 4    1  0.4450588E+000  0.2148180E+03  0.7818608E-02  0.1137806E+00
         21   -1    0    0  501  502  0.00000000000E+00  0.00000000000E+00  0.59122637080E+03  0.59122637080E+03  0.00000000000E+00 0.  1.
         21   -1    0    0  502  503 -0.00000000000E+00 -0.00000000000E+00 -0.12461098479E+03  0.12461098479E+03  0.00000000000E+00 0. -1.
          6    1    1    2  501    0  0.58131642976E+02  0.11481929575E+03  0.45208643764E+03  0.50052862625E+03  0.17200000000E+03 0.  1.
         -6    1    1    2    0  503 -0.58131642976E+02 -0.11481929575E+03  0.14528948369E+02  0.21530872934E+03  0.17200000000E+03 0. -1.
</event>
<event>
 4    1  0.4450588E+000  0.2712621E+03  0.7818608E-02  0.1100559E+00
         21   -1    0    0  501  502  0.00000000000E+00  0.00000000000E+00  0.49874874748E+03  0.49874874748E+03  0.00000000000E+00 0. -1.
         21   -1    0    0  502  503 -0.00000000000E+00 -0.00000000000E+00 -0.15179274057E+03  0.15179274057E+03  0.00000000000E+00 0.  1.
          6    1    1    2  501    0 -0.16640830527E+03 -0.12770050673E+03  0.22795132267E+03  0.35432322671E+03  0.17200000000E+03 0. -1.
         -6    1    1    2    0  503  0.16640830527E+03  0.12770050673E+03  0.11900468424E+03  0.29621826134E+03  0.17200000000E+03 0. -1.
</event>
<event>
 4    1  0.4450588E+000  0.2029096E+03  0.7818608E-02  0.1147307E+00
         21   -1    0    0  501  502  0.00000000000E+00  0.00000000000E+00  0.15691694757E+03  0.15691694757E+03  0.00000000000E+00 0. -1.
         21   -1    0    0  502  503 -0.00000000000E+00 -0.00000000000E+00 -0.55472589801E+03  0.55472589801E+03  0.00000000000E+00 0. -1.
          6    1    1    2  501    0 -0.40684109875E+02  0.99665071232E+02  0.59404336601E+02  0.21142657928E+03  0.17200000000E+03 0. -1.
         -6    1    1    2    0  503  0.40684109875E+02 -0.99665071232E+02 -0.45721328704E+03  0.50021626629E+03  0.17200000000E+03 0. -1.
</event>
<event>
 4    1  0.4450588E+000  0.2367834E+03  0.7818608E-02  0.1121954E+00
         21   -1    0    0  501  502  0.00000000000E+00  0.00000000000E+00  0.19540886860E+03  0.19540886860E+03  0.00000000000E+00 0. -1.
         21   -1    0    0  502  503 -0.00000000000E+00 -0.00000000000E+00 -0.30849651550E+03  0.30849651550E+03  0.00000000000E+00 0.  1.
          6    1    1    2  501    0 -0.75080703022E+02  0.14437896813E+03  0.10090916405E+02  0.23699836497E+03  0.17200000000E+03 0. -1.
         -6    1    1    2    0  503  0.75080703022E+02 -0.14437896813E+03 -0.12317856331E+03  0.26690701913E+03  0.17200000000E+03 0. -1.
</event>
<event>
 4    1  0.4450588E+000  0.2227824E+03  0.7818608E-02  0.1131826E+00
         21   -1    0    0  501  502  0.00000000000E+00  0.00000000000E+00  0.32314874771E+03  0.32314874771E+03  0.00000000000E+00 0.  1.
         21   -1    0    0  502  503 -0.00000000000E+00 -0.00000000000E+00 -0.17912385300E+03  0.17912385300E+03  0.00000000000E+00 0.  1.
          6    1    1    2  501    0  0.13436995154E+03 -0.44639645942E+02  0.16683297915E+03  0.27832575303E+03  0.17200000000E+03 0.  1.
         -6    1    1    2    0  503 -0.13436995154E+03  0.44639645942E+02 -0.22808084443E+02  0.22394684767E+03  0.17200000000E+03 0.  1.
</event>
<event>
 4    1  0.4450588E+000  0.1829425E+03  0.7818608E-02  0.1164985E+00
         21   -1    0    0  501  502  0.00000000000E+00  0.00000000000E+00  0.27210223772E+03  0.27210223772E+03  0.00000000000E+00 0. -1.
         21   -1    0    0  502  503 -0.00000000000E+00 -0.00000000000E+00 -0.12585543424E+03  0.12585543424E+03  0.00000000000E+00 0. -1.
          6    1    1    2  501    0 -0.39786552308E+02 -0.47968555134E+02  0.43139987377E+02  0.18796013018E+03  0.17200000000E+03 0. -1.
         -6    1    1    2    0  503  0.39786552308E+02  0.47968555134E+02  0.10310681610E+03  0.20999754178E+03  0.17200000000E+03 0. -1.
</event>
<event>
 4    1  0.4450588E+000  0.1937646E+03  0.7818608E-02  0.1155109E+00
         21   -1    0    0  503  502  0.00000000000E+00  0.00000000000E+00  0.18782192426E+03  0.18782192426E+03  0.00000000000E+00 0. -1.
         21   -1    0    0  501  503 -0.00000000000E+00 -0.00000000000E+00 -0.14791759999E+04  0.14791759999E+04  0.00000000000E+00 0.  1.
          6    1    1    2  501    0 -0.54162496130E+02 -0.70902249306E+02 -0.14208133367E+04  0.14339648681E+04  0.17200000000E+03 0.  1.
         -6    1    1    2    0  502  0.54162496130E+02  0.70902249306E+02  0.12945926111E+03  0.23303305609E+03  0.17200000000E+03 0. -1.
</event>
<event>
 4    1  0.4450588E+000  0.1918560E+03  0.7818608E-02  0.1156798E+00
         21   -1    0    0  503  502  0.00000000000E+00  0.00000000000E+00  0.68306915249E+03  0.68306915249E+03  0.00000000000E+00 0. -1.
         21   -1    0    0  501  503 -0.00000000000E+00 -0.00000000000E+00 -0.21560865077E+03  0.21560865077E+03  0.00000000000E+00 0. -1.
          6    1    1    2  501    0 -0.75712187257E+02  0.38631618099E+02 -0.15542656227E+03  0.24691325091E+03  0.17200000000E+03 0. -1.
         -6    1    1    2    0  502  0.75712187257E+02 -0.38631618099E+02  0.62288706399E+03  0.65176455235E+03  0.17200000000E+03 0. -1.
</event>
<event>
 4    1  0.4450588E+000  0.1880094E+03  0.7818608E-02  0.1160269E+00
         21   -1    0    0  503  502  0.00000000000E+00  0.00000000000E+00  0.16182581270E+03  0.16182581270E+03  0.00000000000E+00 0. -1.
         21   -1    0    0  501  503 -0.00000000000E+00 -0.00000000000E+00 -0.36102757947E+03  0.36102757947E+03  0.00000000000E+00 0. -1.
          6    1    1    2  501    0 -0.12367417314E+02  0.74903909310E+02 -0.26390045083E+03  0.32402314206E+03  0.17200000000E+03 0. -1.
         -6    1    1    2    0  502  0.12367417314E+02 -0.74903909310E+02  0.64698684064E+02  0.19883025011E+03  0.17200000000E+03 0. -1.
</event>
<event>
 4    1  0.4450588E+000  0.1800899E+03  0.7818608E-02  0.1167716E+00
         21   -1    0    0  501  502  0.00000000000E+00  0.00000000000E+00  0.42573736692E+02  0.42573736692E+02  0.00000000000E+00 0.  1.
         21   -1    0    0  502  503 -0.00000000000E+00 -0.00000000000E+00 -0.10395395497E+04  0.10395395497E+04  0.00000000000E+00 0. -1.
          6    1    1    2  501    0 -0.48809532273E+02 -0.21586814643E+02 -0.21881230841E+03  0.28339228522E+03  0.17200000000E+03 0.  1.
         -6    1    1    2    0  503  0.48809532273E+02  0.21586814643E+02 -0.77815350458E+03  0.79872100117E+03  0.17200000000E+03 0. -1.
</event>
<event>
 4    1  0.4450588E+000  0.1772379E+03  0.7818608E-02  0.1170503E+00
         21   -1    0    0  501  502  0.00000000000E+00  0.00000000000E+00  0.44622647236E+03  0.44622647236E+03  0.00000000000E+00 0.  1.
         21   -1    0    0  502  503 -0.00000000000E+00 -0.00000000000E+00 -0.89662509381E+02  0.89662509381E+02  0.00000000000E+00 0.  1.
          6    1    1    2  501    0 -0.41358607229E+02  0.10896831619E+02  0.30248232771E+03  0.35058356195E+03  0.17200000000E+03 0.  1.
         -6    1    1    2    0  503  0.41358607229E+02 -0.10896831619E+02  0.54081635269E+02  0.18530541979E+03  0.17200000000E+03 0.  1.
</event>
<event>
 4    1  0.4450588E+000  0.1816326E+03  0.7818608E-02  0.1166232E+00
         21   -1    0    0  501  502  0.00000000000E+00  0.00000000000E+00  0.72239383334E+02  0.72239383334E+02  0.00000000000E+00 0.  1.
         21   -1    0    0  502  503 -0.00000000000E+00 -0.00000000000E+00 -0.56367948542E+03  0.56367948542E+03  0.00000000000E+00 0.  1.
          6    1    1    2  501    0 -0.26277065089E+02  0.52114519431E+02 -0.10719034452E+03  0.21090324143E+03  0.17200000000E+03 0.  1.
         -6    1    1    2    0  503  0.26277065089E+02 -0.52114519431E+02 -0.38424975756E+03  0.42501562733E+03  0.17200000000E+03 0.  1.
</event>
<event>
 4    1  0.4450588E+000  0.1913050E+03  0.7818608E-02  0.1157290E+00
         21   -1    0    0  503  502  0.00000000000E+00  0.00000000000E+00  0.38325141139E+02  0.38325141139E+02  0.00000000000E+00 0.  1.
         21   -1    0    0  501  503 -0.00000000000E+00 -0.00000000000E+00 -0.12591198282E+04  0.12591198282E+04  0.00000000000E+00 0. -1.
          6    1    1    2  501    0 -0.16340669259E+02 -0.82137679080E+02 -0.92925855911E+03  0.94874605953E+03  0.17200000000E+03 0.  1.
         -6    1    1    2    0  502  0.16340669259E+02  0.82137679080E+02 -0.29153612791E+03  0.34869890977E+03  0.17200000000E+03 0.  1.
</event>
<event>
 4    1  0.4450588E+000  0.1983695E+03  0.7818608E-02  0.1151122E+00
         21   -1    0    0  501  502  0.00000000000E+00  0.00000000000E+00  0.15767851347E+04  0.15767851347E+04  0.00000000000E+00 0.  1.
         21   -1    0    0  502  503 -0.00000000000E+00 -0.00000000000E+00 -0.31434220188E+02  0.31434220188E+02  0.00000000000E+00 0.  1.
          6    1    1    2  501    0 -0.55794672823E+02 -0.81568501652E+02  0.40763819313E+03  0.45334243401E+03  0.17200000000E+03 0.  1.
         -6    1    1    2    0  503  0.55794672823E+02  0.81568501652E+02  0.11377127213E+04  0.11548769208E+04  0.17200000000E+03 0.  1.
</event>
<event>
 4    1  0.4450588E+000  0.1880707E+03  0.7818608E-02  0.1160213E+00
         21   -1    0    0  501  502  0.00000000000E+00  0.00000000000E+00  0.22342494345E+03  0.22342494345E+03  0.00000000000E+00 0.  1.
         21   -1    0    0  502  503 -0.00000000000E+00 -0.00000000000E+00 -0.24075589636E+03  0.24075589636E+03  0.00000000000E+00 0.  1.
          6    1    1    2  501    0 -0.43539870985E+02  0.62376970381E+02  0.12715050155E+03  0.22701950763E+03  0.17200000000E+03 0.  1.
         -6    1    1    2    0  503  0.43539870985E+02 -0.62376970381E+02 -0.14448145446E+03  0.23716133218E+03  0.17200000000E+03 0.  1.
</event>
<event>
 4    1  0.4450588E+000  0.1786014E+03  0.7818608E-02  0.1169164E+00
         21   -1    0    0  503  502  0.00000000000E+00  0.00000000000E+00  0.28408961475E+03  0.28408961475E+03  0.00000000000E+00 0. -1.
         21   -1    0    0  501  503 -0.00000000000E+00 -0.00000000000E+00 -0.17749966494E+03  0.17749966494E+03  0.00000000000E+00 0. -1.
          6    1    1    2  501    0  0.99709865671E+01 -0.47064194437E+02 -0.86601236152E+02  0.19848988154E+03  0.17200000000E+03 0. -1.
         -6    1    1    2    0  502 -0.99709865671E+01  0.47064194437E+02  0.19319118597E+03  0.26309939815E+03  0.17200000000E+03 0. -1.
</event>
<event>
 4    1  0.4450588E+000  0.1777884E+03  0.7818608E-02  0.1169961E+00
         21   -1    0    0  501  502  0.00000000000E+00  0.00000000000E+00  0.77190778735E+02  0.77190778735E+02  0.00000000000E+00 0. -1.
         21   -1    0    0  502  503 -0.00000000000E+00 -0.00000000000E+00 -0.41048592058E+03  0.41048592058E+03  0.00000000000E+00 0. -1.
          6    1    1    2  501    0 -0.31499762089E+02  0.32132175137E+02 -0.15462600205E+03  0.23562239325E+03  0.17200000000E+03 0. -1.
         -6    1    1    2    0  503  0.31499762089E+02 -0.32132175137E+02 -0.17866913979E+03  0.25205430606E+03  0.17200000000E+03 0. -1.
</event>
<event>
 4    1  0.4450588E+000  0.2723909E+03  0.7818608E-02  0.1099919E+00
         21   -1    0    0  501  502  0.00000000000E+00  0.00000000000E+00  0.44658382098E+03  0.44658382098E+03  0.00000000000E+00 0.  1.
         21   -1    0    0  502  503 -0.00000000000E+00 -0.00000000000E+00 -0.17109854486E+03  0.17109854486E+03  0.00000000000E+00 0.  1.
          6    1    1    2  501    0 -0.19409408463E+03 -0.83308512706E+02  0.19030237963E+03  0.33228273755E+03  0.17200000000E+03 0.  1.
         -6    1    1    2    0  503  0.19409408463E+03  0.83308512706E+02  0.85182896490E+02  0.28539962830E+03  0.17200000000E+03 0.  1.
</event>
<event>
 4    1  0.4450588E+000  0.1960904E+03  0.7818608E-02  0.1153080E+00
         21   -1    0    0  503  502  0.00000000000E+00  0.00000000000E+00  0.12667080191E+03  0.12667080191E+03  0.00000000000E+00 0. -1.
         21   -1    0    0  501  503 -0.00000000000E+00 -0.00000000000E+00 -0.42019379649E+03  0.42019379649E+03  0.00000000000E+00 0. -1.
          6    1    1    2  501    0 -0.73960534262E+02 -0.58286212912E+02 -0.29082307197E+03  0.35075561639E+03  0.17200000000E+03 0. -1.
         -6    1    1    2    0  502  0.73960534262E+02  0.58286212912E+02 -0.26999226151E+01  0.19610898201E+03  0.17200000000E+03 0. -1.
</event>
<event>
 4    1  0.4450588E+000  0.2225696E+03  0.7818608E-02  0.1131982E+00
         21   -1    0    0  503  502  0.00000000000E+00  0.00000000000E+00  0.13330327672E+03  0.13330327672E+03  0.00000000000E+00 0. -1.
         21   -1    0    0  501  503 -0.00000000000E+00 -0.00000000000E+00 -0.13021243864E+04  0.13021243864E+04  0.00000000000E+00 0. -1.
          6    1    1    2  501    0  0.10379795915E+03 -0.95808156402E+02 -0.11911272498E+04  0.12117431017E+04  0.17200000000E+03 0. -1.
         -6    1    1    2    0  502 -0.10379795915E+03  0.95808156402E+02  0.22306140117E+02  0.22368456148E+03  0.17200000000E+03 0. -1.
</event>
<event>
 4    1  0.4450588E+000  0.1853102E+03  0.7818608E-02  0.1162761E+00
         21   -1    0    0  503  502  0.00000000000E+00  0.00000000000E+00  0.68085431082E+03  0.68085431082E+03  0.00000000000E+00 0.  1.
         21   -1    0    0  501  503 -0.00000000000E+00 -0.00000000000E+00 -0.95708543798E+02  0.95708543798E+02  0.00000000000E+00 0.  1.
          6    1    1    2  501    0  0.42548989204E+02 -0.54271992237E+02  0.25526552580E+02  0.18706007193E+03  0.17200000000E+03 0.  1.
         -6    1    1    2    0  502 -0.42548989204E+02  0.54271992237E+02  0.55961921444E+03  0.58950278269E+03  0.17200000000E+03 0.  1.
</event>
<event>
 4    1  0.4450588E+000  0.4415386E+03  0.7818608E-02  0.1030276E+00
         21   -1    0    0  503  502  0.00000000000E+00  0.00000000000E+00  0.15248541937E+04  0.15248541937E+04  0.00000000000E+00 0.  1.
         21   -1    0    0  501  503 -0.00000000000E+00 -0.00000000000E+00 -0.14625406426E+03  0.14625406426E+03  0.00000000000E+00 0. -1.
          6    1    1    2  501    0  0.36843330319E+03  0.17213147013E+03  0.39292026539E+03  0.59105217779E+03  0.17200000000E+03 0. -1.
         -6    1    1    2    0  502 -0.36843330319E+03 -0.17213147013E+03  0.98567986403E+03  0.10800560801E+04  0.17200000000E+03 0.  1.
</event>
<event>
 4    1  0.4450588E+000  0.2713516E+03  0.7818608E-02  0.1100509E+00
         21   -1    0    0  503  502  0.00000000000E+00  0.00000000000E+00  0.30938980461E+03  0.30938980461E+03  0.00000000000E+00 0. -1.
         21   -1    0    0  501  503 -0.00000000000E+00 -0.00000000000E+00 -0.33480889077E+03  0.33480889077E+03  0.00000000000E+00 0. -1.
          6    1    1    2  501    0 -0.10667250107E+03  0.18074480019E+03 -0.18591884822E+03  0.32893391951E+03  0.17200000000E+03 0. -1.
         -6    1    1    2    0  502  0.10667250107E+03 -0.18074480019E+03  0.16049976206E+03  0.31526477587E+03  0.17200000000E+03 0. -1.
</event>
<event>
 4    1  0.4450588E+000  0.1980911E+03  0.7818608E-02  0.1151360E+00
         21   -1    0    0  503  502  0.00000000000E+00  0.00000000000E+00  0.15312159984E+04  0.15312159984E+04  0.00000000000E+00 0. -1.
         21   -1    0    0  501  503 -0.00000000000E+00 -0.00000000000E+00 -0.32148277913E+02  0.32148277913E+02  0.00000000000E+00 0. -1.
          6    1    1    2  501    0 -0.93718853714E+02 -0.29544009396E+02  0.39746599118E+03  0.44409378084E+03  0.17200000000E+03 0. -1.
         -6    1    1    2    0  502  0.93718853714E+02  0.29544009396E+02  0.11016017293E+04  0.11192704955E+04  0.17200000000E+03 0. -1.
</event>
<event>
 4    1  0.4450588E+000  0.2585477E+03  0.7818608E-02  0.1108019E+00
         21   -1    0    0  503  502  0.00000000000E+00  0.00000000000E+00  0.31515887795E+03  0.31515887795E+03  0.00000000000E+00 0. -1.
         21   -1    0    0  501  503 -0.00000000000E+00 -0.00000000000E+00 -0.22356894705E+03  0.22356894705E+03  0.00000000000E+00 0. -1.
          6    1    1    2  501    0 -0.14049379208E+03 -0.13237973042E+03 -0.15199896622E+02  0.25899408390E+03  0.17200000000E+03 0. -1.
         -6    1    1    2    0  502  0.14049379208E+03  0.13237973042E+03  0.10678982752E+03  0.27973374109E+03  0.17200000000E+03 0. -1.
</event>
<event>
 4    1  0.4450588E+000  0.1815017E+03  0.7818608E-02  0.1166358E+00
         21   -1    0    0  503  502  0.00000000000E+00  0.00000000000E+00  0.64431297354E+03  0.64431297354E+03  0.00000000000E+00 0. -1.
         21   -1    0    0  501  503 -0.00000000000E+00 -0.00000000000E+00 -0.24950801492E+03  0.24950801492E+03  0.00000000000E+00 0. -1.
          6    1    1    2  501    0  0.87554085564E+01  0.57290652647E+02 -0.20109585468E+03  0.27089189510E+03  0.17200000000E+03 0. -1.
         -6    1    1    2    0  502 -0.87554085564E+01 -0.57290652647E+02  0.59590081330E+03  0.62292909336E+03  0.17200000000E+03 0. -1.
</event>
<event>
 4    1  0.4450588E+000  0.2217090E+03  0.7818608E-02  0.1132615E+00
         21   -1    0    0  503  502  0.00000000000E+00  0.00000000000E+00  0.19646497650E+03  0.19646497650E+03  0.00000000000E+00 0. -1.
         21   -1    0    0  501  503 -0.00000000000E+00 -0.00000000000E+00 -0.42047496574E+03  0.42047496574E+03  0.00000000000E+00 0. -1.
          6    1    1    2  501    0 -0.13604095342E+03 -0.32615115611E+02 -0.30830596348E+03  0.37974656534E+03  0.17200000000E+03 0. -1.
         -6    1    1    2    0  502  0.13604095342E+03  0.32615115611E+02  0.84295974238E+02  0.23719337690E+03  0.17200000000E+03 0. -1.
</event>
<event>
 4    1  0.4450588E+000  0.2184793E+03  0.7818608E-02  0.1135022E+00
         21   -1    0    0  503  502  0.00000000000E+00  0.00000000000E+00  0.13437323003E+03  0.13437323003E+03  0.00000000000E+00 0.  1.
         21   -1    0    0  501  503 -0.00000000000E+00 -0.00000000000E+00 -0.36266920721E+03  0.36266920721E+03  0.00000000000E+00 0. -1.
          6    1    1    2  501    0 -0.53291546297E+02  0.12373048738E+03 -0.14974475737E+03  0.26487112862E+03  0.17200000000E+03 0.  1.
         -6    1    1    2    0  502  0.53291546297E+02 -0.12373048738E+03 -0.78551219809E+02  0.23217130862E+03  0.17200000000E+03 0. -1.
</event>
<event>
 4    1  0.4450588E+000  0.1893968E+03  0.7818608E-02  0.1159007E+00
         21   -1    0    0  503  502  0.00000000000E+00  0.00000000000E+00  0.14740832899E+03  0.14740832899E+03  0.00000000000E+00 0. -1.
         21   -1    0    0  501  503 -0.00000000000E+00 -0.00000000000E+00 -0.27175416186E+03  0.27175416186E+03  0.00000000000E+00 0. -1.
          6    1    1    2  501    0 -0.79285599561E+02 -0.96074464940E+00 -0.12993565639E+03  0.22968326916E+03  0.17200000000E+03 0.  1.
         -6    1    1    2    0  502  0.79285599561E+02  0.96074464940E+00  0.55898235210E+01  0.18947922170E+03  0.17200000000E+03 0.  1.
</event>
<event>
 4    1  0.4450588E+000  0.2611539E+03  0.7818608E-02  0.1106452E+00
         21   -1    0    0  501  502  0.00000000000E+00  0.00000000000E+00  0.15166853418E+03  0.15166853418E+03  0.00000000000E+00 0. -1.
         21   -1    0    0  502  503 -0.00000000000E+00 -0.00000000000E+00 -0.59038871664E+03  0.59038871664E+03  0.00000000000E+00 0.  1.
          6    1    1    2  501    0  0.93820976855E+01  0.19628894194E+03 -0.38222579764E+02  0.26393623868E+03  0.17200000000E+03 0. -1.
         -6    1    1    2    0  503 -0.93820976855E+01 -0.19628894194E+03 -0.40049760270E+03  0.47812101214E+03  0.17200000000E+03 0. -1.
</event>
<event>
 4    1  0.4450588E+000  0.1990706E+03  0.7818608E-02  0.1150526E+00
         21   -1    0    0  501  502  0.00000000000E+00  0.00000000000E+00  0.12165009882E+03  0.12165009882E+03  0.00000000000E+00 0. -1.
         21   -1    0    0  502  503 -0.00000000000E+00 -0.00000000000E+00 -0.37259269083E+03  0.37259269083E+03  0.00000000000E+00 0.  1.
          6    1    1    2  501    0  0.33473880113E+02  0.94470035025E+02 -0.37861166800E+02  0.20263897976E+03  0.17200000000E+03 0. -1.
         -6    1    1    2    0  503 -0.33473880113E+02 -0.94470035025E+02 -0.21308142522E+03  0.29160380989E+03  0.17200000000E+03 0.  1.
</event>
<event>
 4    1  0.4450588E+000  0.2129572E+03  0.7818608E-02  0.1139245E+00
         21   -1    0    0  501  502  0.00000000000E+00  0.00000000000E+00  0.23074334260E+03  0.23074334260E+03  0.00000000000E+00 0.  1.
         21   -1    0    0  502  503 -0.00000000000E+00 -0.00000000000E+00 -0.12133067552E+04  0.12133067552E+04  0.00000000000E+00 0.  1.
          6    1    1    2  501    0  0.12497280213E+03  0.12189577975E+02  0.16968132856E+03  0.27229127850E+03  0.17200000000E+03 0.  1.
         -6    1    1    2    0  503 -0.12497280213E+03 -0.12189577975E+02 -0.11522447412E+04  0.11717588193E+04  0.17200000000E+03 0.  1.
</event>
<event>
 4    1  0.4450588E+000  0.1979681E+03  0.7818608E-02  0.1151465E+00
         21   -1    0    0  503  502  0.00000000000E+00  0.00000000000E+00  0.83789341371E+03  0.83789341371E+03  0.00000000000E+00 0. -1.
         21   -1    0    0  501  503 -0.00000000000E+00 -0.00000000000E+00 -0.14404201208E+03  0.14404201208E+03  0.00000000000E+00 0.  1.
          6    1    1    2  501    0  0.67614520209E+02  0.70962381962E+02 -0.56528286720E+02  0.20588062123E+03  0.17200000000E+03 0.  1.
         -6    1    1    2    0  502 -0.67614520209E+02 -0.70962381962E+02  0.75037968835E+03  0.77605480456E+03  0.17200000000E+03 0. -1.
</event>
<event>
 4    1  0.4450588E+000  0.1731825E+03  0.7818608E-02  0.1174569E+00
         21   -1    0    0  501  502  0.00000000000E+00  0.00000000000E+00  0.16298520814E+02  0.16298520814E+02  0.00000000000E+00 0. -1.
         21   -1    0    0  502  503 -0.00000000000E+00 -0.00000000000E+00 -0.18415061046E+04  0.18415061046E+04  0.00000000000E+00 0. -1.
          6    1    1    2  501    0  0.32874103398E+01  0.19933818397E+02 -0.93755850304E+03  0.95341916847E+03  0.17200000000E+03 0.  1.
         -6    1    1    2    0  503 -0.32874103398E+01 -0.19933818397E+02 -0.88764908076E+03  0.90438545696E+03  0.17200000000E+03 0.  1.
</event>
<event>
 4    1  0.4450588E+000  0.1834426E+03  0.7818608E-02  0.1164512E+00
         21   -1    0    0  501  502  0.00000000000E+00  0.00000000000E+00  0.52264611726E+02  0.52264611726E+02  0.00000000000E+00 0. -1.
         21   -1    0    0  502  503 -0.00000000000E+00 -0.00000000000E+00 -0.19561805271E+04  0.19561805271E+04  0.00000000000E+00 0. -1.
          6    1    1    2  501    0 -0.63723933173E+02  0.25381170045E+01 -0.12944037228E+03  0.22451278733E+03  0.17200000000E+03 0. -1.
         -6    1    1    2    0  503  0.63723933173E+02 -0.25381170045E+01 -0.17744755430E+04  0.17839323515E+04  0.17200000000E+03 0. -1.
</event>
<event>
 4    1  0.4450588E+000  0.1976321E+03  0.7818608E-02  0.1151752E+00
         21   -1    0    0  501  502  0.00000000000E+00  0.00000000000E+00  0.20538935341E+03  0.20538935341E+03  0.00000000000E+00 0.  1.
         21   -1    0    0  502  503 -0.00000000000E+00 -0.00000000000E+00 -0.51600692228E+03  0.51600692228E+03  0.00000000000E+00 0.  1.
          6    1    1    2  501    0 -0.38823500109E+02  0.89259134510E+02  0.13131861198E+03  0.23728260599E+03  0.17200000000E+03 0.  1.
         -6    1    1    2    0  503  0.38823500109E+02 -0.89259134510E+02 -0.44193618085E+03  0.48411366971E+03  0.17200000000E+03 0.  1.
</event>
<event>
 4    1  0.4450588E+000  0.1974205E+03  0.7818608E-02  0.1151934E+00
         21   -1    0    0  503  502  0.00000000000E+00  0.00000000000E+00  0.50146413299E+03  0.50146413299E+03  0.00000000000E+00 0.  1.
         21   -1    0    0  501  503 -0.00000000000E+00 -0.00000000000E+00 -0.10914162141E+03  0.10914162141E+03  0.00000000000E+00 0. -1.
          6    1    1    2  501    0 -0.86171203651E+02  0.44332525598E+02  0.32353134825E+02  0.20005392897E+03  0.17200000000E+03 0. -1.
         -6    1    1    2    0  502  0.86171203651E+02 -0.44332525598E+02  0.35996937675E+03  0.41055182543E+03  0.17200000000E+03 0. -1.
</event>
<event>
 4    1  0.4450588E+000  0.2331069E+03  0.7818608E-02  0.1124472E+00
         21   -1    0    0  501  502  0.00000000000E+00  0.00000000000E+00  0.22418047975E+03  0.22418047975E+03  0.00000000000E+00 0. -1.
         21   -1    0    0  502  503 -0.00000000000E+00 -0.00000000000E+00 -0.25242243537E+03  0.25242243537E+03  0.00000000000E+00 0.  1.
          6    1    1    2  501    0 -0.10504755501E+03  0.11713164294E+03  0.33390055342E+02  0.23548610657E+03  0.17200000000E+03 0. -1.
         -6    1    1    2    0  503  0.10504755501E+03 -0.11713164294E+03 -0.61632010968E+02  0.24111680855E+03  0.17200000000E+03 0.  1.
</event>
<event>
 4    1  0.4450588E+000  0.2253889E+03  0.7818608E-02  0.1129928E+00
         21   -1    0    0  503  502  0.00000000000E+00  0.00000000000E+00  0.66325540450E+03  0.66325540450E+03  0.00000000000E+00 0. -1.
         21   -1    0    0  501  503 -0.00000000000E+00 -0.00000000000E+00 -0.76697125011E+02  0.76697125011E+02  0.00000000000E+00 0. -1.
          6    1    1    2  501    0  0.14406716975E+03  0.21466216603E+02  0.27959059923E+03  0.35912539736E+03  0.17200000000E+03 0. -1.
         -6    1    1    2    0  502 -0.14406716975E+03 -0.21466216603E+02  0.30696768026E+03  0.38082713214E+03  0.17200000000E+03 0. -1.
</event>
<event>
 4    1  0.4450588E+000  0.1825345E+03  0.7818608E-02  0.1165372E+00
         21   -1    0    0  501  502  0.00000000000E+00  0.00000000000E+00  0.11979169462E+03  0.11979169462E+03  0.00000000000E+00 0.  1.
         21   -1    0    0  502  503 -0.00000000000E+00 -0.00000000000E+00 -0.29455189898E+03  0.29455189898E+03  0.00000000000E+00 0. -1.
          6    1    1    2  501    0 -0.61113317162E+02  0.77140316579E-01 -0.13628261496E+03  0.22779770549E+03  0.17200000000E+03 0. -1.
         -6    1    1    2    0  503  0.61113317162E+02 -0.77140316579E-01 -0.38477589397E+02  0.18654588811E+03  0.17200000000E+03 0.  1.
</event>
<event>
 4    1  0.4450588E+000  0.2069152E+03  0.7818608E-02  0.1144032E+00
         21   -1    0    0  503  502  0.00000000000E+00  0.00000000000E+00  0.62821458704E+02  0.62821458704E+02  0.00000000000E+00 0. -1.
         21   -1    0    0  501  503 -0.00000000000E+00 -0.00000000000E+00 -0.74955340521E+03  0.74955340521E+03  0.00000000000E+00 0.  1.
          6    1    1    2  501    0 -0.56771824359E+02  0.10003423036E+03 -0.22099001273E+03  0.30273829128E+03  0.17200000000E+03 0. -1.
         -6    1    1    2    0  502  0.56771824359E+02 -0.10003423036E+03 -0.46574193378E+03  0.50963657263E+03  0.17200000000E+03 0. -1.
</event>
<event>
 4    1  0.4450588E+000  0.1775754E+03  0.7818608E-02  0.1170170E+00
         21   -1    0    0  501  502  0.00000000000E+00  0.00000000000E+00  0.17706637601E+03  0.17706637601E+03  0.00000000000E+00 0. -1.
         21   -1    0    0  502  503 -0.00000000000E+00 -0.00000000000E+00 -0.18392381881E+03  0.18392381881E+03  0.00000000000E+00 0. -1.
          6    1    1    2  501    0 -0.21863342479E+02  0.38353654626E+02  0.28728527357E+02  0.17988423180E+03  0.17200000000E+03 0.  1.
         -6    1    1    2    0  503  0.21863342479E+02 -0.38353654626E+02 -0.35585970156E+02  0.18110596301E+03  0.17200000000E+03 0.  1.
</event>
<event>
 4    1  0.4450588E+000  0.1913399E+03  0.7818608E-02  0.1157258E+00
         21   -1    0    0  503  502  0.00000000000E+00  0.00000000000E+00  0.24249407730E+03  0.24249407730E+03  0.00000000000E+00 0. -1.
         21   -1    0    0  501  503 -0.00000000000E+00 -0.00000000000E+00 -0.16496043632E+03  0.16496043632E+03  0.00000000000E+00 0. -1.
          6    1    1    2  501    0  0.83577288995E+02  0.64662051397E+01  0.98082512921E+02  0.21501431205E+03  0.17200000000E+03 0. -1.
         -6    1    1    2    0  502 -0.83577288995E+02 -0.64662051397E+01 -0.20548871938E+02  0.19244020158E+03  0.17200000000E+03 0. -1.
</event>
<event>
 4    1  0.4450588E+000  0.1939015E+03  0.7818608E-02  0.1154989E+00
         21   -1    0    0  501  502  0.00000000000E+00  0.00000000000E+00  0.52149915751E+03  0.52149915751E+03  0.00000000000E+00 0. -1.
         21   -1    0    0  502  503 -0.00000000000E+00 -0.00000000000E+00 -0.77322711556E+02  0.77322711556E+02  0.00000000000E+00 0. -1.
          6    1    1    2  501    0  0.88434641287E+02 -0.13896182599E+02  0.29993585396E+03  0.35715445701E+03  0.17200000000E+03 0. -1.
         -6    1    1    2    0  503 -0.88434641287E+02  0.13896182599E+02  0.14424059199E+03  0.24166741205E+03  0.17200000000E+03 0. -1.
</event>
<event>
 4    1  0.4450588E+000  0.2110528E+03  0.7818608E-02  0.1140735E+00
         21   -1    0    0  503  502  0.00000000000E+00  0.00000000000E+00  0.11060491959E+03  0.11060491959E+03  0.00000000000E+00 0.  1.
         21   -1    0    0  501  503 -0.00000000000E+00 -0.00000000000E+00 -0.49708318823E+03  0.49708318823E+03  0.00000000000E+00 0.  1.
          6    1    1    2  501    0  0.30476597836E+02 -0.11845024491E+03 -0.32562076358E+03  0.38803629368E+03  0.17200000000E+03 0.  1.
         -6    1    1    2    0  502 -0.30476597836E+02  0.11845024491E+03 -0.60857505055E+02  0.21965181414E+03  0.17200000000E+03 0.  1.
</event>
<event>
 4    1  0.4450588E+000  0.1771707E+03  0.7818608E-02  0.1170570E+00
         21   -1    0    0  501  502  0.00000000000E+00  0.00000000000E+00  0.14036027220E+03  0.14036027220E+03  0.00000000000E+00 0.  1.
         21   -1    0    0  502  503 -0.00000000000E+00 -0.00000000000E+00 -0.23178320233E+03  0.23178320233E+03  0.00000000000E+00 0.  1.
          6    1    1    2  501    0  0.33159158622E+02  0.26569376182E+02 -0.10823805192E+02  0.17750103186E+03  0.17200000000E+03 0.  1.
         -6    1    1    2    0  503 -0.33159158622E+02 -0.26569376182E+02 -0.80599124933E+02  0.19464244268E+03  0.17200000000E+03 0.  1.
</event>
<event>
 4    1  0.4450588E+000  0.2015740E+03  0.7818608E-02  0.1148418E+00
         21   -1    0    0  501  502  0.00000000000E+00  0.00000000000E+00  0.10463528476E+03  0.10463528476E+03  0.00000000000E+00 0.  1.
         21   -1    0    0  502  503 -0.00000000000E+00 -0.00000000000E+00 -0.39527009246E+03  0.39527009246E+03  0.00000000000E+00 0. -1.
          6    1    1    2  501    0 -0.10071797441E+03 -0.30066338186E+02 -0.11217607573E+03  0.23068499524E+03  0.17200000000E+03 0.  1.
         -6    1    1    2    0  503  0.10071797441E+03  0.30066338186E+02 -0.17845873197E+03  0.26922038199E+03  0.17200000000E+03 0. -1.
</event>
<event>
 4    1  0.4450588E+000  0.1977601E+03  0.7818608E-02  0.1151643E+00
         21   -1    0    0  501  502  0.00000000000E+00  0.00000000000E+00  0.51104759824E+03  0.51104759824E+03  0.00000000000E+00 0.  1.
         21   -1    0    0  502  503 -0.00000000000E+00 -0.00000000000E+00 -0.76579882857E+02  0.76579882857E+02  0.00000000000E+00 0.  1.
          6    1    1    2  501    0 -0.71045203185E+01  0.97337433598E+02  0.22493901347E+03  0.29951061745E+03  0.17200000000E+03 0.  1.
         -6    1    1    2    0  503  0.71045203185E+01 -0.97337433598E+02  0.20952870192E+03  0.28811686364E+03  0.17200000000E+03 0.  1.
</event>
<event>
 4    1  0.4450588E+000  0.1976594E+03  0.7818608E-02  0.1151729E+00
         21   -1    0    0  501  502  0.00000000000E+00  0.00000000000E+00  0.40767509356E+03  0.40767509356E+03  0.00000000000E+00 0. -1.
         21   -1    0    0  502  503 -0.00000000000E+00 -0.00000000000E+00 -0.15207173517E+03  0.15207173517E+03  0.00000000000E+00 0. -1.
          6    1    1    2  501    0 -0.95711759671E+02  0.18013290349E+02  0.29799813215E+03  0.35759209490E+03  0.17200000000E+03 0. -1.
         -6    1    1    2    0  503  0.95711759671E+02 -0.18013290349E+02 -0.42394773765E+02  0.20215473383E+03  0.17200000000E+03 0. -1.
</event>
<event>
 4    1  0.4450588E+000  0.1770540E+03  0.7818608E-02  0.1170685E+00
         21   -1    0    0  501  502  0.00000000000E+00  0.00000000000E+00  0.47390160055E+02  0.47390160055E+02  0.00000000000E+00 0.  1.
         21   -1    0    0  502  503 -0.00000000000E+00 -0.00000000000E+00 -0.88859543853E+03  0.88859543853E+03  0.00000000000E+00 0.  1.
          6    1    1    2  501    0 -0.39314291101E+02 -0.14781968702E+02 -0.18401021424E+03  0.25535833456E+03  0.17200000000E+03 0.  1.
         -6    1    1    2    0  503  0.39314291101E+02  0.14781968702E+02 -0.65719506424E+03  0.68062726403E+03  0.17200000000E+03 0.  1.
</event>
<event>
 4    1  0.4450588E+000  0.1832714E+03  0.7818608E-02  0.1164674E+00
         21   -1    0    0  503  502  0.00000000000E+00  0.00000000000E+00  0.72391387967E+03  0.72391387967E+03  0.00000000000E+00 0.  1.
         21   -1    0    0  501  503 -0.00000000000E+00 -0.00000000000E+00 -0.13765135881E+03  0.13765135881E+03  0.00000000000E+00 0.  1.
          6    1    1    2  501    0  0.24198654082E+02  0.58470718464E+02 -0.57613788872E+02  0.19211389446E+03  0.17200000000E+03 0.  1.
         -6    1    1    2    0  502 -0.24198654082E+02 -0.58470718464E+02  0.64387630974E+03  0.66945134402E+03  0.17200000000E+03 0.  1.
</event>
<event>
 4    1  0.4450588E+000  0.2846397E+03  0.7818608E-02  0.1093181E+00
         21   -1    0    0  501  502  0.00000000000E+00  0.00000000000E+00  0.29740199268E+03  0.29740199268E+03  0.00000000000E+00 0. -1.
         21   -1    0    0  502  503 -0.00000000000E+00 -0.00000000000E+00 -0.30107197411E+03  0.30107197411E+03  0.00000000000E+00 0.  1.
          6    1    1    2  501    0 -0.19106650330E+03  0.12218572665E+03 -0.94138646904E+02  0.29980301086E+03  0.17200000000E+03 0.  1.
         -6    1    1    2    0  503  0.19106650330E+03 -0.12218572665E+03  0.90468665471E+02  0.29867095593E+03  0.17200000000E+03 0.  1.
</event>
<event>
 4    1  0.4450588E+000  0.1730389E+03  0.7818608E-02  0.1174715E+00
         21   -1    0    0  501  502  0.00000000000E+00  0.00000000000E+00  0.27494154247E+03  0.27494154247E+03  0.00000000000E+00 0. -1.
         21   -1    0    0  502  503 -0.00000000000E+00 -0.00000000000E+00 -0.10968162760E+03  0.10968162760E+03  0.00000000000E+00 0. -1.
          6    1    1    2  501    0  0.47181915452E+01  0.18336121859E+02  0.66446195787E+02  0.18535795540E+03  0.17200000000E+03 0. -1.
         -6    1    1    2    0  503 -0.47181915452E+01 -0.18336121859E+02  0.98813719082E+02  0.19926521466E+03  0.17200000000E+03 0. -1.
</event>
<event>
 4    1  0.4450588E+000  0.2267646E+03  0.7818608E-02  0.1128938E+00
         21   -1    0    0  501  502  0.00000000000E+00  0.00000000000E+00  0.80346743927E+03  0.80346743927E+03  0.00000000000E+00 0.  1.
         21   -1    0    0  502  503 -0.00000000000E+00 -0.00000000000E+00 -0.73762928326E+02  0.73762928326E+02  0.00000000000E+00 0.  1.
          6    1    1    2  501    0  0.10232817785E+03 -0.10661683869E+03  0.52442055064E+03  0.57134851028E+03  0.17200000000E+03 0.  1.
         -6    1    1    2    0  503 -0.10232817785E+03  0.10661683869E+03  0.20528396031E+03  0.30588185731E+03  0.17200000000E+03 0.  1.
</event>
<event>
 4    1  0.4450588E+000  0.1845766E+03  0.7818608E-02  0.1163446E+00
         21   -1    0    0  501  502  0.00000000000E+00  0.00000000000E+00  0.43034316731E+02  0.43034316731E+02  0.00000000000E+00 0. -1.
         21   -1    0    0  502  503 -0.00000000000E+00 -0.00000000000E+00 -0.86735360230E+03  0.86735360230E+03  0.00000000000E+00 0. -1.
          6    1    1    2  501    0 -0.40141189773E+02  0.53602160815E+02 -0.27768800984E+03  0.33343535741E+03  0.17200000000E+03 0. -1.
         -6    1    1    2    0  503  0.40141189773E+02 -0.53602160815E+02 -0.54663127573E+03  0.57695256162E+03  0.17200000000E+03 0. -1.
</event>
<event>
 4    1  0.4450588E+000  0.2013422E+03  0.7818608E-02  0.1148611E+00
         21   -1    0    0  501  502  0.00000000000E+00  0.00000000000E+00  0.18310432354E+03  0.18310432354E+03  0.00000000000E+00 0. -1.
         21   -1    0    0  502  503 -0.00000000000E+00 -0.00000000000E+00 -0.22198808979E+03  0.22198808979E+03  0.00000000000E+00 0. -1.
          6    1    1    2  501    0  0.29360570788E+02 -0.10046218282E+03 -0.29896197900E+02  0.20354968912E+03  0.17200000000E+03 0. -1.
         -6    1    1    2    0  503 -0.29360570788E+02  0.10046218282E+03 -0.89875683469E+01  0.20154272420E+03  0.17200000000E+03 0. -1.
</event>
<event>
 4    1  0.4450588E+000  0.1881134E+03  0.7818608E-02  0.1160174E+00
         21   -1    0    0  501  502  0.00000000000E+00  0.00000000000E+00  0.37103069989E+03  0.37103069989E+03  0.00000000000E+00 0. -1.
         21   -1    0    0  502  503 -0.00000000000E+00 -0.00000000000E+00 -0.10644774432E+03  0.10644774432E+03  0.00000000000E+00 0. -1.
          6    1    1    2  501    0 -0.22103057768E+00  0.76174717104E+02  0.55288911649E+02  0.19607014085E+03  0.17200000000E+03 0.  1.
         -6    1    1    2    0  503  0.22103057768E+00 -0.76174717104E+02  0.20929404392E+03  0.28140830336E+03  0.17200000000E+03 0.  1.
</event>
<event>
 4    1  0.4450588E+000  0.2212766E+03  0.7818608E-02  0.1132935E+00
         21   -1    0    0  503  502  0.00000000000E+00  0.00000000000E+00  0.41001234122E+03  0.41001234122E+03  0.00000000000E+00 0. -1.
         21   -1    0    0  501  503 -0.00000000000E+00 -0.00000000000E+00 -0.14403506041E+03  0.14403506041E+03  0.00000000000E+00 0. -1.
          6    1    1    2  501    0  0.71835896663E+02  0.11924321788E+03  0.18466243500E+02  0.22204581331E+03  0.17200000000E+03 0. -1.
         -6    1    1    2    0  502 -0.71835896663E+02 -0.11924321788E+03  0.24751103731E+03  0.33200158832E+03  0.17200000000E+03 0. -1.
</event>
<event>
 4    1  0.4450588E+000  0.1768916E+03  0.7818608E-02  0.1170846E+00
         21   -1    0    0  503  502  0.00000000000E+00  0.00000000000E+00  0.89728174718E+03  0.89728174718E+03  0.00000000000E+00 0.  1.
         21   -1    0    0  501  503 -0.00000000000E+00 -0.00000000000E+00 -0.71826030755E+02  0.71826030755E+02  0.00000000000E+00 0. -1.
          6    1    1    2  501    0  0.18692695473E+02  0.36840383865E+02  0.65169300194E+02  0.18851437196E+03  0.17200000000E+03 0. -1.
         -6    1    1    2    0  502 -0.18692695473E+02 -0.36840383865E+02  0.76028641623E+03  0.78059340598E+03  0.17200000000E+03 0.  1.
</event>
<event>
 4    1  0.4450588E+000  0.1812780E+03  0.7818608E-02  0.1166572E+00
         21   -1    0    0  503  502  0.00000000000E+00  0.00000000000E+00  0.83228666680E+03  0.83228666680E+03  0.00000000000E+00 0. -1.
         21   -1    0    0  501  503 -0.00000000000E+00 -0.00000000000E+00 -0.20708894508E+03  0.20708894508E+03  0.00000000000E+00 0. -1.
          6    1    1    2  501    0  0.12764653477E+02  0.55810203908E+02 -0.15492947377E+03  0.23846353407E+03  0.17200000000E+03 0. -1.
         -6    1    1    2    0  502 -0.12764653477E+02 -0.55810203908E+02  0.78012719549E+03  0.80091207781E+03  0.17200000000E+03 0. -1.
</event>
<event>
 4    1  0.4450588E+000  0.2671744E+03  0.7818608E-02  0.1102908E+00
         21   -1    0    0  503  502  0.00000000000E+00  0.00000000000E+00  0.38352860858E+03  0.38352860858E+03  0.00000000000E+00 0. -1.
         21   -1    0    0  501  503 -0.00000000000E+00 -0.00000000000E+00 -0.22187156688E+03  0.22187156688E+03  0.00000000000E+00 0.  1.
          6    1    1    2  501    0 -0.20422260343E+03 -0.95549647995E+01 -0.40681484913E+02  0.27025386643E+03  0.17200000000E+03 0.  1.
         -6    1    1    2    0  502  0.20422260343E+03  0.95549647995E+01  0.20233852661E+03  0.33514630903E+03  0.17200000000E+03 0. -1.
</event>
<event>
 4    1  0.4450588E+000  0.3534513E+03  0.7818608E-02  0.1061207E+00
         21   -1    0    0  501  502  0.00000000000E+00  0.00000000000E+00  0.37218935088E+03  0.37218935088E+03  0.00000000000E+00 0. -1.
         21   -1    0    0  502  503 -0.00000000000E+00 -0.00000000000E+00 -0.59686010418E+03  0.59686010418E+03  0.00000000000E+00 0.  1.
          6    1    1    2  501    0 -0.30832518256E+03 -0.16715211710E+02  0.20819497527E+03  0.41021087776E+03  0.17200000000E+03 0. -1.
         -6    1    1    2    0  503  0.30832518256E+03  0.16715211710E+02 -0.43286572858E+03  0.55883857730E+03  0.17200000000E+03 0.  1.
</event>
<event>
 4    1  0.4450588E+000  0.1794845E+03  0.7818608E-02  0.1168303E+00
         21   -1    0    0  503  502  0.00000000000E+00  0.00000000000E+00  0.60575005217E+02  0.60575005217E+02  0.00000000000E+00 0.  1.
         21   -1    0    0  501  503 -0.00000000000E+00 -0.00000000000E+00 -0.53537840138E+03  0.53537840138E+03  0.00000000000E+00 0.  1.
          6    1    1    2  501    0  0.35084065146E+02 -0.37413870387E+02 -0.26171205734E+03  0.31734506501E+03  0.17200000000E+03 0. -1.
         -6    1    1    2    0  502 -0.35084065146E+02  0.37413870387E+02 -0.21309133882E+03  0.27860834159E+03  0.17200000000E+03 0. -1.
</event>
<event>
 4    1  0.4450588E+000  0.2250753E+03  0.7818608E-02  0.1130155E+00
         21   -1    0    0  503  502  0.00000000000E+00  0.00000000000E+00  0.69654004647E+03  0.69654004647E+03  0.00000000000E+00 0. -1.
         21   -1    0    0  501  503 -0.00000000000E+00 -0.00000000000E+00 -0.77435994770E+02  0.77435994770E+02  0.00000000000E+00 0.  1.
          6    1    1    2  501    0  0.35962996459E+02 -0.14064691026E+03  0.21414447626E+03  0.31067144573E+03  0.17200000000E+03 0.  1.
         -6    1    1    2    0  502 -0.35962996459E+02  0.14064691026E+03  0.40495957544E+03  0.46330459551E+03  0.17200000000E+03 0. -1.
</event>
<event>
 4    1  0.4450588E+000  0.2181339E+03  0.7818608E-02  0.1135282E+00
         21   -1    0    0  501  502  0.00000000000E+00  0.00000000000E+00  0.59221726587E+03  0.59221726587E+03  0.00000000000E+00 0. -1.
         21   -1    0    0  502  503 -0.00000000000E+00 -0.00000000000E+00 -0.12069576950E+03  0.12069576950E+03  0.00000000000E+00 0.  1.
          6    1    1    2  501    0 -0.99702497404E+02 -0.89765201415E+02  0.44186181457E+03  0.49277199854E+03  0.17200000000E+03 0. -1.
         -6    1    1    2    0  503  0.99702497404E+02  0.89765201415E+02  0.29659681804E+02  0.22014103683E+03  0.17200000000E+03 0.  1.
</event>
<event>
 4    1  0.4450588E+000  0.2260088E+03  0.7818608E-02  0.1129481E+00
         21   -1    0    0  503  502  0.00000000000E+00  0.00000000000E+00  0.19335425370E+03  0.19335425370E+03  0.00000000000E+00 0.  1.
         21   -1    0    0  501  503 -0.00000000000E+00 -0.00000000000E+00 -0.45775637905E+03  0.45775637905E+03  0.00000000000E+00 0. -1.
          6    1    1    2  501    0 -0.10411766383E+03 -0.10322546683E+03  0.79506198278E+02  0.23958551811E+03  0.17200000000E+03 0.  1.
         -6    1    1    2    0  502  0.10411766383E+03  0.10322546683E+03 -0.34390832363E+03  0.41152511465E+03  0.17200000000E+03 0. -1.
</event>
<event>
 4    1  0.4450588E+000  0.1810751E+03  0.7818608E-02  0.1166767E+00
         21   -1    0    0  501  502  0.00000000000E+00  0.00000000000E+00  0.10700306371E+03  0.10700306371E+03  0.00000000000E+00 0. -1.
         21   -1    0    0  502  503 -0.00000000000E+00 -0.00000000000E+00 -0.44565961917E+03  0.44565961917E+03  0.00000000000E+00 0. -1.
          6    1    1    2  501    0  0.23376623549E+02  0.51553004107E+02 -0.14872007225E+02  0.18168476920E+03  0.17200000000E+03 0. -1.
         -6    1    1    2    0  503 -0.23376623549E+02 -0.51553004107E+02 -0.32378454823E+03  0.37097791368E+03  0.17200000000E+03 0. -1.
</event>
<event>
 4    1  0.4450588E+000  0.1720566E+03  0.7818608E-02  0.1175720E+00
         21   -1    0    0  501  502  0.00000000000E+00  0.00000000000E+00  0.81856453216E+03  0.81856453216E+03  0.00000000000E+00 0.  1.
         21   -1    0    0  502  503 -0.00000000000E+00 -0.00000000000E+00 -0.98787584835E+02  0.98787584835E+02  0.00000000000E+00 0.  1.
          6    1    1    2  501    0 -0.31635373596E+01 -0.30789219947E+01  0.72507937880E+03  0.74521379032E+03  0.17200000000E+03 0.  1.
         -6    1    1    2    0  503  0.31635373596E+01  0.30789219947E+01 -0.53024314744E+01  0.17213832667E+03  0.17200000000E+03 0.  1.
</event>
<event>
 4    1  0.4450588E+000  0.1725376E+03  0.7818608E-02  0.1175227E+00
         21   -1    0    0  501  502  0.00000000000E+00  0.00000000000E+00  0.17484614307E+03  0.17484614307E+03  0.00000000000E+00 0. -1.
         21   -1    0    0  502  503 -0.00000000000E+00 -0.00000000000E+00 -0.30506240168E+03  0.30506240168E+03  0.00000000000E+00 0. -1.
          6    1    1    2  501    0 -0.59796240920E+01  0.12225330568E+02  0.94400354095E+02  0.19667394709E+03  0.17200000000E+03 0. -1.
         -6    1    1    2    0  503  0.59796240920E+01 -0.12225330568E+02 -0.22461661270E+03  0.28323459766E+03  0.17200000000E+03 0. -1.
</event>
<event>
 4    1  0.4450588E+000  0.2320480E+03  0.7818608E-02  0.1125207E+00
         21   -1    0    0  503  502  0.00000000000E+00  0.00000000000E+00  0.80521583955E+02  0.80521583955E+02  0.00000000000E+00 0.  1.
         21   -1    0    0  501  503 -0.00000000000E+00 -0.00000000000E+00 -0.82118959220E+03  0.82118959220E+03  0.00000000000E+00 0.  1.
          6    1    1    2  501    0  0.43687721388E+02 -0.14951137780E+03 -0.17606229516E+03  0.29128027889E+03  0.17200000000E+03 0.  1.
         -6    1    1    2    0  502 -0.43687721388E+02  0.14951137780E+03 -0.56460571308E+03  0.61043089726E+03  0.17200000000E+03 0.  1.
</event>
<event>
 4    1  0.4450588E+000  0.1800295E+03  0.7818608E-02  0.1167774E+00
         21   -1    0    0  503  502  0.00000000000E+00  0.00000000000E+00  0.14436031838E+03  0.14436031838E+03  0.00000000000E+00 0.  1.
         21   -1    0    0  501  503 -0.00000000000E+00 -0.00000000000E+00 -0.36268097566E+03  0.36268097566E+03  0.00000000000E+00 0.  1.
          6    1    1    2  501    0 -0.51256360352E+02  0.14121586821E+02 -0.26563934526E+03  0.32089701688E+03  0.17200000000E+03 0.  1.
         -6    1    1    2    0  502  0.51256360352E+02 -0.14121586821E+02  0.47318687980E+02  0.18614427717E+03  0.17200000000E+03 0.  1.
</event>
<event>
 4    1  0.4450588E+000  0.1803628E+03  0.7818608E-02  0.1167452E+00
         21   -1    0    0  501  502  0.00000000000E+00  0.00000000000E+00  0.70054037947E+02  0.70054037947E+02  0.00000000000E+00 0.  1.
         21   -1    0    0  502  503 -0.00000000000E+00 -0.00000000000E+00 -0.10314404683E+04  0.10314404683E+04  0.00000000000E+00 0.  1.
          6    1    1    2  501    0 -0.28041886155E+02  0.46479925946E+02 -0.72326621273E+02  0.19432413911E+03  0.17200000000E+03 0.  1.
         -6    1    1    2    0  503  0.28041886155E+02 -0.46479925946E+02 -0.88905980909E+03  0.90717036715E+03  0.17200000000E+03 0.  1.
</event>
<event>
 4    1  0.4450588E+000  0.2414129E+03  0.7818608E-02  0.1118855E+00
         21   -1    0    0  503  502  0.00000000000E+00  0.00000000000E+00  0.35294890854E+03  0.35294890854E+03  0.00000000000E+00 0. -1.
         21   -1    0    0  501  503 -0.00000000000E+00 -0.00000000000E+00 -0.28225144598E+03  0.28225144598E+03  0.00000000000E+00 0. -1.
          6    1    1    2  501    0 -0.16283758928E+03 -0.46691367399E+02 -0.16924526476E+03  0.29482897401E+03  0.17200000000E+03 0. -1.
         -6    1    1    2    0  502  0.16283758928E+03  0.46691367399E+02  0.23994272732E+03  0.34037138050E+03  0.17200000000E+03 0. -1.
</event>
<event>
 4    1  0.4450588E+000  0.2239442E+03  0.7818608E-02  0.1130976E+00
         21   -1    0    0  503  502  0.00000000000E+00  0.00000000000E+00  0.12636443276E+03  0.12636443276E+03  0.00000000000E+00 0.  1.
         21   -1    0    0  501  503 -0.00000000000E+00 -0.00000000000E+00 -0.58496159322E+03  0.58496159322E+03  0.00000000000E+00 0. -1.
          6    1    1    2  501    0 -0.96679469633E+02  0.10592500318E+03 -0.27623308539E+02  0.22564147075E+03  0.17200000000E+03 0.  1.
         -6    1    1    2    0  502  0.96679469633E+02 -0.10592500318E+03 -0.43097385193E+03  0.48568455523E+03  0.17200000000E+03 0. -1.
</event>
<event>
 4    1  0.4450588E+000  0.1904290E+03  0.7818608E-02  0.1158075E+00
         21   -1    0    0  501  502  0.00000000000E+00  0.00000000000E+00  0.11914733043E+03  0.11914733043E+03  0.00000000000E+00 0.  1.
         21   -1    0    0  502  503 -0.00000000000E+00 -0.00000000000E+00 -0.60423459863E+03  0.60423459863E+03  0.00000000000E+00 0.  1.
          6    1    1    2  501    0  0.73924424180E+02  0.34848139046E+02  0.12261133854E+02  0.19082334419E+03  0.17200000000E+03 0.  1.
         -6    1    1    2    0  503 -0.73924424180E+02 -0.34848139046E+02 -0.49734840206E+03  0.53255858487E+03  0.17200000000E+03 0.  1.
</event>
<event>
 4    1  0.4450588E+000  0.1840872E+03  0.7818608E-02  0.1163905E+00
         21   -1    0    0  503  502  0.00000000000E+00  0.00000000000E+00  0.46635722274E+03  0.46635722274E+03  0.00000000000E+00 0. -1.
         21   -1    0    0  501  503 -0.00000000000E+00 -0.00000000000E+00 -0.99949450306E+02  0.99949450306E+02  0.00000000000E+00 0. -1.
          6    1    1    2  501    0  0.21201426437E+02  0.62085505310E+02  0.35264232830E+02  0.18743445940E+03  0.17200000000E+03 0. -1.
         -6    1    1    2    0  502 -0.21201426437E+02 -0.62085505310E+02  0.33114353960E+03  0.37887221365E+03  0.17200000000E+03 0. -1.
</event>
<event>
 4    1  0.4450588E+000  0.3603147E+03  0.7818608E-02  0.1058459E+00
         21   -1    0    0  503  502  0.00000000000E+00  0.00000000000E+00  0.18266011741E+03  0.18266011741E+03  0.00000000000E+00 0. -1.
         21   -1    0    0  501  503 -0.00000000000E+00 -0.00000000000E+00 -0.12121102248E+04  0.12121102248E+04  0.00000000000E+00 0.  1.
          6    1    1    2  501    0  0.18198888927E+03  0.25908050917E+03 -0.96323723997E+03  0.10284224067E+04  0.17200000000E+03 0.  1.
         -6    1    1    2    0  502 -0.18198888927E+03 -0.25908050917E+03 -0.66212867372E+02  0.36634793551E+03  0.17200000000E+03 0. -1.
</event>
<event>
 4    1  0.4450588E+000  0.1879847E+03  0.7818608E-02  0.1160292E+00
         21   -1    0    0  503  502  0.00000000000E+00  0.00000000000E+00  0.87065671308E+02  0.87065671308E+02  0.00000000000E+00 0.  1.
         21   -1    0    0  501  503 -0.00000000000E+00 -0.00000000000E+00 -0.40707304261E+03  0.40707304261E+03  0.00000000000E+00 0.  1.
          6    1    1    2  501    0 -0.51738767715E+02 -0.55473763501E+02 -0.17337767045E+03  0.25573043451E+03  0.17200000000E+03 0.  1.
         -6    1    1    2    0  502  0.51738767715E+02  0.55473763501E+02 -0.14662970085E+03  0.23840827942E+03  0.17200000000E+03 0.  1.
</event>
<event>
 4    1  0.4450588E+000  0.3124862E+03  0.7818608E-02  0.1079160E+00
         21   -1    0    0  501  502  0.00000000000E+00  0.00000000000E+00  0.20881031608E+03  0.20881031608E+03  0.00000000000E+00 0.  1.
         21   -1    0    0  502  503 -0.00000000000E+00 -0.00000000000E+00 -0.60178801870E+03  0.60178801870E+03  0.00000000000E+00 0.  1.
          6    1    1    2  501    0 -0.18684100507E+03  0.18208261102E+03 -0.51296660237E+01  0.31252832173E+03  0.17200000000E+03 0.  1.
         -6    1    1    2    0  503  0.18684100507E+03 -0.18208261102E+03 -0.38784803659E+03  0.49807001305E+03  0.17200000000E+03 0.  1.
</event>
<event>
 4    1  0.4450588E+000  0.3400334E+03  0.7818608E-02  0.1066782E+00
         21   -1    0    0  503  502  0.00000000000E+00  0.00000000000E+00  0.59732893515E+02  0.59732893515E+02  0.00000000000E+00 0.  1.
         21   -1    0    0  501  503 -0.00000000000E+00 -0.00000000000E+00 -0.22975773221E+04  0.22975773221E+04  0.00000000000E+00 0. -1.
          6    1    1    2  501    0 -0.28749082692E+03  0.58204023176E+02 -0.15867168554E+04  0.16227424513E+04  0.17200000000E+03 0.  1.
         -6    1    1    2    0  502  0.28749082692E+03 -0.58204023176E+02 -0.65112757315E+03  0.73456776433E+03  0.17200000000E+03 0. -1.
</event>
<event>
 4    1  0.4450588E+000  0.1828850E+03  0.7818608E-02  0.1165040E+00
         21   -1    0    0  503  502  0.00000000000E+00  0.00000000000E+00  0.39659058273E+03  0.39659058273E+03  0.00000000000E+00 0.  1.
         21   -1    0    0  501  503 -0.00000000000E+00 -0.00000000000E+00 -0.16475771966E+03  0.16475771966E+03  0.00000000000E+00 0.  1.
          6    1    1    2  501    0  0.72771072976E+01 -0.61724845077E+02 -0.80178276249E+02  0.19968842924E+03  0.17200000000E+03 0.  1.
         -6    1    1    2    0  502 -0.72771072976E+01  0.61724845077E+02  0.31201113932E+03  0.36165987315E+03  0.17200000000E+03 0.  1.
</event>
<event>
 4    1  0.4450588E+000  0.1763351E+03  0.7818608E-02  0.1171398E+00
         21   -1    0    0  501  502  0.00000000000E+00  0.00000000000E+00  0.53651599255E+02  0.53651599255E+02  0.00000000000E+00 0.  1.
         21   -1    0    0  502  503 -0.00000000000E+00 -0.00000000000E+00 -0.65548075833E+03  0.65548075833E+03  0.00000000000E+00 0.  1.
          6    1    1    2  501    0 -0.53850966927E+01 -0.38484487428E+02 -0.18024111746E+03  0.25215256386E+03  0.17200000000E+03 0.  1.
         -6    1    1    2    0  503  0.53850966927E+01  0.38484487428E+02 -0.42158804161E+03  0.45697979372E+03  0.17200000000E+03 0.  1.
</event>
<event>
 4    1  0.4450588E+000  0.2135165E+03  0.7818608E-02  0.1138811E+00
         21   -1    0    0  503  502  0.00000000000E+00  0.00000000000E+00  0.28063073588E+03  0.28063073588E+03  0.00000000000E+00 0.  1.
         21   -1    0    0  501  503 -0.00000000000E+00 -0.00000000000E+00 -0.22349152843E+03  0.22349152843E+03  0.00000000000E+00 0. -1.
          6    1    1    2  501    0  0.10730006011E+03  0.67022193554E+02 -0.10315828377E+03  0.23713057339E+03  0.17200000000E+03 0. -1.
         -6    1    1    2    0  502 -0.10730006011E+03 -0.67022193554E+02  0.16029749121E+03  0.26699169091E+03  0.17200000000E+03 0.  1.
</event>
<event>
 4    1  0.4450588E+000  0.1982368E+03  0.7818608E-02  0.1151235E+00
         21   -1    0    0  503  502  0.00000000000E+00  0.00000000000E+00  0.46936819321E+03  0.46936819321E+03  0.00000000000E+00 0.  1.
         21   -1    0    0  501  503 -0.00000000000E+00 -0.00000000000E+00 -0.14801303189E+03  0.14801303189E+03  0.00000000000E+00 0. -1.
          6    1    1    2  501    0 -0.87136929675E+01 -0.98172783854E+02 -0.42763527223E+02  0.20279680272E+03  0.17200000000E+03 0. -1.
         -6    1    1    2    0  502  0.87136929675E+01  0.98172783854E+02  0.36411868854E+03  0.41458442237E+03  0.17200000000E+03 0.  1.
</event>
<event>
 4    1  0.4450588E+000  0.1853743E+03  0.7818608E-02  0.1162701E+00
         21   -1    0    0  503  502  0.00000000000E+00  0.00000000000E+00  0.15082876631E+03  0.15082876631E+03  0.00000000000E+00 0. -1.
         21   -1    0    0  501  503 -0.00000000000E+00 -0.00000000000E+00 -0.24169776570E+03  0.24169776570E+03  0.00000000000E+00 0.  1.
          6    1    1    2  501    0 -0.18902705270E+02 -0.66500606248E+02  0.15735465657E+01  0.18538101021E+03  0.17200000000E+03 0.  1.
         -6    1    1    2    0  502  0.18902705270E+02  0.66500606248E+02 -0.92442545963E+02  0.20714552180E+03  0.17200000000E+03 0. -1.
</event>
<event>
 4    1  0.4450588E+000  0.1770157E+03  0.7818608E-02  0.1170723E+00
         21   -1    0    0  503  502  0.00000000000E+00  0.00000000000E+00  0.16808628132E+04  0.16808628132E+04  0.00000000000E+00 0. -1.
         21   -1    0    0  501  503 -0.00000000000E+00 -0.00000000000E+00 -0.34637269967E+02  0.34637269967E+02  0.00000000000E+00 0. -1.
          6    1    1    2  501    0 -0.38466375419E+02 -0.16458852741E+02  0.24022435616E+03  0.29839955959E+03  0.17200000000E+03 0. -1.
         -6    1    1    2    0  502  0.38466375419E+02  0.16458852741E+02  0.14060011871E+04  0.14171005236E+04  0.17200000000E+03 0. -1.
</event>
<event>
 4    1  0.4450588E+000  0.2061910E+03  0.7818608E-02  0.1144618E+00
         21   -1    0    0  501  502  0.00000000000E+00  0.00000000000E+00  0.14320853293E+03  0.14320853293E+03  0.00000000000E+00 0.  1.
         21   -1    0    0  502  503 -0.00000000000E+00 -0.00000000000E+00 -0.31334491918E+03  0.31334491918E+03  0.00000000000E+00 0. -1.
          6    1    1    2  501    0 -0.29517722728E+02  0.10981549316E+03 -0.13740692218E+03  0.24778095318E+03  0.17200000000E+03 0. -1.
         -6    1    1    2    0  503  0.29517722728E+02 -0.10981549316E+03 -0.32729464069E+02  0.20877249894E+03  0.17200000000E+03 0. -1.
</event>
<event>
 4    1  0.4450588E+000  0.2674599E+03  0.7818608E-02  0.1102742E+00
         21   -1    0    0  503  502  0.00000000000E+00  0.00000000000E+00  0.18692140145E+03  0.18692140145E+03  0.00000000000E+00 0. -1.
         21   -1    0    0  501  503 -0.00000000000E+00 -0.00000000000E+00 -0.59044143541E+03  0.59044143541E+03  0.00000000000E+00 0.  1.
          6    1    1    2  501    0 -0.20020974267E+03 -0.43207166141E+02 -0.43231103357E+03  0.50835777757E+03  0.17200000000E+03 0. -1.
         -6    1    1    2    0  502  0.20020974267E+03  0.43207166141E+02  0.28790999608E+02  0.26900505929E+03  0.17200000000E+03 0. -1.
</event>
<event>
 4    1  0.4450588E+000  0.1926853E+03  0.7818608E-02  0.1156061E+00
         21   -1    0    0  501  502  0.00000000000E+00  0.00000000000E+00  0.39712236724E+02  0.39712236724E+02  0.00000000000E+00 0. -1.
         21   -1    0    0  502  503 -0.00000000000E+00 -0.00000000000E+00 -0.14303665998E+04  0.14303665998E+04  0.00000000000E+00 0. -1.
          6    1    1    2  501    0 -0.24565137129E+02 -0.83307632597E+02 -0.26272659332E+03  0.32581109626E+03  0.17200000000E+03 0. -1.
         -6    1    1    2    0  503  0.24565137129E+02  0.83307632597E+02 -0.11279277697E+04  0.11442677402E+04  0.17200000000E+03 0. -1.
</event>
<event>
 4    1  0.4450588E+000  0.2031320E+03  0.7818608E-02  0.1147123E+00
         21   -1    0    0  501  502  0.00000000000E+00  0.00000000000E+00  0.13979189461E+04  0.13979189461E+04  0.00000000000E+00 0.  1.
         21   -1    0    0  502  503 -0.00000000000E+00 -0.00000000000E+00 -0.29759084104E+02  0.29759084104E+02  0.00000000000E+00 0.  1.
          6    1    1    2  501    0 -0.10806285999E+03 -0.10116122546E+01  0.74844126211E+03  0.77551720026E+03  0.17200000000E+03 0.  1.
         -6    1    1    2    0  503  0.10806285999E+03  0.10116122546E+01  0.61971859988E+03  0.65216082994E+03  0.17200000000E+03 0.  1.
</event>
<event>
 4    1  0.4450588E+000  0.1898653E+03  0.7818608E-02  0.1158583E+00
         21   -1    0    0  503  502  0.00000000000E+00  0.00000000000E+00  0.16376001275E+03  0.16376001275E+03  0.00000000000E+00 0. -1.
         21   -1    0    0  501  503 -0.00000000000E+00 -0.00000000000E+00 -0.32436393983E+03  0.32436393983E+03  0.00000000000E+00 0. -1.
          6    1    1    2  501    0 -0.69846891897E+02 -0.39827840691E+02 -0.21865347838E+03  0.28958278404E+03  0.17200000000E+03 0. -1.
         -6    1    1    2    0  502  0.69846891897E+02  0.39827840691E+02  0.58049551298E+02  0.19854116855E+03  0.17200000000E+03 0. -1.
</event>
<event>
 4    1  0.4450588E+000  0.2035270E+03  0.7818608E-02  0.1146797E+00
         21   -1    0    0  501  502  0.00000000000E+00  0.00000000000E+00  0.13919843722E+04  0.13919843722E+04  0.00000000000E+00 0.  1.
         21   -1    0    0  502  503 -0.00000000000E+00 -0.00000000000E+00 -0.46326807828E+02  0.46326807828E+02  0.00000000000E+00 0.  1.
          6    1    1    2  501    0  0.93824767684E+02  0.55101121465E+02  0.11029066834E+04  0.11215285877E+04  0.17200000000E+03 0.  1.
         -6    1    1    2    0  503 -0.93824767684E+02 -0.55101121465E+02  0.24275088092E+03  0.31678259234E+03  0.17200000000E+03 0.  1.
</event>
<event>
 4    1  0.4450588E+000  0.1789646E+03  0.7818608E-02  0.1168809E+00
         21   -1    0    0  501  502  0.00000000000E+00  0.00000000000E+00  0.64581889701E+02  0.64581889701E+02  0.00000000000E+00 0. -1.
         21   -1    0    0  502  503 -0.00000000000E+00 -0.00000000000E+00 -0.51541804896E+03  0.51541804896E+03  0.00000000000E+00 0. -1.
          6    1    1    2  501    0 -0.49104017437E+02  0.57557557159E+01 -0.16903335287E+03  0.24617190667E+03  0.17200000000E+03 0.  1.
         -6    1    1    2    0  503  0.49104017437E+02 -0.57557557159E+01 -0.28180280639E+03  0.33382803199E+03  0.17200000000E+03 0.  1.
</event>
<event>
 4    1  0.4450588E+000  0.1743651E+03  0.7818608E-02  0.1173371E+00
         21   -1    0    0  503  502  0.00000000000E+00  0.00000000000E+00  0.96404425068E+02  0.96404425068E+02  0.00000000000E+00 0.  1.
         21   -1    0    0  501  503 -0.00000000000E+00 -0.00000000000E+00 -0.32591909189E+03  0.32591909189E+03  0.00000000000E+00 0.  1.
          6    1    1    2  501    0  0.28096519123E+02 -0.54560785987E+01 -0.76769689519E+02  0.19051710792E+03  0.17200000000E+03 0.  1.
         -6    1    1    2    0  502 -0.28096519123E+02  0.54560785987E+01 -0.15274497730E+03  0.23180640904E+03  0.17200000000E+03 0.  1.
</event>
<event>
 4    1  0.4450588E+000  0.2680369E+03  0.7818608E-02  0.1102408E+00
         21   -1    0    0  503  502  0.00000000000E+00  0.00000000000E+00  0.72655214524E+03  0.72655214524E+03  0.00000000000E+00 0.  1.
         21   -1    0    0  501  503 -0.00000000000E+00 -0.00000000000E+00 -0.10033252894E+03  0.10033252894E+03  0.00000000000E+00 0.  1.
          6    1    1    2  501    0 -0.20099815807E+03 -0.43122042275E+02  0.36280151839E+03  0.45107506230E+03  0.17200000000E+03 0.  1.
         -6    1    1    2    0  502  0.20099815807E+03  0.43122042275E+02  0.26341809791E+03  0.37580961188E+03  0.17200000000E+03 0.  1.
</event>
<event>
 4    1  0.4450588E+000  0.1995438E+03  0.7818608E-02  0.1150124E+00
         21   -1    0    0  501  502  0.00000000000E+00  0.00000000000E+00  0.97631238908E+02  0.97631238908E+02  0.00000000000E+00 0.  1.
         21   -1    0    0  502  503 -0.00000000000E+00 -0.00000000000E+00 -0.11942216913E+04  0.11942216913E+04  0.00000000000E+00 0.  1.
          6    1    1    2  501    0  0.59028404612E+02 -0.82154583892E+02 -0.24142494819E+02  0.20099897577E+03  0.17200000000E+03 0.  1.
         -6    1    1    2    0  503 -0.59028404612E+02  0.82154583892E+02 -0.10724479576E+04  0.10908539544E+04  0.17200000000E+03 0.  1.
</event>
<event>
 4    1  0.4450588E+000  0.1969666E+03  0.7818608E-02  0.1152324E+00
         21   -1    0    0  503  502  0.00000000000E+00  0.00000000000E+00  0.90957913516E+02  0.90957913516E+02  0.00000000000E+00 0. -1.
         21   -1    0    0  501  503 -0.00000000000E+00 -0.00000000000E+00 -0.44543297784E+03  0.44543297784E+03  0.00000000000E+00 0. -1.
          6    1    1    2  501    0  0.72538553103E+02 -0.62849089609E+02 -0.23249354119E+03  0.30471149707E+03  0.17200000000E+03 0. -1.
         -6    1    1    2    0  502 -0.72538553103E+02  0.62849089609E+02 -0.12198152313E+03  0.23167939429E+03  0.17200000000E+03 0. -1.
</event>
<event>
 4    1  0.4450588E+000  0.2004412E+03  0.7818608E-02  0.1149367E+00
         21   -1    0    0  503  502  0.00000000000E+00  0.00000000000E+00  0.12658407295E+03  0.12658407295E+03  0.00000000000E+00 0.  1.
         21   -1    0    0  501  503 -0.00000000000E+00 -0.00000000000E+00 -0.32419824931E+03  0.32419824931E+03  0.00000000000E+00 0.  1.
          6    1    1    2  501    0  0.99511534775E+02  0.26270269847E+02 -0.13146666395E+03  0.23970848204E+03  0.17200000000E+03 0.  1.
         -6    1    1    2    0  502 -0.99511534775E+02 -0.26270269847E+02 -0.66147512410E+02  0.21107384023E+03  0.17200000000E+03 0.  1.
</event>
<event>
 4    1  0.4450588E+000  0.1748303E+03  0.7818608E-02  0.1172902E+00
         21   -1    0    0  501  502  0.00000000000E+00  0.00000000000E+00  0.13030921444E+03  0.13030921444E+03  0.00000000000E+00 0. -1.
         21   -1    0    0  502  503 -0.00000000000E+00 -0.00000000000E+00 -0.10858359362E+04  0.10858359362E+04  0.00000000000E+00 0. -1.
          6    1    1    2  501    0  0.23104678848E+02  0.21161628175E+02  0.60640146482E+02  0.18504828574E+03  0.17200000000E+03 0. -1.
         -6    1    1    2    0  503 -0.23104678848E+02 -0.21161628175E+02 -0.10161668682E+04  0.10310968649E+04  0.17200000000E+03 0. -1.
</event>
<event>
 4    1  0.4450588E+000  0.2347290E+03  0.7818608E-02  0.1123355E+00
         21   -1    0    0  503  502  0.00000000000E+00  0.00000000000E+00  0.23467297841E+03  0.23467297841E+03  0.00000000000E+00 0. -1.
         21   -1    0    0  501  503 -0.00000000000E+00 -0.00000000000E+00 -0.28146519958E+03  0.28146519958E+03  0.00000000000E+00 0. -1.
          6    1    1    2  501    0 -0.27679741918E+02 -0.15731346341E+03 -0.12849303686E+03  0.26759699999E+03  0.17200000000E+03 0. -1.
         -6    1    1    2    0  502  0.27679741918E+02  0.15731346341E+03  0.81700815683E+02  0.24854117801E+03  0.17200000000E+03 0. -1.
</event>
<event>
 4    1  0.4450588E+000  0.2624452E+03  0.7818608E-02  0.1105683E+00
         21   -1    0    0  501  502  0.00000000000E+00  0.00000000000E+00  0.41986365137E+03  0.41986365137E+03  0.00000000000E+00 0. -1.
         21   -1    0    0  502  503 -0.00000000000E+00 -0.00000000000E+00 -0.16406118877E+03  0.16406118877E+03  0.00000000000E+00 0.  1.
          6    1    1    2  501    0  0.19782809933E+03  0.12551527953E+02  0.12521477566E+03  0.29078555291E+03  0.17200000000E+03 0.  1.
         -6    1    1    2    0  503 -0.19782809933E+03 -0.12551527953E+02  0.13058768695E+03  0.29313928723E+03  0.17200000000E+03 0.  1.
</event>
<event>
 4    1  0.4450588E+000  0.2038544E+03  0.7818608E-02  0.1146527E+00
         21   -1    0    0  503  502  0.00000000000E+00  0.00000000000E+00  0.24677604145E+04  0.24677604145E+04  0.00000000000E+00 0.  1.
         21   -1    0    0  501  503 -0.00000000000E+00 -0.00000000000E+00 -0.18346263703E+02  0.18346263703E+02  0.00000000000E+00 0.  1.
          6    1    1    2  501    0 -0.24796202056E+02 -0.10657290671E+03  0.15809060787E+04  0.15939951900E+04  0.17200000000E+03 0.  1.
         -6    1    1    2    0  502  0.24796202056E+02  0.10657290671E+03  0.86850807212E+03  0.89211148822E+03  0.17200000000E+03 0.  1.
</event>
<event>
 4    1  0.4450588E+000  0.2731341E+03  0.7818608E-02  0.1099499E+00
         21   -1    0    0  501  502  0.00000000000E+00  0.00000000000E+00  0.87620680544E+03  0.87620680544E+03  0.00000000000E+00 0. -1.
         21   -1    0    0  502  503 -0.00000000000E+00 -0.00000000000E+00 -0.85171197401E+02  0.85171197401E+02  0.00000000000E+00 0. -1.
          6    1    1    2  501    0  0.14157592306E+03  0.15803315594E+03  0.38665625015E+03  0.47339758781E+03  0.17200000000E+03 0. -1.
         -6    1    1    2    0  503 -0.14157592306E+03 -0.15803315594E+03  0.40437935789E+03  0.48798041503E+03  0.17200000000E+03 0. -1.
</event>
<event>
 4    1  0.4450588E+000  0.1823038E+03  0.7818608E-02  0.1165592E+00
         21   -1    0    0  503  502  0.00000000000E+00  0.00000000000E+00  0.20965274538E+03  0.20965274538E+03  0.00000000000E+00 0.  1.
         21   -1    0    0  501  503 -0.00000000000E+00 -0.00000000000E+00 -0.22449052296E+03  0.22449052296E+03  0.00000000000E+00 0.  1.
          6    1    1    2  501    0 -0.57912493472E+02 -0.17228029730E+02 -0.12509032288E+03  0.22109330787E+03  0.17200000000E+03 0. -1.
         -6    1    1    2    0  502  0.57912493472E+02  0.17228029730E+02  0.11025254530E+03  0.21304996047E+03  0.17200000000E+03 0. -1.
</event>
<event>
 4    1  0.4450588E+000  0.2087706E+03  0.7818608E-02  0.1142543E+00
         21   -1    0    0  503  502  0.00000000000E+00  0.00000000000E+00  0.63950199095E+03  0.63950199095E+03  0.00000000000E+00 0.  1.
         21   -1    0    0  501  503 -0.00000000000E+00 -0.00000000000E+00 -0.11809560641E+03  0.11809560641E+03  0.00000000000E+00 0.  1.
          6    1    1    2  501    0 -0.11686929119E+03 -0.18512879188E+02  0.14372055938E+02  0.20926469820E+03  0.17200000000E+03 0.  1.
         -6    1    1    2    0  502  0.11686929119E+03  0.18512879188E+02  0.50703432861E+03  0.54833289916E+03  0.17200000000E+03 0.  1.
</event>
<event>
 4    1  0.4450588E+000  0.1725333E+03  0.7818608E-02  0.1175231E+00
         21   -1    0    0  501  502  0.00000000000E+00  0.00000000000E+00  0.71220388539E+03  0.71220388539E+03  0.00000000000E+00 0. -1.
         21   -1    0    0  502  503 -0.00000000000E+00 -0.00000000000E+00 -0.16394383477E+03  0.16394383477E+03  0.00000000000E+00 0. -1.
          6    1    1    2  501    0  0.10444518660E+02 -0.86408615576E+01  0.65226033121E+03  0.67469348013E+03  0.17200000000E+03 0. -1.
         -6    1    1    2    0  503 -0.10444518660E+02  0.86408615576E+01 -0.10400028060E+03  0.20145424002E+03  0.17200000000E+03 0. -1.
</event>
<event>
 4    1  0.4450588E+000  0.2109139E+03  0.7818608E-02  0.1140844E+00
         21   -1    0    0  501  502  0.00000000000E+00  0.00000000000E+00  0.93638631884E+02  0.93638631884E+02  0.00000000000E+00 0.  1.
         21   -1    0    0  502  503 -0.00000000000E+00 -0.00000000000E+00 -0.47586768560E+03  0.47586768560E+03  0.00000000000E+00 0.  1.
          6    1    1    2  501    0 -0.87762694874E+02  0.84843327186E+02 -0.17943858971E+03  0.27691675330E+03  0.17200000000E+03 0.  1.
         -6    1    1    2    0  503  0.87762694874E+02 -0.84843327186E+02 -0.20279046400E+03  0.29258956419E+03  0.17200000000E+03 0.  1.
</event>
<event>
 4    1  0.4450588E+000  0.6712303E+03  0.7818608E-02  0.9767738E-01
         21   -1    0    0  503  502  0.00000000000E+00  0.00000000000E+00  0.13453767216E+04  0.13453767216E+04  0.00000000000E+00 0.  1.
         21   -1    0    0  501  503 -0.00000000000E+00 -0.00000000000E+00 -0.83344663464E+03  0.83344663464E+03  0.00000000000E+00 0. -1.
          6    1    1    2  501    0 -0.60657374937E+03 -0.23029195233E+03 -0.58661542136E+03  0.89144138861E+03  0.17200000000E+03 0. -1.
         -6    1    1    2    0  502  0.60657374937E+03  0.23029195233E+03  0.10985455083E+04  0.12873819676E+04  0.17200000000E+03 0.  1.
</event>
<event>
 4    1  0.4450588E+000  0.2432301E+03  0.7818608E-02  0.1117660E+00
         21   -1    0    0  503  502  0.00000000000E+00  0.00000000000E+00  0.20096152346E+03  0.20096152346E+03  0.00000000000E+00 0.  1.
         21   -1    0    0  501  503 -0.00000000000E+00 -0.00000000000E+00 -0.30819978332E+03  0.30819978332E+03  0.00000000000E+00 0. -1.
          6    1    1    2  501    0 -0.16376463615E+03  0.52516860096E+02  0.27199341857E+00  0.24323024201E+03  0.17200000000E+03 0.  1.
         -6    1    1    2    0  502  0.16376463615E+03 -0.52516860096E+02 -0.10751025328E+03  0.26593106477E+03  0.17200000000E+03 0.  1.
</event>
<event>
 4    1  0.4450588E+000  0.1910274E+03  0.7818608E-02  0.1157538E+00
         21   -1    0    0  501  502  0.00000000000E+00  0.00000000000E+00  0.57513046850E+02  0.57513046850E+02  0.00000000000E+00 0. -1.
         21   -1    0    0  502  503 -0.00000000000E+00 -0.00000000000E+00 -0.69945631465E+03  0.69945631465E+03  0.00000000000E+00 0.  1.
          6    1    1    2  501    0  0.76521655081E+02  0.32433020661E+02 -0.20562326446E+03  0.28066419689E+03  0.17200000000E+03 0.  1.
         -6    1    1    2    0  503 -0.76521655081E+02 -0.32433020661E+02 -0.43632000333E+03  0.47630516461E+03  0.17200000000E+03 0.  1.
</event>
<event>
 4    1  0.4450588E+000  0.1766898E+03  0.7818608E-02  0.1171046E+00
         21   -1    0    0  501  502  0.00000000000E+00  0.00000000000E+00  0.15125445217E+03  0.15125445217E+03  0.00000000000E+00 0. -1.
         21   -1    0    0  502  503 -0.00000000000E+00 -0.00000000000E+00 -0.27239260962E+03  0.27239260962E+03  0.00000000000E+00 0. -1.
          6    1    1    2  501    0  0.40386639169E+02 -0.20485115964E+01  0.43690605145E+02  0.18201138976E+03  0.17200000000E+03 0. -1.
         -6    1    1    2    0  503 -0.40386639169E+02  0.20485115964E+01 -0.16482876259E+03  0.24163567204E+03  0.17200000000E+03 0. -1.
</event>
<event>
 4    1  0.4450588E+000  0.2439797E+03  0.7818608E-02  0.1117170E+00
         21   -1    0    0  503  502  0.00000000000E+00  0.00000000000E+00  0.94845459754E+02  0.94845459754E+02  0.00000000000E+00 0. -1.
         21   -1    0    0  501  503 -0.00000000000E+00 -0.00000000000E+00 -0.93777650182E+03  0.93777650182E+03  0.00000000000E+00 0. -1.
          6    1    1    2  501    0 -0.55998179124E+02  0.16372624557E+03 -0.71839836956E+03  0.75869776389E+03  0.17200000000E+03 0. -1.
         -6    1    1    2    0  502  0.55998179124E+02 -0.16372624557E+03 -0.12453267251E+03  0.27392419768E+03  0.17200000000E+03 0. -1.
</event>
<event>
 4    1  0.4450588E+000  0.1771765E+03  0.7818608E-02  0.1170564E+00
         21   -1    0    0  501  502  0.00000000000E+00  0.00000000000E+00  0.22272519522E+03  0.22272519522E+03  0.00000000000E+00 0. -1.
         21   -1    0    0  502  503 -0.00000000000E+00 -0.00000000000E+00 -0.17813665370E+03  0.17813665370E+03  0.00000000000E+00 0. -1.
          6    1    1    2  501    0 -0.42503548593E+02 -0.97606724939E+00  0.11387917409E+03  0.21061806818E+03  0.17200000000E+03 0. -1.
         -6    1    1    2    0  503  0.42503548593E+02  0.97606724939E+00 -0.69290632577E+02  0.19024378075E+03  0.17200000000E+03 0. -1.
</event>
<event>
 4    1  0.4450588E+000  0.2722816E+03  0.7818608E-02  0.1099981E+00
         21   -1    0    0  503  502  0.00000000000E+00  0.00000000000E+00  0.81459034938E+03  0.81459034938E+03  0.00000000000E+00 0.  1.
         21   -1    0    0  501  503 -0.00000000000E+00 -0.00000000000E+00 -0.13809497485E+03  0.13809497485E+03  0.00000000000E+00 0.  1.
          6    1    1    2  501    0  0.62404027315E+02  0.20164083486E+03  0.60107548579E+02  0.27883723981E+03  0.17200000000E+03 0.  1.
         -6    1    1    2    0  502 -0.62404027315E+02 -0.20164083486E+03  0.61638782595E+03  0.67384808442E+03  0.17200000000E+03 0.  1.
</event>
<event>
 4    1  0.4450588E+000  0.1975248E+03  0.7818608E-02  0.1151844E+00
         21   -1    0    0  503  502  0.00000000000E+00  0.00000000000E+00  0.23725910944E+03  0.23725910944E+03  0.00000000000E+00 0.  1.
         21   -1    0    0  501  503 -0.00000000000E+00 -0.00000000000E+00 -0.33085955663E+03  0.33085955663E+03  0.00000000000E+00 0.  1.
          6    1    1    2  501    0  0.62136659348E+02 -0.74639742570E+02 -0.24825751008E+03  0.31725044826E+03  0.17200000000E+03 0.  1.
         -6    1    1    2    0  502 -0.62136659348E+02  0.74639742570E+02  0.15465706289E+03  0.25086821781E+03  0.17200000000E+03 0.  1.
</event>
<event>
 4    1  0.4450588E+000  0.1777385E+03  0.7818608E-02  0.1170010E+00
         21   -1    0    0  501  502  0.00000000000E+00  0.00000000000E+00  0.25098135118E+03  0.25098135118E+03  0.00000000000E+00 0. -1.
         21   -1    0    0  502  503 -0.00000000000E+00 -0.00000000000E+00 -0.15350582649E+03  0.15350582649E+03  0.00000000000E+00 0. -1.
          6    1    1    2  501    0  0.20454194788E+02  0.39857071867E+02  0.13455025427E+03  0.22292315085E+03  0.17200000000E+03 0. -1.
         -6    1    1    2    0  503 -0.20454194788E+02 -0.39857071867E+02 -0.37074729582E+02  0.18156402682E+03  0.17200000000E+03 0. -1.
</event>
<event>
 4    1  0.4450588E+000  0.1963941E+03  0.7818608E-02  0.1152817E+00
         21   -1    0    0  503  502  0.00000000000E+00  0.00000000000E+00  0.26621538689E+03  0.26621538689E+03  0.00000000000E+00 0.  1.
         21   -1    0    0  501  503 -0.00000000000E+00 -0.00000000000E+00 -0.14763105839E+03  0.14763105839E+03  0.00000000000E+00 0.  1.
          6    1    1    2  501    0  0.87489566470E+02  0.36499466954E+02  0.31071345638E+02  0.19883677690E+03  0.17200000000E+03 0.  1.
         -6    1    1    2    0  502 -0.87489566470E+02 -0.36499466954E+02  0.87512982858E+02  0.21500966838E+03  0.17200000000E+03 0.  1.
</event>
<event>
 4    1  0.4450588E+000  0.1927553E+03  0.7818608E-02  0.1155999E+00
         21   -1    0    0  501  502  0.00000000000E+00  0.00000000000E+00  0.65123938601E+03  0.65123938601E+03  0.00000000000E+00 0. -1.
         21   -1    0    0  502  503 -0.00000000000E+00 -0.00000000000E+00 -0.10248615909E+03  0.10248615909E+03  0.00000000000E+00 0. -1.
          6    1    1    2  501    0  0.83613020631E+02  0.24072312345E+02  0.52529998499E+03  0.55954864638E+03  0.17200000000E+03 0. -1.
         -6    1    1    2    0  503 -0.83613020631E+02 -0.24072312345E+02  0.23453241935E+02  0.19417689872E+03  0.17200000000E+03 0. -1.
</event>
<event>
 4    1  0.4450588E+000  0.2375963E+03  0.7818608E-02  0.1121405E+00
         21   -1    0    0  503  502  0.00000000000E+00  0.00000000000E+00  0.53212643195E+03  0.53212643195E+03  0.00000000000E+00 0.  1.
         21   -1    0    0  501  503 -0.00000000000E+00 -0.00000000000E+00 -0.21313182387E+03  0.21313182387E+03  0.00000000000E+00 0. -1.
          6    1    1    2  501    0 -0.11062038915E+03 -0.12095928407E+03 -0.10458193348E+03  0.25959468352E+03  0.17200000000E+03 0. -1.
         -6    1    1    2    0  502  0.11062038915E+03  0.12095928407E+03  0.42357654156E+03  0.48566357230E+03  0.17200000000E+03 0.  1.
</event>
<event>
 4    1  0.4450588E+000  0.2184079E+03  0.7818608E-02  0.1135076E+00
         21   -1    0    0  501  502  0.00000000000E+00  0.00000000000E+00  0.77008694782E+03  0.77008694782E+03  0.00000000000E+00 0.  1.
         21   -1    0    0  502  503 -0.00000000000E+00 -0.00000000000E+00 -0.87243674478E+02  0.87243674478E+02  0.00000000000E+00 0. -1.
          6    1    1    2  501    0  0.13271095004E+03 -0.22489936117E+02  0.57226206367E+03  0.61252417340E+03  0.17200000000E+03 0.  1.
         -6    1    1    2    0  503 -0.13271095004E+03  0.22489936117E+02  0.11058120967E+03  0.24480644889E+03  0.17200000000E+03 0. -1.
</event>
<event>
 4    1  0.4450588E+000  0.1812410E+03  0.7818608E-02  0.1166607E+00
         21   -1    0    0  503  502  0.00000000000E+00  0.00000000000E+00  0.26267802828E+03  0.26267802828E+03  0.00000000000E+00 0. -1.
         21   -1    0    0  501  503 -0.00000000000E+00 -0.00000000000E+00 -0.55303557870E+03  0.55303557870E+03  0.00000000000E+00 0. -1.
          6    1    1    2  501    0  0.97040526296E+01  0.56303955623E+02 -0.50397258220E+03  0.53557134694E+03  0.17200000000E+03 0. -1.
         -6    1    1    2    0  502 -0.97040526296E+01 -0.56303955623E+02  0.21361503178E+03  0.28014226004E+03  0.17200000000E+03 0. -1.
</event>
<event>
 4    1  0.4450588E+000  0.1945511E+03  0.7818608E-02  0.1154419E+00
         21   -1    0    0  503  502  0.00000000000E+00  0.00000000000E+00  0.56643577313E+02  0.56643577313E+02  0.00000000000E+00 0. -1.
         21   -1    0    0  501  503 -0.00000000000E+00 -0.00000000000E+00 -0.13190379980E+04  0.13190379980E+04  0.00000000000E+00 0. -1.
          6    1    1    2  501    0  0.76736254729E+02 -0.48761325029E+02 -0.11143567194E+04  0.11312121895E+04  0.17200000000E+03 0. -1.
         -6    1    1    2    0  502 -0.76736254729E+02  0.48761325029E+02 -0.14803770135E+03  0.24446938587E+03  0.17200000000E+03 0. -1.
</event>
<event>
 4    1  0.4450588E+000  0.1752020E+03  0.7818608E-02  0.1172529E+00
         21   -1    0    0  503  502  0.00000000000E+00  0.00000000000E+00  0.40213333040E+02  0.40213333040E+02  0.00000000000E+00 0. -1.
         21   -1    0    0  501  503 -0.00000000000E+00 -0.00000000000E+00 -0.87810743170E+03  0.87810743170E+03  0.00000000000E+00 0. -1.
          6    1    1    2  501    0  0.29817083641E+02  0.14922023136E+02 -0.58495687986E+03  0.61063104780E+03  0.17200000000E+03 0. -1.
         -6    1    1    2    0  502 -0.29817083641E+02 -0.14922023136E+02 -0.25293721880E+03  0.30768971693E+03  0.17200000000E+03 0. -1.
</event>
<event>
 4    1  0.4450588E+000  0.2234783E+03  0.7818608E-02  0.1131316E+00
         21   -1    0    0  503  502  0.00000000000E+00  0.00000000000E+00  0.26529816884E+02  0.26529816884E+02  0.00000000000E+00 0. -1.
         21   -1    0    0  501  503 -0.00000000000E+00 -0.00000000000E+00 -0.23121916840E+04  0.23121916840E+04  0.00000000000E+00 0.  1.
          6    1    1    2  501    0 -0.74780705634E+02  0.12151704097E+03 -0.16469253981E+04  0.16620185956E+04  0.17200000000E+03 0.  1.
         -6    1    1    2    0  502  0.74780705634E+02 -0.12151704097E+03 -0.63873646899E+03  0.67670290527E+03  0.17200000000E+03 0. -1.
</event>
<event>
 4    1  0.4450588E+000  0.2043335E+03  0.7818608E-02  0.1146133E+00
         21   -1    0    0  503  502  0.00000000000E+00  0.00000000000E+00  0.28209390157E+02  0.28209390157E+02  0.00000000000E+00 0.  1.
         21   -1    0    0  501  503 -0.00000000000E+00 -0.00000000000E+00 -0.14943158594E+04  0.14943158594E+04  0.00000000000E+00 0. -1.
          6    1    1    2  501    0  0.30699513882E+02  0.10595147547E+03 -0.65875239377E+03  0.68971508002E+03  0.17200000000E+03 0.  1.
         -6    1    1    2    0  502 -0.30699513882E+02 -0.10595147547E+03 -0.80735407552E+03  0.83281016959E+03  0.17200000000E+03 0. -1.
</event>
<event>
 4    1  0.4450588E+000  0.1836442E+03  0.7818608E-02  0.1164322E+00
         21   -1    0    0  501  502  0.00000000000E+00  0.00000000000E+00  0.22941753494E+03  0.22941753494E+03  0.00000000000E+00 0.  1.
         21   -1    0    0  502  503 -0.00000000000E+00 -0.00000000000E+00 -0.17413667787E+03  0.17413667787E+03  0.00000000000E+00 0.  1.
          6    1    1    2  501    0  0.18087051944E+01  0.64326752636E+02  0.10728869511E+03  0.21268772089E+03  0.17200000000E+03 0.  1.
         -6    1    1    2    0  503 -0.18087051944E+01 -0.64326752636E+02 -0.52007838039E+02  0.19086649192E+03  0.17200000000E+03 0.  1.
</event>
<event>
 4    1  0.4450588E+000  0.1815461E+03  0.7818608E-02  0.1166315E+00
         21   -1    0    0  503  502  0.00000000000E+00  0.00000000000E+00  0.73944078194E+03  0.73944078194E+03  0.00000000000E+00 0. -1.
         21   -1    0    0  501  503 -0.00000000000E+00 -0.00000000000E+00 -0.49288937607E+02  0.49288937607E+02  0.00000000000E+00 0. -1.
          6    1    1    2  501    0 -0.21885707275E+02 -0.53814639434E+02  0.22308896932E+03  0.28762421288E+03  0.17200000000E+03 0. -1.
         -6    1    1    2    0  502  0.21885707275E+02  0.53814639434E+02  0.46706287501E+03  0.50110550667E+03  0.17200000000E+03 0. -1.
</event>
<event>
 4    1  0.4450588E+000  0.2307251E+03  0.7818608E-02  0.1126130E+00
         21   -1    0    0  503  502  0.00000000000E+00  0.00000000000E+00  0.14130936764E+03  0.14130936764E+03  0.00000000000E+00 0. -1.
         21   -1    0    0  501  503 -0.00000000000E+00 -0.00000000000E+00 -0.38438230457E+03  0.38438230457E+03  0.00000000000E+00 0. -1.
          6    1    1    2  501    0  0.88991562060E+02 -0.12542156788E+03 -0.15864711715E+03  0.28000531350E+03  0.17200000000E+03 0. -1.
         -6    1    1    2    0  502 -0.88991562060E+02  0.12542156788E+03 -0.84425819778E+02  0.24568635870E+03  0.17200000000E+03 0. -1.
</event>
<event>
 4    1  0.4450588E+000  0.2100838E+03  0.7818608E-02  0.1141500E+00
         21   -1    0    0  501  502  0.00000000000E+00  0.00000000000E+00  0.10791129581E+04  0.10791129581E+04  0.00000000000E+00 0.  1.
         21   -1    0    0  502  503 -0.00000000000E+00 -0.00000000000E+00 -0.21689991035E+03  0.21689991035E+03  0.00000000000E+00 0.  1.
          6    1    1    2  501    0  0.67337987508E+01  0.12044029635E+03  0.10148290313E+04  0.10363460676E+04  0.17200000000E+03 0.  1.
         -6    1    1    2    0  503 -0.67337987508E+01 -0.12044029635E+03 -0.15261598355E+03  0.25966680086E+03  0.17200000000E+03 0.  1.
</event>
<event>
 4    1  0.4450588E+000  0.2099859E+03  0.7818608E-02  0.1141577E+00
         21   -1    0    0  501  502  0.00000000000E+00  0.00000000000E+00  0.19691016468E+03  0.19691016468E+03  0.00000000000E+00 0. -1.
         21   -1    0    0  502  503 -0.00000000000E+00 -0.00000000000E+00 -0.22669088130E+03  0.22669088130E+03  0.00000000000E+00 0. -1.
          6    1    1    2  501    0  0.61109126862E+02 -0.10380640191E+03  0.84836587591E+01  0.21015724334E+03  0.17200000000E+03 0. -1.
         -6    1    1    2    0  503 -0.61109126862E+02  0.10380640191E+03 -0.38264375374E+02  0.21344380264E+03  0.17200000000E+03 0. -1.
</event>
<event>
 4    1  0.4450588E+000  0.2352688E+03  0.7818608E-02  0.1122985E+00
         21   -1    0    0  503  502  0.00000000000E+00  0.00000000000E+00  0.30702752645E+03  0.30702752645E+03  0.00000000000E+00 0. -1.
         21   -1    0    0  501  503 -0.00000000000E+00 -0.00000000000E+00 -0.18985052260E+03  0.18985052260E+03  0.00000000000E+00 0. -1.
          6    1    1    2  501    0  0.10748512049E+03 -0.11922400665E+03  0.11436424317E+03  0.26159242154E+03  0.17200000000E+03 0. -1.
         -6    1    1    2    0  502 -0.10748512049E+03  0.11922400665E+03  0.28127606778E+01  0.23528562751E+03  0.17200000000E+03 0. -1.
</event>
<event>
 4    1  0.4450588E+000  0.2049397E+03  0.7818608E-02  0.1145637E+00
         21   -1    0    0  501  502  0.00000000000E+00  0.00000000000E+00  0.48033534258E+03  0.48033534258E+03  0.00000000000E+00 0.  1.
         21   -1    0    0  502  503 -0.00000000000E+00 -0.00000000000E+00 -0.10180816104E+03  0.10180816104E+03  0.00000000000E+00 0.  1.
          6    1    1    2  501    0 -0.65909111918E+02  0.89845867818E+02  0.29861304908E+03  0.36217405219E+03  0.17200000000E+03 0.  1.
         -6    1    1    2    0  503  0.65909111918E+02 -0.89845867818E+02  0.79914132454E+02  0.21996945143E+03  0.17200000000E+03 0.  1.
</event>
<event>
 4    1  0.4450588E+000  0.2221931E+03  0.7818608E-02  0.1132258E+00
         21   -1    0    0  503  502  0.00000000000E+00  0.00000000000E+00  0.10213186049E+04  0.10213186049E+04  0.00000000000E+00 0.  1.
         21   -1    0    0  501  503 -0.00000000000E+00 -0.00000000000E+00 -0.82505527013E+02  0.82505527013E+02  0.00000000000E+00 0.  1.
          6    1    1    2  501    0  0.97121610214E+02 -0.10175051257E+03  0.11424395669E+03  0.24984286186E+03  0.17200000000E+03 0.  1.
         -6    1    1    2    0  502 -0.97121610214E+02  0.10175051257E+03  0.82456912119E+03  0.85398127005E+03  0.17200000000E+03 0.  1.
</event>
<event>
 4    1  0.4450588E+000  0.2328797E+03  0.7818608E-02  0.1124629E+00
         21   -1    0    0  501  502  0.00000000000E+00  0.00000000000E+00  0.20496618862E+04  0.20496618862E+04  0.00000000000E+00 0. -1.
         21   -1    0    0  502  503 -0.00000000000E+00 -0.00000000000E+00 -0.54227421978E+02  0.54227421978E+02  0.00000000000E+00 0.  1.
          6    1    1    2  501    0  0.97774319540E+02  0.12283779946E+03  0.17504753204E+04  0.17658982954E+04  0.17200000000E+03 0. -1.
         -6    1    1    2    0  503 -0.97774319540E+02 -0.12283779946E+03  0.24495914380E+03  0.33799101270E+03  0.17200000000E+03 0.  1.
</event>
<event>
 4    1  0.4450588E+000  0.2159607E+03  0.7818608E-02  0.1136931E+00
         21   -1    0    0  501  502  0.00000000000E+00  0.00000000000E+00  0.66024858465E+03  0.66024858465E+03  0.00000000000E+00 0. -1.
         21   -1    0    0  502  503 -0.00000000000E+00 -0.00000000000E+00 -0.13132318964E+03  0.13132318964E+03  0.00000000000E+00 0. -1.
          6    1    1    2  501    0  0.50499243507E+02 -0.12043602674E+03  0.53351018520E+03  0.57556244478E+03  0.17200000000E+03 0. -1.
         -6    1    1    2    0  503 -0.50499243507E+02  0.12043602674E+03 -0.45847901808E+01  0.21600932951E+03  0.17200000000E+03 0. -1.
</event>
<event>
 4    1  0.4450588E+000  0.2708668E+03  0.7818608E-02  0.1100785E+00
         21   -1    0    0  503  502  0.00000000000E+00  0.00000000000E+00  0.60787689623E+03  0.60787689623E+03  0.00000000000E+00 0.  1.
         21   -1    0    0  501  503 -0.00000000000E+00 -0.00000000000E+00 -0.21974425347E+03  0.21974425347E+03  0.00000000000E+00 0. -1.
          6    1    1    2  501    0  0.14296791580E+03  0.15279078086E+03 -0.83754181337E+02  0.28352003555E+03  0.17200000000E+03 0. -1.
         -6    1    1    2    0  502 -0.14296791580E+03 -0.15279078086E+03  0.47188682410E+03  0.54410111415E+03  0.17200000000E+03 0.  1.
</event>
<event>
 4    1  0.4450588E+000  0.2616429E+03  0.7818608E-02  0.1106160E+00
         21   -1    0    0  501  502  0.00000000000E+00  0.00000000000E+00  0.59726016302E+03  0.59726016302E+03  0.00000000000E+00 0.  1.
         21   -1    0    0  502  503 -0.00000000000E+00 -0.00000000000E+00 -0.23729439751E+03  0.23729439751E+03  0.00000000000E+00 0. -1.
          6    1    1    2  501    0  0.42501535072E+02 -0.19252691152E+03  0.48001022279E+03  0.54668711904E+03  0.17200000000E+03 0.  1.
         -6    1    1    2    0  503 -0.42501535072E+02  0.19252691152E+03 -0.12004445728E+03  0.28786744149E+03  0.17200000000E+03 0. -1.
</event>
<event>
 4    1  0.4450588E+000  0.2087012E+03  0.7818608E-02  0.1142599E+00
         21   -1    0    0  503  502  0.00000000000E+00  0.00000000000E+00  0.30142144995E+03  0.30142144995E+03  0.00000000000E+00 0. -1.
         21   -1    0    0  501  503 -0.00000000000E+00 -0.00000000000E+00 -0.17236167573E+03  0.17236167573E+03  0.00000000000E+00 0.  1.
          6    1    1    2  501    0 -0.10600974251E+03 -0.52288920216E+02  0.15976832049E+03  0.26283476352E+03  0.17200000000E+03 0. -1.
         -6    1    1    2    0  502  0.10600974251E+03  0.52288920216E+02 -0.30708546279E+02  0.21094836216E+03  0.17200000000E+03 0.  1.
</event>
<event>
 4    1  0.4450588E+000  0.2279098E+03  0.7818608E-02  0.1128120E+00
         21   -1    0    0  501  502  0.00000000000E+00  0.00000000000E+00  0.73359143679E+03  0.73359143679E+03  0.00000000000E+00 0.  1.
         21   -1    0    0  502  503 -0.00000000000E+00 -0.00000000000E+00 -0.87849449879E+02  0.87849449879E+02  0.00000000000E+00 0. -1.
          6    1    1    2  501    0 -0.13327023677E+03 -0.67807873615E+02  0.50377670464E+03  0.55293203187E+03  0.17200000000E+03 0.  1.
         -6    1    1    2    0  503  0.13327023677E+03  0.67807873615E+02  0.14196528227E+03  0.26850885480E+03  0.17200000000E+03 0. -1.
</event>
<event>
 4    1  0.4450588E+000  0.1985944E+03  0.7818608E-02  0.1150930E+00
         21   -1    0    0  503  502  0.00000000000E+00  0.00000000000E+00  0.39378079331E+03  0.39378079331E+03  0.00000000000E+00 0.  1.
         21   -1    0    0  501  503 -0.00000000000E+00 -0.00000000000E+00 -0.11616635352E+03  0.11616635352E+03  0.00000000000E+00 0.  1.
          6    1    1    2  501    0  0.19921600806E+02 -0.97256728491E+02  0.23346306826E+03  0.30650407119E+03  0.17200000000E+03 0.  1.
         -6    1    1    2    0  502 -0.19921600806E+02  0.97256728491E+02  0.44151371531E+02  0.20344307563E+03  0.17200000000E+03 0.  1.
</event>
<event>
 4    1  0.4450588E+000  0.2278138E+03  0.7818608E-02  0.1128188E+00
         21   -1    0    0  501  502  0.00000000000E+00  0.00000000000E+00  0.13290996042E+03  0.13290996042E+03  0.00000000000E+00 0.  1.
         21   -1    0    0  502  503 -0.00000000000E+00 -0.00000000000E+00 -0.39345110610E+03  0.39345110610E+03  0.00000000000E+00 0.  1.
          6    1    1    2  501    0  0.12158736869E+02 -0.14888691708E+03 -0.10741404976E+03  0.25186688359E+03  0.17200000000E+03 0.  1.
         -6    1    1    2    0  503 -0.12158736869E+02  0.14888691708E+03 -0.15312709592E+03  0.27449418293E+03  0.17200000000E+03 0.  1.
</event>
<event>
 4    1  0.4450588E+000  0.1898492E+03  0.7818608E-02  0.1158597E+00
         21   -1    0    0  501  502  0.00000000000E+00  0.00000000000E+00  0.17016943495E+04  0.17016943495E+04  0.00000000000E+00 0. -1.
         21   -1    0    0  502  503 -0.00000000000E+00 -0.00000000000E+00 -0.22981217043E+02  0.22981217043E+02  0.00000000000E+00 0. -1.
          6    1    1    2  501    0  0.36554821004E+02 -0.71571268047E+02  0.10807448455E+04  0.10972930886E+04  0.17200000000E+03 0. -1.
         -6    1    1    2    0  503 -0.36554821004E+02  0.71571268047E+02  0.59796828700E+03  0.62738247792E+03  0.17200000000E+03 0. -1.
</event>
<event>
 4    1  0.4450588E+000  0.2044018E+03  0.7818608E-02  0.1146077E+00
         21   -1    0    0  501  502  0.00000000000E+00  0.00000000000E+00  0.13245204860E+03  0.13245204860E+03  0.00000000000E+00 0.  1.
         21   -1    0    0  502  503 -0.00000000000E+00 -0.00000000000E+00 -0.35583208536E+03  0.35583208536E+03  0.00000000000E+00 0.  1.
          6    1    1    2  501    0 -0.77443953570E+02 -0.78730842436E+02 -0.29429576082E+02  0.20650959165E+03  0.17200000000E+03 0.  1.
         -6    1    1    2    0  503  0.77443953570E+02  0.78730842436E+02 -0.19395046068E+03  0.28177454231E+03  0.17200000000E+03 0.  1.
</event>
<event>
 4    1  0.4450588E+000  0.2027020E+03  0.7818608E-02  0.1147479E+00
         21   -1    0    0  501  502  0.00000000000E+00  0.00000000000E+00  0.10023815284E+03  0.10023815284E+03  0.00000000000E+00 0.  1.
         21   -1    0    0  502  503 -0.00000000000E+00 -0.00000000000E+00 -0.50005724031E+03  0.50005724031E+03  0.00000000000E+00 0.  1.
          6    1    1    2  501    0  0.81116981737E+02 -0.70172252379E+02 -0.72467225070E+02  0.21526636625E+03  0.17200000000E+03 0.  1.
         -6    1    1    2    0  503 -0.81116981737E+02  0.70172252379E+02 -0.32735186240E+03  0.38502902689E+03  0.17200000000E+03 0.  1.
</event>
<event>
 4    1  0.4450588E+000  0.2046154E+03  0.7818608E-02  0.1145902E+00
         21   -1    0    0  503  502  0.00000000000E+00  0.00000000000E+00  0.41806974067E+03  0.41806974067E+03  0.00000000000E+00 0. -1.
         21   -1    0    0  501  503 -0.00000000000E+00 -0.00000000000E+00 -0.23017043807E+03  0.23017043807E+03  0.00000000000E+00 0. -1.
          6    1    1    2  501    0 -0.13381883542E+01  0.11082264407E+03 -0.14966080197E+03  0.25350701141E+03  0.17200000000E+03 0. -1.
         -6    1    1    2    0  502  0.13381883542E+01 -0.11082264407E+03  0.33756010457E+03  0.39473316732E+03  0.17200000000E+03 0. -1.
</event>
<event>
 4    1  0.4450588E+000  0.1951222E+03  0.7818608E-02  0.1153921E+00
         21   -1    0    0  501  502  0.00000000000E+00  0.00000000000E+00  0.13969960895E+03  0.13969960895E+03  0.00000000000E+00 0. -1.
         21   -1    0    0  502  503 -0.00000000000E+00 -0.00000000000E+00 -0.30140749604E+03  0.30140749604E+03  0.00000000000E+00 0. -1.
          6    1    1    2  501    0  0.45115834757E+02 -0.80332035404E+02 -0.14911900662E+03  0.24557921857E+03  0.17200000000E+03 0.  1.
         -6    1    1    2    0  503 -0.45115834757E+02  0.80332035404E+02 -0.12588880477E+02  0.19552788642E+03  0.17200000000E+03 0.  1.
</event>
<event>
 4    1  0.4450588E+000  0.1949068E+03  0.7818608E-02  0.1154109E+00
         21   -1    0    0  503  502  0.00000000000E+00  0.00000000000E+00  0.11267156119E+03  0.11267156119E+03  0.00000000000E+00 0.  1.
         21   -1    0    0  501  503 -0.00000000000E+00 -0.00000000000E+00 -0.34176420290E+03  0.34176420290E+03  0.00000000000E+00 0. -1.
          6    1    1    2  501    0  0.44772038961E+02 -0.80000822009E+02 -0.14091091109E+03  0.24050894341E+03  0.17200000000E+03 0.  1.
         -6    1    1    2    0  502 -0.44772038961E+02  0.80000822009E+02 -0.88181730611E+02  0.21392682068E+03  0.17200000000E+03 0.  1.
</event>
<event>
 4    1  0.4450588E+000  0.2215939E+03  0.7818608E-02  0.1132700E+00
         21   -1    0    0  501  502  0.00000000000E+00  0.00000000000E+00  0.35262430743E+03  0.35262430743E+03  0.00000000000E+00 0.  1.
         21   -1    0    0  502  503 -0.00000000000E+00 -0.00000000000E+00 -0.21556161306E+03  0.21556161306E+03  0.00000000000E+00 0.  1.
          6    1    1    2  501    0  0.13390873094E+02 -0.13907023478E+03  0.23756093253E+03  0.32486773055E+03  0.17200000000E+03 0.  1.
         -6    1    1    2    0  503 -0.13390873094E+02  0.13907023478E+03 -0.10049823816E+03  0.24331818994E+03  0.17200000000E+03 0.  1.
</event>
<event>
 4    1  0.4450588E+000  0.2663024E+03  0.7818608E-02  0.1103415E+00
         21   -1    0    0  501  502  0.00000000000E+00  0.00000000000E+00  0.14990293517E+03  0.14990293517E+03  0.00000000000E+00 0.  1.
         21   -1    0    0  502  503 -0.00000000000E+00 -0.00000000000E+00 -0.50591272783E+03  0.50591272783E+03  0.00000000000E+00 0.  1.
          6    1    1    2  501    0  0.88719178269E+02 -0.18292585313E+03 -0.26153223625E+03  0.37325068109E+03  0.17200000000E+03 0.  1.
         -6    1    1    2    0  503 -0.88719178269E+02  0.18292585313E+03 -0.94477556415E+02  0.28256498191E+03  0.17200000000E+03 0.  1.
</event>
<event>
 4    1  0.4450588E+000  0.2252018E+03  0.7818608E-02  0.1130063E+00
         21   -1    0    0  501  502  0.00000000000E+00  0.00000000000E+00  0.41653516570E+02  0.41653516570E+02  0.00000000000E+00 0. -1.
         21   -1    0    0  502  503 -0.00000000000E+00 -0.00000000000E+00 -0.12635001356E+04  0.12635001356E+04  0.00000000000E+00 0.  1.
          6    1    1    2  501    0  0.14176651365E+03 -0.32157469508E+02 -0.48649523133E+03  0.53609090399E+03  0.17200000000E+03 0. -1.
         -6    1    1    2    0  503 -0.14176651365E+03  0.32157469508E+02 -0.73535138765E+03  0.76906274813E+03  0.17200000000E+03 0.  1.
</event>
<event>
 4    1  0.4450588E+000  0.2073282E+03  0.7818608E-02  0.1143699E+00
         21   -1    0    0  501  502  0.00000000000E+00  0.00000000000E+00  0.36861700578E+03  0.36861700578E+03  0.00000000000E+00 0.  1.
         21   -1    0    0  502  503 -0.00000000000E+00 -0.00000000000E+00 -0.11664478387E+03  0.11664478387E+03  0.00000000000E+00 0. -1.
          6    1    1    2  501    0  0.47001587369E+02  0.10579148073E+03  0.12188833479E+03  0.24050312424E+03  0.17200000000E+03 0. -1.
         -6    1    1    2    0  503 -0.47001587369E+02 -0.10579148073E+03  0.13008388712E+03  0.24475866542E+03  0.17200000000E+03 0.  1.
</event>
<event>
 4    1  0.4450588E+000  0.1794246E+03  0.7818608E-02  0.1168361E+00
         21   -1    0    0  501  502  0.00000000000E+00  0.00000000000E+00  0.13322102968E+03  0.13322102968E+03  0.00000000000E+00 0. -1.
         21   -1    0    0  502  503 -0.00000000000E+00 -0.00000000000E+00 -0.99575424279E+03  0.99575424279E+03  0.00000000000E+00 0. -1.
          6    1    1    2  501    0  0.51076896662E+02  0.59064897014E+00  0.59972933838E+02  0.18918232220E+03  0.17200000000E+03 0. -1.
         -6    1    1    2    0  503 -0.51076896662E+02 -0.59064897014E+00 -0.92250614694E+03  0.93979295027E+03  0.17200000000E+03 0. -1.
</event>
<event>
 4    1  0.4450588E+000  0.2130218E+03  0.7818608E-02  0.1139195E+00
         21   -1    0    0  501  502  0.00000000000E+00  0.00000000000E+00  0.12605449445E+04  0.12605449445E+04  0.00000000000E+00 0.  1.
         21   -1    0    0  502  503 -0.00000000000E+00 -0.00000000000E+00 -0.16590846731E+03  0.16590846731E+03  0.00000000000E+00 0.  1.
          6    1    1    2  501    0  0.12189710005E+03  0.30583828222E+02  0.11784409852E+04  0.11975397401E+04  0.17200000000E+03 0.  1.
         -6    1    1    2    0  503 -0.12189710005E+03 -0.30583828222E+02 -0.83804507977E+02  0.22891367173E+03  0.17200000000E+03 0.  1.
</event>
<event>
 4    1  0.4450588E+000  0.2054637E+03  0.7818608E-02  0.1145209E+00
         21   -1    0    0  501  502  0.00000000000E+00  0.00000000000E+00  0.83380799653E+03  0.83380799653E+03  0.00000000000E+00 0. -1.
         21   -1    0    0  502  503 -0.00000000000E+00 -0.00000000000E+00 -0.66937931977E+02  0.66937931977E+02  0.00000000000E+00 0. -1.
          6    1    1    2  501    0  0.41042946889E+02  0.10462709154E+03  0.60573589853E+03  0.63963374719E+03  0.17200000000E+03 0. -1.
         -6    1    1    2    0  503 -0.41042946889E+02 -0.10462709154E+03  0.16113416602E+03  0.26111218132E+03  0.17200000000E+03 0. -1.
</event>
<event>
 4    1  0.4450588E+000  0.2036030E+03  0.7818608E-02  0.1146734E+00
         21   -1    0    0  501  502  0.00000000000E+00  0.00000000000E+00  0.98331362061E+02  0.98331362061E+02  0.00000000000E+00 0.  1.
         21   -1    0    0  502  503 -0.00000000000E+00 -0.00000000000E+00 -0.93367622120E+03  0.93367622120E+03  0.00000000000E+00 0.  1.
          6    1    1    2  501    0  0.65104777623E+01 -0.10875558701E+03 -0.35523953836E+02  0.20667877328E+03  0.17200000000E+03 0.  1.
         -6    1    1    2    0  503 -0.65104777623E+01  0.10875558701E+03 -0.79982090530E+03  0.82532880998E+03  0.17200000000E+03 0.  1.
</event>
<event>
 4    1  0.4450588E+000  0.2338141E+03  0.7818608E-02  0.1123984E+00
         21   -1    0    0  503  502  0.00000000000E+00  0.00000000000E+00  0.32550352126E+03  0.32550352126E+03  0.00000000000E+00 0.  1.
         21   -1    0    0  501  503 -0.00000000000E+00 -0.00000000000E+00 -0.35753890043E+03  0.35753890043E+03  0.00000000000E+00 0.  1.
          6    1    1    2  501    0  0.13120274883E+03 -0.88717826443E+02 -0.26470866777E+03  0.35318506880E+03  0.17200000000E+03 0.  1.
         -6    1    1    2    0  502 -0.13120274883E+03  0.88717826443E+02  0.23267328860E+03  0.32985735289E+03  0.17200000000E+03 0.  1.
</event>
<event>
 4    1  0.4450588E+000  0.2727127E+03  0.7818608E-02  0.1099737E+00
         21   -1    0    0  503  502  0.00000000000E+00  0.00000000000E+00  0.23249516213E+03  0.23249516213E+03  0.00000000000E+00 0.  1.
         21   -1    0    0  501  503 -0.00000000000E+00 -0.00000000000E+00 -0.32681706533E+03  0.32681706533E+03  0.00000000000E+00 0.  1.
          6    1    1    2  501    0  0.20845996542E+03  0.36505438862E+02 -0.87883724485E+02  0.28652356496E+03  0.17200000000E+03 0.  1.
         -6    1    1    2    0  502 -0.20845996542E+03 -0.36505438862E+02 -0.64381787162E+01  0.27278866251E+03  0.17200000000E+03 0.  1.
</event>
<event>
 4    1  0.4450588E+000  0.1899935E+03  0.7818608E-02  0.1158467E+00
         21   -1    0    0  501  502  0.00000000000E+00  0.00000000000E+00  0.36266262414E+03  0.36266262414E+03  0.00000000000E+00 0. -1.
         21   -1    0    0  502  503 -0.00000000000E+00 -0.00000000000E+00 -0.11792491227E+03  0.11792491227E+03  0.00000000000E+00 0. -1.
          6    1    1    2  501    0  0.78276876842E+02 -0.19653463420E+02  0.27476181117E+02  0.19196996797E+03  0.17200000000E+03 0. -1.
         -6    1    1    2    0  503 -0.78276876842E+02  0.19653463420E+02  0.21726153075E+03  0.28861756845E+03  0.17200000000E+03 0. -1.
</event>
<event>
 4    1  0.4450588E+000  0.1771262E+03  0.7818608E-02  0.1170614E+00
         21   -1    0    0  503  502  0.00000000000E+00  0.00000000000E+00  0.71256953572E+03  0.71256953572E+03  0.00000000000E+00 0.  1.
         21   -1    0    0  501  503 -0.00000000000E+00 -0.00000000000E+00 -0.23972447333E+03  0.23972447333E+03  0.00000000000E+00 0.  1.
          6    1    1    2  501    0  0.33109153414E+02  0.26334079229E+02 -0.19378231446E+03  0.26253625495E+03  0.17200000000E+03 0.  1.
         -6    1    1    2    0  502 -0.33109153414E+02 -0.26334079229E+02  0.66662737685E+03  0.68975775410E+03  0.17200000000E+03 0.  1.
</event>
<event>
 4    1  0.4450588E+000  0.1871446E+03  0.7818608E-02  0.1161062E+00
         21   -1    0    0  501  502  0.00000000000E+00  0.00000000000E+00  0.58504243062E+03  0.58504243062E+03  0.00000000000E+00 0.  1.
         21   -1    0    0  502  503 -0.00000000000E+00 -0.00000000000E+00 -0.69942509754E+02  0.69942509754E+02  0.00000000000E+00 0.  1.
          6    1    1    2  501    0 -0.61892551959E+02 -0.40104875254E+02  0.38186534024E+03  0.42525783600E+03  0.17200000000E+03 0.  1.
         -6    1    1    2    0  503  0.61892551959E+02  0.40104875254E+02  0.13323458063E+03  0.22972710437E+03  0.17200000000E+03 0.  1.
</event>
<event>
 4    1  0.4450588E+000  0.1838515E+03  0.7818608E-02  0.1164127E+00
         21   -1    0    0  503  502  0.00000000000E+00  0.00000000000E+00  0.44243587676E+02  0.44243587676E+02  0.00000000000E+00 0. -1.
         21   -1    0    0  501  503 -0.00000000000E+00 -0.00000000000E+00 -0.86408578165E+03  0.86408578165E+03  0.00000000000E+00 0. -1.
          6    1    1    2  501    0  0.64511721749E+02 -0.74579993255E+01 -0.25534003707E+03  0.31464252498E+03  0.17200000000E+03 0. -1.
         -6    1    1    2    0  502 -0.64511721749E+02  0.74579993255E+01 -0.56450215690E+03  0.59368684434E+03  0.17200000000E+03 0. -1.
</event>
<event>
 4    1  0.4450588E+000  0.2054885E+03  0.7818608E-02  0.1145189E+00
         21   -1    0    0  503  502  0.00000000000E+00  0.00000000000E+00  0.18348050863E+04  0.18348050863E+04  0.00000000000E+00 0.  1.
         21   -1    0    0  501  503 -0.00000000000E+00 -0.00000000000E+00 -0.36678518239E+02  0.36678518239E+02  0.00000000000E+00 0.  1.
          6    1    1    2  501    0 -0.10305224450E+03  0.44964030451E+02  0.32790938039E+03  0.38697556884E+03  0.17200000000E+03 0.  1.
         -6    1    1    2    0  502  0.10305224450E+03 -0.44964030451E+02  0.14702171877E+04  0.14845080357E+04  0.17200000000E+03 0.  1.
</event>
<event>
 4    1  0.4450588E+000  0.2297793E+03  0.7818608E-02  0.1126795E+00
         21   -1    0    0  503  502  0.00000000000E+00  0.00000000000E+00  0.51266103216E+03  0.51266103216E+03  0.00000000000E+00 0.  1.
         21   -1    0    0  501  503 -0.00000000000E+00 -0.00000000000E+00 -0.24572320254E+03  0.24572320254E+03  0.00000000000E+00 0.  1.
          6    1    1    2  501    0  0.12083523867E+03 -0.92808296710E+02 -0.15553250949E+03  0.27746873040E+03  0.17200000000E+03 0.  1.
         -6    1    1    2    0  502 -0.12083523867E+03  0.92808296710E+02  0.42247033911E+03  0.48091550429E+03  0.17200000000E+03 0.  1.
</event>
<event>
 4    1  0.4450588E+000  0.1911887E+03  0.7818608E-02  0.1157394E+00
         21   -1    0    0  503  502  0.00000000000E+00  0.00000000000E+00  0.27689260315E+03  0.27689260315E+03  0.00000000000E+00 0. -1.
         21   -1    0    0  501  503 -0.00000000000E+00 -0.00000000000E+00 -0.14222914233E+03  0.14222914233E+03  0.00000000000E+00 0. -1.
          6    1    1    2  501    0  0.70356486147E+02  0.44934328624E+02  0.11164636755E+02  0.19151443326E+03  0.17200000000E+03 0. -1.
         -6    1    1    2    0  502 -0.70356486147E+02 -0.44934328624E+02  0.12349882406E+03  0.22760731222E+03  0.17200000000E+03 0. -1.
</event>
<event>
 4    1  0.4450588E+000  0.1923615E+03  0.7818608E-02  0.1156349E+00
         21   -1    0    0  501  502  0.00000000000E+00  0.00000000000E+00  0.19029772688E+03  0.19029772688E+03  0.00000000000E+00 0. -1.
         21   -1    0    0  502  503 -0.00000000000E+00 -0.00000000000E+00 -0.24537523665E+03  0.24537523665E+03  0.00000000000E+00 0.  1.
          6    1    1    2  501    0  0.80716316272E+02  0.30063619583E+02  0.71702401427E+02  0.20529047544E+03  0.17200000000E+03 0. -1.
         -6    1    1    2    0  503 -0.80716316272E+02 -0.30063619583E+02 -0.12677991119E+03  0.23038248809E+03  0.17200000000E+03 0.  1.
</event>
<event>
 4    1  0.4450588E+000  0.2507465E+03  0.7818608E-02  0.1112834E+00
         21   -1    0    0  503  502  0.00000000000E+00  0.00000000000E+00  0.62897776330E+03  0.62897776330E+03  0.00000000000E+00 0.  1.
         21   -1    0    0  501  503 -0.00000000000E+00 -0.00000000000E+00 -0.11857845972E+03  0.11857845972E+03  0.00000000000E+00 0.  1.
          6    1    1    2  501    0  0.13030496486E+03 -0.12771234155E+03  0.10709782292E+03  0.27266053936E+03  0.17200000000E+03 0.  1.
         -6    1    1    2    0  502 -0.13030496486E+03  0.12771234155E+03  0.40330148065E+03  0.47489568365E+03  0.17200000000E+03 0.  1.
</event>
<event>
 4    1  0.4450588E+000  0.1731243E+03  0.7818608E-02  0.1174628E+00
         21   -1    0    0  501  502  0.00000000000E+00  0.00000000000E+00  0.21903326190E+03  0.21903326190E+03  0.00000000000E+00 0. -1.
         21   -1    0    0  502  503 -0.00000000000E+00 -0.00000000000E+00 -0.17765041476E+03  0.17765041476E+03  0.00000000000E+00 0. -1.
          6    1    1    2  501    0 -0.10962163721E+01  0.19667644492E+02  0.11575818881E+03  0.20825939644E+03  0.17200000000E+03 0. -1.
         -6    1    1    2    0  503  0.10962163721E+01 -0.19667644492E+02 -0.74375341667E+02  0.18842428022E+03  0.17200000000E+03 0. -1.
</event>
<event>
 4    1  0.4450588E+000  0.3754875E+03  0.7818608E-02  0.1052614E+00
         21   -1    0    0  501  502  0.00000000000E+00  0.00000000000E+00  0.13144331096E+04  0.13144331096E+04  0.00000000000E+00 0. -1.
         21   -1    0    0  502  503 -0.00000000000E+00 -0.00000000000E+00 -0.12395982248E+03  0.12395982248E+03  0.00000000000E+00 0. -1.
          6    1    1    2  501    0 -0.63577913210E+02 -0.32766553832E+03  0.85918313835E+03  0.93764946610E+03  0.17200000000E+03 0. -1.
         -6    1    1    2    0  503  0.63577913210E+02  0.32766553832E+03  0.33129014878E+03  0.50074346598E+03  0.17200000000E+03 0. -1.
</event>
<event>
 4    1  0.4450588E+000  0.1836952E+03  0.7818608E-02  0.1164274E+00
         21   -1    0    0  503  502  0.00000000000E+00  0.00000000000E+00  0.20490038963E+03  0.20490038963E+03  0.00000000000E+00 0.  1.
         21   -1    0    0  501  503 -0.00000000000E+00 -0.00000000000E+00 -0.28146961307E+03  0.28146961307E+03  0.00000000000E+00 0.  1.
          6    1    1    2  501    0 -0.37322551461E+02  0.52601694075E+02  0.11835977456E+03  0.21852447758E+03  0.17200000000E+03 0.  1.
         -6    1    1    2    0  502  0.37322551461E+02 -0.52601694075E+02 -0.19492899799E+03  0.26784552512E+03  0.17200000000E+03 0.  1.
</event>
<event>
 4    1  0.4450588E+000  0.1760393E+03  0.7818608E-02  0.1171692E+00
         21   -1    0    0  503  502  0.00000000000E+00  0.00000000000E+00  0.23069136528E+03  0.23069136528E+03  0.00000000000E+00 0.  1.
         21   -1    0    0  501  503 -0.00000000000E+00 -0.00000000000E+00 -0.14638461582E+03  0.14638461582E+03  0.00000000000E+00 0.  1.
          6    1    1    2  501    0 -0.37146811382E+02  0.50949826267E+01 -0.11939992146E+02  0.17644378101E+03  0.17200000000E+03 0.  1.
         -6    1    1    2    0  502  0.37146811382E+02 -0.50949826267E+01  0.96246741601E+02  0.20063220009E+03  0.17200000000E+03 0.  1.
</event>
<event>
 4    1  0.4450588E+000  0.3365346E+03  0.7818608E-02  0.1068282E+00
         21   -1    0    0  501  502  0.00000000000E+00  0.00000000000E+00  0.11428729289E+03  0.11428729289E+03  0.00000000000E+00 0. -1.
         21   -1    0    0  502  503 -0.00000000000E+00 -0.00000000000E+00 -0.99142566123E+03  0.99142566123E+03  0.00000000000E+00 0. -1.
          6    1    1    2  501    0 -0.26949038974E+03 -0.10510220723E+03 -0.45039125294E+03  0.56223467062E+03  0.17200000000E+03 0. -1.
         -6    1    1    2    0  503  0.26949038974E+03  0.10510220723E+03 -0.42674711540E+03  0.54347828350E+03  0.17200000000E+03 0. -1.
</event>
<event>
 4    1  0.4450588E+000  0.1906980E+03  0.7818608E-02  0.1157833E+00
         21   -1    0    0  503  502  0.00000000000E+00  0.00000000000E+00  0.57606245291E+03  0.57606245291E+03  0.00000000000E+00 0. -1.
         21   -1    0    0  501  503 -0.00000000000E+00 -0.00000000000E+00 -0.17198476297E+03  0.17198476297E+03  0.00000000000E+00 0. -1.
          6    1    1    2  501    0  0.22437910637E+01  0.82320694984E+02 -0.95525934801E+02  0.21328604183E+03  0.17200000000E+03 0. -1.
         -6    1    1    2    0  502 -0.22437910637E+01 -0.82320694984E+02  0.49960362473E+03  0.53476117405E+03  0.17200000000E+03 0. -1.
</event>
<event>
 4    1  0.4450588E+000  0.1913100E+03  0.7818608E-02  0.1157285E+00
         21   -1    0    0  501  502  0.00000000000E+00  0.00000000000E+00  0.20791583198E+03  0.20791583198E+03  0.00000000000E+00 0. -1.
         21   -1    0    0  502  503 -0.00000000000E+00 -0.00000000000E+00 -0.27541510124E+03  0.27541510124E+03  0.00000000000E+00 0. -1.
          6    1    1    2  501    0 -0.26978994009E+02 -0.79294733744E+02  0.11142152410E+03  0.22139168221E+03  0.17200000000E+03 0. -1.
         -6    1    1    2    0  503  0.26978994009E+02  0.79294733744E+02 -0.17892079336E+03  0.26193925100E+03  0.17200000000E+03 0. -1.
</event>
<event>
 4    1  0.4450588E+000  0.1935084E+03  0.7818608E-02  0.1155335E+00
         21   -1    0    0  503  502  0.00000000000E+00  0.00000000000E+00  0.14984559520E+03  0.14984559520E+03  0.00000000000E+00 0.  1.
         21   -1    0    0  501  503 -0.00000000000E+00 -0.00000000000E+00 -0.27604433246E+03  0.27604433246E+03  0.00000000000E+00 0.  1.
          6    1    1    2  501    0 -0.88578424869E+02 -0.39179897434E+01 -0.12864112404E+03  0.23236614812E+03  0.17200000000E+03 0.  1.
         -6    1    1    2    0  502  0.88578424869E+02  0.39179897434E+01  0.24423867800E+01  0.19352377954E+03  0.17200000000E+03 0.  1.
</event>
<event>
 4    1  0.4450588E+000  0.2839593E+03  0.7818608E-02  0.1093546E+00
         21   -1    0    0  501  502  0.00000000000E+00  0.00000000000E+00  0.45211810350E+03  0.45211810350E+03  0.00000000000E+00 0.  1.
         21   -1    0    0  502  503 -0.00000000000E+00 -0.00000000000E+00 -0.38894612622E+03  0.38894612622E+03  0.00000000000E+00 0.  1.
          6    1    1    2  501    0  0.24217633696E+02  0.22463831723E+03  0.34103214769E+03  0.44377448451E+03  0.17200000000E+03 0.  1.
         -6    1    1    2    0  503 -0.24217633696E+02 -0.22463831723E+03 -0.27786017041E+03  0.39728974521E+03  0.17200000000E+03 0.  1.
</event>
<event>
 4    1  0.4450588E+000  0.2647209E+03  0.7818608E-02  0.1104340E+00
         21   -1    0    0  503  502  0.00000000000E+00  0.00000000000E+00  0.26684322482E+03  0.26684322482E+03  0.00000000000E+00 0.  1.
         21   -1    0    0  501  503 -0.00000000000E+00 -0.00000000000E+00 -0.50449137831E+03  0.50449137831E+03  0.00000000000E+00 0.  1.
          6    1    1    2  501    0 -0.12423836258E+03  0.15829707597E+03 -0.38586777381E+03  0.46794345157E+03  0.17200000000E+03 0.  1.
         -6    1    1    2    0  502  0.12423836258E+03 -0.15829707597E+03  0.14821962032E+03  0.30339115156E+03  0.17200000000E+03 0.  1.
</event>
<event>
 4    1  0.4450588E+000  0.3659585E+03  0.7818608E-02  0.1056249E+00
         21   -1    0    0  503  502  0.00000000000E+00  0.00000000000E+00  0.70872114108E+02  0.70872114108E+02  0.00000000000E+00 0. -1.
         21   -1    0    0  501  503 -0.00000000000E+00 -0.00000000000E+00 -0.19516468627E+04  0.19516468627E+04  0.00000000000E+00 0. -1.
          6    1    1    2  501    0  0.20704309182E+03  0.24794101762E+03 -0.11205825068E+04  0.11788260027E+04  0.17200000000E+03 0. -1.
         -6    1    1    2    0  502 -0.20704309182E+03 -0.24794101762E+03 -0.76019224184E+03  0.84369297416E+03  0.17200000000E+03 0. -1.
</event>
<event>
 4    1  0.4450588E+000  0.3018175E+03  0.7818608E-02  0.1084336E+00
         21   -1    0    0  503  502  0.00000000000E+00  0.00000000000E+00  0.22518796891E+03  0.22518796891E+03  0.00000000000E+00 0. -1.
         21   -1    0    0  501  503 -0.00000000000E+00 -0.00000000000E+00 -0.48889205191E+03  0.48889205191E+03  0.00000000000E+00 0. -1.
          6    1    1    2  501    0  0.23781708399E+03 -0.70376552879E+02 -0.28017237854E+03  0.41181353345E+03  0.17200000000E+03 0. -1.
         -6    1    1    2    0  502 -0.23781708399E+03  0.70376552879E+02  0.16468295542E+02  0.30226648738E+03  0.17200000000E+03 0. -1.
</event>
<event>
 4    1  0.4450588E+000  0.1884369E+03  0.7818608E-02  0.1159879E+00
         21   -1    0    0  501  502  0.00000000000E+00  0.00000000000E+00  0.12113694882E+03  0.12113694882E+03  0.00000000000E+00 0. -1.
         21   -1    0    0  502  503 -0.00000000000E+00 -0.00000000000E+00 -0.36275729230E+03  0.36275729230E+03  0.00000000000E+00 0. -1.
          6    1    1    2  501    0 -0.22463709943E+02 -0.73619646938E+02 -0.14808549012E+02  0.18901789281E+03  0.17200000000E+03 0. -1.
         -6    1    1    2    0  503  0.22463709943E+02  0.73619646938E+02 -0.22681179446E+03  0.29487634830E+03  0.17200000000E+03 0. -1.
</event>
<event>
 4    1  0.4450588E+000  0.1815775E+03  0.7818608E-02  0.1166285E+00
         21   -1    0    0  503  502  0.00000000000E+00  0.00000000000E+00  0.46240052571E+02  0.46240052571E+02  0.00000000000E+00 0. -1.
         21   -1    0    0  501  503 -0.00000000000E+00 -0.00000000000E+00 -0.15289683949E+04  0.15289683949E+04  0.00000000000E+00 0. -1.
          6    1    1    2  501    0  0.54837790945E+02 -0.19473593838E+02 -0.13167223300E+04  0.13291832449E+04  0.17200000000E+03 0. -1.
         -6    1    1    2    0  502 -0.54837790945E+02  0.19473593838E+02 -0.16600601231E+03  0.24602520256E+03  0.17200000000E+03 0. -1.
</event>
<event>
 4    1  0.4450588E+000  0.2263747E+03  0.7818608E-02  0.1129218E+00
         21   -1    0    0  503  502  0.00000000000E+00  0.00000000000E+00  0.12025861973E+04  0.12025861973E+04  0.00000000000E+00 0.  1.
         21   -1    0    0  501  503 -0.00000000000E+00 -0.00000000000E+00 -0.49705737368E+02  0.49705737368E+02  0.00000000000E+00 0.  1.
          6    1    1    2  501    0  0.14698437265E+03 -0.75558646523E+01  0.33990974267E+03  0.40839212781E+03  0.17200000000E+03 0. -1.
         -6    1    1    2    0  502 -0.14698437265E+03  0.75558646523E+01  0.81297071728E+03  0.84389980688E+03  0.17200000000E+03 0. -1.
</event>
<event>
 4    1  0.4450588E+000  0.2007472E+03  0.7818608E-02  0.1149110E+00
         21   -1    0    0  501  502  0.00000000000E+00  0.00000000000E+00  0.71655914766E+03  0.71655914766E+03  0.00000000000E+00 0.  1.
         21   -1    0    0  502  503 -0.00000000000E+00 -0.00000000000E+00 -0.14846065407E+03  0.14846065407E+03  0.00000000000E+00 0.  1.
          6    1    1    2  501    0 -0.12889095597E+02 -0.10270973691E+03  0.62493121825E+03  0.65638285047E+03  0.17200000000E+03 0.  1.
         -6    1    1    2    0  503  0.12889095597E+02  0.10270973691E+03 -0.56832724661E+02  0.20863695127E+03  0.17200000000E+03 0.  1.
</event>
<event>
 4    1  0.4450588E+000  0.3140133E+03  0.7818608E-02  0.1078438E+00
         21   -1    0    0  501  502  0.00000000000E+00  0.00000000000E+00  0.40544194110E+03  0.40544194110E+03  0.00000000000E+00 0. -1.
         21   -1    0    0  502  503 -0.00000000000E+00 -0.00000000000E+00 -0.37035981210E+03  0.37035981210E+03  0.00000000000E+00 0.  1.
          6    1    1    2  501    0  0.25215965749E+03 -0.73728118895E+02  0.24483099679E+03  0.39817903683E+03  0.17200000000E+03 0. -1.
         -6    1    1    2    0  503 -0.25215965749E+03  0.73728118895E+02 -0.20974886779E+03  0.37762271637E+03  0.17200000000E+03 0.  1.
</event>
<event>
 4    1  0.4450588E+000  0.2764663E+03  0.7818608E-02  0.1097635E+00
         21   -1    0    0  503  502  0.00000000000E+00  0.00000000000E+00  0.34322561965E+03  0.34322561965E+03  0.00000000000E+00 0. -1.
         21   -1    0    0  501  503 -0.00000000000E+00 -0.00000000000E+00 -0.24105433896E+03  0.24105433896E+03  0.00000000000E+00 0. -1.
          6    1    1    2  501    0  0.18629418147E+03  0.11020032286E+03  0.13171558519E+03  0.30623949548E+03  0.17200000000E+03 0. -1.
         -6    1    1    2    0  502 -0.18629418147E+03 -0.11020032286E+03 -0.29544304505E+02  0.27804046313E+03  0.17200000000E+03 0. -1.
</event>
<event>
 4    1  0.4450588E+000  0.1798482E+03  0.7818608E-02  0.1167950E+00
         21   -1    0    0  503  502  0.00000000000E+00  0.00000000000E+00  0.15197234511E+02  0.15197234511E+02  0.00000000000E+00 0.  1.
         21   -1    0    0  501  503 -0.00000000000E+00 -0.00000000000E+00 -0.31194465179E+04  0.31194465179E+04  0.00000000000E+00 0.  1.
          6    1    1    2  501    0 -0.49587962022E+02 -0.17389593307E+02 -0.24355556580E+04  0.24421868740E+04  0.17200000000E+03 0.  1.
         -6    1    1    2    0  502  0.49587962022E+02  0.17389593307E+02 -0.66869362539E+03  0.69245687849E+03  0.17200000000E+03 0.  1.
</event>
<event>
 4    1  0.4450588E+000  0.2640102E+03  0.7818608E-02  0.1104758E+00
         21   -1    0    0  501  502  0.00000000000E+00  0.00000000000E+00  0.29154784341E+03  0.29154784341E+03  0.00000000000E+00 0. -1.
         21   -1    0    0  502  503 -0.00000000000E+00 -0.00000000000E+00 -0.39120463387E+03  0.39120463387E+03  0.00000000000E+00 0.  1.
          6    1    1    2  501    0 -0.20028301918E+03  0.20179782924E+01  0.16305430054E+03  0.31030318228E+03  0.17200000000E+03 0. -1.
         -6    1    1    2    0  503  0.20028301918E+03 -0.20179782924E+01 -0.26271109100E+03  0.37244929500E+03  0.17200000000E+03 0.  1.
</event>
<event>
 4    1  0.4450588E+000  0.1787388E+03  0.7818608E-02  0.1169029E+00
         21   -1    0    0  501  502  0.00000000000E+00  0.00000000000E+00  0.16572705863E+03  0.16572705863E+03  0.00000000000E+00 0. -1.
         21   -1    0    0  502  503 -0.00000000000E+00 -0.00000000000E+00 -0.30262178743E+03  0.30262178743E+03  0.00000000000E+00 0. -1.
          6    1    1    2  501    0  0.30909779078E+02 -0.37525198662E+02  0.72640205562E+02  0.19293562253E+03  0.17200000000E+03 0. -1.
         -6    1    1    2    0  503 -0.30909779078E+02  0.37525198662E+02 -0.20953493436E+03  0.27541322353E+03  0.17200000000E+03 0. -1.
</event>
<event>
 4    1  0.4450588E+000  0.2201592E+03  0.7818608E-02  0.1133764E+00
         21   -1    0    0  501  502  0.00000000000E+00  0.00000000000E+00  0.31356387446E+03  0.31356387446E+03  0.00000000000E+00 0. -1.
         21   -1    0    0  502  503 -0.00000000000E+00 -0.00000000000E+00 -0.21219076220E+03  0.21219076220E+03  0.00000000000E+00 0. -1.
          6    1    1    2  501    0  0.12814032085E+03  0.49659939395E+02  0.18766414927E+03  0.28928858313E+03  0.17200000000E+03 0. -1.
         -6    1    1    2    0  503 -0.12814032085E+03 -0.49659939395E+02 -0.86291037013E+02  0.23646605354E+03  0.17200000000E+03 0. -1.
</event>
<event>
 4    1  0.4450588E+000  0.2114052E+03  0.7818608E-02  0.1140458E+00
         21   -1    0    0  503  502  0.00000000000E+00  0.00000000000E+00  0.22447252711E+02  0.22447252711E+02  0.00000000000E+00 0.  1.
         21   -1    0    0  501  503 -0.00000000000E+00 -0.00000000000E+00 -0.20477104163E+04  0.20477104163E+04  0.00000000000E+00 0.  1.
          6    1    1    2  501    0 -0.38912954925E+02  0.11659300017E+03 -0.84035445888E+03  0.86653780201E+03  0.17200000000E+03 0.  1.
         -6    1    1    2    0  502  0.38912954925E+02 -0.11659300017E+03 -0.11849087047E+04  0.12036198670E+04  0.17200000000E+03 0.  1.
</event>
<event>
 4    1  0.4450588E+000  0.2298784E+03  0.7818608E-02  0.1126725E+00
         21   -1    0    0  501  502  0.00000000000E+00  0.00000000000E+00  0.42690258924E+03  0.42690258924E+03  0.00000000000E+00 0.  1.
         21   -1    0    0  502  503 -0.00000000000E+00 -0.00000000000E+00 -0.16449353394E+03  0.16449353394E+03  0.00000000000E+00 0. -1.
          6    1    1    2  501    0  0.15216701366E+03 -0.10261300754E+02  0.27830610387E+03  0.36096867148E+03  0.17200000000E+03 0.  1.
         -6    1    1    2    0  503 -0.15216701366E+03  0.10261300754E+02 -0.15897048570E+02  0.23042745169E+03  0.17200000000E+03 0. -1.
</event>
<event>
 4    1  0.4450588E+000  0.1929684E+03  0.7818608E-02  0.1155811E+00
         21   -1    0    0  503  502  0.00000000000E+00  0.00000000000E+00  0.79026845710E+02  0.79026845710E+02  0.00000000000E+00 0. -1.
         21   -1    0    0  501  503 -0.00000000000E+00 -0.00000000000E+00 -0.67159853422E+03  0.67159853422E+03  0.00000000000E+00 0. -1.
          6    1    1    2  501    0  0.75079189332E+00  0.87477119277E+02 -0.50130498985E+03  0.53716245489E+03  0.17200000000E+03 0. -1.
         -6    1    1    2    0  502 -0.75079189332E+00 -0.87477119277E+02 -0.91266698656E+02  0.21346292505E+03  0.17200000000E+03 0. -1.
</event>
<event>
 4    1  0.4450588E+000  0.3401449E+03  0.7818608E-02  0.1066734E+00
         21   -1    0    0  501  502  0.00000000000E+00  0.00000000000E+00  0.62824113567E+03  0.62824113567E+03  0.00000000000E+00 0.  1.
         21   -1    0    0  502  503 -0.00000000000E+00 -0.00000000000E+00 -0.54188462023E+03  0.54188462023E+03  0.00000000000E+00 0. -1.
          6    1    1    2  501    0 -0.25923488761E+03  0.13752032570E+03  0.51853747963E+03  0.62014489010E+03  0.17200000000E+03 0.  1.
         -6    1    1    2    0  503  0.25923488761E+03 -0.13752032570E+03 -0.43218096419E+03  0.54998086580E+03  0.17200000000E+03 0. -1.
</event>
<event>
 4    1  0.4450588E+000  0.1927235E+03  0.7818608E-02  0.1156028E+00
         21   -1    0    0  501  502  0.00000000000E+00  0.00000000000E+00  0.11309117345E+04  0.11309117345E+04  0.00000000000E+00 0.  1.
         21   -1    0    0  502  503 -0.00000000000E+00 -0.00000000000E+00 -0.40996584235E+02  0.40996584235E+02  0.00000000000E+00 0.  1.
          6    1    1    2  501    0  0.20292629521E+02 -0.84537284584E+02  0.80627512579E+03  0.82898849314E+03  0.17200000000E+03 0.  1.
         -6    1    1    2    0  503 -0.20292629521E+02  0.84537284584E+02  0.28364002446E+03  0.34291982558E+03  0.17200000000E+03 0.  1.
</event>
<event>
 4    1  0.4450588E+000  0.2102519E+03  0.7818608E-02  0.1141367E+00
         21   -1    0    0  501  502  0.00000000000E+00  0.00000000000E+00  0.99199343020E+03  0.99199343020E+03  0.00000000000E+00 0. -1.
         21   -1    0    0  502  503 -0.00000000000E+00 -0.00000000000E+00 -0.14926101037E+03  0.14926101037E+03  0.00000000000E+00 0.  1.
          6    1    1    2  501    0  0.75314657564E+02  0.94602207096E+02  0.89927959732E+03  0.92353108740E+03  0.17200000000E+03 0. -1.
         -6    1    1    2    0  503 -0.75314657564E+02 -0.94602207096E+02 -0.56547177495E+02  0.21772335317E+03  0.17200000000E+03 0.  1.
</event>
<event>
 4    1  0.4450588E+000  0.2508490E+03  0.7818608E-02  0.1112769E+00
         21   -1    0    0  503  502  0.00000000000E+00  0.00000000000E+00  0.18118278145E+03  0.18118278145E+03  0.00000000000E+00 0.  1.
         21   -1    0    0  501  503 -0.00000000000E+00 -0.00000000000E+00 -0.37239672932E+03  0.37239672932E+03  0.00000000000E+00 0.  1.
          6    1    1    2  501    0  0.14714672361E+03  0.10811588636E+03 -0.16745840749E+03  0.30160822501E+03  0.17200000000E+03 0.  1.
         -6    1    1    2    0  502 -0.14714672361E+03 -0.10811588636E+03 -0.23755540379E+02  0.25197128577E+03  0.17200000000E+03 0.  1.
</event>
<event>
 4    1  0.4450588E+000  0.1991565E+03  0.7818608E-02  0.1150453E+00
         21   -1    0    0  501  502  0.00000000000E+00  0.00000000000E+00  0.37097181303E+02  0.37097181303E+02  0.00000000000E+00 0. -1.
         21   -1    0    0  502  503 -0.00000000000E+00 -0.00000000000E+00 -0.11143408764E+04  0.11143408764E+04  0.00000000000E+00 0. -1.
          6    1    1    2  501    0 -0.95848921930E+02  0.29871627760E+02 -0.42271392988E+03  0.46727978396E+03  0.17200000000E+03 0. -1.
         -6    1    1    2    0  503  0.95848921930E+02 -0.29871627760E+02 -0.65452976520E+03  0.68415827373E+03  0.17200000000E+03 0. -1.
</event>
<event>
 4    1  0.4450588E+000  0.3337380E+03  0.7818608E-02  0.1069495E+00
         21   -1    0    0  501  502  0.00000000000E+00  0.00000000000E+00  0.23809522063E+04  0.23809522063E+04  0.00000000000E+00 0. -1.
         21   -1    0    0  502  503 -0.00000000000E+00 -0.00000000000E+00 -0.48679514516E+02  0.48679514516E+02  0.00000000000E+00 0.  1.
          6    1    1    2  501    0 -0.12659835440E+02  0.28572153407E+03  0.14061040369E+04  0.14451676820E+04  0.17200000000E+03 0. -1.
         -6    1    1    2    0  503  0.12659835440E+02 -0.28572153407E+03  0.92616865492E+03  0.98446403886E+03  0.17200000000E+03 0. -1.
</event>
<event>
 4    1  0.4450588E+000  0.2034510E+03  0.7818608E-02  0.1146860E+00
         21   -1    0    0  503  502  0.00000000000E+00  0.00000000000E+00  0.33096943068E+03  0.33096943068E+03  0.00000000000E+00 0. -1.
         21   -1    0    0  501  503 -0.00000000000E+00 -0.00000000000E+00 -0.17267038344E+03  0.17267038344E+03  0.00000000000E+00 0. -1.
          6    1    1    2  501    0  0.16018876292E+02 -0.10747879916E+03 -0.53075792093E+02  0.21026016354E+03  0.17200000000E+03 0. -1.
         -6    1    1    2    0  502 -0.16018876292E+02  0.10747879916E+03  0.21137483934E+03  0.29337965058E+03  0.17200000000E+03 0. -1.
</event>
<event>
 4    1  0.4450588E+000  0.1873078E+03  0.7818608E-02  0.1160912E+00
         21   -1    0    0  503  502  0.00000000000E+00  0.00000000000E+00  0.54878455424E+03  0.54878455424E+03  0.00000000000E+00 0. -1.
         21   -1    0    0  501  503 -0.00000000000E+00 -0.00000000000E+00 -0.69063468387E+02  0.69063468387E+02  0.00000000000E+00 0.  1.
          6    1    1    2  501    0 -0.59875223424E+02 -0.43762766538E+02  0.15564347559E+03  0.24353462507E+03  0.17200000000E+03 0.  1.
         -6    1    1    2    0  502  0.59875223424E+02  0.43762766538E+02  0.32407761026E+03  0.37431339755E+03  0.17200000000E+03 0. -1.
</event>
<event>
 4    1  0.4450588E+000  0.1888944E+03  0.7818608E-02  0.1159462E+00
         21   -1    0    0  501  502  0.00000000000E+00  0.00000000000E+00  0.13580312172E+04  0.13580312172E+04  0.00000000000E+00 0.  1.
         21   -1    0    0  502  503 -0.00000000000E+00 -0.00000000000E+00 -0.41789757362E+02  0.41789757362E+02  0.00000000000E+00 0.  1.
          6    1    1    2  501    0  0.67604359217E+02  0.39073523146E+02  0.10845944138E+04  0.11009205839E+04  0.17200000000E+03 0.  1.
         -6    1    1    2    0  503 -0.67604359217E+02 -0.39073523146E+02  0.23164704598E+03  0.29890039061E+03  0.17200000000E+03 0.  1.
</event>
<event>
 4    1  0.4450588E+000  0.1885093E+03  0.7818608E-02  0.1159813E+00
         21   -1    0    0  503  502  0.00000000000E+00  0.00000000000E+00  0.62258857925E+03  0.62258857925E+03  0.00000000000E+00 0. -1.
         21   -1    0    0  501  503 -0.00000000000E+00 -0.00000000000E+00 -0.79014425125E+02  0.79014425125E+02  0.00000000000E+00 0. -1.
          6    1    1    2  501    0  0.30116748507E+02  0.71026419139E+02  0.86946809875E+02  0.20759460134E+03  0.17200000000E+03 0. -1.
         -6    1    1    2    0  502 -0.30116748507E+02 -0.71026419139E+02  0.45662734425E+03  0.49400840304E+03  0.17200000000E+03 0. -1.
</event>
<event>
 4    1  0.4450588E+000  0.3086815E+03  0.7818608E-02  0.1080980E+00
         21   -1    0    0  501  502  0.00000000000E+00  0.00000000000E+00  0.24528042889E+03  0.24528042889E+03  0.00000000000E+00 0. -1.
         21   -1    0    0  502  503 -0.00000000000E+00 -0.00000000000E+00 -0.43252489987E+03  0.43252489987E+03  0.00000000000E+00 0.  1.
          6    1    1    2  501    0  0.19950400361E+03  0.16092995597E+03 -0.20178114894E+03  0.36878168373E+03  0.17200000000E+03 0.  1.
         -6    1    1    2    0  503 -0.19950400361E+03 -0.16092995597E+03  0.14536677957E+02  0.30902364504E+03  0.17200000000E+03 0. -1.
</event>
<event>
 4    1  0.4450588E+000  0.3506456E+03  0.7818608E-02  0.1062350E+00
         21   -1    0    0  501  502  0.00000000000E+00  0.00000000000E+00  0.37075713978E+03  0.37075713978E+03  0.00000000000E+00 0.  1.
         21   -1    0    0  502  503 -0.00000000000E+00 -0.00000000000E+00 -0.33288697989E+03  0.33288697989E+03  0.00000000000E+00 0. -1.
          6    1    1    2  501    0  0.10895607146E+03  0.28547665358E+03 -0.27268331682E+01  0.35065621464E+03  0.17200000000E+03 0.  1.
         -6    1    1    2    0  503 -0.10895607146E+03 -0.28547665358E+03  0.40596993055E+02  0.35298790503E+03  0.17200000000E+03 0.  1.
</event>
<event>
 4    1  0.4450588E+000  0.1809617E+03  0.7818608E-02  0.1166876E+00
         21   -1    0    0  503  502  0.00000000000E+00  0.00000000000E+00  0.50291308776E+03  0.50291308776E+03  0.00000000000E+00 0.  1.
         21   -1    0    0  501  503 -0.00000000000E+00 -0.00000000000E+00 -0.65185844573E+02  0.65185844573E+02  0.00000000000E+00 0.  1.
          6    1    1    2  501    0 -0.84790175218E+01 -0.55599090559E+02  0.20949507406E+03  0.27683088459E+03  0.17200000000E+03 0.  1.
         -6    1    1    2    0  502  0.84790175218E+01  0.55599090559E+02  0.22823216913E+03  0.29126804774E+03  0.17200000000E+03 0.  1.
</event>
<event>
 4    1  0.4450588E+000  0.2092807E+03  0.7818608E-02  0.1142137E+00
         21   -1    0    0  501  502  0.00000000000E+00  0.00000000000E+00  0.76381798889E+03  0.76381798889E+03  0.00000000000E+00 0.  1.
         21   -1    0    0  502  503 -0.00000000000E+00 -0.00000000000E+00 -0.60721438742E+02  0.60721438742E+02  0.00000000000E+00 0.  1.
          6    1    1    2  501    0 -0.90293955993E+02 -0.77855006283E+02  0.25428013767E+03  0.32932778338E+03  0.17200000000E+03 0.  1.
         -6    1    1    2    0  503  0.90293955993E+02  0.77855006283E+02  0.44881641248E+03  0.49521164425E+03  0.17200000000E+03 0.  1.
</event>
<event>
 4    1  0.4450588E+000  0.2339681E+03  0.7818608E-02  0.1123878E+00
         21   -1    0    0  503  502  0.00000000000E+00  0.00000000000E+00  0.96306367912E+03  0.96306367912E+03  0.00000000000E+00 0.  1.
         21   -1    0    0  501  503 -0.00000000000E+00 -0.00000000000E+00 -0.62478907064E+02  0.62478907064E+02  0.00000000000E+00 0.  1.
          6    1    1    2  501    0  0.11270012636E+03  0.11160535537E+03  0.29625253335E+03  0.37750051304E+03  0.17200000000E+03 0.  1.
         -6    1    1    2    0  502 -0.11270012636E+03 -0.11160535537E+03  0.60433223870E+03  0.64804207314E+03  0.17200000000E+03 0.  1.
</event>
<event>
 4    1  0.4450588E+000  0.1827990E+03  0.7818608E-02  0.1165121E+00
         21   -1    0    0  503  502  0.00000000000E+00  0.00000000000E+00  0.11159157572E+03  0.11159157572E+03  0.00000000000E+00 0.  1.
         21   -1    0    0  501  503 -0.00000000000E+00 -0.00000000000E+00 -0.32147174559E+03  0.32147174559E+03  0.00000000000E+00 0. -1.
          6    1    1    2  501    0  0.26235549924E+02  0.56064062090E+02 -0.16162012386E+03  0.24400112208E+03  0.17200000000E+03 0. -1.
         -6    1    1    2    0  502 -0.26235549924E+02 -0.56064062090E+02 -0.48260046016E+02  0.18906219923E+03  0.17200000000E+03 0. -1.
</event>
<event>
 4    1  0.4450588E+000  0.3229853E+03  0.7818608E-02  0.1074284E+00
         21   -1    0    0  503  502  0.00000000000E+00  0.00000000000E+00  0.56037273738E+03  0.56037273738E+03  0.00000000000E+00 0.  1.
         21   -1    0    0  501  503 -0.00000000000E+00 -0.00000000000E+00 -0.29955559739E+03  0.29955559739E+03  0.00000000000E+00 0.  1.
          6    1    1    2  501    0  0.27213667678E+03 -0.26022246971E+02 -0.13413048477E+03  0.34972920257E+03  0.17200000000E+03 0.  1.
         -6    1    1    2    0  502 -0.27213667678E+03  0.26022246971E+02  0.39494762476E+03  0.51019913219E+03  0.17200000000E+03 0.  1.
</event>
<event>
 4    1  0.4450588E+000  0.3017586E+03  0.7818608E-02  0.1084365E+00
         21   -1    0    0  501  502  0.00000000000E+00  0.00000000000E+00  0.52993265659E+03  0.52993265659E+03  0.00000000000E+00 0. -1.
         21   -1    0    0  502  503 -0.00000000000E+00 -0.00000000000E+00 -0.33149457293E+03  0.33149457293E+03  0.00000000000E+00 0.  1.
          6    1    1    2  501    0 -0.23926004791E+03 -0.65030049976E+02  0.39813892228E+03  0.49957269677E+03  0.17200000000E+03 0. -1.
         -6    1    1    2    0  503  0.23926004791E+03  0.65030049976E+02 -0.19970083862E+03  0.36185453275E+03  0.17200000000E+03 0.  1.
</event>
<event>
 4    1  0.4450588E+000  0.1794924E+03  0.7818608E-02  0.1168295E+00
         21   -1    0    0  503  502  0.00000000000E+00  0.00000000000E+00  0.91613389730E+02  0.91613389730E+02  0.00000000000E+00 0. -1.
         21   -1    0    0  501  503 -0.00000000000E+00 -0.00000000000E+00 -0.35695007027E+03  0.35695007027E+03  0.00000000000E+00 0. -1.
          6    1    1    2  501    0 -0.18636918630E+02 -0.47813958896E+02 -0.15995101379E+03  0.24042012440E+03  0.17200000000E+03 0.  1.
         -6    1    1    2    0  502  0.18636918630E+02  0.47813958896E+02 -0.10538566675E+03  0.20814333561E+03  0.17200000000E+03 0.  1.
</event>
<event>
 4    1  0.4450588E+000  0.1917458E+03  0.7818608E-02  0.1156896E+00
         21   -1    0    0  503  502  0.00000000000E+00  0.00000000000E+00  0.31345100679E+03  0.31345100679E+03  0.00000000000E+00 0.  1.
         21   -1    0    0  501  503 -0.00000000000E+00 -0.00000000000E+00 -0.12548697797E+03  0.12548697797E+03  0.00000000000E+00 0.  1.
          6    1    1    2  501    0 -0.61434528582E+02 -0.58380186258E+02  0.37909461220E+02  0.19545734752E+03  0.17200000000E+03 0.  1.
         -6    1    1    2    0  502  0.61434528582E+02  0.58380186258E+02  0.15005456761E+03  0.24348063724E+03  0.17200000000E+03 0.  1.
</event>
<event>
 4    1  0.4450588E+000  0.2987289E+03  0.7818608E-02  0.1085878E+00
         21   -1    0    0  501  502  0.00000000000E+00  0.00000000000E+00  0.23650944424E+03  0.23650944424E+03  0.00000000000E+00 0.  1.
         21   -1    0    0  502  503 -0.00000000000E+00 -0.00000000000E+00 -0.42253148691E+03  0.42253148691E+03  0.00000000000E+00 0.  1.
          6    1    1    2  501    0 -0.24401559366E+03 -0.10552672376E+02  0.14782579453E+02  0.29909445581E+03  0.17200000000E+03 0.  1.
         -6    1    1    2    0  503  0.24401559366E+03  0.10552672376E+02 -0.20080462212E+03  0.35994647533E+03  0.17200000000E+03 0.  1.
</event>
<event>
 4    1  0.4450588E+000  0.1741648E+03  0.7818608E-02  0.1173573E+00
         21   -1    0    0  503  502  0.00000000000E+00  0.00000000000E+00  0.18362347957E+03  0.18362347957E+03  0.00000000000E+00 0.  1.
         21   -1    0    0  501  503 -0.00000000000E+00 -0.00000000000E+00 -0.17414856997E+03  0.17414856997E+03  0.00000000000E+00 0.  1.
          6    1    1    2  501    0  0.19985841486E+02  0.18707103200E+02 -0.35827689227E+02  0.17781173439E+03  0.17200000000E+03 0.  1.
         -6    1    1    2    0  502 -0.19985841486E+02 -0.18707103200E+02  0.45302598825E+02  0.17996031515E+03  0.17200000000E+03 0.  1.
</event>
<event>
 4    1  0.4450588E+000  0.2189778E+03  0.7818608E-02  0.1134647E+00
         21   -1    0    0  501  502  0.00000000000E+00  0.00000000000E+00  0.52013738986E+03  0.52013738986E+03  0.00000000000E+00 0. -1.
         21   -1    0    0  502  503 -0.00000000000E+00 -0.00000000000E+00 -0.15081451381E+03  0.15081451381E+03  0.00000000000E+00 0. -1.
          6    1    1    2  501    0 -0.89511268533E+02 -0.10175952178E+03  0.39382251300E+03  0.45060785525E+03  0.17200000000E+03 0. -1.
         -6    1    1    2    0  503  0.89511268533E+02  0.10175952178E+03 -0.24499636952E+02  0.22034404843E+03  0.17200000000E+03 0. -1.
</event>
<event>
 4    1  0.4450588E+000  0.2080367E+03  0.7818608E-02  0.1143130E+00
         21   -1    0    0  501  502  0.00000000000E+00  0.00000000000E+00  0.22334883037E+04  0.22334883037E+04  0.00000000000E+00 0.  1.
         21   -1    0    0  502  503 -0.00000000000E+00 -0.00000000000E+00 -0.33866853131E+02  0.33866853131E+02  0.00000000000E+00 0.  1.
          6    1    1    2  501    0  0.60214486224E+02  0.10034691203E+03  0.18413386709E+04  0.18530535309E+04  0.17200000000E+03 0.  1.
         -6    1    1    2    0  503 -0.60214486224E+02 -0.10034691203E+03  0.35828277959E+03  0.41430162594E+03  0.17200000000E+03 0.  1.
</event>
<event>
 4    1  0.4450588E+000  0.2020459E+03  0.7818608E-02  0.1148024E+00
         21   -1    0    0  501  502  0.00000000000E+00  0.00000000000E+00  0.51095686654E+03  0.51095686654E+03  0.00000000000E+00 0.  1.
         21   -1    0    0  502  503 -0.00000000000E+00 -0.00000000000E+00 -0.14652858064E+03  0.14652858064E+03  0.00000000000E+00 0.  1.
          6    1    1    2  501    0  0.42840212719E+02 -0.96970338787E+02  0.40390301968E+03  0.45161950770E+03  0.17200000000E+03 0.  1.
         -6    1    1    2    0  503 -0.42840212719E+02  0.96970338787E+02 -0.39474733772E+02  0.20586593948E+03  0.17200000000E+03 0.  1.
</event>
<event>
 4    1  0.4450588E+000  0.2676787E+03  0.7818608E-02  0.1102616E+00
         21   -1    0    0  501  502  0.00000000000E+00  0.00000000000E+00  0.95052029226E+02  0.95052029226E+02  0.00000000000E+00 0. -1.
         21   -1    0    0  502  503 -0.00000000000E+00 -0.00000000000E+00 -0.76221113774E+03  0.76221113774E+03  0.00000000000E+00 0.  1.
          6    1    1    2  501    0 -0.20203118586E+03  0.35373709086E+02 -0.28859978807E+03  0.39362639270E+03  0.17200000000E+03 0. -1.
         -6    1    1    2    0  503  0.20203118586E+03 -0.35373709086E+02 -0.37855932045E+03  0.46363677427E+03  0.17200000000E+03 0. -1.
</event>
<event>
 4    1  0.4450588E+000  0.2622255E+03  0.7818608E-02  0.1105813E+00
         21   -1    0    0  501  502  0.00000000000E+00  0.00000000000E+00  0.20380938207E+03  0.20380938207E+03  0.00000000000E+00 0. -1.
         21   -1    0    0  502  503 -0.00000000000E+00 -0.00000000000E+00 -0.34701314973E+03  0.34701314973E+03  0.00000000000E+00 0. -1.
          6    1    1    2  501    0  0.18552435567E+03 -0.68985143450E+02 -0.11747721857E+03  0.28733801254E+03  0.17200000000E+03 0. -1.
         -6    1    1    2    0  503 -0.18552435567E+03  0.68985143450E+02 -0.25726549088E+02  0.26348451927E+03  0.17200000000E+03 0. -1.
</event>
<event>
 4    1  0.4450588E+000  0.1870022E+03  0.7818608E-02  0.1161193E+00
         21   -1    0    0  501  502  0.00000000000E+00  0.00000000000E+00  0.18109987305E+03  0.18109987305E+03  0.00000000000E+00 0. -1.
         21   -1    0    0  502  503 -0.00000000000E+00 -0.00000000000E+00 -0.19476449851E+03  0.19476449851E+03  0.00000000000E+00 0. -1.
          6    1    1    2  501    0 -0.56244213437E+02  0.47142510013E+02  0.10557277264E+02  0.18729998371E+03  0.17200000000E+03 0. -1.
         -6    1    1    2    0  503  0.56244213437E+02 -0.47142510013E+02 -0.24221902724E+02  0.18856438785E+03  0.17200000000E+03 0. -1.
</event>
<event>
 4    1  0.4450588E+000  0.2097254E+03  0.7818608E-02  0.1141784E+00
         21   -1    0    0  503  502  0.00000000000E+00  0.00000000000E+00  0.82376234810E+02  0.82376234810E+02  0.00000000000E+00 0.  1.
         21   -1    0    0  501  503 -0.00000000000E+00 -0.00000000000E+00 -0.89349578556E+03  0.89349578556E+03  0.00000000000E+00 0.  1.
          6    1    1    2  501    0 -0.48132187366E+02  0.10992738646E+03 -0.71508361563E+03  0.74520421033E+03  0.17200000000E+03 0.  1.
         -6    1    1    2    0  502  0.48132187366E+02 -0.10992738646E+03 -0.96035935121E+02  0.23066781004E+03  0.17200000000E+03 0.  1.
</event>
<event>
 4    1  0.4450588E+000  0.2871031E+03  0.7818608E-02  0.1091871E+00
         21   -1    0    0  503  502  0.00000000000E+00  0.00000000000E+00  0.47138574965E+03  0.47138574965E+03  0.00000000000E+00 0.  1.
         21   -1    0    0  501  503 -0.00000000000E+00 -0.00000000000E+00 -0.19356711749E+03  0.19356711749E+03  0.00000000000E+00 0. -1.
          6    1    1    2  501    0 -0.20824924554E+03  0.97346887737E+02  0.35559950899E+02  0.28929686297E+03  0.17200000000E+03 0.  1.
         -6    1    1    2    0  502  0.20824924554E+03 -0.97346887737E+02  0.24225868127E+03  0.37565600417E+03  0.17200000000E+03 0. -1.
</event>
<event>
 4    1  0.4450588E+000  0.1996962E+03  0.7818608E-02  0.1149996E+00
         21   -1    0    0  501  502  0.00000000000E+00  0.00000000000E+00  0.51109178802E+02  0.51109178802E+02  0.00000000000E+00 0.  1.
         21   -1    0    0  502  503 -0.00000000000E+00 -0.00000000000E+00 -0.14089932840E+04  0.14089932840E+04  0.00000000000E+00 0.  1.
          6    1    1    2  501    0  0.86875641662E+02 -0.52413643355E+02 -0.19126615028E+03  0.27651637812E+03  0.17200000000E+03 0.  1.
         -6    1    1    2    0  503 -0.86875641662E+02  0.52413643355E+02 -0.11666179549E+04  0.11835860847E+04  0.17200000000E+03 0.  1.
</event>
<event>
 4    1  0.4450588E+000  0.2247224E+03  0.7818608E-02  0.1130410E+00
         21   -1    0    0  501  502  0.00000000000E+00  0.00000000000E+00  0.40058790379E+03  0.40058790379E+03  0.00000000000E+00 0.  1.
         21   -1    0    0  502  503 -0.00000000000E+00 -0.00000000000E+00 -0.37323574707E+03  0.37323574707E+03  0.00000000000E+00 0.  1.
          6    1    1    2  501    0 -0.24748222501E+02  0.14249104075E+03  0.32853702536E+03  0.39804113888E+03  0.17200000000E+03 0.  1.
         -6    1    1    2    0  503  0.24748222501E+02 -0.14249104075E+03 -0.30118486864E+03  0.37578251198E+03  0.17200000000E+03 0.  1.
</event>
<event>
 4    1  0.4450588E+000  0.3640930E+03  0.7818608E-02  0.1056975E+00
         21   -1    0    0  501  502  0.00000000000E+00  0.00000000000E+00  0.52005043019E+03  0.52005043019E+03  0.00000000000E+00 0. -1.
         21   -1    0    0  502  503 -0.00000000000E+00 -0.00000000000E+00 -0.29641162823E+03  0.29641162823E+03  0.00000000000E+00 0.  1.
          6    1    1    2  501    0 -0.24275728209E+03 -0.20987756767E+03  0.26458119205E+03  0.45007432565E+03  0.17200000000E+03 0. -1.
         -6    1    1    2    0  503  0.24275728209E+03  0.20987756767E+03 -0.40942390096E+02  0.36638773277E+03  0.17200000000E+03 0.  1.
</event>
<event>
 4    1  0.4450588E+000  0.1796474E+03  0.7818608E-02  0.1168145E+00
         21   -1    0    0  503  502  0.00000000000E+00  0.00000000000E+00  0.47865689126E+03  0.47865689126E+03  0.00000000000E+00 0. -1.
         21   -1    0    0  501  503 -0.00000000000E+00 -0.00000000000E+00 -0.76481475390E+02  0.76481475390E+02  0.00000000000E+00 0. -1.
          6    1    1    2  501    0  0.21780970383E+02 -0.47061491554E+02  0.10556974349E+03  0.20837026035E+03  0.17200000000E+03 0. -1.
         -6    1    1    2    0  502 -0.21780970383E+02  0.47061491554E+02  0.29660567238E+03  0.34676810630E+03  0.17200000000E+03 0. -1.
</event>
<event>
 4    1  0.4450588E+000  0.2251431E+03  0.7818608E-02  0.1130106E+00
         21   -1    0    0  503  502  0.00000000000E+00  0.00000000000E+00  0.27036125871E+04  0.27036125871E+04  0.00000000000E+00 0.  1.
         21   -1    0    0  501  503 -0.00000000000E+00 -0.00000000000E+00 -0.78517467183E+02  0.78517467183E+02  0.00000000000E+00 0.  1.
          6    1    1    2  501    0  0.34842827771E+02 -0.14103683545E+03  0.98875973859E+02  0.24589808825E+03  0.17200000000E+03 0.  1.
         -6    1    1    2    0  502 -0.34842827771E+02  0.14103683545E+03  0.25262191461E+04  0.25362319660E+04  0.17200000000E+03 0.  1.
</event>
<event>
 4    1  0.4450588E+000  0.1811368E+03  0.7818608E-02  0.1166707E+00
         21   -1    0    0  503  502  0.00000000000E+00  0.00000000000E+00  0.33131688630E+03  0.33131688630E+03  0.00000000000E+00 0.  1.
         21   -1    0    0  501  503 -0.00000000000E+00 -0.00000000000E+00 -0.22636202737E+03  0.22636202737E+03  0.00000000000E+00 0.  1.
          6    1    1    2  501    0 -0.50640221846E+02  0.25731513099E+02 -0.15665437058E+03  0.23948096930E+03  0.17200000000E+03 0.  1.
         -6    1    1    2    0  502  0.50640221846E+02 -0.25731513099E+02  0.26160922951E+03  0.31819794437E+03  0.17200000000E+03 0.  1.
</event>
<event>
 4    1  0.4450588E+000  0.1741841E+03  0.7818608E-02  0.1173553E+00
         21   -1    0    0  501  502  0.00000000000E+00  0.00000000000E+00  0.43304033751E+02  0.43304033751E+02  0.00000000000E+00 0.  1.
         21   -1    0    0  502  503 -0.00000000000E+00 -0.00000000000E+00 -0.74760471031E+03  0.74760471031E+03  0.00000000000E+00 0.  1.
          6    1    1    2  501    0 -0.17266047140E+02 -0.21400512446E+02 -0.25302306653E+03  0.30718198273E+03  0.17200000000E+03 0.  1.
         -6    1    1    2    0  503  0.17266047140E+02  0.21400512446E+02 -0.45127761003E+03  0.48372676133E+03  0.17200000000E+03 0.  1.
</event>
<event>
 4    1  0.4450588E+000  0.1790734E+03  0.7818608E-02  0.1168703E+00
         21   -1    0    0  501  502  0.00000000000E+00  0.00000000000E+00  0.41730621873E+03  0.41730621873E+03  0.00000000000E+00 0.  1.
         21   -1    0    0  502  503 -0.00000000000E+00 -0.00000000000E+00 -0.15257083067E+03  0.15257083067E+03  0.00000000000E+00 0.  1.
          6    1    1    2  501    0 -0.14635453594E+02 -0.47634928730E+02  0.33311126908E+03  0.37819360191E+03  0.17200000000E+03 0.  1.
         -6    1    1    2    0  503  0.14635453594E+02  0.47634928730E+02 -0.68375881023E+02  0.19168344749E+03  0.17200000000E+03 0.  1.
</event>
<event>
 4    1  0.4450588E+000  0.1775449E+03  0.7818608E-02  0.1170200E+00
         21   -1    0    0  501  502  0.00000000000E+00  0.00000000000E+00  0.21915221376E+02  0.21915221376E+02  0.00000000000E+00 0.  1.
         21   -1    0    0  502  503 -0.00000000000E+00 -0.00000000000E+00 -0.17113856477E+04  0.17113856477E+04  0.00000000000E+00 0.  1.
          6    1    1    2  501    0  0.35437214702E+02 -0.26122776275E+02 -0.49858561272E+03  0.52925401164E+03  0.17200000000E+03 0. -1.
         -6    1    1    2    0  503 -0.35437214702E+02  0.26122776275E+02 -0.11908848136E+04  0.12040468574E+04  0.17200000000E+03 0. -1.
</event>
<event>
 4    1  0.4450588E+000  0.2357255E+03  0.7818608E-02  0.1122674E+00
         21   -1    0    0  501  502  0.00000000000E+00  0.00000000000E+00  0.52080781650E+03  0.52080781650E+03  0.00000000000E+00 0.  1.
         21   -1    0    0  502  503 -0.00000000000E+00 -0.00000000000E+00 -0.12797106498E+03  0.12797106498E+03  0.00000000000E+00 0.  1.
          6    1    1    2  501    0  0.70084809302E+02  0.14515724212E+03  0.32869336154E+03  0.40448217681E+03  0.17200000000E+03 0.  1.
         -6    1    1    2    0  503 -0.70084809302E+02 -0.14515724212E+03  0.64143389982E+02  0.24429670467E+03  0.17200000000E+03 0.  1.
</event>
<event>
 4    1  0.4450588E+000  0.2261393E+03  0.7818608E-02  0.1129387E+00
         21   -1    0    0  503  502  0.00000000000E+00  0.00000000000E+00  0.28110938322E+03  0.28110938322E+03  0.00000000000E+00 0. -1.
         21   -1    0    0  501  503 -0.00000000000E+00 -0.00000000000E+00 -0.24090747274E+03  0.24090747274E+03  0.00000000000E+00 0. -1.
          6    1    1    2  501    0  0.12478947222E+03 -0.77347026969E+02 -0.10905519893E+03  0.25106176804E+03  0.17200000000E+03 0. -1.
         -6    1    1    2    0  502 -0.12478947222E+03  0.77347026969E+02  0.14925710941E+03  0.27095508791E+03  0.17200000000E+03 0. -1.
</event>
<event>
 4    1  0.4450588E+000  0.1757073E+03  0.7818608E-02  0.1172023E+00
         21   -1    0    0  501  502  0.00000000000E+00  0.00000000000E+00  0.70639976013E+03  0.70639976013E+03  0.00000000000E+00 0.  1.
         21   -1    0    0  502  503 -0.00000000000E+00 -0.00000000000E+00 -0.66294908854E+02  0.66294908854E+02  0.00000000000E+00 0.  1.
          6    1    1    2  501    0 -0.14095519927E+02 -0.33020666549E+02  0.54557870664E+03  0.57317464462E+03  0.17200000000E+03 0.  1.
         -6    1    1    2    0  503  0.14095519927E+02  0.33020666549E+02  0.94526144640E+02  0.19952002436E+03  0.17200000000E+03 0.  1.
</event>
<event>
 4    1  0.4450588E+000  0.2297259E+03  0.7818608E-02  0.1126833E+00
         21   -1    0    0  501  502  0.00000000000E+00  0.00000000000E+00  0.81109636342E+03  0.81109636342E+03  0.00000000000E+00 0. -1.
         21   -1    0    0  502  503 -0.00000000000E+00 -0.00000000000E+00 -0.12802648999E+03  0.12802648999E+03  0.00000000000E+00 0. -1.
          6    1    1    2  501    0  0.15197406124E+03  0.96887346734E+01  0.67082603010E+03  0.70907090586E+03  0.17200000000E+03 0. -1.
         -6    1    1    2    0  503 -0.15197406124E+03 -0.96887346734E+01  0.12243843326E+02  0.23005194755E+03  0.17200000000E+03 0. -1.
</event>
<event>
 4    1  0.4450588E+000  0.1966850E+03  0.7818608E-02  0.1152566E+00
         21   -1    0    0  501  502  0.00000000000E+00  0.00000000000E+00  0.42735076539E+03  0.42735076539E+03  0.00000000000E+00 0.  1.
         21   -1    0    0  502  503 -0.00000000000E+00 -0.00000000000E+00 -0.94299695650E+02  0.94299695650E+02  0.00000000000E+00 0.  1.
          6    1    1    2  501    0 -0.43911957724E+01  0.95298090326E+02  0.21872417093E+03  0.29415178321E+03  0.17200000000E+03 0.  1.
         -6    1    1    2    0  503  0.43911957724E+01 -0.95298090326E+02  0.11432689881E+03  0.22749867782E+03  0.17200000000E+03 0.  1.
</event>
<event>
 4    1  0.4450588E+000  0.1815212E+03  0.7818608E-02  0.1166339E+00
         21   -1    0    0  503  502  0.00000000000E+00  0.00000000000E+00  0.91893376365E+03  0.91893376365E+03  0.00000000000E+00 0. -1.
         21   -1    0    0  501  503 -0.00000000000E+00 -0.00000000000E+00 -0.42033501499E+02  0.42033501499E+02  0.00000000000E+00 0. -1.
          6    1    1    2  501    0 -0.21860692805E+02  0.53740586019E+02  0.25426171103E+03  0.31240831963E+03  0.17200000000E+03 0. -1.
         -6    1    1    2    0  502  0.21860692805E+02 -0.53740586019E+02  0.62263855112E+03  0.64855894552E+03  0.17200000000E+03 0. -1.
</event>
<event>
 4    1  0.4450588E+000  0.1951716E+03  0.7818608E-02  0.1153878E+00
         21   -1    0    0  501  502  0.00000000000E+00  0.00000000000E+00  0.18595431817E+03  0.18595431817E+03  0.00000000000E+00 0.  1.
         21   -1    0    0  502  503 -0.00000000000E+00 -0.00000000000E+00 -0.20666431106E+03  0.20666431106E+03  0.00000000000E+00 0. -1.
          6    1    1    2  501    0 -0.91850527416E+02  0.84528878275E+01  0.80595045231E+01  0.19533797970E+03  0.17200000000E+03 0. -1.
         -6    1    1    2    0  503  0.91850527416E+02 -0.84528878275E+01 -0.28769497414E+02  0.19728064953E+03  0.17200000000E+03 0.  1.
</event>
<event>
 4    1  0.4450588E+000  0.1960656E+03  0.7818608E-02  0.1153102E+00
         21   -1    0    0  503  502  0.00000000000E+00  0.00000000000E+00  0.14796941777E+03  0.14796941777E+03  0.00000000000E+00 0.  1.
         21   -1    0    0  501  503 -0.00000000000E+00 -0.00000000000E+00 -0.30350499659E+03  0.30350499659E+03  0.00000000000E+00 0.  1.
          6    1    1    2  501    0 -0.63521281893E+02  0.69446196062E+02 -0.16343412521E+03  0.25524976138E+03  0.17200000000E+03 0.  1.
         -6    1    1    2    0  502  0.63521281893E+02 -0.69446196062E+02  0.78985464013E+01  0.19622465298E+03  0.17200000000E+03 0.  1.
</event>
<event>
 4    1  0.4450588E+000  0.1929281E+03  0.7818608E-02  0.1155847E+00
         21   -1    0    0  501  502  0.00000000000E+00  0.00000000000E+00  0.34264477189E+03  0.34264477189E+03  0.00000000000E+00 0.  1.
         21   -1    0    0  502  503 -0.00000000000E+00 -0.00000000000E+00 -0.13714997096E+03  0.13714997096E+03  0.00000000000E+00 0. -1.
          6    1    1    2  501    0 -0.24503964567E+02  0.83885622551E+02  0.21214503657E+03  0.28675208542E+03  0.17200000000E+03 0.  1.
         -6    1    1    2    0  503  0.24503964567E+02 -0.83885622551E+02 -0.66502356428E+01  0.19304265742E+03  0.17200000000E+03 0. -1.
</event>
<event>
 4    1  0.4450588E+000  0.1877923E+03  0.7818608E-02  0.1160468E+00
         21   -1    0    0  501  502  0.00000000000E+00  0.00000000000E+00  0.13489497373E+03  0.13489497373E+03  0.00000000000E+00 0.  1.
         21   -1    0    0  502  503 -0.00000000000E+00 -0.00000000000E+00 -0.37304736013E+03  0.37304736013E+03  0.00000000000E+00 0.  1.
          6    1    1    2  501    0 -0.54991509432E+02  0.51554573134E+02  0.19843333763E+02  0.18883775580E+03  0.17200000000E+03 0.  1.
         -6    1    1    2    0  503  0.54991509432E+02 -0.51554573134E+02 -0.25799572016E+03  0.31910457806E+03  0.17200000000E+03 0.  1.
</event>
<event>
 4    1  0.4450588E+000  0.1897420E+03  0.7818608E-02  0.1158694E+00
         21   -1    0    0  503  502  0.00000000000E+00  0.00000000000E+00  0.14472691163E+03  0.14472691163E+03  0.00000000000E+00 0. -1.
         21   -1    0    0  501  503 -0.00000000000E+00 -0.00000000000E+00 -0.75995332832E+03  0.75995332832E+03  0.00000000000E+00 0. -1.
          6    1    1    2  501    0 -0.60697266429E+02 -0.52286279751E+02 -0.67860558048E+03  0.70463291654E+03  0.17200000000E+03 0. -1.
         -6    1    1    2    0  502  0.60697266429E+02  0.52286279751E+02  0.63379163790E+02  0.20004732341E+03  0.17200000000E+03 0. -1.
</event>
<event>
 4    1  0.4450588E+000  0.4063056E+03  0.7818608E-02  0.1041618E+00
         21   -1    0    0  501  502  0.00000000000E+00  0.00000000000E+00  0.13971550038E+03  0.13971550038E+03  0.00000000000E+00 0.  1.
         21   -1    0    0  502  503 -0.00000000000E+00 -0.00000000000E+00 -0.14708711881E+04  0.14708711881E+04  0.00000000000E+00 0. -1.
          6    1    1    2  501    0  0.32123407363E+03 -0.17974679679E+03 -0.30843768353E+03  0.51011571789E+03  0.17200000000E+03 0.  1.
         -6    1    1    2    0  503 -0.32123407363E+03  0.17974679679E+03 -0.10227180042E+04  0.11004709706E+04  0.17200000000E+03 0. -1.
</event>
<event>
 4    1  0.4450588E+000  0.1907386E+03  0.7818608E-02  0.1157797E+00
         21   -1    0    0  503  502  0.00000000000E+00  0.00000000000E+00  0.40249568256E+03  0.40249568256E+03  0.00000000000E+00 0.  1.
         21   -1    0    0  501  503 -0.00000000000E+00 -0.00000000000E+00 -0.90421715317E+02  0.90421715317E+02  0.00000000000E+00 0.  1.
          6    1    1    2  501    0  0.75039034216E+02 -0.34151817016E+02  0.16072119617E+03  0.24942434958E+03  0.17200000000E+03 0. -1.
         -6    1    1    2    0  502 -0.75039034216E+02  0.34151817016E+02  0.15135277107E+03  0.24349304830E+03  0.17200000000E+03 0. -1.
</event>
<event>
 4    1  0.4450588E+000  0.2058926E+03  0.7818608E-02  0.1144861E+00
         21   -1    0    0  503  502  0.00000000000E+00  0.00000000000E+00  0.10304376916E+04  0.10304376916E+04  0.00000000000E+00 0.  1.
         21   -1    0    0  501  503 -0.00000000000E+00 -0.00000000000E+00 -0.11231293991E+03  0.11231293991E+03  0.00000000000E+00 0.  1.
          6    1    1    2  501    0  0.26010319427E+02  0.11014184276E+03  0.42153649456E+01  0.20593574616E+03  0.17200000000E+03 0.  1.
         -6    1    1    2    0  502 -0.26010319427E+02 -0.11014184276E+03  0.91390938678E+03  0.93681488539E+03  0.17200000000E+03 0.  1.
</event>
<event>
 4    1  0.4450588E+000  0.1987422E+03  0.7818608E-02  0.1150805E+00
         21   -1    0    0  503  502  0.00000000000E+00  0.00000000000E+00  0.10334368953E+03  0.10334368953E+03  0.00000000000E+00 0. -1.
         21   -1    0    0  501  503 -0.00000000000E+00 -0.00000000000E+00 -0.38496122498E+03  0.38496122498E+03  0.00000000000E+00 0. -1.
          6    1    1    2  501    0  0.82664062632E+02 -0.55507647550E+02 -0.12014869757E+03  0.23223728321E+03  0.17200000000E+03 0. -1.
         -6    1    1    2    0  502 -0.82664062632E+02  0.55507647550E+02 -0.16146883789E+03  0.25606763129E+03  0.17200000000E+03 0. -1.
</event>
<event>
 4    1  0.4450588E+000  0.2271416E+03  0.7818608E-02  0.1128668E+00
         21   -1    0    0  503  502  0.00000000000E+00  0.00000000000E+00  0.90318254324E+02  0.90318254324E+02  0.00000000000E+00 0. -1.
         21   -1    0    0  501  503 -0.00000000000E+00 -0.00000000000E+00 -0.59332069450E+03  0.59332069450E+03  0.00000000000E+00 0.  1.
          6    1    1    2  501    0  0.14463470073E+03 -0.33016754855E+02 -0.31744425987E+03  0.39033852088E+03  0.17200000000E+03 0.  1.
         -6    1    1    2    0  502 -0.14463470073E+03  0.33016754855E+02 -0.18555818031E+03  0.29330042795E+03  0.17200000000E+03 0. -1.
</event>
<event>
 4    1  0.4450588E+000  0.1734937E+03  0.7818608E-02  0.1174253E+00
         21   -1    0    0  501  502  0.00000000000E+00  0.00000000000E+00  0.48312993237E+03  0.48312993237E+03  0.00000000000E+00 0.  1.
         21   -1    0    0  502  503 -0.00000000000E+00 -0.00000000000E+00 -0.68556672080E+02  0.68556672080E+02  0.00000000000E+00 0.  1.
          6    1    1    2  501    0 -0.22258296162E+02  0.45431891863E+01  0.29060329103E+03  0.33845286979E+03  0.17200000000E+03 0.  1.
         -6    1    1    2    0  503  0.22258296162E+02 -0.45431891863E+01  0.12396996926E+03  0.21323373465E+03  0.17200000000E+03 0.  1.
</event>
<event>
 4    1  0.4450588E+000  0.1832898E+03  0.7818608E-02  0.1164657E+00
         21   -1    0    0  503  502  0.00000000000E+00  0.00000000000E+00  0.17744009736E+04  0.17744009736E+04  0.00000000000E+00 0.  1.
         21   -1    0    0  501  503 -0.00000000000E+00 -0.00000000000E+00 -0.38268611229E+02  0.38268611229E+02  0.00000000000E+00 0.  1.
          6    1    1    2  501    0  0.35395905052E+02  0.52519373461E+02  0.22383225909E+03  0.28930267004E+03  0.17200000000E+03 0.  1.
         -6    1    1    2    0  502 -0.35395905052E+02 -0.52519373461E+02  0.15123001033E+04  0.15233669148E+04  0.17200000000E+03 0.  1.
</event>
<event>
 4    1  0.4450588E+000  0.1863321E+03  0.7818608E-02  0.1161812E+00
         21   -1    0    0  503  502  0.00000000000E+00  0.00000000000E+00  0.24959379960E+03  0.24959379960E+03  0.00000000000E+00 0.  1.
         21   -1    0    0  501  503 -0.00000000000E+00 -0.00000000000E+00 -0.14531999731E+03  0.14531999731E+03  0.00000000000E+00 0.  1.
          6    1    1    2  501    0 -0.70920115293E+02 -0.10295925734E+02  0.11301124212E+02  0.18667454098E+03  0.17200000000E+03 0.  1.
         -6    1    1    2    0  502  0.70920115293E+02  0.10295925734E+02  0.92972678082E+02  0.20823925593E+03  0.17200000000E+03 0.  1.
</event>
<event>
 4    1  0.4450588E+000  0.2308159E+03  0.7818608E-02  0.1126067E+00
         21   -1    0    0  501  502  0.00000000000E+00  0.00000000000E+00  0.73098534714E+03  0.73098534714E+03  0.00000000000E+00 0.  1.
         21   -1    0    0  502  503 -0.00000000000E+00 -0.00000000000E+00 -0.15705656950E+03  0.15705656950E+03  0.00000000000E+00 0. -1.
          6    1    1    2  501    0  0.11018680278E+03 -0.10747493140E+03  0.61202529732E+03  0.65410316996E+03  0.17200000000E+03 0.  1.
         -6    1    1    2    0  503 -0.11018680278E+03  0.10747493140E+03 -0.38096519690E+02  0.23393874668E+03  0.17200000000E+03 0. -1.
</event>
<event>
 4    1  0.4450588E+000  0.2538660E+03  0.7818608E-02  0.1110886E+00
         21   -1    0    0  501  502  0.00000000000E+00  0.00000000000E+00  0.40840480398E+03  0.40840480398E+03  0.00000000000E+00 0. -1.
         21   -1    0    0  502  503 -0.00000000000E+00 -0.00000000000E+00 -0.20298403177E+03  0.20298403177E+03  0.00000000000E+00 0. -1.
          6    1    1    2  501    0 -0.11939381020E+03 -0.14355856336E+03  0.24693170682E+03  0.35415139540E+03  0.17200000000E+03 0. -1.
         -6    1    1    2    0  503  0.11939381020E+03  0.14355856336E+03 -0.41510934620E+02  0.25723744035E+03  0.17200000000E+03 0. -1.
</event>
<event>
 4    1  0.4450588E+000  0.1808356E+03  0.7818608E-02  0.1166997E+00
         21   -1    0    0  503  502  0.00000000000E+00  0.00000000000E+00  0.45863767071E+02  0.45863767071E+02  0.00000000000E+00 0.  1.
         21   -1    0    0  501  503 -0.00000000000E+00 -0.00000000000E+00 -0.88663162000E+03  0.88663162000E+03  0.00000000000E+00 0.  1.
          6    1    1    2  501    0 -0.30868848415E+02 -0.46525600430E+02 -0.62670411916E+03  0.65227261960E+03  0.17200000000E+03 0.  1.
         -6    1    1    2    0  502  0.30868848415E+02  0.46525600430E+02 -0.21406373377E+03  0.28022276748E+03  0.17200000000E+03 0.  1.
</event>
<event>
 4    1  0.4450588E+000  0.1880572E+03  0.7818608E-02  0.1160225E+00
         21   -1    0    0  501  502  0.00000000000E+00  0.00000000000E+00  0.63972427927E+02  0.63972427927E+02  0.00000000000E+00 0.  1.
         21   -1    0    0  502  503 -0.00000000000E+00 -0.00000000000E+00 -0.55430592270E+03  0.55430592270E+03  0.00000000000E+00 0.  1.
          6    1    1    2  501    0 -0.73173116937E+02  0.20669238942E+02 -0.26114854623E+03  0.32181374377E+03  0.17200000000E+03 0.  1.
         -6    1    1    2    0  503  0.73173116937E+02 -0.20669238942E+02 -0.22918494854E+03  0.29646460686E+03  0.17200000000E+03 0.  1.
</event>
<event>
 4    1  0.4450588E+000  0.1799495E+03  0.7818608E-02  0.1167852E+00
         21   -1    0    0  501  502  0.00000000000E+00  0.00000000000E+00  0.10641869810E+04  0.10641869810E+04  0.00000000000E+00 0.  1.
         21   -1    0    0  502  503 -0.00000000000E+00 -0.00000000000E+00 -0.12615612106E+03  0.12615612106E+03  0.00000000000E+00 0.  1.
          6    1    1    2  501    0  0.26933706096E+02 -0.45523497324E+02  0.98746462878E+03  0.10037271574E+04  0.17200000000E+03 0.  1.
         -6    1    1    2    0  503 -0.26933706096E+02  0.45523497324E+02 -0.49433768804E+02  0.18661594474E+03  0.17200000000E+03 0.  1.
</event>
<event>
 4    1  0.4450588E+000  0.1816495E+03  0.7818608E-02  0.1166216E+00
         21   -1    0    0  501  502  0.00000000000E+00  0.00000000000E+00  0.19510049632E+03  0.19510049632E+03  0.00000000000E+00 0.  1.
         21   -1    0    0  502  503 -0.00000000000E+00 -0.00000000000E+00 -0.24438177632E+03  0.24438177632E+03  0.00000000000E+00 0.  1.
          6    1    1    2  501    0  0.37833605213E+02  0.44510266457E+02  0.97299640201E+02  0.20606738094E+03  0.17200000000E+03 0.  1.
         -6    1    1    2    0  503 -0.37833605213E+02 -0.44510266457E+02 -0.14658092020E+03  0.23341489170E+03  0.17200000000E+03 0.  1.
</event>
<event>
 4    1  0.4450588E+000  0.1977121E+03  0.7818608E-02  0.1151684E+00
         21   -1    0    0  501  502  0.00000000000E+00  0.00000000000E+00  0.14619175378E+03  0.14619175378E+03  0.00000000000E+00 0. -1.
         21   -1    0    0  502  503 -0.00000000000E+00 -0.00000000000E+00 -0.26817286327E+03  0.26817286327E+03  0.00000000000E+00 0. -1.
          6    1    1    2  501    0 -0.27414836288E+01  0.97460561004E+02 -0.49789813087E+02  0.20388502194E+03  0.17200000000E+03 0. -1.
         -6    1    1    2    0  503  0.27414836288E+01 -0.97460561004E+02 -0.72191296407E+02  0.21047959512E+03  0.17200000000E+03 0. -1.
</event>
<event>
 4    1  0.4450588E+000  0.1950097E+03  0.7818608E-02  0.1154019E+00
         21   -1    0    0  503  502  0.00000000000E+00  0.00000000000E+00  0.52818014447E+03  0.52818014447E+03  0.00000000000E+00 0.  1.
         21   -1    0    0  501  503 -0.00000000000E+00 -0.00000000000E+00 -0.74176737520E+02  0.74176737520E+02  0.00000000000E+00 0.  1.
          6    1    1    2  501    0  0.86688732116E+02 -0.30493277382E+02  0.17540407790E+03  0.26228870884E+03  0.17200000000E+03 0.  1.
         -6    1    1    2    0  502 -0.86688732116E+02  0.30493277382E+02  0.27859932905E+03  0.34006817315E+03  0.17200000000E+03 0.  1.
</event>
<event>
 4    1  0.4450588E+000  0.1749248E+03  0.7818608E-02  0.1172807E+00
         21   -1    0    0  503  502  0.00000000000E+00  0.00000000000E+00  0.23593216645E+03  0.23593216645E+03  0.00000000000E+00 0.  1.
         21   -1    0    0  501  503 -0.00000000000E+00 -0.00000000000E+00 -0.14625327276E+03  0.14625327276E+03  0.00000000000E+00 0.  1.
          6    1    1    2  501    0  0.12704809205E+02 -0.29211061372E+02 -0.19463072328E+02  0.17600428821E+03  0.17200000000E+03 0.  1.
         -6    1    1    2    0  502 -0.12704809205E+02  0.29211061372E+02  0.10914196602E+03  0.20618115100E+03  0.17200000000E+03 0.  1.
</event>
<event>
 4    1  0.4450588E+000  0.2063113E+03  0.7818608E-02  0.1144521E+00
         21   -1    0    0  501  502  0.00000000000E+00  0.00000000000E+00  0.48199530228E+03  0.48199530228E+03  0.00000000000E+00 0.  1.
         21   -1    0    0  502  503 -0.00000000000E+00 -0.00000000000E+00 -0.89913412522E+02  0.89913412522E+02  0.00000000000E+00 0.  1.
          6    1    1    2  501    0 -0.10801088983E+03  0.36249417143E+02  0.23424282869E+03  0.31214431816E+03  0.17200000000E+03 0.  1.
         -6    1    1    2    0  503  0.10801088983E+03 -0.36249417143E+02  0.15783906107E+03  0.25976439665E+03  0.17200000000E+03 0.  1.
</event>
<event>
 4    1  0.4450588E+000  0.1949291E+03  0.7818608E-02  0.1154089E+00
         21   -1    0    0  503  502  0.00000000000E+00  0.00000000000E+00  0.90002906052E+02  0.90002906052E+02  0.00000000000E+00 0.  1.
         21   -1    0    0  501  503 -0.00000000000E+00 -0.00000000000E+00 -0.43557583828E+03  0.43557583828E+03  0.00000000000E+00 0.  1.
          6    1    1    2  501    0  0.55963050979E+02 -0.72673936132E+02 -0.21887280052E+03  0.29309156739E+03  0.17200000000E+03 0.  1.
         -6    1    1    2    0  502 -0.55963050979E+02  0.72673936132E+02 -0.12670013171E+03  0.23248717694E+03  0.17200000000E+03 0.  1.
</event>
<event>
 4    1  0.4450588E+000  0.2728467E+03  0.7818608E-02  0.1099661E+00
         21   -1    0    0  503  502  0.00000000000E+00  0.00000000000E+00  0.85135692927E+03  0.85135692927E+03  0.00000000000E+00 0. -1.
         21   -1    0    0  501  503 -0.00000000000E+00 -0.00000000000E+00 -0.98308761363E+02  0.98308761363E+02  0.00000000000E+00 0. -1.
          6    1    1    2  501    0  0.19628436944E+03 -0.79584893445E+02  0.21866402622E+03  0.34965592418E+03  0.17200000000E+03 0. -1.
         -6    1    1    2    0  502 -0.19628436944E+03  0.79584893445E+02  0.53438414168E+03  0.60000976645E+03  0.17200000000E+03 0. -1.
</event>
<event>
 4    1  0.4450588E+000  0.1922620E+03  0.7818608E-02  0.1156437E+00
         21   -1    0    0  501  502  0.00000000000E+00  0.00000000000E+00  0.10931068944E+03  0.10931068944E+03  0.00000000000E+00 0. -1.
         21   -1    0    0  502  503 -0.00000000000E+00 -0.00000000000E+00 -0.34704295213E+03  0.34704295213E+03  0.00000000000E+00 0. -1.
          6    1    1    2  501    0  0.85870623207E+02 -0.26320333591E+01 -0.82364157648E+02  0.20916153087E+03  0.17200000000E+03 0. -1.
         -6    1    1    2    0  503 -0.85870623207E+02  0.26320333591E+01 -0.15536810505E+03  0.24719211071E+03  0.17200000000E+03 0. -1.
</event>
<event>
 4    1  0.4450588E+000  0.2606335E+03  0.7818608E-02  0.1106763E+00
         21   -1    0    0  501  502  0.00000000000E+00  0.00000000000E+00  0.43717939329E+02  0.43717939329E+02  0.00000000000E+00 0.  1.
         21   -1    0    0  502  503 -0.00000000000E+00 -0.00000000000E+00 -0.17366411836E+04  0.17366411836E+04  0.00000000000E+00 0.  1.
          6    1    1    2  501    0 -0.19412663431E+03  0.25703186870E+02 -0.55763584423E+03  0.61553841370E+03  0.17200000000E+03 0.  1.
         -6    1    1    2    0  503  0.19412663431E+03 -0.25703186870E+02 -0.11352874000E+04  0.11648207092E+04  0.17200000000E+03 0.  1.
</event>
<event>
 4    1  0.4450588E+000  0.3010678E+03  0.7818608E-02  0.1084708E+00
         21   -1    0    0  503  502  0.00000000000E+00  0.00000000000E+00  0.11466246687E+04  0.11466246687E+04  0.00000000000E+00 0. -1.
         21   -1    0    0  501  503 -0.00000000000E+00 -0.00000000000E+00 -0.80889152101E+02  0.80889152101E+02  0.00000000000E+00 0.  1.
          6    1    1    2  501    0  0.21804840682E+03 -0.11624424997E+03  0.44034655180E+03  0.53342939463E+03  0.17200000000E+03 0. -1.
         -6    1    1    2    0  502 -0.21804840682E+03  0.11624424997E+03  0.62538896475E+03  0.69408442613E+03  0.17200000000E+03 0.  1.
</event>
<event>
 4    1  0.4450588E+000  0.1743193E+03  0.7818608E-02  0.1173417E+00
         21   -1    0    0  503  502  0.00000000000E+00  0.00000000000E+00  0.87201442646E+02  0.87201442646E+02  0.00000000000E+00 0. -1.
         21   -1    0    0  501  503 -0.00000000000E+00 -0.00000000000E+00 -0.39773577997E+03  0.39773577997E+03  0.00000000000E+00 0. -1.
          6    1    1    2  501    0 -0.24361403591E+02 -0.14482804809E+02 -0.69932864275E+02  0.18782394716E+03  0.17200000000E+03 0. -1.
         -6    1    1    2    0  502  0.24361403591E+02  0.14482804809E+02 -0.24060147305E+03  0.29711327546E+03  0.17200000000E+03 0. -1.
</event>
<event>
 4    1  0.4450588E+000  0.2113977E+03  0.7818608E-02  0.1140464E+00
         21   -1    0    0  501  502  0.00000000000E+00  0.00000000000E+00  0.11612289793E+04  0.11612289793E+04  0.00000000000E+00 0. -1.
         21   -1    0    0  502  503 -0.00000000000E+00 -0.00000000000E+00 -0.42324723434E+02  0.42324723434E+02  0.00000000000E+00 0. -1.
          6    1    1    2  501    0  0.70979346706E+02 -0.10033404274E+03  0.74072494042E+03  0.77030021754E+03  0.17200000000E+03 0. -1.
         -6    1    1    2    0  503 -0.70979346706E+02  0.10033404274E+03  0.37817931541E+03  0.43325348515E+03  0.17200000000E+03 0. -1.
</event>
<event>
 4    1  0.4450588E+000  0.2500743E+03  0.7818608E-02  0.1113258E+00
         21   -1    0    0  501  502  0.00000000000E+00  0.00000000000E+00  0.11174843418E+03  0.11174843418E+03  0.00000000000E+00 0. -1.
         21   -1    0    0  502  503 -0.00000000000E+00 -0.00000000000E+00 -0.55996118381E+03  0.55996118381E+03  0.00000000000E+00 0.  1.
          6    1    1    2  501    0  0.18147515878E+03  0.44660407669E+01 -0.23233987693E+03  0.34134879110E+03  0.17200000000E+03 0.  1.
         -6    1    1    2    0  503 -0.18147515878E+03 -0.44660407669E+01 -0.21587287270E+03  0.33036082689E+03  0.17200000000E+03 0. -1.
</event>
<event>
 4    1  0.4450588E+000  0.1897496E+03  0.7818608E-02  0.1158687E+00
         21   -1    0    0  501  502  0.00000000000E+00  0.00000000000E+00  0.15136029129E+03  0.15136029129E+03  0.00000000000E+00 0. -1.
         21   -1    0    0  502  503 -0.00000000000E+00 -0.00000000000E+00 -0.23887398631E+03  0.23887398631E+03  0.00000000000E+00 0.  1.
          6    1    1    2  501    0  0.80130572818E+02 -0.11051603476E+00 -0.31142664100E+02  0.19228828992E+03  0.17200000000E+03 0. -1.
         -6    1    1    2    0  503 -0.80130572818E+02  0.11051603476E+00 -0.56371030920E+02  0.19794598769E+03  0.17200000000E+03 0. -1.
</event>
<event>
 4    1  0.4450588E+000  0.1743300E+03  0.7818608E-02  0.1173406E+00
         21   -1    0    0  503  502  0.00000000000E+00  0.00000000000E+00  0.35885936349E+03  0.35885936349E+03  0.00000000000E+00 0. -1.
         21   -1    0    0  501  503 -0.00000000000E+00 -0.00000000000E+00 -0.87125793849E+02  0.87125793849E+02  0.00000000000E+00 0. -1.
          6    1    1    2  501    0 -0.28386364480E+02 -0.10744730548E+01  0.98563191531E+02  0.20026393311E+03  0.17200000000E+03 0.  1.
         -6    1    1    2    0  502  0.28386364480E+02  0.10744730548E+01  0.17317037811E+03  0.24572122423E+03  0.17200000000E+03 0.  1.
</event>
<event>
 4    1  0.4450588E+000  0.1826288E+03  0.7818608E-02  0.1165283E+00
         21   -1    0    0  501  502  0.00000000000E+00  0.00000000000E+00  0.23430322583E+03  0.23430322583E+03  0.00000000000E+00 0.  1.
         21   -1    0    0  502  503 -0.00000000000E+00 -0.00000000000E+00 -0.20025784808E+03  0.20025784808E+03  0.00000000000E+00 0. -1.
          6    1    1    2  501    0  0.61258557770E+02 -0.40847062027E+01  0.13386255778E+03  0.22643427324E+03  0.17200000000E+03 0.  1.
         -6    1    1    2    0  503 -0.61258557770E+02  0.40847062027E+01 -0.99817180031E+02  0.20812680066E+03  0.17200000000E+03 0. -1.
</event>
<event>
 4    1  0.4450588E+000  0.3035674E+03  0.7818608E-02  0.1083471E+00
         21   -1    0    0  503  502  0.00000000000E+00  0.00000000000E+00  0.27268438715E+03  0.27268438715E+03  0.00000000000E+00 0. -1.
         21   -1    0    0  501  503 -0.00000000000E+00 -0.00000000000E+00 -0.34628112660E+03  0.34628112660E+03  0.00000000000E+00 0. -1.
          6    1    1    2  501    0 -0.20436854549E+03 -0.14423137397E+03 -0.84807232117E+02  0.31519114557E+03  0.17200000000E+03 0. -1.
         -6    1    1    2    0  502  0.20436854549E+03  0.14423137397E+03  0.11210492666E+02  0.30377436819E+03  0.17200000000E+03 0. -1.
</event>
<event>
 4    1  0.4450588E+000  0.2298961E+03  0.7818608E-02  0.1126713E+00
         21   -1    0    0  501  502  0.00000000000E+00  0.00000000000E+00  0.43746777314E+02  0.43746777314E+02  0.00000000000E+00 0.  1.
         21   -1    0    0  502  503 -0.00000000000E+00 -0.00000000000E+00 -0.16767744044E+04  0.16767744044E+04  0.00000000000E+00 0. -1.
          6    1    1    2  501    0  0.84291760022E+02  0.12713421404E+03 -0.36172473039E+03  0.42859886813E+03  0.17200000000E+03 0.  1.
         -6    1    1    2    0  503 -0.84291760022E+02 -0.12713421404E+03 -0.12713028967E+04  0.12919223136E+04  0.17200000000E+03 0. -1.
</event>
<event>
 4    1  0.4450588E+000  0.2075001E+03  0.7818608E-02  0.1143561E+00
         21   -1    0    0  501  502  0.00000000000E+00  0.00000000000E+00  0.68660579873E+03  0.68660579873E+03  0.00000000000E+00 0. -1.
         21   -1    0    0  502  503 -0.00000000000E+00 -0.00000000000E+00 -0.63157612935E+02  0.63157612935E+02  0.00000000000E+00 0. -1.
          6    1    1    2  501    0 -0.64620736272E+02 -0.96418155743E+02  0.34332223158E+03  0.40115639719E+03  0.17200000000E+03 0. -1.
         -6    1    1    2    0  503  0.64620736272E+02  0.96418155743E+02  0.28012595422E+03  0.34860701448E+03  0.17200000000E+03 0. -1.
</event>
<event>
 4    1  0.4450588E+000  0.1820745E+03  0.7818608E-02  0.1165810E+00
         21   -1    0    0  501  502  0.00000000000E+00  0.00000000000E+00  0.10221148096E+03  0.10221148096E+03  0.00000000000E+00 0. -1.
         21   -1    0    0  502  503 -0.00000000000E+00 -0.00000000000E+00 -0.55741855427E+03  0.55741855427E+03  0.00000000000E+00 0. -1.
          6    1    1    2  501    0  0.58642568452E+02  0.11322043511E+02 -0.14332402019E+02  0.18263777608E+03  0.17200000000E+03 0. -1.
         -6    1    1    2    0  503 -0.58642568452E+02 -0.11322043511E+02 -0.44087467129E+03  0.47699225915E+03  0.17200000000E+03 0. -1.
</event>
<event>
 4    1  0.4450588E+000  0.2001306E+03  0.7818608E-02  0.1149629E+00
         21   -1    0    0  501  502  0.00000000000E+00  0.00000000000E+00  0.17601840012E+03  0.17601840012E+03  0.00000000000E+00 0.  1.
         21   -1    0    0  502  503 -0.00000000000E+00 -0.00000000000E+00 -0.23847820155E+03  0.23847820155E+03  0.00000000000E+00 0.  1.
          6    1    1    2  501    0 -0.98911132562E+02  0.26169587784E+02  0.13143538513E+02  0.20056174130E+03  0.17200000000E+03 0.  1.
         -6    1    1    2    0  503  0.98911132562E+02 -0.26169587784E+02 -0.75603339946E+02  0.21393486037E+03  0.17200000000E+03 0.  1.
</event>
<event>
 4    1  0.4450588E+000  0.1812413E+03  0.7818608E-02  0.1166607E+00
         21   -1    0    0  503  502  0.00000000000E+00  0.00000000000E+00  0.29838682485E+03  0.29838682485E+03  0.00000000000E+00 0.  1.
         21   -1    0    0  501  503 -0.00000000000E+00 -0.00000000000E+00 -0.28681827973E+03  0.28681827973E+03  0.00000000000E+00 0.  1.
          6    1    1    2  501    0  0.35711802613E+02  0.44599208564E+02 -0.22390027103E+03  0.28806206557E+03  0.17200000000E+03 0.  1.
         -6    1    1    2    0  502 -0.35711802613E+02 -0.44599208564E+02  0.23546881615E+03  0.29714303901E+03  0.17200000000E+03 0.  1.
</event>
<event>
 4    1  0.4450588E+000  0.2355991E+03  0.7818608E-02  0.1122760E+00
         21   -1    0    0  501  502  0.00000000000E+00  0.00000000000E+00  0.13949940421E+03  0.13949940421E+03  0.00000000000E+00 0. -1.
         21   -1    0    0  502  503 -0.00000000000E+00 -0.00000000000E+00 -0.61972532062E+03  0.61972532062E+03  0.00000000000E+00 0. -1.
          6    1    1    2  501    0 -0.12315581717E+03  0.10370911074E+03 -0.12998161649E+02  0.23595738420E+03  0.17200000000E+03 0.  1.
         -6    1    1    2    0  503  0.12315581717E+03 -0.10370911074E+03 -0.46722775476E+03  0.52326734063E+03  0.17200000000E+03 0.  1.
</event>
<event>
 4    1  0.4450588E+000  0.2135629E+03  0.7818608E-02  0.1138775E+00
         21   -1    0    0  503  502  0.00000000000E+00  0.00000000000E+00  0.11850095267E+04  0.11850095267E+04  0.00000000000E+00 0. -1.
         21   -1    0    0  501  503 -0.00000000000E+00 -0.00000000000E+00 -0.50066820571E+02  0.50066820571E+02  0.00000000000E+00 0. -1.
          6    1    1    2  501    0 -0.45739920126E+02  0.11803805211E+03  0.27050076348E+03  0.34464443283E+03  0.17200000000E+03 0. -1.
         -6    1    1    2    0  502  0.45739920126E+02 -0.11803805211E+03  0.86444194264E+03  0.89043191443E+03  0.17200000000E+03 0. -1.
</event>
<event>
 4    1  0.4450588E+000  0.2982700E+03  0.7818608E-02  0.1086109E+00
         21   -1    0    0  501  502  0.00000000000E+00  0.00000000000E+00  0.17368819498E+04  0.17368819498E+04  0.00000000000E+00 0.  1.
         21   -1    0    0  502  503 -0.00000000000E+00 -0.00000000000E+00 -0.70682439253E+02  0.70682439253E+02  0.00000000000E+00 0.  1.
          6    1    1    2  501    0 -0.23345864597E+03  0.69842957607E+02  0.13073357838E+04  0.13409294649E+04  0.17200000000E+03 0.  1.
         -6    1    1    2    0  503  0.23345864597E+03 -0.69842957607E+02  0.35886372671E+03  0.46663492417E+03  0.17200000000E+03 0.  1.
</event>
<event>
 4    1  0.4450588E+000  0.1779586E+03  0.7818608E-02  0.1169793E+00
         21   -1    0    0  503  502  0.00000000000E+00  0.00000000000E+00  0.46298055678E+03  0.46298055678E+03  0.00000000000E+00 0. -1.
         21   -1    0    0  501  503 -0.00000000000E+00 -0.00000000000E+00 -0.75536057740E+02  0.75536057740E+02  0.00000000000E+00 0. -1.
          6    1    1    2  501    0 -0.18308338637E+02  0.41834012591E+02  0.11097978496E+03  0.20972790120E+03  0.17200000000E+03 0. -1.
         -6    1    1    2    0  502  0.18308338637E+02 -0.41834012591E+02  0.27646471409E+03  0.32878871332E+03  0.17200000000E+03 0. -1.
</event>
<event>
 4    1  0.4450588E+000  0.1732492E+03  0.7818608E-02  0.1174501E+00
         21   -1    0    0  501  502  0.00000000000E+00  0.00000000000E+00  0.17635251036E+03  0.17635251036E+03  0.00000000000E+00 0.  1.
         21   -1    0    0  502  503 -0.00000000000E+00 -0.00000000000E+00 -0.17300214169E+03  0.17300214169E+03  0.00000000000E+00 0.  1.
          6    1    1    2  501    0 -0.18889130399E+02 -0.86312776625E+01  0.23903752140E+02  0.17489050165E+03  0.17200000000E+03 0.  1.
         -6    1    1    2    0  503  0.18889130399E+02  0.86312776625E+01 -0.20553383464E+02  0.17446415040E+03  0.17200000000E+03 0.  1.
</event>
<event>
 4    1  0.4450588E+000  0.1938888E+03  0.7818608E-02  0.1155000E+00
         21   -1    0    0  501  502  0.00000000000E+00  0.00000000000E+00  0.42390084550E+02  0.42390084550E+02  0.00000000000E+00 0. -1.
         21   -1    0    0  502  503 -0.00000000000E+00 -0.00000000000E+00 -0.89169952881E+03  0.89169952881E+03  0.00000000000E+00 0.  1.
          6    1    1    2  501    0  0.14667138458E+01  0.89480221896E+02 -0.39014616486E+03  0.43566832719E+03  0.17200000000E+03 0.  1.
         -6    1    1    2    0  503 -0.14667138458E+01 -0.89480221896E+02 -0.45916327940E+03  0.49842128618E+03  0.17200000000E+03 0. -1.
</event>
<event>
 4    1  0.4450588E+000  0.3044014E+03  0.7818608E-02  0.1083061E+00
         21   -1    0    0  503  502  0.00000000000E+00  0.00000000000E+00  0.42951258687E+03  0.42951258687E+03  0.00000000000E+00 0. -1.
         21   -1    0    0  501  503 -0.00000000000E+00 -0.00000000000E+00 -0.22984203998E+03  0.22984203998E+03  0.00000000000E+00 0.  1.
          6    1    1    2  501    0 -0.16169921545E+02 -0.25062870282E+03  0.18155068120E+02  0.30494232166E+03  0.17200000000E+03 0.  1.
         -6    1    1    2    0  502  0.16169921545E+02  0.25062870282E+03  0.18151547877E+03  0.35441230519E+03  0.17200000000E+03 0. -1.
</event>
<event>
 4    1  0.4450588E+000  0.1807377E+03  0.7818608E-02  0.1167091E+00
         21   -1    0    0  501  502  0.00000000000E+00  0.00000000000E+00  0.12444209031E+03  0.12444209031E+03  0.00000000000E+00 0.  1.
         21   -1    0    0  502  503 -0.00000000000E+00 -0.00000000000E+00 -0.55833914807E+03  0.55833914807E+03  0.00000000000E+00 0. -1.
          6    1    1    2  501    0 -0.22308438122E+02  0.50837362793E+02  0.31553557728E+02  0.18347133529E+03  0.17200000000E+03 0.  1.
         -6    1    1    2    0  503  0.22308438122E+02 -0.50837362793E+02 -0.46545061548E+03  0.49930990309E+03  0.17200000000E+03 0. -1.
</event>
<event>
 4    1  0.4450588E+000  0.1832553E+03  0.7818608E-02  0.1164689E+00
         21   -1    0    0  503  502  0.00000000000E+00  0.00000000000E+00  0.30116306719E+02  0.30116306719E+02  0.00000000000E+00 0.  1.
         21   -1    0    0  501  503 -0.00000000000E+00 -0.00000000000E+00 -0.11509853663E+04  0.11509853663E+04  0.00000000000E+00 0.  1.
          6    1    1    2  501    0  0.47296808788E+02 -0.41970506501E+02 -0.66471852524E+03  0.68951666357E+03  0.17200000000E+03 0.  1.
         -6    1    1    2    0  502 -0.47296808788E+02  0.41970506501E+02 -0.45615053430E+03  0.49158500941E+03  0.17200000000E+03 0.  1.
</event>
<event>
 4    1  0.4450588E+000  0.2387922E+03  0.7818608E-02  0.1120600E+00
         21   -1    0    0  503  502  0.00000000000E+00  0.00000000000E+00  0.36535806746E+03  0.36535806746E+03  0.00000000000E+00 0.  1.
         21   -1    0    0  501  503 -0.00000000000E+00 -0.00000000000E+00 -0.16153484636E+03  0.16153484636E+03  0.00000000000E+00 0.  1.
          6    1    1    2  501    0 -0.14803975632E+02 -0.16498045045E+03  0.53458850471E+02  0.24470299430E+03  0.17200000000E+03 0.  1.
         -6    1    1    2    0  502  0.14803975632E+02  0.16498045045E+03  0.15036437063E+03  0.28218991952E+03  0.17200000000E+03 0.  1.
</event>
<event>
 4    1  0.4450588E+000  0.1896760E+03  0.7818608E-02  0.1158754E+00
         21   -1    0    0  501  502  0.00000000000E+00  0.00000000000E+00  0.78686170387E+03  0.78686170387E+03  0.00000000000E+00 0. -1.
         21   -1    0    0  502  503 -0.00000000000E+00 -0.00000000000E+00 -0.56307349231E+02  0.56307349231E+02  0.00000000000E+00 0. -1.
          6    1    1    2  501    0  0.69862482582E+02  0.38887383359E+02  0.54806699481E+03  0.57996071061E+03  0.17200000000E+03 0.  1.
         -6    1    1    2    0  503 -0.69862482582E+02 -0.38887383359E+02  0.18248735983E+03  0.26320834249E+03  0.17200000000E+03 0.  1.
</event>
<event>
 4    1  0.4450588E+000  0.1805487E+03  0.7818608E-02  0.1167273E+00
         21   -1    0    0  501  502  0.00000000000E+00  0.00000000000E+00  0.83993999265E+02  0.83993999265E+02  0.00000000000E+00 0. -1.
         21   -1    0    0  502  503 -0.00000000000E+00 -0.00000000000E+00 -0.41056632106E+03  0.41056632106E+03  0.00000000000E+00 0. -1.
          6    1    1    2  501    0  0.17390540445E+02 -0.52071224725E+02 -0.10543796725E+03  0.20908134369E+03  0.17200000000E+03 0. -1.
         -6    1    1    2    0  503 -0.17390540445E+02  0.52071224725E+02 -0.22113435455E+03  0.28547897664E+03  0.17200000000E+03 0. -1.
</event>
<event>
 4    1  0.4450588E+000  0.1745393E+03  0.7818608E-02  0.1173195E+00
         21   -1    0    0  503  502  0.00000000000E+00  0.00000000000E+00  0.27014052544E+03  0.27014052544E+03  0.00000000000E+00 0. -1.
         21   -1    0    0  501  503 -0.00000000000E+00 -0.00000000000E+00 -0.13145576444E+03  0.13145576444E+03  0.00000000000E+00 0. -1.
          6    1    1    2  501    0 -0.28858144374E+02 -0.68689325198E+01  0.14504580388E+03  0.22694109358E+03  0.17200000000E+03 0. -1.
         -6    1    1    2    0  502  0.28858144374E+02  0.68689325198E+01 -0.63610428780E+01  0.17465519631E+03  0.17200000000E+03 0. -1.
</event>
<event>
 4    1  0.4450588E+000  0.1874813E+03  0.7818608E-02  0.1160753E+00
         21   -1    0    0  501  502  0.00000000000E+00  0.00000000000E+00  0.32235658462E+03  0.32235658462E+03  0.00000000000E+00 0. -1.
         21   -1    0    0  502  503 -0.00000000000E+00 -0.00000000000E+00 -0.22851737097E+03  0.22851737097E+03  0.00000000000E+00 0. -1.
          6    1    1    2  501    0  0.72423725944E+02 -0.17889526083E+02  0.24608251365E+03  0.30936359635E+03  0.17200000000E+03 0. -1.
         -6    1    1    2    0  503 -0.72423725944E+02  0.17889526083E+02 -0.15224330000E+03  0.24151035923E+03  0.17200000000E+03 0. -1.
</event>
<event>
 4    1  0.4450588E+000  0.3114738E+03  0.7818608E-02  0.1079642E+00
         21   -1    0    0  501  502  0.00000000000E+00  0.00000000000E+00  0.46685996232E+02  0.46685996232E+02  0.00000000000E+00 0. -1.
         21   -1    0    0  502  503 -0.00000000000E+00 -0.00000000000E+00 -0.20816965554E+04  0.20816965554E+04  0.00000000000E+00 0. -1.
          6    1    1    2  501    0  0.15711778034E+03  0.20675084491E+03 -0.97297477699E+03  0.10216143232E+04  0.17200000000E+03 0. -1.
         -6    1    1    2    0  503 -0.15711778034E+03 -0.20675084491E+03 -0.10620357822E+04  0.11067682284E+04  0.17200000000E+03 0. -1.
</event>
<event>
 4    1  0.4450588E+000  0.2620687E+03  0.7818608E-02  0.1105907E+00
         21   -1    0    0  501  502  0.00000000000E+00  0.00000000000E+00  0.81515136007E+02  0.81515136007E+02  0.00000000000E+00 0.  1.
         21   -1    0    0  502  503 -0.00000000000E+00 -0.00000000000E+00 -0.85590111738E+03  0.85590111738E+03  0.00000000000E+00 0.  1.
          6    1    1    2  501    0  0.19066342464E+03  0.52378281322E+02 -0.32863858154E+03  0.42033717790E+03  0.17200000000E+03 0.  1.
         -6    1    1    2    0  503 -0.19066342464E+03 -0.52378281322E+02 -0.44574739983E+03  0.51707907549E+03  0.17200000000E+03 0.  1.
</event>
<event>
 4    1  0.4450588E+000  0.1929092E+03  0.7818608E-02  0.1155863E+00
         21   -1    0    0  503  502  0.00000000000E+00  0.00000000000E+00  0.30590352202E+03  0.30590352202E+03  0.00000000000E+00 0.  1.
         21   -1    0    0  501  503 -0.00000000000E+00 -0.00000000000E+00 -0.12172317196E+03  0.12172317196E+03  0.00000000000E+00 0.  1.
          6    1    1    2  501    0  0.82823561092E+02  0.27752790984E+02  0.86941974350E+02  0.21159599850E+03  0.17200000000E+03 0.  1.
         -6    1    1    2    0  502 -0.82823561092E+02 -0.27752790984E+02  0.97238375706E+02  0.21603069548E+03  0.17200000000E+03 0.  1.
</event>
<event>
 4    1  0.4450588E+000  0.1829458E+03  0.7818608E-02  0.1164982E+00
         21   -1    0    0  503  502  0.00000000000E+00  0.00000000000E+00  0.66686932293E+03  0.66686932293E+03  0.00000000000E+00 0. -1.
         21   -1    0    0  501  503 -0.00000000000E+00 -0.00000000000E+00 -0.59179509304E+02  0.59179509304E+02  0.00000000000E+00 0. -1.
          6    1    1    2  501    0 -0.45274348709E+02  0.42841676245E+02  0.16234563556E+03  0.24459207113E+03  0.17200000000E+03 0. -1.
         -6    1    1    2    0  502  0.45274348709E+02 -0.42841676245E+02  0.44534417807E+03  0.48145676111E+03  0.17200000000E+03 0. -1.
</event>
<event>
 4    1  0.4450588E+000  0.2793035E+03  0.7818608E-02  0.1096070E+00
         21   -1    0    0  501  502  0.00000000000E+00  0.00000000000E+00  0.19921438033E+03  0.19921438033E+03  0.00000000000E+00 0.  1.
         21   -1    0    0  502  503 -0.00000000000E+00 -0.00000000000E+00 -0.39165881227E+03  0.39165881227E+03  0.00000000000E+00 0. -1.
          6    1    1    2  501    0  0.92485034020E+02  0.19968216791E+03 -0.92319158852E+02  0.29416539019E+03  0.17200000000E+03 0.  1.
         -6    1    1    2    0  503 -0.92485034020E+02 -0.19968216791E+03 -0.10012527308E+03  0.29670780240E+03  0.17200000000E+03 0. -1.
</event>
<event>
 4    1  0.4450588E+000  0.2553378E+03  0.7818608E-02  0.1109977E+00
         21   -1    0    0  501  502  0.00000000000E+00  0.00000000000E+00  0.10941346521E+04  0.10941346521E+04  0.00000000000E+00 0.  1.
         21   -1    0    0  502  503 -0.00000000000E+00 -0.00000000000E+00 -0.63301356645E+02  0.63301356645E+02  0.00000000000E+00 0.  1.
          6    1    1    2  501    0 -0.18587545953E+03  0.32614640821E+02  0.65558119297E+03  0.70355106554E+03  0.17200000000E+03 0.  1.
         -6    1    1    2    0  503  0.18587545953E+03 -0.32614640821E+02  0.37525210252E+03  0.45388494324E+03  0.17200000000E+03 0.  1.
</event>
<event>
 4    1  0.4450588E+000  0.1826996E+03  0.7818608E-02  0.1165216E+00
         21   -1    0    0  503  502  0.00000000000E+00  0.00000000000E+00  0.17978817804E+03  0.17978817804E+03  0.00000000000E+00 0. -1.
         21   -1    0    0  501  503 -0.00000000000E+00 -0.00000000000E+00 -0.24473960898E+03  0.24473960898E+03  0.00000000000E+00 0. -1.
          6    1    1    2  501    0  0.36614556643E+02 -0.49543008668E+02 -0.13676740530E+03  0.22822019766E+03  0.17200000000E+03 0. -1.
         -6    1    1    2    0  502 -0.36614556643E+02  0.49543008668E+02  0.71815974360E+02  0.19630758936E+03  0.17200000000E+03 0. -1.
</event>
<event>
 4    1  0.4450588E+000  0.2899891E+03  0.7818608E-02  0.1090355E+00
         21   -1    0    0  501  502  0.00000000000E+00  0.00000000000E+00  0.52182303950E+03  0.52182303950E+03  0.00000000000E+00 0.  1.
         21   -1    0    0  502  503 -0.00000000000E+00 -0.00000000000E+00 -0.19437999447E+03  0.19437999447E+03  0.00000000000E+00 0. -1.
          6    1    1    2  501    0  0.71923269751E+02 -0.22211872741E+03  0.31177604591E+03  0.42579101517E+03  0.17200000000E+03 0.  1.
         -6    1    1    2    0  503 -0.71923269751E+02  0.22211872741E+03  0.15666999115E+02  0.29041201879E+03  0.17200000000E+03 0.  1.
</event>
<event>
 4    1  0.4450588E+000  0.1829308E+03  0.7818608E-02  0.1164996E+00
         21   -1    0    0  501  502  0.00000000000E+00  0.00000000000E+00  0.16040099336E+04  0.16040099336E+04  0.00000000000E+00 0. -1.
         21   -1    0    0  502  503 -0.00000000000E+00 -0.00000000000E+00 -0.45527111306E+02  0.45527111306E+02  0.00000000000E+00 0. -1.
          6    1    1    2  501    0  0.14112013024E+02 -0.60667474815E+02  0.13863047138E+04  0.13983220126E+04  0.17200000000E+03 0. -1.
         -6    1    1    2    0  503 -0.14112013024E+02  0.60667474815E+02  0.17217810849E+03  0.25121503230E+03  0.17200000000E+03 0. -1.
</event>
<event>
 4    1  0.4450588E+000  0.2110095E+03  0.7818608E-02  0.1140769E+00
         21   -1    0    0  501  502  0.00000000000E+00  0.00000000000E+00  0.66636964917E+03  0.66636964917E+03  0.00000000000E+00 0.  1.
         21   -1    0    0  502  503 -0.00000000000E+00 -0.00000000000E+00 -0.88082672915E+02  0.88082672915E+02  0.00000000000E+00 0.  1.
          6    1    1    2  501    0  0.47410423800E+02 -0.11266429029E+03  0.47449388709E+03  0.51929706284E+03  0.17200000000E+03 0.  1.
         -6    1    1    2    0  503 -0.47410423800E+02  0.11266429029E+03  0.10379308917E+03  0.23515525925E+03  0.17200000000E+03 0.  1.
</event>
<event>
 4    1  0.4450588E+000  0.2182008E+03  0.7818608E-02  0.1135232E+00
         21   -1    0    0  501  502  0.00000000000E+00  0.00000000000E+00  0.48251783568E+03  0.48251783568E+03  0.00000000000E+00 0. -1.
         21   -1    0    0  502  503 -0.00000000000E+00 -0.00000000000E+00 -0.36302577547E+03  0.36302577547E+03  0.00000000000E+00 0. -1.
          6    1    1    2  501    0 -0.86967328367E+02 -0.10229495425E+03  0.42051490944E+03  0.47375559409E+03  0.17200000000E+03 0. -1.
         -6    1    1    2    0  503  0.86967328367E+02  0.10229495425E+03 -0.30102284923E+03  0.37178801706E+03  0.17200000000E+03 0. -1.
</event>
<event>
 4    1  0.4450588E+000  0.1775130E+03  0.7818608E-02  0.1170232E+00
         21   -1    0    0  501  502  0.00000000000E+00  0.00000000000E+00  0.93862915373E+03  0.93862915373E+03  0.00000000000E+00 0. -1.
         21   -1    0    0  502  503 -0.00000000000E+00 -0.00000000000E+00 -0.42276228917E+02  0.42276228917E+02  0.00000000000E+00 0. -1.
          6    1    1    2  501    0  0.34203834372E+02  0.27512688155E+02  0.67073057234E+03  0.69382299686E+03  0.17200000000E+03 0. -1.
         -6    1    1    2    0  503 -0.34203834372E+02 -0.27512688155E+02  0.22562235247E+03  0.28708238579E+03  0.17200000000E+03 0. -1.
</event>
<event>
 4    1  0.4450588E+000  0.1750605E+03  0.7818608E-02  0.1172671E+00
         21   -1    0    0  503  502  0.00000000000E+00  0.00000000000E+00  0.37454168019E+03  0.37454168019E+03  0.00000000000E+00 0. -1.
         21   -1    0    0  501  503 -0.00000000000E+00 -0.00000000000E+00 -0.15489761246E+03  0.15489761246E+03  0.00000000000E+00 0. -1.
          6    1    1    2  501    0  0.64934198934E+01  0.31937741971E+02 -0.72000035667E+02  0.18928863938E+03  0.17200000000E+03 0. -1.
         -6    1    1    2    0  502 -0.64934198934E+01 -0.31937741971E+02  0.29164410340E+03  0.34015065326E+03  0.17200000000E+03 0. -1.
</event>
<event>
 4    1  0.4450588E+000  0.1956540E+03  0.7818608E-02  0.1153458E+00
         21   -1    0    0  501  502  0.00000000000E+00  0.00000000000E+00  0.19693203314E+03  0.19693203314E+03  0.00000000000E+00 0. -1.
         21   -1    0    0  502  503 -0.00000000000E+00 -0.00000000000E+00 -0.19826608697E+03  0.19826608697E+03  0.00000000000E+00 0.  1.
          6    1    1    2  501    0 -0.19369148622E+02 -0.91221289043E+02  0.26981930163E+02  0.19750572662E+03  0.17200000000E+03 0.  1.
         -6    1    1    2    0  503  0.19369148622E+02  0.91221289043E+02 -0.28315983993E+02  0.19769239349E+03  0.17200000000E+03 0. -1.
</event>
<event>
 4    1  0.4450588E+000  0.2000358E+03  0.7818608E-02  0.1149709E+00
         21   -1    0    0  501  502  0.00000000000E+00  0.00000000000E+00  0.48064424800E+03  0.48064424800E+03  0.00000000000E+00 0.  1.
         21   -1    0    0  502  503 -0.00000000000E+00 -0.00000000000E+00 -0.99058542614E+02  0.99058542614E+02  0.00000000000E+00 0.  1.
          6    1    1    2  501    0  0.16567810304E+02  0.10077616090E+03  0.30657871414E+03  0.36606670827E+03  0.17200000000E+03 0.  1.
         -6    1    1    2    0  503 -0.16567810304E+02 -0.10077616090E+03  0.75006991251E+02  0.21363608234E+03  0.17200000000E+03 0.  1.
</event>
<event>
 4    1  0.4450588E+000  0.2593808E+03  0.7818608E-02  0.1107516E+00
         21   -1    0    0  503  502  0.00000000000E+00  0.00000000000E+00  0.21741247205E+03  0.21741247205E+03  0.00000000000E+00 0.  1.
         21   -1    0    0  501  503 -0.00000000000E+00 -0.00000000000E+00 -0.61557767585E+03  0.61557767585E+03  0.00000000000E+00 0. -1.
          6    1    1    2  501    0  0.16099852227E+03  0.10850748689E+03 -0.49279303832E+03  0.55688722153E+03  0.17200000000E+03 0. -1.
         -6    1    1    2    0  502 -0.16099852227E+03 -0.10850748689E+03  0.94627834526E+02  0.27610292637E+03  0.17200000000E+03 0.  1.
</event>
<event>
 4    1  0.4450588E+000  0.3119729E+03  0.7818608E-02  0.1079404E+00
         21   -1    0    0  501  502  0.00000000000E+00  0.00000000000E+00  0.61703192921E+03  0.61703192921E+03  0.00000000000E+00 0. -1.
         21   -1    0    0  502  503 -0.00000000000E+00 -0.00000000000E+00 -0.17441736862E+03  0.17441736862E+03  0.00000000000E+00 0. -1.
          6    1    1    2  501    0 -0.12773477213E+03 -0.22677501262E+03  0.34369466374E+03  0.46416925819E+03  0.17200000000E+03 0. -1.
         -6    1    1    2    0  503  0.12773477213E+03  0.22677501262E+03  0.98919896851E+02  0.32728003965E+03  0.17200000000E+03 0. -1.
</event>
<event>
 4    1  0.4450588E+000  0.2295352E+03  0.7818608E-02  0.1126967E+00
         21   -1    0    0  501  502  0.00000000000E+00  0.00000000000E+00  0.60701622563E+02  0.60701622563E+02  0.00000000000E+00 0.  1.
         21   -1    0    0  502  503 -0.00000000000E+00 -0.00000000000E+00 -0.16138791943E+04  0.16138791943E+04  0.00000000000E+00 0. -1.
          6    1    1    2  501    0  0.34261205168E+02  0.14808302597E+03 -0.20735941607E+03  0.30932885445E+03  0.17200000000E+03 0.  1.
         -6    1    1    2    0  503 -0.34261205168E+02 -0.14808302597E+03 -0.13458181556E+04  0.13652519624E+04  0.17200000000E+03 0. -1.
</event>
<event>
 4    1  0.4450588E+000  0.1815171E+03  0.7818608E-02  0.1166343E+00
         21   -1    0    0  503  502  0.00000000000E+00  0.00000000000E+00  0.47355603635E+03  0.47355603635E+03  0.00000000000E+00 0.  1.
         21   -1    0    0  501  503 -0.00000000000E+00 -0.00000000000E+00 -0.88879244218E+02  0.88879244218E+02  0.00000000000E+00 0.  1.
          6    1    1    2  501    0 -0.26396315243E+02 -0.51649789265E+02  0.61284582450E+02  0.19158357507E+03  0.17200000000E+03 0.  1.
         -6    1    1    2    0  502  0.26396315243E+02  0.51649789265E+02  0.32339220969E+03  0.37085170550E+03  0.17200000000E+03 0.  1.
</event>
<event>
 4    1  0.4450588E+000  0.2067554E+03  0.7818608E-02  0.1144161E+00
         21   -1    0    0  503  502  0.00000000000E+00  0.00000000000E+00  0.19317169449E+03  0.19317169449E+03  0.00000000000E+00 0. -1.
         21   -1    0    0  501  503 -0.00000000000E+00 -0.00000000000E+00 -0.31760859624E+03  0.31760859624E+03  0.00000000000E+00 0. -1.
          6    1    1    2  501    0  0.11345474762E+03  0.17082153177E+02 -0.20285673735E+03  0.28965261194E+03  0.17200000000E+03 0.  1.
         -6    1    1    2    0  502 -0.11345474762E+03 -0.17082153177E+02  0.78419835599E+02  0.22112767880E+03  0.17200000000E+03 0.  1.
</event>
<event>
 4    1  0.4450588E+000  0.1768122E+03  0.7818608E-02  0.1170924E+00
         21   -1    0    0  501  502  0.00000000000E+00  0.00000000000E+00  0.15437090316E+04  0.15437090316E+04  0.00000000000E+00 0. -1.
         21   -1    0    0  502  503 -0.00000000000E+00 -0.00000000000E+00 -0.20633147096E+02  0.20633147096E+02  0.00000000000E+00 0.  1.
          6    1    1    2  501    0  0.22324401881E+02 -0.34353533841E+02  0.65517128965E+03  0.67861031748E+03  0.17200000000E+03 0.  1.
         -6    1    1    2    0  503 -0.22324401881E+02  0.34353533841E+02  0.86790459488E+03  0.88573186125E+03  0.17200000000E+03 0.  1.
</event>
<event>
 4    1  0.4450588E+000  0.2258145E+03  0.7818608E-02  0.1129621E+00
         21   -1    0    0  501  502  0.00000000000E+00  0.00000000000E+00  0.52356309735E+03  0.52356309735E+03  0.00000000000E+00 0.  1.
         21   -1    0    0  502  503 -0.00000000000E+00 -0.00000000000E+00 -0.11075614502E+03  0.11075614502E+03  0.00000000000E+00 0.  1.
          6    1    1    2  501    0 -0.13638356462E+03 -0.52987986105E+02  0.31656318573E+03  0.38885016900E+03  0.17200000000E+03 0.  1.
         -6    1    1    2    0  503  0.13638356462E+03  0.52987986105E+02  0.96243766599E+02  0.24546907336E+03  0.17200000000E+03 0.  1.
</event>
<event>
 4    1  0.4450588E+000  0.1863821E+03  0.7818608E-02  0.1161766E+00
         21   -1    0    0  503  502  0.00000000000E+00  0.00000000000E+00  0.46178930670E+02  0.46178930670E+02  0.00000000000E+00 0. -1.
         21   -1    0    0  501  503 -0.00000000000E+00 -0.00000000000E+00 -0.99734162505E+03  0.99734162505E+03  0.00000000000E+00 0. -1.
          6    1    1    2  501    0 -0.30997385102E+02  0.64756786260E+02 -0.73422977815E+03  0.75751676310E+03  0.17200000000E+03 0. -1.
         -6    1    1    2    0  502  0.30997385102E+02 -0.64756786260E+02 -0.21693291623E+03  0.28600379262E+03  0.17200000000E+03 0. -1.
</event>
<event>
 4    1  0.4450588E+000  0.1820468E+03  0.7818608E-02  0.1165837E+00
         21   -1    0    0  501  502  0.00000000000E+00  0.00000000000E+00  0.61610791610E+03  0.61610791610E+03  0.00000000000E+00 0. -1.
         21   -1    0    0  502  503 -0.00000000000E+00 -0.00000000000E+00 -0.86320576135E+02  0.86320576135E+02  0.00000000000E+00 0. -1.
          6    1    1    2  501    0  0.48587176587E+02  0.34587970416E+02  0.49290882305E+02  0.18860178288E+03  0.17200000000E+03 0. -1.
         -6    1    1    2    0  503 -0.48587176587E+02 -0.34587970416E+02  0.48049645766E+03  0.51382670935E+03  0.17200000000E+03 0. -1.
</event>
<event>
 4    1  0.4450588E+000  0.1830036E+03  0.7818608E-02  0.1164927E+00
         21   -1    0    0  503  502  0.00000000000E+00  0.00000000000E+00  0.64265876006E+03  0.64265876006E+03  0.00000000000E+00 0.  1.
         21   -1    0    0  501  503 -0.00000000000E+00 -0.00000000000E+00 -0.53174868458E+02  0.53174868458E+02  0.00000000000E+00 0.  1.
          6    1    1    2  501    0  0.34741305777E+02  0.51955244134E+02  0.24555623601E+03  0.30624854410E+03  0.17200000000E+03 0.  1.
         -6    1    1    2    0  502 -0.34741305777E+02 -0.51955244134E+02  0.34392765559E+03  0.38958508442E+03  0.17200000000E+03 0.  1.
</event>
<event>
 4    1  0.4450588E+000  0.1875174E+03  0.7818608E-02  0.1160720E+00
         21   -1    0    0  503  502  0.00000000000E+00  0.00000000000E+00  0.55536855215E+03  0.55536855215E+03  0.00000000000E+00 0.  1.
         21   -1    0    0  501  503 -0.00000000000E+00 -0.00000000000E+00 -0.78869409843E+02  0.78869409843E+02  0.00000000000E+00 0.  1.
          6    1    1    2  501    0  0.60007944278E+02 -0.44472503884E+02  0.97416438948E+02  0.21131190112E+03  0.17200000000E+03 0.  1.
         -6    1    1    2    0  502 -0.60007944278E+02  0.44472503884E+02  0.37908270336E+03  0.42292606088E+03  0.17200000000E+03 0.  1.
</event>
<event>
 4    1  0.4450588E+000  0.1812166E+03  0.7818608E-02  0.1166631E+00
         21   -1    0    0  501  502  0.00000000000E+00  0.00000000000E+00  0.93868491265E+02  0.93868491265E+02  0.00000000000E+00 0.  1.
         21   -1    0    0  502  503 -0.00000000000E+00 -0.00000000000E+00 -0.47821960907E+03  0.47821960907E+03  0.00000000000E+00 0.  1.
          6    1    1    2  501    0  0.28460008243E+02  0.49451881591E+02 -0.43972180136E+02  0.18647523505E+03  0.17200000000E+03 0.  1.
         -6    1    1    2    0  503 -0.28460008243E+02 -0.49451881591E+02 -0.34037893767E+03  0.38561286528E+03  0.17200000000E+03 0.  1.
</event>
<event>
 4    1  0.4450588E+000  0.1785828E+03  0.7818608E-02  0.1169182E+00
         21   -1    0    0  503  502  0.00000000000E+00  0.00000000000E+00  0.48546566603E+02  0.48546566603E+02  0.00000000000E+00 0. -1.
         21   -1    0    0  501  503 -0.00000000000E+00 -0.00000000000E+00 -0.67907748080E+03  0.67907748080E+03  0.00000000000E+00 0. -1.
          6    1    1    2  501    0 -0.46298562819E+02  0.12816112535E+02 -0.24956678464E+03  0.30688009002E+03  0.17200000000E+03 0. -1.
         -6    1    1    2    0  502  0.46298562819E+02 -0.12816112535E+02 -0.38096412956E+03  0.42074395738E+03  0.17200000000E+03 0. -1.
</event>
<event>
 4    1  0.4450588E+000  0.1894364E+03  0.7818608E-02  0.1158971E+00
         21   -1    0    0  501  502  0.00000000000E+00  0.00000000000E+00  0.62201610768E+03  0.62201610768E+03  0.00000000000E+00 0. -1.
         21   -1    0    0  502  503 -0.00000000000E+00 -0.00000000000E+00 -0.78547883367E+02  0.78547883367E+02  0.00000000000E+00 0. -1.
          6    1    1    2  501    0  0.53838610104E+02 -0.58340078972E+02  0.45222336626E+03  0.49029800503E+03  0.17200000000E+03 0. -1.
         -6    1    1    2    0  503 -0.53838610104E+02  0.58340078972E+02  0.91244858058E+02  0.21026598601E+03  0.17200000000E+03 0. -1.
</event>
<event>
 4    1  0.4450588E+000  0.2473769E+03  0.7818608E-02  0.1114974E+00
         21   -1    0    0  501  502  0.00000000000E+00  0.00000000000E+00  0.73229181037E+03  0.73229181037E+03  0.00000000000E+00 0.  1.
         21   -1    0    0  502  503 -0.00000000000E+00 -0.00000000000E+00 -0.40018209464E+03  0.40018209464E+03  0.00000000000E+00 0.  1.
          6    1    1    2  501    0 -0.20083807157E+02 -0.17665781070E+03  0.66971231921E+03  0.71393972567E+03  0.17200000000E+03 0.  1.
         -6    1    1    2    0  503  0.20083807157E+02  0.17665781070E+03 -0.33760260349E+03  0.41853417933E+03  0.17200000000E+03 0.  1.
</event>
<event>
 4    1  0.4450588E+000  0.2456472E+03  0.7818608E-02  0.1116087E+00
         21   -1    0    0  503  502  0.00000000000E+00  0.00000000000E+00  0.13065349636E+03  0.13065349636E+03  0.00000000000E+00 0. -1.
         21   -1    0    0  501  503 -0.00000000000E+00 -0.00000000000E+00 -0.46232565315E+03  0.46232565315E+03  0.00000000000E+00 0.  1.
          6    1    1    2  501    0  0.39492044425E+02 -0.17087700140E+03 -0.17532663485E+03  0.30179794577E+03  0.17200000000E+03 0.  1.
         -6    1    1    2    0  502 -0.39492044425E+02  0.17087700140E+03 -0.15634552194E+03  0.29118120374E+03  0.17200000000E+03 0.  1.
</event>
<event>
 4    1  0.4450588E+000  0.1887397E+03  0.7818608E-02  0.1159603E+00
         21   -1    0    0  501  502  0.00000000000E+00  0.00000000000E+00  0.25889499946E+03  0.25889499946E+03  0.00000000000E+00 0.  1.
         21   -1    0    0  502  503 -0.00000000000E+00 -0.00000000000E+00 -0.13960348904E+03  0.13960348904E+03  0.00000000000E+00 0.  1.
          6    1    1    2  501    0  0.46415275698E+02 -0.62324227591E+02  0.83544267755E+02  0.20640332322E+03  0.17200000000E+03 0.  1.
         -6    1    1    2    0  503 -0.46415275698E+02  0.62324227591E+02  0.35747242668E+02  0.19209516527E+03  0.17200000000E+03 0.  1.
</event>
<event>
 4    1  0.4450588E+000  0.2440792E+03  0.7818608E-02  0.1117105E+00
         21   -1    0    0  501  502  0.00000000000E+00  0.00000000000E+00  0.49965637970E+03  0.49965637970E+03  0.00000000000E+00 0. -1.
         21   -1    0    0  502  503 -0.00000000000E+00 -0.00000000000E+00 -0.17573341881E+03  0.17573341881E+03  0.00000000000E+00 0.  1.
          6    1    1    2  501    0  0.66894027416E+02  0.15973672436E+03  0.35344440663E+03  0.42953181558E+03  0.17200000000E+03 0. -1.
         -6    1    1    2    0  503 -0.66894027416E+02 -0.15973672436E+03 -0.29521445735E+02  0.24585798293E+03  0.17200000000E+03 0.  1.
</event>
<event>
 4    1  0.4450588E+000  0.1879763E+03  0.7818608E-02  0.1160299E+00
         21   -1    0    0  503  502  0.00000000000E+00  0.00000000000E+00  0.14221789542E+04  0.14221789542E+04  0.00000000000E+00 0. -1.
         21   -1    0    0  501  503 -0.00000000000E+00 -0.00000000000E+00 -0.12616437831E+03  0.12616437831E+03  0.00000000000E+00 0. -1.
          6    1    1    2  501    0  0.72399858446E+02 -0.22568370518E+02 -0.45759643814E+02  0.19346580021E+03  0.17200000000E+03 0. -1.
         -6    1    1    2    0  502 -0.72399858446E+02  0.22568370518E+02  0.13417742197E+04  0.13548775323E+04  0.17200000000E+03 0. -1.
</event>
<event>
 4    1  0.4450588E+000  0.2641854E+03  0.7818608E-02  0.1104654E+00
         21   -1    0    0  503  502  0.00000000000E+00  0.00000000000E+00  0.17980636861E+04  0.17980636861E+04  0.00000000000E+00 0.  1.
         21   -1    0    0  501  503 -0.00000000000E+00 -0.00000000000E+00 -0.44933725508E+02  0.44933725508E+02  0.00000000000E+00 0. -1.
          6    1    1    2  501    0  0.19214780364E+03  0.57351299025E+02  0.53655051682E+03  0.59806388208E+03  0.17200000000E+03 0.  1.
         -6    1    1    2    0  502 -0.19214780364E+03 -0.57351299025E+02  0.12165794437E+04  0.12449335295E+04  0.17200000000E+03 0.  1.
</event>
<event>
 4    1  0.4450588E+000  0.1900136E+03  0.7818608E-02  0.1158449E+00
         21   -1    0    0  501  502  0.00000000000E+00  0.00000000000E+00  0.22170498406E+04  0.22170498406E+04  0.00000000000E+00 0. -1.
         21   -1    0    0  502  503 -0.00000000000E+00 -0.00000000000E+00 -0.31147017366E+02  0.31147017366E+02  0.00000000000E+00 0. -1.
          6    1    1    2  501    0 -0.79418433059E+02  0.14624192839E+02  0.18694339781E+04  0.18790658725E+04  0.17200000000E+03 0. -1.
         -6    1    1    2    0  503  0.79418433059E+02 -0.14624192839E+02  0.31646884510E+03  0.36913098549E+03  0.17200000000E+03 0. -1.
</event>
<event>
 4    1  0.4450588E+000  0.2089513E+03  0.7818608E-02  0.1142399E+00
         21   -1    0    0  501  502  0.00000000000E+00  0.00000000000E+00  0.22443691017E+02  0.22443691017E+02  0.00000000000E+00 0.  1.
         21   -1    0    0  502  503 -0.00000000000E+00 -0.00000000000E+00 -0.19486868431E+04  0.19486868431E+04  0.00000000000E+00 0. -1.
          6    1    1    2  501    0  0.11864507618E+03  0.78645255528E-01 -0.92229092674E+03  0.94566442982E+03  0.17200000000E+03 0. -1.
         -6    1    1    2    0  503 -0.11864507618E+03 -0.78645255528E-01 -0.10039522254E+04  0.10254661043E+04  0.17200000000E+03 0. -1.
</event>
<event>
 4    1  0.4450588E+000  0.2180117E+03  0.7818608E-02  0.1135374E+00
         21   -1    0    0  503  502  0.00000000000E+00  0.00000000000E+00  0.60449147226E+03  0.60449147226E+03  0.00000000000E+00 0.  1.
         21   -1    0    0  501  503 -0.00000000000E+00 -0.00000000000E+00 -0.10831182476E+03  0.10831182476E+03  0.00000000000E+00 0. -1.
          6    1    1    2  501    0 -0.27668840965E+02  0.13107079774E+03  0.61506930759E+02  0.22652201066E+03  0.17200000000E+03 0. -1.
         -6    1    1    2    0  502  0.27668840965E+02 -0.13107079774E+03  0.43467271674E+03  0.48628128636E+03  0.17200000000E+03 0.  1.
</event>
<event>
 4    1  0.4450588E+000  0.2108359E+03  0.7818608E-02  0.1140906E+00
         21   -1    0    0  503  502  0.00000000000E+00  0.00000000000E+00  0.23368552150E+03  0.23368552150E+03  0.00000000000E+00 0.  1.
         21   -1    0    0  501  503 -0.00000000000E+00 -0.00000000000E+00 -0.20905892582E+03  0.20905892582E+03  0.00000000000E+00 0. -1.
          6    1    1    2  501    0  0.19635127133E+02  0.12034213097E+03 -0.54139239786E+02  0.21767596098E+03  0.17200000000E+03 0. -1.
         -6    1    1    2    0  502 -0.19635127133E+02 -0.12034213097E+03  0.78765835463E+02  0.22506848633E+03  0.17200000000E+03 0.  1.
</event>
<event>
 4    1  0.4450588E+000  0.1820972E+03  0.7818608E-02  0.1165789E+00
         21   -1    0    0  503  502  0.00000000000E+00  0.00000000000E+00  0.36153979746E+03  0.36153979746E+03  0.00000000000E+00 0. -1.
         21   -1    0    0  501  503 -0.00000000000E+00 -0.00000000000E+00 -0.17603464123E+03  0.17603464123E+03  0.00000000000E+00 0. -1.
          6    1    1    2  501    0 -0.32167501226E+02 -0.50404709118E+02  0.27877637476E+03  0.33297995430E+03  0.17200000000E+03 0. -1.
         -6    1    1    2    0  502  0.32167501226E+02  0.50404709118E+02 -0.93271218531E+02  0.20459448439E+03  0.17200000000E+03 0. -1.
</event>
<event>
 4    1  0.4450588E+000  0.1875223E+03  0.7818608E-02  0.1160715E+00
         21   -1    0    0  503  502  0.00000000000E+00  0.00000000000E+00  0.39495392500E+03  0.39495392500E+03  0.00000000000E+00 0. -1.
         21   -1    0    0  501  503 -0.00000000000E+00 -0.00000000000E+00 -0.13914395919E+03  0.13914395919E+03  0.00000000000E+00 0. -1.
          6    1    1    2  501    0 -0.26489143423E+02  0.69849324560E+02 -0.32352268453E+02  0.19029259611E+03  0.17200000000E+03 0. -1.
         -6    1    1    2    0  502  0.26489143423E+02 -0.69849324560E+02  0.28816223426E+03  0.34380528809E+03  0.17200000000E+03 0. -1.
</event>
