<event>
 4    1  0.1222208E+000  0.2926839E+03  0.7818608E-02  0.1088956E+00
         21   -1    0    0  503  502  0.00000000000E+00  0.00000000000E+00  0.19916866230E+03  0.19916866230E+03  0.00000000000E+00 0. -1.
         21   -1    0    0  501  503 -0.00000000000E+00 -0.00000000000E+00 -0.17603431968E+04  0.17603431968E+04  0.00000000000E+00 0.  1.
          6    1    1    2  501    0 -0.23671251735E+03 -0.68598142164E+01 -0.16322812474E+04  0.16583141872E+04  0.17200000000E+03 0.  1.
         -6    1    1    2    0  502  0.23671251735E+03  0.68598142164E+01  0.71106712910E+02  0.30119767187E+03  0.17200000000E+03 0. -1.
</event>
<event>
 4    1  0.1222208E+000  0.3069425E+03  0.7818608E-02  0.1081821E+00
         21   -1    0    0  503  502  0.00000000000E+00  0.00000000000E+00  0.16138473448E+03  0.16138473448E+03  0.00000000000E+00 0. -1.
         21   -1    0    0  501  503 -0.00000000000E+00 -0.00000000000E+00 -0.59631928334E+03  0.59631928334E+03  0.00000000000E+00 0. -1.
          6    1    1    2  501    0  0.22979541361E+03 -0.10873718643E+03 -0.27239731393E+03  0.41038275362E+03  0.17200000000E+03 0. -1.
         -6    1    1    2    0  502 -0.22979541361E+03  0.10873718643E+03 -0.16253723493E+03  0.34732126420E+03  0.17200000000E+03 0. -1.
</event>
<event>
 4    1  0.1222208E+000  0.2392872E+03  0.7818608E-02  0.1120269E+00
         21   -1    0    0  503  502  0.00000000000E+00  0.00000000000E+00  0.21114860095E+03  0.21114860095E+03  0.00000000000E+00 0.  1.
         21   -1    0    0  501  503 -0.00000000000E+00 -0.00000000000E+00 -0.33417895529E+03  0.33417895529E+03  0.00000000000E+00 0.  1.
          6    1    1    2  501    0 -0.15005524676E+03 -0.71817707116E+02 -0.17990641190E+03  0.29937380844E+03  0.17200000000E+03 0.  1.
         -6    1    1    2    0  502  0.15005524676E+03  0.71817707116E+02  0.56876057560E+02  0.24595374781E+03  0.17200000000E+03 0.  1.
</event>
<event>
 4    1  0.1222208E+000  0.1867431E+03  0.7818608E-02  0.1161432E+00
         21   -1    0    0  503  502  0.00000000000E+00  0.00000000000E+00  0.21647616420E+03  0.21647616420E+03  0.00000000000E+00 0.  1.
         21   -1    0    0  501  503 -0.00000000000E+00 -0.00000000000E+00 -0.16173997139E+03  0.16173997139E+03  0.00000000000E+00 0. -1.
          6    1    1    2  501    0  0.50905566969E+02 -0.51938490349E+02  0.39320382422E+02  0.19083782644E+03  0.17200000000E+03 0.  1.
         -6    1    1    2    0  502 -0.50905566969E+02  0.51938490349E+02  0.15415810381E+02  0.18737830914E+03  0.17200000000E+03 0. -1.
</event>
<event>
 4    1  0.1222208E+000  0.1721186E+03  0.7818608E-02  0.1175656E+00
         21   -1    0    0  501  502  0.00000000000E+00  0.00000000000E+00  0.13515174567E+04  0.13515174567E+04  0.00000000000E+00 0.  1.
         21   -1    0    0  502  503 -0.00000000000E+00 -0.00000000000E+00 -0.22788461600E+02  0.22788461600E+02  0.00000000000E+00 0.  1.
          6    1    1    2  501    0 -0.70462861242E+00  0.63486914098E+01  0.79853478864E+03  0.81687368121E+03  0.17200000000E+03 0.  1.
         -6    1    1    2    0  503  0.70462861242E+00 -0.63486914098E+01  0.53019420646E+03  0.55743223709E+03  0.17200000000E+03 0.  1.
</event>
<event>
 4    1  0.1222208E+000  0.1764252E+03  0.7818608E-02  0.1171308E+00
         21   -1    0    0  503  502  0.00000000000E+00  0.00000000000E+00  0.60600081656E+03  0.60600081656E+03  0.00000000000E+00 0. -1.
         21   -1    0    0  501  503 -0.00000000000E+00 -0.00000000000E+00 -0.73685667466E+02  0.73685667466E+02  0.00000000000E+00 0. -1.
          6    1    1    2  501    0 -0.20843613241E+02  0.33277697697E+02  0.79105418953E+02  0.19334820580E+03  0.17200000000E+03 0. -1.
         -6    1    1    2    0  502  0.20843613241E+02 -0.33277697697E+02  0.45320973014E+03  0.48633827823E+03  0.17200000000E+03 0. -1.
</event>
<event>
 4    1  0.1222208E+000  0.1774639E+03  0.7818608E-02  0.1170280E+00
         21   -1    0    0  501  502  0.00000000000E+00  0.00000000000E+00  0.44158423861E+02  0.44158423861E+02  0.00000000000E+00 0.  1.
         21   -1    0    0  502  503 -0.00000000000E+00 -0.00000000000E+00 -0.12558134471E+04  0.12558134471E+04  0.00000000000E+00 0.  1.
          6    1    1    2  501    0  0.26703931354E+02  0.34588129188E+02 -0.17856987268E+03  0.25175511526E+03  0.17200000000E+03 0.  1.
         -6    1    1    2    0  503 -0.26703931354E+02 -0.34588129188E+02 -0.10330851505E+04  0.10482167557E+04  0.17200000000E+03 0.  1.
</event>
<event>
 4    1  0.1222208E+000  0.1897550E+03  0.7818608E-02  0.1158683E+00
         21   -1    0    0  503  502  0.00000000000E+00  0.00000000000E+00  0.17376999777E+03  0.17376999777E+03  0.00000000000E+00 0.  1.
         21   -1    0    0  501  503 -0.00000000000E+00 -0.00000000000E+00 -0.24419807054E+03  0.24419807054E+03  0.00000000000E+00 0.  1.
          6    1    1    2  501    0  0.71202468041E+02 -0.36785289610E+02  0.46119666326E+02  0.19527921704E+03  0.17200000000E+03 0.  1.
         -6    1    1    2    0  502 -0.71202468041E+02  0.36785289610E+02 -0.11654773910E+03  0.22268885126E+03  0.17200000000E+03 0.  1.
</event>
<event>
 4    1  0.1222208E+000  0.1925195E+03  0.7818608E-02  0.1156208E+00
         21   -1    0    0  503  502  0.00000000000E+00  0.00000000000E+00  0.15130893294E+03  0.15130893294E+03  0.00000000000E+00 0.  1.
         21   -1    0    0  501  503 -0.00000000000E+00 -0.00000000000E+00 -0.25147612039E+03  0.25147612039E+03  0.00000000000E+00 0.  1.
          6    1    1    2  501    0 -0.41682454307E+02 -0.75778272874E+02 -0.82516018334E+02  0.20945803140E+03  0.17200000000E+03 0.  1.
         -6    1    1    2    0  502  0.41682454307E+02  0.75778272874E+02 -0.17651169111E+02  0.19332702193E+03  0.17200000000E+03 0.  1.
</event>
<event>
 4    1  0.1222208E+000  0.2369549E+03  0.7818608E-02  0.1121838E+00
         21   -1    0    0  503  502  0.00000000000E+00  0.00000000000E+00  0.15212533095E+03  0.15212533095E+03  0.00000000000E+00 0. -1.
         21   -1    0    0  501  503 -0.00000000000E+00 -0.00000000000E+00 -0.70044067997E+03  0.70044067997E+03  0.00000000000E+00 0.  1.
          6    1    1    2  501    0 -0.83323136213E+02  0.14007454807E+03 -0.56735339422E+03  0.61484754043E+03  0.17200000000E+03 0.  1.
         -6    1    1    2    0  502  0.83323136213E+02 -0.14007454807E+03  0.19038045196E+02  0.23771847048E+03  0.17200000000E+03 0. -1.
</event>
<event>
 4    1  0.1222208E+000  0.2657917E+03  0.7818608E-02  0.1103713E+00
         21   -1    0    0  501  502  0.00000000000E+00  0.00000000000E+00  0.16280238527E+03  0.16280238527E+03  0.00000000000E+00 0.  1.
         21   -1    0    0  502  503 -0.00000000000E+00 -0.00000000000E+00 -0.98560119645E+03  0.98560119645E+03  0.00000000000E+00 0.  1.
          6    1    1    2  501    0  0.19990267417E+03  0.33168394321E+02  0.18189603583E+02  0.26641336903E+03  0.17200000000E+03 0.  1.
         -6    1    1    2    0  503 -0.19990267417E+03 -0.33168394321E+02 -0.84098841476E+03  0.88199021269E+03  0.17200000000E+03 0.  1.
</event>
<event>
 4    1  0.1222208E+000  0.2159890E+03  0.7818608E-02  0.1136909E+00
         21   -1    0    0  503  502  0.00000000000E+00  0.00000000000E+00  0.26085021188E+03  0.26085021188E+03  0.00000000000E+00 0. -1.
         21   -1    0    0  501  503 -0.00000000000E+00 -0.00000000000E+00 -0.22814787286E+03  0.22814787286E+03  0.00000000000E+00 0. -1.
          6    1    1    2  501    0  0.96993410179E+01  0.13028117924E+03 -0.97310332797E+02  0.23689779178E+03  0.17200000000E+03 0. -1.
         -6    1    1    2    0  502 -0.96993410179E+01 -0.13028117924E+03  0.13001267182E+03  0.25210029296E+03  0.17200000000E+03 0. -1.
</event>
<event>
 4    1  0.1222208E+000  0.2624235E+03  0.7818608E-02  0.1105696E+00
         21   -1    0    0  501  502  0.00000000000E+00  0.00000000000E+00  0.69783902089E+03  0.69783902089E+03  0.00000000000E+00 0. -1.
         21   -1    0    0  502  503 -0.00000000000E+00 -0.00000000000E+00 -0.16592197002E+03  0.16592197002E+03  0.00000000000E+00 0.  1.
          6    1    1    2  501    0 -0.19680872740E+03  0.23418360429E+02  0.54088489660E+03  0.60118430298E+03  0.17200000000E+03 0.  1.
         -6    1    1    2    0  503  0.19680872740E+03 -0.23418360429E+02 -0.89678457260E+01  0.26257668793E+03  0.17200000000E+03 0.  1.
</event>
<event>
 4    1  0.1222208E+000  0.1819128E+03  0.7818608E-02  0.1165965E+00
         21   -1    0    0  501  502  0.00000000000E+00  0.00000000000E+00  0.67354036544E+03  0.67354036544E+03  0.00000000000E+00 0. -1.
         21   -1    0    0  502  503 -0.00000000000E+00 -0.00000000000E+00 -0.71988396858E+02  0.71988396858E+02  0.00000000000E+00 0. -1.
          6    1    1    2  501    0 -0.34471637858E+02  0.48166207805E+02  0.51081915306E+03  0.54224393452E+03  0.17200000000E+03 0. -1.
         -6    1    1    2    0  503  0.34471637858E+02 -0.48166207805E+02  0.90732815517E+02  0.20328482777E+03  0.17200000000E+03 0. -1.
</event>
<event>
 4    1  0.1222208E+000  0.2176547E+03  0.7818608E-02  0.1135644E+00
         21   -1    0    0  503  502  0.00000000000E+00  0.00000000000E+00  0.21123720327E+03  0.21123720327E+03  0.00000000000E+00 0.  1.
         21   -1    0    0  501  503 -0.00000000000E+00 -0.00000000000E+00 -0.28979344106E+03  0.28979344106E+03  0.00000000000E+00 0.  1.
          6    1    1    2  501    0 -0.82543396558E+02 -0.10476707839E+03 -0.15840177315E+03  0.26919263505E+03  0.17200000000E+03 0.  1.
         -6    1    1    2    0  502  0.82543396558E+02  0.10476707839E+03  0.79845535357E+02  0.23183800928E+03  0.17200000000E+03 0.  1.
</event>
<event>
 4    1  0.1222208E+000  0.1820856E+03  0.7818608E-02  0.1165800E+00
         21   -1    0    0  503  502  0.00000000000E+00  0.00000000000E+00  0.10679141543E+04  0.10679141543E+04  0.00000000000E+00 0. -1.
         21   -1    0    0  501  503 -0.00000000000E+00 -0.00000000000E+00 -0.36993675859E+02  0.36993675859E+02  0.00000000000E+00 0.  1.
          6    1    1    2  501    0 -0.59052857070E+02  0.91605937039E+01  0.29395589649E+03  0.34578204911E+03  0.17200000000E+03 0.  1.
         -6    1    1    2    0  502  0.59052857070E+02 -0.91605937039E+01  0.73696458198E+03  0.75912578108E+03  0.17200000000E+03 0. -1.
</event>
<event>
 4    1  0.1222208E+000  0.2530329E+03  0.7818608E-02  0.1111403E+00
         21   -1    0    0  503  502  0.00000000000E+00  0.00000000000E+00  0.38782687829E+03  0.38782687829E+03  0.00000000000E+00 0. -1.
         21   -1    0    0  501  503 -0.00000000000E+00 -0.00000000000E+00 -0.17757807192E+03  0.17757807192E+03  0.00000000000E+00 0.  1.
          6    1    1    2  501    0  0.16895276073E+03 -0.76789350303E+02  0.30149829407E+02  0.25482278527E+03  0.17200000000E+03 0.  1.
         -6    1    1    2    0  502 -0.16895276073E+03  0.76789350303E+02  0.18009897696E+03  0.31058216494E+03  0.17200000000E+03 0. -1.
</event>
<event>
 4    1  0.1222208E+000  0.2001542E+03  0.7818608E-02  0.1149609E+00
         21   -1    0    0  501  502  0.00000000000E+00  0.00000000000E+00  0.10536494957E+03  0.10536494957E+03  0.00000000000E+00 0.  1.
         21   -1    0    0  502  503 -0.00000000000E+00 -0.00000000000E+00 -0.40532478745E+03  0.40532478745E+03  0.00000000000E+00 0.  1.
          6    1    1    2  501    0  0.79164697114E+02  0.64889468591E+02 -0.86429608366E+02  0.21801781947E+03  0.17200000000E+03 0.  1.
         -6    1    1    2    0  503 -0.79164697114E+02 -0.64889468591E+02 -0.21353022952E+03  0.29267191755E+03  0.17200000000E+03 0.  1.
</event>
<event>
 4    1  0.1222208E+000  0.2059934E+03  0.7818608E-02  0.1144779E+00
         21   -1    0    0  501  502  0.00000000000E+00  0.00000000000E+00  0.89952343045E+03  0.89952343045E+03  0.00000000000E+00 0. -1.
         21   -1    0    0  502  503 -0.00000000000E+00 -0.00000000000E+00 -0.90095651196E+02  0.90095651196E+02  0.00000000000E+00 0. -1.
          6    1    1    2  501    0  0.67422698103E+02  0.91123317304E+02  0.74624406459E+03  0.77415339766E+03  0.17200000000E+03 0. -1.
         -6    1    1    2    0  503 -0.67422698103E+02 -0.91123317304E+02  0.63183714665E+02  0.21546568398E+03  0.17200000000E+03 0. -1.
</event>
<event>
 4    1  0.1222208E+000  0.2939189E+03  0.7818608E-02  0.1088321E+00
         21   -1    0    0  503  502  0.00000000000E+00  0.00000000000E+00  0.23684408629E+03  0.23684408629E+03  0.00000000000E+00 0.  1.
         21   -1    0    0  501  503 -0.00000000000E+00 -0.00000000000E+00 -0.63375808547E+03  0.63375808547E+03  0.00000000000E+00 0. -1.
          6    1    1    2  501    0  0.20960170881E+03 -0.11345228294E+03  0.85147195012E+02  0.30600382622E+03  0.17200000000E+03 0.  1.
         -6    1    1    2    0  502 -0.20960170881E+03  0.11345228294E+03 -0.48206119419E+03  0.56459834554E+03  0.17200000000E+03 0. -1.
</event>
<event>
 4    1  0.1222208E+000  0.1766742E+03  0.7818608E-02  0.1171061E+00
         21   -1    0    0  501  502  0.00000000000E+00  0.00000000000E+00  0.31214827244E+03  0.31214827244E+03  0.00000000000E+00 0.  1.
         21   -1    0    0  502  503 -0.00000000000E+00 -0.00000000000E+00 -0.23645536433E+03  0.23645536433E+03  0.00000000000E+00 0.  1.
          6    1    1    2  501    0 -0.27228777779E+02  0.29805618659E+02  0.24622583343E+03  0.30305270547E+03  0.17200000000E+03 0.  1.
         -6    1    1    2    0  503  0.27228777779E+02 -0.29805618659E+02 -0.17053292533E+03  0.24555093130E+03  0.17200000000E+03 0.  1.
</event>
<event>
 4    1  0.1222208E+000  0.2100632E+03  0.7818608E-02  0.1141516E+00
         21   -1    0    0  503  502  0.00000000000E+00  0.00000000000E+00  0.50231211882E+03  0.50231211882E+03  0.00000000000E+00 0. -1.
         21   -1    0    0  501  503 -0.00000000000E+00 -0.00000000000E+00 -0.10465900347E+03  0.10465900347E+03  0.00000000000E+00 0.  1.
          6    1    1    2  501    0 -0.16944732898E+02  0.11939608945E+03  0.77190851754E+02  0.22379673309E+03  0.17200000000E+03 0. -1.
         -6    1    1    2    0  502  0.16944732898E+02 -0.11939608945E+03  0.32046226360E+03  0.38317438920E+03  0.17200000000E+03 0. -1.
</event>
<event>
 4    1  0.1222208E+000  0.2167141E+03  0.7818608E-02  0.1136357E+00
         21   -1    0    0  503  502  0.00000000000E+00  0.00000000000E+00  0.43089246328E+02  0.43089246328E+02  0.00000000000E+00 0.  1.
         21   -1    0    0  501  503 -0.00000000000E+00 -0.00000000000E+00 -0.11524057611E+04  0.11524057611E+04  0.00000000000E+00 0.  1.
          6    1    1    2  501    0  0.11419640390E+03 -0.65880186210E+02 -0.69381680953E+03  0.72687466787E+03  0.17200000000E+03 0. -1.
         -6    1    1    2    0  502 -0.11419640390E+03  0.65880186210E+02 -0.41549970527E+03  0.46862033959E+03  0.17200000000E+03 0. -1.
</event>
<event>
 4    1  0.1222208E+000  0.2729127E+03  0.7818608E-02  0.1099624E+00
         21   -1    0    0  503  502  0.00000000000E+00  0.00000000000E+00  0.20379256722E+04  0.20379256722E+04  0.00000000000E+00 0.  1.
         21   -1    0    0  501  503 -0.00000000000E+00 -0.00000000000E+00 -0.66236285581E+02  0.66236285581E+02  0.00000000000E+00 0. -1.
          6    1    1    2  501    0  0.20236705700E+03 -0.62808667039E+02  0.16902075499E+04  0.17120989797E+04  0.17200000000E+03 0.  1.
         -6    1    1    2    0  502 -0.20236705700E+03  0.62808667039E+02  0.28148183672E+03  0.39206297813E+03  0.17200000000E+03 0. -1.
</event>
<event>
 4    1  0.1222208E+000  0.1862249E+03  0.7818608E-02  0.1161911E+00
         21   -1    0    0  501  502  0.00000000000E+00  0.00000000000E+00  0.31991247982E+02  0.31991247982E+02  0.00000000000E+00 0. -1.
         21   -1    0    0  502  503 -0.00000000000E+00 -0.00000000000E+00 -0.14340659175E+04  0.14340659175E+04  0.00000000000E+00 0.  1.
          6    1    1    2  501    0 -0.64470520104E+02  0.30647503948E+02 -0.33888781980E+03  0.38668420173E+03  0.17200000000E+03 0. -1.
         -6    1    1    2    0  503  0.64470520104E+02 -0.30647503948E+02 -0.10631868497E+04  0.10793729637E+04  0.17200000000E+03 0.  1.
</event>
<event>
 4    1  0.1222208E+000  0.2035521E+03  0.7818608E-02  0.1146776E+00
         21   -1    0    0  503  502  0.00000000000E+00  0.00000000000E+00  0.17628480308E+02  0.17628480308E+02  0.00000000000E+00 0. -1.
         21   -1    0    0  501  503 -0.00000000000E+00 -0.00000000000E+00 -0.23730986596E+04  0.23730986596E+04  0.00000000000E+00 0.  1.
          6    1    1    2  501    0  0.23819848017E+02  0.10621706591E+03 -0.12947199280E+04  0.13106231885E+04  0.17200000000E+03 0.  1.
         -6    1    1    2    0  502 -0.23819848017E+02 -0.10621706591E+03 -0.10607502513E+04  0.10801039514E+04  0.17200000000E+03 0. -1.
</event>
<event>
 4    1  0.1222208E+000  0.1900866E+03  0.7818608E-02  0.1158383E+00
         21   -1    0    0  501  502  0.00000000000E+00  0.00000000000E+00  0.44730676854E+03  0.44730676854E+03  0.00000000000E+00 0.  1.
         21   -1    0    0  502  503 -0.00000000000E+00 -0.00000000000E+00 -0.20132068509E+03  0.20132068509E+03  0.00000000000E+00 0.  1.
          6    1    1    2  501    0 -0.78787304394E+02 -0.18479386789E+02  0.37394467560E+03  0.41948485966E+03  0.17200000000E+03 0.  1.
         -6    1    1    2    0  503  0.78787304394E+02  0.18479386789E+02 -0.12795859215E+03  0.22914259398E+03  0.17200000000E+03 0.  1.
</event>
<event>
 4    1  0.1222208E+000  0.2612038E+03  0.7818608E-02  0.1106422E+00
         21   -1    0    0  501  502  0.00000000000E+00  0.00000000000E+00  0.68639790455E+03  0.68639790455E+03  0.00000000000E+00 0.  1.
         21   -1    0    0  502  503 -0.00000000000E+00 -0.00000000000E+00 -0.24812011473E+03  0.24812011473E+03  0.00000000000E+00 0. -1.
          6    1    1    2  501    0  0.19619023013E+03  0.12362686882E+02 -0.14261451770E+03  0.29760097965E+03  0.17200000000E+03 0. -1.
         -6    1    1    2    0  503 -0.19619023013E+03 -0.12362686882E+02  0.58089230753E+03  0.63691703963E+03  0.17200000000E+03 0.  1.
</event>
<event>
 4    1  0.1222208E+000  0.1827885E+03  0.7818608E-02  0.1165131E+00
         21   -1    0    0  501  502  0.00000000000E+00  0.00000000000E+00  0.19797758906E+03  0.19797758906E+03  0.00000000000E+00 0.  1.
         21   -1    0    0  502  503 -0.00000000000E+00 -0.00000000000E+00 -0.17356023866E+03  0.17356023866E+03  0.00000000000E+00 0. -1.
          6    1    1    2  501    0 -0.61863395630E+02  0.74637273136E+00  0.43087780383E+02  0.18779827904E+03  0.17200000000E+03 0. -1.
         -6    1    1    2    0  503  0.61863395630E+02 -0.74637273136E+00 -0.18670429984E+02  0.18373954867E+03  0.17200000000E+03 0. -1.
</event>
<event>
 4    1  0.1222208E+000  0.1723258E+03  0.7818608E-02  0.1175444E+00
         21   -1    0    0  503  502  0.00000000000E+00  0.00000000000E+00  0.22883312976E+03  0.22883312976E+03  0.00000000000E+00 0.  1.
         21   -1    0    0  501  503 -0.00000000000E+00 -0.00000000000E+00 -0.13099341240E+03  0.13099341240E+03  0.00000000000E+00 0.  1.
          6    1    1    2  501    0 -0.97905770250E+01 -0.40410645417E+01  0.31548703572E+02  0.17518991494E+03  0.17200000000E+03 0.  1.
         -6    1    1    2    0  502  0.97905770250E+01  0.40410645417E+01  0.66291013790E+02  0.18463662722E+03  0.17200000000E+03 0.  1.
</event>
<event>
 4    1  0.1222208E+000  0.2259855E+03  0.7818608E-02  0.1129498E+00
         21   -1    0    0  503  502  0.00000000000E+00  0.00000000000E+00  0.29564830626E+03  0.29564830626E+03  0.00000000000E+00 0. -1.
         21   -1    0    0  501  503 -0.00000000000E+00 -0.00000000000E+00 -0.18579758050E+03  0.18579758050E+03  0.00000000000E+00 0. -1.
          6    1    1    2  501    0 -0.13511232009E+03 -0.56833981483E+02 -0.88975327487E+01  0.22616057698E+03  0.17200000000E+03 0.  1.
         -6    1    1    2    0  502  0.13511232009E+03  0.56833981483E+02  0.11874825851E+03  0.25528530978E+03  0.17200000000E+03 0.  1.
</event>
<event>
 4    1  0.1222208E+000  0.1761636E+03  0.7818608E-02  0.1171568E+00
         21   -1    0    0  501  502  0.00000000000E+00  0.00000000000E+00  0.44189837969E+03  0.44189837969E+03  0.00000000000E+00 0.  1.
         21   -1    0    0  502  503 -0.00000000000E+00 -0.00000000000E+00 -0.97562888894E+02  0.97562888894E+02  0.00000000000E+00 0.  1.
          6    1    1    2  501    0  0.49349578313E+01 -0.37752668970E+02  0.31494104366E+03  0.36086213268E+03  0.17200000000E+03 0.  1.
         -6    1    1    2    0  503 -0.49349578313E+01  0.37752668970E+02  0.29394447141E+02  0.17859913590E+03  0.17200000000E+03 0.  1.
</event>
<event>
 4    1  0.1222208E+000  0.2052247E+03  0.7818608E-02  0.1145404E+00
         21   -1    0    0  501  502  0.00000000000E+00  0.00000000000E+00  0.24846736078E+03  0.24846736078E+03  0.00000000000E+00 0. -1.
         21   -1    0    0  502  503 -0.00000000000E+00 -0.00000000000E+00 -0.16952295420E+03  0.16952295420E+03  0.00000000000E+00 0. -1.
          6    1    1    2  501    0  0.86265449197E+02 -0.71354357682E+02  0.41443905363E+02  0.20936754614E+03  0.17200000000E+03 0. -1.
         -6    1    1    2    0  503 -0.86265449197E+02  0.71354357682E+02  0.37500501224E+02  0.20862276884E+03  0.17200000000E+03 0. -1.
</event>
<event>
 4    1  0.1222208E+000  0.1767193E+03  0.7818608E-02  0.1171016E+00
         21   -1    0    0  503  502  0.00000000000E+00  0.00000000000E+00  0.11841850787E+03  0.11841850787E+03  0.00000000000E+00 0.  1.
         21   -1    0    0  501  503 -0.00000000000E+00 -0.00000000000E+00 -0.47322103348E+03  0.47322103348E+03  0.00000000000E+00 0.  1.
          6    1    1    2  501    0 -0.40362436528E+02 -0.40715771363E+01 -0.37422840082E+03  0.41385577198E+03  0.17200000000E+03 0.  1.
         -6    1    1    2    0  502  0.40362436528E+02  0.40715771363E+01  0.19425875205E+02  0.17778376937E+03  0.17200000000E+03 0.  1.
</event>
<event>
 4    1  0.1222208E+000  0.1979640E+03  0.7818608E-02  0.1151468E+00
         21   -1    0    0  503  502  0.00000000000E+00  0.00000000000E+00  0.66041531899E+02  0.66041531899E+02  0.00000000000E+00 0. -1.
         21   -1    0    0  501  503 -0.00000000000E+00 -0.00000000000E+00 -0.71810568077E+03  0.71810568077E+03  0.00000000000E+00 0.  1.
          6    1    1    2  501    0 -0.59596100900E+02 -0.77807716590E+02 -0.48941186150E+03  0.52793342968E+03  0.17200000000E+03 0. -1.
         -6    1    1    2    0  502  0.59596100900E+02  0.77807716590E+02 -0.16265228737E+03  0.25621378298E+03  0.17200000000E+03 0.  1.
</event>
<event>
 4    1  0.1222208E+000  0.2378690E+03  0.7818608E-02  0.1121221E+00
         21   -1    0    0  503  502  0.00000000000E+00  0.00000000000E+00  0.75329562741E+03  0.75329562741E+03  0.00000000000E+00 0.  1.
         21   -1    0    0  501  503 -0.00000000000E+00 -0.00000000000E+00 -0.11917348815E+03  0.11917348815E+03  0.00000000000E+00 0. -1.
          6    1    1    2  501    0  0.15124430002E+03  0.64209233598E+02  0.51808855176E+02  0.24344572586E+03  0.17200000000E+03 0. -1.
         -6    1    1    2    0  502 -0.15124430002E+03 -0.64209233598E+02  0.58231328409E+03  0.62902338970E+03  0.17200000000E+03 0.  1.
</event>
<event>
 4    1  0.1222208E+000  0.2031771E+03  0.7818608E-02  0.1147086E+00
         21   -1    0    0  501  502  0.00000000000E+00  0.00000000000E+00  0.16740750247E+03  0.16740750247E+03  0.00000000000E+00 0.  1.
         21   -1    0    0  502  503 -0.00000000000E+00 -0.00000000000E+00 -0.30007204515E+03  0.30007204515E+03  0.00000000000E+00 0.  1.
          6    1    1    2  501    0 -0.28537571570E+02  0.10431939010E+03  0.32347011627E+02  0.20573589211E+03  0.17200000000E+03 0. -1.
         -6    1    1    2    0  503  0.28537571570E+02 -0.10431939010E+03 -0.16501155431E+03  0.26174365551E+03  0.17200000000E+03 0. -1.
</event>
<event>
 4    1  0.1222208E+000  0.1850925E+03  0.7818608E-02  0.1162964E+00
         21   -1    0    0  501  502  0.00000000000E+00  0.00000000000E+00  0.11210938928E+03  0.11210938928E+03  0.00000000000E+00 0.  1.
         21   -1    0    0  502  503 -0.00000000000E+00 -0.00000000000E+00 -0.77464790898E+03  0.77464790898E+03  0.00000000000E+00 0.  1.
          6    1    1    2  501    0  0.31455283533E+02  0.60710747829E+02  0.13744948920E+02  0.18560213734E+03  0.17200000000E+03 0.  1.
         -6    1    1    2    0  503 -0.31455283533E+02 -0.60710747829E+02 -0.67628346862E+03  0.70115516092E+03  0.17200000000E+03 0.  1.
</event>
<event>
 4    1  0.1222208E+000  0.2159280E+03  0.7818608E-02  0.1136956E+00
         21   -1    0    0  501  502  0.00000000000E+00  0.00000000000E+00  0.10686442710E+03  0.10686442710E+03  0.00000000000E+00 0.  1.
         21   -1    0    0  502  503 -0.00000000000E+00 -0.00000000000E+00 -0.44030311198E+03  0.44030311198E+03  0.00000000000E+00 0.  1.
          6    1    1    2  501    0  0.12227526377E+03 -0.45712888289E+02 -0.19280695054E+03  0.28948130935E+03  0.17200000000E+03 0.  1.
         -6    1    1    2    0  503 -0.12227526377E+03  0.45712888289E+02 -0.14063173434E+03  0.25768622973E+03  0.17200000000E+03 0.  1.
</event>
<event>
 4    1  0.1222208E+000  0.2097243E+03  0.7818608E-02  0.1141784E+00
         21   -1    0    0  501  502  0.00000000000E+00  0.00000000000E+00  0.56013486343E+03  0.56013486343E+03  0.00000000000E+00 0. -1.
         21   -1    0    0  502  503 -0.00000000000E+00 -0.00000000000E+00 -0.88869712018E+02  0.88869712018E+02  0.00000000000E+00 0. -1.
          6    1    1    2  501    0 -0.11932424085E+03 -0.12728597507E+02  0.34634879956E+03  0.40489724944E+03  0.17200000000E+03 0.  1.
         -6    1    1    2    0  503  0.11932424085E+03  0.12728597507E+02  0.12491635185E+03  0.24410732601E+03  0.17200000000E+03 0.  1.
</event>
<event>
 4    1  0.1222208E+000  0.2465073E+03  0.7818608E-02  0.1115532E+00
         21   -1    0    0  503  502  0.00000000000E+00  0.00000000000E+00  0.58029526954E+03  0.58029526954E+03  0.00000000000E+00 0.  1.
         21   -1    0    0  501  503 -0.00000000000E+00 -0.00000000000E+00 -0.10570082629E+03  0.10570082629E+03  0.00000000000E+00 0. -1.
          6    1    1    2  501    0  0.55263811101E+02 -0.16771331948E+03  0.27041539665E+03  0.36591028012E+03  0.17200000000E+03 0.  1.
         -6    1    1    2    0  502 -0.55263811101E+02  0.16771331948E+03  0.20417904659E+03  0.32008581571E+03  0.17200000000E+03 0.  1.
</event>
<event>
 4    1  0.1222208E+000  0.1838068E+03  0.7818608E-02  0.1164169E+00
         21   -1    0    0  501  502  0.00000000000E+00  0.00000000000E+00  0.48636737274E+02  0.48636737274E+02  0.00000000000E+00 0. -1.
         21   -1    0    0  502  503 -0.00000000000E+00 -0.00000000000E+00 -0.71604379997E+03  0.71604379997E+03  0.00000000000E+00 0. -1.
          6    1    1    2  501    0 -0.63147841196E+02 -0.14604085695E+02 -0.39981020393E+03  0.44003764423E+03  0.17200000000E+03 0.  1.
         -6    1    1    2    0  503  0.63147841196E+02  0.14604085695E+02 -0.26759685876E+03  0.32464289301E+03  0.17200000000E+03 0.  1.
</event>
<event>
 4    1  0.1222208E+000  0.1866858E+03  0.7818608E-02  0.1161485E+00
         21   -1    0    0  501  502  0.00000000000E+00  0.00000000000E+00  0.12433108879E+03  0.12433108879E+03  0.00000000000E+00 0.  1.
         21   -1    0    0  502  503 -0.00000000000E+00 -0.00000000000E+00 -0.34249396673E+03  0.34249396673E+03  0.00000000000E+00 0.  1.
          6    1    1    2  501    0 -0.64942117205E+02 -0.32405141297E+02 -0.96261685779E+01  0.18693377140E+03  0.17200000000E+03 0.  1.
         -6    1    1    2    0  503  0.64942117205E+02  0.32405141297E+02 -0.20853670936E+03  0.27989128411E+03  0.17200000000E+03 0.  1.
</event>
<event>
 4    1  0.1222208E+000  0.1766013E+03  0.7818608E-02  0.1171133E+00
         21   -1    0    0  503  502  0.00000000000E+00  0.00000000000E+00  0.63940552484E+03  0.63940552484E+03  0.00000000000E+00 0.  1.
         21   -1    0    0  501  503 -0.00000000000E+00 -0.00000000000E+00 -0.10648527272E+03  0.10648527272E+03  0.00000000000E+00 0.  1.
          6    1    1    2  501    0  0.40029189123E+02 -0.12958896575E+01 -0.80896503812E+01  0.17678647503E+03  0.17200000000E+03 0.  1.
         -6    1    1    2    0  502 -0.40029189123E+02  0.12958896575E+01  0.54100990250E+03  0.56910432253E+03  0.17200000000E+03 0.  1.
</event>
<event>
 4    1  0.1222208E+000  0.2581257E+03  0.7818608E-02  0.1108275E+00
         21   -1    0    0  503  502  0.00000000000E+00  0.00000000000E+00  0.34935021377E+03  0.34935021377E+03  0.00000000000E+00 0.  1.
         21   -1    0    0  501  503 -0.00000000000E+00 -0.00000000000E+00 -0.28427211409E+03  0.28427211409E+03  0.00000000000E+00 0. -1.
          6    1    1    2  501    0  0.20919784048E+02  0.19133024603E+03 -0.14920267750E+03  0.29814482954E+03  0.17200000000E+03 0. -1.
         -6    1    1    2    0  502 -0.20919784048E+02 -0.19133024603E+03  0.21428077718E+03  0.33547749832E+03  0.17200000000E+03 0.  1.
</event>
<event>
 4    1  0.1222208E+000  0.1859205E+03  0.7818608E-02  0.1162193E+00
         21   -1    0    0  503  502  0.00000000000E+00  0.00000000000E+00  0.43167607358E+03  0.43167607358E+03  0.00000000000E+00 0. -1.
         21   -1    0    0  501  503 -0.00000000000E+00 -0.00000000000E+00 -0.17509597980E+03  0.17509597980E+03  0.00000000000E+00 0.  1.
          6    1    1    2  501    0  0.39042134769E+02  0.58805972580E+02 -0.95204742591E+02  0.20887884936E+03  0.17200000000E+03 0.  1.
         -6    1    1    2    0  502 -0.39042134769E+02 -0.58805972580E+02  0.35178483637E+03  0.39789320401E+03  0.17200000000E+03 0. -1.
</event>
<event>
 4    1  0.1222208E+000  0.1776573E+03  0.7818608E-02  0.1170090E+00
         21   -1    0    0  501  502  0.00000000000E+00  0.00000000000E+00  0.43684532476E+03  0.43684532476E+03  0.00000000000E+00 0.  1.
         21   -1    0    0  502  503 -0.00000000000E+00 -0.00000000000E+00 -0.88537764239E+02  0.88537764239E+02  0.00000000000E+00 0.  1.
          6    1    1    2  501    0  0.40558576110E+02  0.18251359382E+02  0.28682460472E+03  0.33738770589E+03  0.17200000000E+03 0.  1.
         -6    1    1    2    0  503 -0.40558576110E+02 -0.18251359382E+02  0.61482955805E+02  0.18799538311E+03  0.17200000000E+03 0.  1.
</event>
<event>
 4    1  0.1222208E+000  0.1793594E+03  0.7818608E-02  0.1168424E+00
         21   -1    0    0  503  502  0.00000000000E+00  0.00000000000E+00  0.12004333211E+03  0.12004333211E+03  0.00000000000E+00 0.  1.
         21   -1    0    0  501  503 -0.00000000000E+00 -0.00000000000E+00 -0.39746782247E+03  0.39746782247E+03  0.00000000000E+00 0.  1.
          6    1    1    2  501    0  0.46692414243E+02 -0.20139916449E+02 -0.28640017879E+03  0.33792730016E+03  0.17200000000E+03 0.  1.
         -6    1    1    2    0  502 -0.46692414243E+02  0.20139916449E+02  0.89756884360E+01  0.17958385441E+03  0.17200000000E+03 0.  1.
</event>
<event>
 4    1  0.1222208E+000  0.2052082E+03  0.7818608E-02  0.1145418E+00
         21   -1    0    0  501  502  0.00000000000E+00  0.00000000000E+00  0.53589204539E+02  0.53589204539E+02  0.00000000000E+00 0. -1.
         21   -1    0    0  502  503 -0.00000000000E+00 -0.00000000000E+00 -0.80902060874E+03  0.80902060874E+03  0.00000000000E+00 0. -1.
          6    1    1    2  501    0  0.10117901268E+03 -0.47845703732E+02 -0.30464552208E+03  0.36731362362E+03  0.17200000000E+03 0. -1.
         -6    1    1    2    0  503 -0.10117901268E+03  0.47845703732E+02 -0.45078588212E+03  0.49529618966E+03  0.17200000000E+03 0. -1.
</event>
<event>
 4    1  0.1222208E+000  0.1831754E+03  0.7818608E-02  0.1164765E+00
         21   -1    0    0  503  502  0.00000000000E+00  0.00000000000E+00  0.21242529555E+03  0.21242529555E+03  0.00000000000E+00 0.  1.
         21   -1    0    0  501  503 -0.00000000000E+00 -0.00000000000E+00 -0.16241323576E+03  0.16241323576E+03  0.00000000000E+00 0.  1.
          6    1    1    2  501    0 -0.50705646264E+02 -0.37391830017E+02  0.56064689121E+02  0.19156320336E+03  0.17200000000E+03 0.  1.
         -6    1    1    2    0  502  0.50705646264E+02  0.37391830017E+02 -0.60526293246E+01  0.18327532795E+03  0.17200000000E+03 0.  1.
</event>
<event>
 4    1  0.1222208E+000  0.2109330E+03  0.7818608E-02  0.1140829E+00
         21   -1    0    0  503  502  0.00000000000E+00  0.00000000000E+00  0.27312126284E+03  0.27312126284E+03  0.00000000000E+00 0.  1.
         21   -1    0    0  501  503 -0.00000000000E+00 -0.00000000000E+00 -0.19914808129E+03  0.19914808129E+03  0.00000000000E+00 0.  1.
          6    1    1    2  501    0  0.13832385741E+02  0.12131520927E+03 -0.63749836502E+02  0.22035597689E+03  0.17200000000E+03 0.  1.
         -6    1    1    2    0  502 -0.13832385741E+02 -0.12131520927E+03  0.13772301805E+03  0.25191336725E+03  0.17200000000E+03 0.  1.
</event>
<event>
 4    1  0.1222208E+000  0.2223451E+03  0.7818608E-02  0.1132147E+00
         21   -1    0    0  503  502  0.00000000000E+00  0.00000000000E+00  0.91564351947E+03  0.91564351947E+03  0.00000000000E+00 0.  1.
         21   -1    0    0  501  503 -0.00000000000E+00 -0.00000000000E+00 -0.56601207846E+02  0.56601207846E+02  0.00000000000E+00 0. -1.
          6    1    1    2  501    0 -0.50081410602E+02  0.13170119865E+03  0.32514685313E+03  0.39390078639E+03  0.17200000000E+03 0.  1.
         -6    1    1    2    0  502  0.50081410602E+02 -0.13170119865E+03  0.53389545849E+03  0.57834394093E+03  0.17200000000E+03 0.  1.
</event>
<event>
 4    1  0.1222208E+000  0.1927850E+03  0.7818608E-02  0.1155973E+00
         21   -1    0    0  503  502  0.00000000000E+00  0.00000000000E+00  0.51301326959E+02  0.51301326959E+02  0.00000000000E+00 0.  1.
         21   -1    0    0  501  503 -0.00000000000E+00 -0.00000000000E+00 -0.74995616694E+03  0.74995616694E+03  0.00000000000E+00 0.  1.
          6    1    1    2  501    0  0.12519508388E+02  0.86170206990E+02 -0.42318831608E+03  0.46503160487E+03  0.17200000000E+03 0.  1.
         -6    1    1    2    0  502 -0.12519508388E+02 -0.86170206990E+02 -0.27546652391E+03  0.33622588903E+03  0.17200000000E+03 0.  1.
</event>
<event>
 4    1  0.1222208E+000  0.2133265E+03  0.7818608E-02  0.1138958E+00
         21   -1    0    0  501  502  0.00000000000E+00  0.00000000000E+00  0.14053006845E+03  0.14053006845E+03  0.00000000000E+00 0.  1.
         21   -1    0    0  502  503 -0.00000000000E+00 -0.00000000000E+00 -0.32793876236E+03  0.32793876236E+03  0.00000000000E+00 0.  1.
          6    1    1    2  501    0  0.11608516682E+03  0.49481762779E+02 -0.67493872279E+02  0.22374904156E+03  0.17200000000E+03 0.  1.
         -6    1    1    2    0  503 -0.11608516682E+03 -0.49481762779E+02 -0.11991482163E+03  0.24471978925E+03  0.17200000000E+03 0.  1.
</event>
<event>
 4    1  0.1222208E+000  0.1880588E+03  0.7818608E-02  0.1160224E+00
         21   -1    0    0  501  502  0.00000000000E+00  0.00000000000E+00  0.97942302773E+02  0.97942302773E+02  0.00000000000E+00 0. -1.
         21   -1    0    0  502  503 -0.00000000000E+00 -0.00000000000E+00 -0.72851451410E+03  0.72851451410E+03  0.00000000000E+00 0.  1.
          6    1    1    2  501    0 -0.44465720257E+02 -0.61683872269E+02 -0.21822370412E+02  0.18932067036E+03  0.17200000000E+03 0. -1.
         -6    1    1    2    0  503  0.44465720257E+02  0.61683872269E+02 -0.60874984092E+03  0.63713614651E+03  0.17200000000E+03 0.  1.
</event>
<event>
 4    1  0.1222208E+000  0.1795105E+03  0.7818608E-02  0.1168278E+00
         21   -1    0    0  503  502  0.00000000000E+00  0.00000000000E+00  0.28655774955E+03  0.28655774955E+03  0.00000000000E+00 0. -1.
         21   -1    0    0  501  503 -0.00000000000E+00 -0.00000000000E+00 -0.11307713307E+03  0.11307713307E+03  0.00000000000E+00 0. -1.
          6    1    1    2  501    0 -0.48620658745E+02 -0.16615023446E+02  0.71884738608E+02  0.19336867147E+03  0.17200000000E+03 0. -1.
         -6    1    1    2    0  502  0.48620658745E+02  0.16615023446E+02  0.10159587787E+03  0.20626621115E+03  0.17200000000E+03 0. -1.
</event>
<event>
 4    1  0.1222208E+000  0.2005877E+03  0.7818608E-02  0.1149244E+00
         21   -1    0    0  503  502  0.00000000000E+00  0.00000000000E+00  0.46441744544E+03  0.46441744544E+03  0.00000000000E+00 0. -1.
         21   -1    0    0  501  503 -0.00000000000E+00 -0.00000000000E+00 -0.92479431575E+02  0.92479431575E+02  0.00000000000E+00 0. -1.
          6    1    1    2  501    0 -0.82267065606E+02 -0.62318232743E+02  0.11597784612E+03  0.23170302762E+03  0.17200000000E+03 0. -1.
         -6    1    1    2    0  502  0.82267065606E+02  0.62318232743E+02  0.25596016775E+03  0.32519384940E+03  0.17200000000E+03 0. -1.
</event>
<event>
 4    1  0.1222208E+000  0.2585230E+03  0.7818608E-02  0.1108034E+00
         21   -1    0    0  501  502  0.00000000000E+00  0.00000000000E+00  0.44236630307E+03  0.44236630307E+03  0.00000000000E+00 0.  1.
         21   -1    0    0  502  503 -0.00000000000E+00 -0.00000000000E+00 -0.54113625943E+03  0.54113625943E+03  0.00000000000E+00 0.  1.
          6    1    1    2  501    0 -0.23603056407E+02 -0.19155423365E+03  0.36811264912E+03  0.44982335549E+03  0.17200000000E+03 0.  1.
         -6    1    1    2    0  503  0.23603056407E+02  0.19155423365E+03 -0.46688260547E+03  0.53367920701E+03  0.17200000000E+03 0.  1.
</event>
<event>
 4    1  0.1222208E+000  0.1784665E+03  0.7818608E-02  0.1169295E+00
         21   -1    0    0  503  502  0.00000000000E+00  0.00000000000E+00  0.17619746559E+04  0.17619746559E+04  0.00000000000E+00 0. -1.
         21   -1    0    0  501  503 -0.00000000000E+00 -0.00000000000E+00 -0.22510621978E+02  0.22510621978E+02  0.00000000000E+00 0. -1.
          6    1    1    2  501    0 -0.21632899564E+02  0.42406678542E+02  0.47373330740E+03  0.50623468399E+03  0.17200000000E+03 0. -1.
         -6    1    1    2    0  502  0.21632899564E+02 -0.42406678542E+02  0.12657307265E+04  0.12782505939E+04  0.17200000000E+03 0. -1.
</event>
<event>
 4    1  0.1222208E+000  0.1769270E+03  0.7818608E-02  0.1170811E+00
         21   -1    0    0  501  502  0.00000000000E+00  0.00000000000E+00  0.17342004132E+03  0.17342004132E+03  0.00000000000E+00 0. -1.
         21   -1    0    0  502  503 -0.00000000000E+00 -0.00000000000E+00 -0.20681022715E+03  0.20681022715E+03  0.00000000000E+00 0. -1.
          6    1    1    2  501    0 -0.38951501766E+01 -0.41279326729E+02  0.51108564265E+02  0.18416090886E+03  0.17200000000E+03 0. -1.
         -6    1    1    2    0  503  0.38951501766E+01  0.41279326729E+02 -0.84498750104E+02  0.19606935961E+03  0.17200000000E+03 0. -1.
</event>
<event>
 4    1  0.1222208E+000  0.3054158E+03  0.7818608E-02  0.1082564E+00
         21   -1    0    0  503  502  0.00000000000E+00  0.00000000000E+00  0.39084877501E+03  0.39084877501E+03  0.00000000000E+00 0. -1.
         21   -1    0    0  501  503 -0.00000000000E+00 -0.00000000000E+00 -0.26499685286E+03  0.26499685286E+03  0.00000000000E+00 0.  1.
          6    1    1    2  501    0  0.35701540107E+02  0.24984033143E+03 -0.40459162227E+02  0.30808397391E+03  0.17200000000E+03 0. -1.
         -6    1    1    2    0  502 -0.35701540107E+02 -0.24984033143E+03  0.16631108437E+03  0.34776165395E+03  0.17200000000E+03 0. -1.
</event>
<event>
 4    1  0.1222208E+000  0.1771396E+03  0.7818608E-02  0.1170600E+00
         21   -1    0    0  503  502  0.00000000000E+00  0.00000000000E+00  0.46341313966E+03  0.46341313966E+03  0.00000000000E+00 0. -1.
         21   -1    0    0  501  503 -0.00000000000E+00 -0.00000000000E+00 -0.98052420368E+02  0.98052420368E+02  0.00000000000E+00 0. -1.
          6    1    1    2  501    0 -0.39301376576E+02  0.15805932360E+02  0.26517437441E+02  0.17911337244E+03  0.17200000000E+03 0. -1.
         -6    1    1    2    0  502  0.39301376576E+02 -0.15805932360E+02  0.33884328185E+03  0.38235218759E+03  0.17200000000E+03 0. -1.
</event>
<event>
 4    1  0.1222208E+000  0.1949127E+03  0.7818608E-02  0.1154104E+00
         21   -1    0    0  501  502  0.00000000000E+00  0.00000000000E+00  0.94785786710E+03  0.94785786710E+03  0.00000000000E+00 0. -1.
         21   -1    0    0  502  503 -0.00000000000E+00 -0.00000000000E+00 -0.42309217285E+02  0.42309217285E+02  0.00000000000E+00 0. -1.
          6    1    1    2  501    0  0.51005943842E+02  0.76192965018E+02  0.33915510926E+03  0.39117408192E+03  0.17200000000E+03 0.  1.
         -6    1    1    2    0  503 -0.51005943842E+02 -0.76192965018E+02  0.56639354055E+03  0.59899300247E+03  0.17200000000E+03 0.  1.
</event>
<event>
 4    1  0.1222208E+000  0.2033379E+03  0.7818608E-02  0.1146953E+00
         21   -1    0    0  503  502  0.00000000000E+00  0.00000000000E+00  0.18290624173E+03  0.18290624173E+03  0.00000000000E+00 0.  1.
         21   -1    0    0  501  503 -0.00000000000E+00 -0.00000000000E+00 -0.43365992883E+03  0.43365992883E+03  0.00000000000E+00 0. -1.
          6    1    1    2  501    0 -0.86242682130E+02  0.65760807595E+02 -0.33867997596E+03  0.39503216344E+03  0.17200000000E+03 0. -1.
         -6    1    1    2    0  502  0.86242682130E+02 -0.65760807595E+02  0.87926288864E+02  0.22153400712E+03  0.17200000000E+03 0.  1.
</event>
<event>
 4    1  0.1222208E+000  0.1852987E+03  0.7818608E-02  0.1162771E+00
         21   -1    0    0  503  502  0.00000000000E+00  0.00000000000E+00  0.37040577225E+02  0.37040577225E+02  0.00000000000E+00 0. -1.
         21   -1    0    0  501  503 -0.00000000000E+00 -0.00000000000E+00 -0.92886836433E+03  0.92886836433E+03  0.00000000000E+00 0. -1.
          6    1    1    2  501    0  0.49103570418E+02  0.48378219302E+02 -0.46773026154E+03  0.50309761507E+03  0.17200000000E+03 0. -1.
         -6    1    1    2    0  502 -0.49103570418E+02 -0.48378219302E+02 -0.42409752556E+03  0.46281132648E+03  0.17200000000E+03 0. -1.
</event>
<event>
 4    1  0.1222208E+000  0.4034116E+03  0.7818608E-02  0.1042605E+00
         21   -1    0    0  503  502  0.00000000000E+00  0.00000000000E+00  0.31311599617E+03  0.31311599617E+03  0.00000000000E+00 0.  1.
         21   -1    0    0  501  503 -0.00000000000E+00 -0.00000000000E+00 -0.69255189396E+03  0.69255189396E+03  0.00000000000E+00 0. -1.
          6    1    1    2  501    0 -0.63377911061E+02 -0.35936070889E+03 -0.44089348228E+03  0.59760182515E+03  0.17200000000E+03 0. -1.
         -6    1    1    2    0  502  0.63377911061E+02  0.35936070889E+03  0.61457584487E+02  0.40806606499E+03  0.17200000000E+03 0. -1.
</event>
<event>
 4    1  0.1222208E+000  0.2014999E+03  0.7818608E-02  0.1148480E+00
         21   -1    0    0  503  502  0.00000000000E+00  0.00000000000E+00  0.48164243933E+03  0.48164243933E+03  0.00000000000E+00 0. -1.
         21   -1    0    0  501  503 -0.00000000000E+00 -0.00000000000E+00 -0.50708406992E+03  0.50708406992E+03  0.00000000000E+00 0. -1.
          6    1    1    2  501    0 -0.91450022638E+02 -0.51527509115E+02 -0.46412521858E+03  0.50597866492E+03  0.17200000000E+03 0. -1.
         -6    1    1    2    0  502  0.91450022638E+02  0.51527509115E+02  0.43868358799E+03  0.48274784433E+03  0.17200000000E+03 0. -1.
</event>
<event>
 4    1  0.1222208E+000  0.1923708E+03  0.7818608E-02  0.1156340E+00
         21   -1    0    0  503  502  0.00000000000E+00  0.00000000000E+00  0.20046152355E+03  0.20046152355E+03  0.00000000000E+00 0.  1.
         21   -1    0    0  501  503 -0.00000000000E+00 -0.00000000000E+00 -0.23361741352E+03  0.23361741352E+03  0.00000000000E+00 0. -1.
          6    1    1    2  501    0  0.85094496666E+02 -0.13470473487E+02  0.82832477302E+02  0.20944628503E+03  0.17200000000E+03 0.  1.
         -6    1    1    2    0  502 -0.85094496666E+02  0.13470473487E+02 -0.11598836727E+03  0.22463265203E+03  0.17200000000E+03 0. -1.
</event>
<event>
 4    1  0.1222208E+000  0.2342238E+03  0.7818608E-02  0.1123702E+00
         21   -1    0    0  503  502  0.00000000000E+00  0.00000000000E+00  0.31132198932E+03  0.31132198932E+03  0.00000000000E+00 0.  1.
         21   -1    0    0  501  503 -0.00000000000E+00 -0.00000000000E+00 -0.21126442953E+03  0.21126442953E+03  0.00000000000E+00 0. -1.
          6    1    1    2  501    0  0.27273369589E+02 -0.15663001304E+03  0.15645083969E+03  0.28166942133E+03  0.17200000000E+03 0.  1.
         -6    1    1    2    0  502 -0.27273369589E+02  0.15663001304E+03 -0.56393279893E+02  0.24091699752E+03  0.17200000000E+03 0. -1.
</event>
<event>
 4    1  0.1222208E+000  0.1848758E+03  0.7818608E-02  0.1163166E+00
         21   -1    0    0  501  502  0.00000000000E+00  0.00000000000E+00  0.27996677969E+03  0.27996677969E+03  0.00000000000E+00 0.  1.
         21   -1    0    0  502  503 -0.00000000000E+00 -0.00000000000E+00 -0.20202213119E+03  0.20202213119E+03  0.00000000000E+00 0.  1.
          6    1    1    2  501    0  0.31288181098E+02  0.60133956240E+02  0.19056864483E+03  0.26550979522E+03  0.17200000000E+03 0.  1.
         -6    1    1    2    0  503 -0.31288181098E+02 -0.60133956240E+02 -0.11262399633E+03  0.21647911566E+03  0.17200000000E+03 0.  1.
</event>
<event>
 4    1  0.1222208E+000  0.2246385E+03  0.7818608E-02  0.1130471E+00
         21   -1    0    0  501  502  0.00000000000E+00  0.00000000000E+00  0.13385296475E+03  0.13385296475E+03  0.00000000000E+00 0.  1.
         21   -1    0    0  502  503 -0.00000000000E+00 -0.00000000000E+00 -0.50037438685E+03  0.50037438685E+03  0.00000000000E+00 0.  1.
          6    1    1    2  501    0  0.14143769626E+03 -0.29560332661E+02 -0.34072485718E+03  0.40811256228E+03  0.17200000000E+03 0. -1.
         -6    1    1    2    0  503 -0.14143769626E+03  0.29560332661E+02 -0.25796564917E+02  0.22611478933E+03  0.17200000000E+03 0. -1.
</event>
<event>
 4    1  0.1222208E+000  0.1824375E+03  0.7818608E-02  0.1165465E+00
         21   -1    0    0  501  502  0.00000000000E+00  0.00000000000E+00  0.10164118749E+03  0.10164118749E+03  0.00000000000E+00 0. -1.
         21   -1    0    0  502  503 -0.00000000000E+00 -0.00000000000E+00 -0.38994974648E+03  0.38994974648E+03  0.00000000000E+00 0. -1.
          6    1    1    2  501    0  0.54178192780E+02 -0.27643567986E+02 -0.45759231933E+02  0.18808867784E+03  0.17200000000E+03 0. -1.
         -6    1    1    2    0  503 -0.54178192780E+02  0.27643567986E+02 -0.24254932706E+03  0.30350225614E+03  0.17200000000E+03 0. -1.
</event>
<event>
 4    1  0.1222208E+000  0.1986891E+03  0.7818608E-02  0.1150850E+00
         21   -1    0    0  503  502  0.00000000000E+00  0.00000000000E+00  0.74421162747E+02  0.74421162747E+02  0.00000000000E+00 0.  1.
         21   -1    0    0  501  503 -0.00000000000E+00 -0.00000000000E+00 -0.70777498097E+03  0.70777498097E+03  0.00000000000E+00 0. -1.
          6    1    1    2  501    0  0.15487659310E+02  0.98252234382E+02 -0.51243157238E+03  0.54960302539E+03  0.17200000000E+03 0. -1.
         -6    1    1    2    0  502 -0.15487659310E+02 -0.98252234382E+02 -0.12092224585E+03  0.23259311833E+03  0.17200000000E+03 0.  1.
</event>
<event>
 4    1  0.1222208E+000  0.2040525E+03  0.7818608E-02  0.1146364E+00
         21   -1    0    0  501  502  0.00000000000E+00  0.00000000000E+00  0.22542534667E+03  0.22542534667E+03  0.00000000000E+00 0.  1.
         21   -1    0    0  502  503 -0.00000000000E+00 -0.00000000000E+00 -0.18579590651E+03  0.18579590651E+03  0.00000000000E+00 0.  1.
          6    1    1    2  501    0 -0.29564413813E+02 -0.10573244298E+03  0.35562921623E+02  0.20712828261E+03  0.17200000000E+03 0.  1.
         -6    1    1    2    0  503  0.29564413813E+02  0.10573244298E+03  0.40665185405E+01  0.20409297057E+03  0.17200000000E+03 0.  1.
</event>
<event>
 4    1  0.1222208E+000  0.2153088E+03  0.7818608E-02  0.1137430E+00
         21   -1    0    0  503  502  0.00000000000E+00  0.00000000000E+00  0.61776839855E+03  0.61776839855E+03  0.00000000000E+00 0.  1.
         21   -1    0    0  501  503 -0.00000000000E+00 -0.00000000000E+00 -0.78395216486E+02  0.78395216486E+02  0.00000000000E+00 0. -1.
          6    1    1    2  501    0  0.72036162033E+02  0.10763218807E+03  0.19768558423E+03  0.29229691542E+03  0.17200000000E+03 0. -1.
         -6    1    1    2    0  502 -0.72036162033E+02 -0.10763218807E+03  0.34168759784E+03  0.40386669962E+03  0.17200000000E+03 0.  1.
</event>
<event>
 4    1  0.1222208E+000  0.1892206E+03  0.7818608E-02  0.1159166E+00
         21   -1    0    0  503  502  0.00000000000E+00  0.00000000000E+00  0.44259972427E+03  0.44259972427E+03  0.00000000000E+00 0. -1.
         21   -1    0    0  501  503 -0.00000000000E+00 -0.00000000000E+00 -0.88780643673E+02  0.88780643673E+02  0.00000000000E+00 0. -1.
          6    1    1    2  501    0  0.71650311951E+02 -0.32964865549E+02  0.97729907812E+02  0.21296850576E+03  0.17200000000E+03 0.  1.
         -6    1    1    2    0  502 -0.71650311951E+02  0.32964865549E+02  0.25608917278E+03  0.31841186218E+03  0.17200000000E+03 0.  1.
</event>
<event>
 4    1  0.1222208E+000  0.2268450E+03  0.7818608E-02  0.1128880E+00
         21   -1    0    0  501  502  0.00000000000E+00  0.00000000000E+00  0.55254361926E+03  0.55254361926E+03  0.00000000000E+00 0.  1.
         21   -1    0    0  502  503 -0.00000000000E+00 -0.00000000000E+00 -0.94510189396E+02  0.94510189396E+02  0.00000000000E+00 0.  1.
          6    1    1    2  501    0 -0.14401191247E+03 -0.33692740131E+02  0.26810717880E+03  0.35119807943E+03  0.17200000000E+03 0.  1.
         -6    1    1    2    0  503  0.14401191247E+03  0.33692740131E+02  0.18992625106E+03  0.29585572922E+03  0.17200000000E+03 0.  1.
</event>
<event>
 4    1  0.1222208E+000  0.2206546E+03  0.7818608E-02  0.1133396E+00
         21   -1    0    0  501  502  0.00000000000E+00  0.00000000000E+00  0.27478474244E+02  0.27478474244E+02  0.00000000000E+00 0.  1.
         21   -1    0    0  502  503 -0.00000000000E+00 -0.00000000000E+00 -0.19900582773E+04  0.19900582773E+04  0.00000000000E+00 0. -1.
          6    1    1    2  501    0 -0.27287935310E+02 -0.13549842937E+03 -0.64727330029E+03  0.68385026215E+03  0.17200000000E+03 0.  1.
         -6    1    1    2    0  503  0.27287935310E+02  0.13549842937E+03 -0.13153065028E+04  0.13336864894E+04  0.17200000000E+03 0. -1.
</event>
<event>
 4    1  0.1222208E+000  0.2250220E+03  0.7818608E-02  0.1130193E+00
         21   -1    0    0  503  502  0.00000000000E+00  0.00000000000E+00  0.37060097931E+03  0.37060097931E+03  0.00000000000E+00 0.  1.
         21   -1    0    0  501  503 -0.00000000000E+00 -0.00000000000E+00 -0.13886237129E+03  0.13886237129E+03  0.00000000000E+00 0.  1.
          6    1    1    2  501    0 -0.13664120823E+03  0.48786050710E+02  0.14817328807E+03  0.26942572600E+03  0.17200000000E+03 0.  1.
         -6    1    1    2    0  502  0.13664120823E+03 -0.48786050710E+02  0.83565319950E+02  0.24003762461E+03  0.17200000000E+03 0.  1.
</event>
<event>
 4    1  0.1222208E+000  0.1864221E+03  0.7818608E-02  0.1161729E+00
         21   -1    0    0  503  502  0.00000000000E+00  0.00000000000E+00  0.34262432062E+03  0.34262432062E+03  0.00000000000E+00 0.  1.
         21   -1    0    0  501  503 -0.00000000000E+00 -0.00000000000E+00 -0.10171513319E+03  0.10171513319E+03  0.00000000000E+00 0.  1.
          6    1    1    2  501    0 -0.71402820192E+02  0.84167816413E+01  0.10874112809E+03  0.21581899333E+03  0.17200000000E+03 0.  1.
         -6    1    1    2    0  502  0.71402820192E+02 -0.84167816413E+01  0.13216805934E+03  0.22852046047E+03  0.17200000000E+03 0.  1.
</event>
<event>
 4    1  0.1222208E+000  0.1784305E+03  0.7818608E-02  0.1169331E+00
         21   -1    0    0  503  502  0.00000000000E+00  0.00000000000E+00  0.36900396227E+02  0.36900396227E+02  0.00000000000E+00 0.  1.
         21   -1    0    0  501  503 -0.00000000000E+00 -0.00000000000E+00 -0.91665487951E+03  0.91665487951E+03  0.00000000000E+00 0.  1.
          6    1    1    2  501    0  0.99892506452E+01 -0.46407631747E+02 -0.55544807790E+03  0.58340382297E+03  0.17200000000E+03 0.  1.
         -6    1    1    2    0  502 -0.99892506452E+01  0.46407631747E+02 -0.32430640538E+03  0.37015145276E+03  0.17200000000E+03 0.  1.
</event>
<event>
 4    1  0.1222208E+000  0.2272468E+03  0.7818608E-02  0.1128593E+00
         21   -1    0    0  503  502  0.00000000000E+00  0.00000000000E+00  0.65211616496E+03  0.65211616496E+03  0.00000000000E+00 0. -1.
         21   -1    0    0  501  503 -0.00000000000E+00 -0.00000000000E+00 -0.10104283871E+04  0.10104283871E+04  0.00000000000E+00 0. -1.
          6    1    1    2  501    0 -0.14129998821E+03 -0.45731879093E+02 -0.97718930785E+03  0.10032646883E+04  0.17200000000E+03 0.  1.
         -6    1    1    2    0  502  0.14129998821E+03  0.45731879093E+02  0.61887708575E+03  0.65927986371E+03  0.17200000000E+03 0.  1.
</event>
<event>
 4    1  0.1222208E+000  0.2005504E+03  0.7818608E-02  0.1149275E+00
         21   -1    0    0  503  502  0.00000000000E+00  0.00000000000E+00  0.11546914762E+03  0.11546914762E+03  0.00000000000E+00 0.  1.
         21   -1    0    0  501  503 -0.00000000000E+00 -0.00000000000E+00 -0.39110108491E+03  0.39110108491E+03  0.00000000000E+00 0.  1.
          6    1    1    2  501    0  0.96926670814E+02 -0.35237474292E+02 -0.54047560997E+02  0.20770555592E+03  0.17200000000E+03 0.  1.
         -6    1    1    2    0  502 -0.96926670814E+02  0.35237474292E+02 -0.22158437630E+03  0.29886467662E+03  0.17200000000E+03 0.  1.
</event>
<event>
 4    1  0.1222208E+000  0.2119090E+03  0.7818608E-02  0.1140063E+00
         21   -1    0    0  501  502  0.00000000000E+00  0.00000000000E+00  0.56094373497E+03  0.56094373497E+03  0.00000000000E+00 0.  1.
         21   -1    0    0  502  503 -0.00000000000E+00 -0.00000000000E+00 -0.16590784965E+03  0.16590784965E+03  0.00000000000E+00 0.  1.
          6    1    1    2  501    0 -0.71933712243E+02  0.10073210798E+03  0.45895301451E+03  0.50551289406E+03  0.17200000000E+03 0.  1.
         -6    1    1    2    0  503  0.71933712243E+02 -0.10073210798E+03 -0.63917129195E+02  0.22133869056E+03  0.17200000000E+03 0.  1.
</event>
<event>
 4    1  0.1222208E+000  0.1879582E+03  0.7818608E-02  0.1160316E+00
         21   -1    0    0  501  502  0.00000000000E+00  0.00000000000E+00  0.41511128871E+03  0.41511128871E+03  0.00000000000E+00 0.  1.
         21   -1    0    0  502  503 -0.00000000000E+00 -0.00000000000E+00 -0.86220227764E+02  0.86220227764E+02  0.00000000000E+00 0. -1.
          6    1    1    2  501    0  0.17820748061E+02 -0.73666215571E+02  0.19294637071E+03  0.26936330921E+03  0.17200000000E+03 0.  1.
         -6    1    1    2    0  503 -0.17820748061E+02  0.73666215571E+02  0.13594469023E+03  0.23196820726E+03  0.17200000000E+03 0. -1.
</event>
<event>
 4    1  0.1222208E+000  0.1925553E+03  0.7818608E-02  0.1156177E+00
         21   -1    0    0  503  502  0.00000000000E+00  0.00000000000E+00  0.26456358315E+03  0.26456358315E+03  0.00000000000E+00 0. -1.
         21   -1    0    0  501  503 -0.00000000000E+00 -0.00000000000E+00 -0.18456972575E+03  0.18456972575E+03  0.00000000000E+00 0. -1.
          6    1    1    2  501    0  0.81412863904E+02  0.29419490371E+02 -0.70175244807E+02  0.20494420169E+03  0.17200000000E+03 0. -1.
         -6    1    1    2    0  502 -0.81412863904E+02 -0.29419490371E+02  0.15016910221E+03  0.24418910721E+03  0.17200000000E+03 0. -1.
</event>
<event>
 4    1  0.1222208E+000  0.2108146E+03  0.7818608E-02  0.1140923E+00
         21   -1    0    0  503  502  0.00000000000E+00  0.00000000000E+00  0.49567657694E+02  0.49567657694E+02  0.00000000000E+00 0.  1.
         21   -1    0    0  501  503 -0.00000000000E+00 -0.00000000000E+00 -0.10491946248E+04  0.10491946248E+04  0.00000000000E+00 0. -1.
          6    1    1    2  501    0 -0.11780160852E+03 -0.31330023302E+02 -0.29030429982E+03  0.35877482608E+03  0.17200000000E+03 0.  1.
         -6    1    1    2    0  502  0.11780160852E+03  0.31330023302E+02 -0.70932266723E+03  0.73998745637E+03  0.17200000000E+03 0. -1.
</event>
<event>
 4    1  0.1222208E+000  0.1907289E+03  0.7818608E-02  0.1157806E+00
         21   -1    0    0  501  502  0.00000000000E+00  0.00000000000E+00  0.19104782490E+03  0.19104782490E+03  0.00000000000E+00 0.  1.
         21   -1    0    0  502  503 -0.00000000000E+00 -0.00000000000E+00 -0.23926131909E+03  0.23926131909E+03  0.00000000000E+00 0.  1.
          6    1    1    2  501    0  0.56613516899E+02  0.59903365138E+02  0.73112097094E+02  0.20426179817E+03  0.17200000000E+03 0.  1.
         -6    1    1    2    0  503 -0.56613516899E+02 -0.59903365138E+02 -0.12132559129E+03  0.22604734582E+03  0.17200000000E+03 0.  1.
</event>
<event>
 4    1  0.1222208E+000  0.1753126E+03  0.7818608E-02  0.1172418E+00
         21   -1    0    0  501  502  0.00000000000E+00  0.00000000000E+00  0.86056128993E+02  0.86056128993E+02  0.00000000000E+00 0. -1.
         21   -1    0    0  502  503 -0.00000000000E+00 -0.00000000000E+00 -0.39183069411E+03  0.39183069411E+03  0.00000000000E+00 0. -1.
          6    1    1    2  501    0 -0.47759371868E+01 -0.33581223128E+02 -0.22397942707E+03  0.28443152405E+03  0.17200000000E+03 0. -1.
         -6    1    1    2    0  503  0.47759371868E+01  0.33581223128E+02 -0.81795138043E+02  0.19345529905E+03  0.17200000000E+03 0. -1.
</event>
<event>
 4    1  0.1222208E+000  0.2078562E+03  0.7818608E-02  0.1143275E+00
         21   -1    0    0  501  502  0.00000000000E+00  0.00000000000E+00  0.27994921183E+02  0.27994921183E+02  0.00000000000E+00 0. -1.
         21   -1    0    0  502  503 -0.00000000000E+00 -0.00000000000E+00 -0.26182485854E+04  0.26182485854E+04  0.00000000000E+00 0. -1.
          6    1    1    2  501    0 -0.82225757653E+02 -0.82819859264E+02 -0.44733193700E+03  0.49326470193E+03  0.17200000000E+03 0. -1.
         -6    1    1    2    0  503  0.82225757653E+02  0.82819859264E+02 -0.21429217272E+04  0.21529788047E+04  0.17200000000E+03 0. -1.
</event>
<event>
 4    1  0.1222208E+000  0.2432553E+03  0.7818608E-02  0.1117643E+00
         21   -1    0    0  501  502  0.00000000000E+00  0.00000000000E+00  0.16951170633E+03  0.16951170633E+03  0.00000000000E+00 0.  1.
         21   -1    0    0  502  503 -0.00000000000E+00 -0.00000000000E+00 -0.39876760838E+03  0.39876760838E+03  0.00000000000E+00 0.  1.
          6    1    1    2  501    0  0.13978952373E+02 -0.17144598610E+03 -0.14329044328E+02  0.24367695576E+03  0.17200000000E+03 0.  1.
         -6    1    1    2    0  503 -0.13978952373E+02  0.17144598610E+03 -0.21492685773E+03  0.32460235894E+03  0.17200000000E+03 0.  1.
</event>
<event>
 4    1  0.1222208E+000  0.1816595E+03  0.7818608E-02  0.1166207E+00
         21   -1    0    0  503  502  0.00000000000E+00  0.00000000000E+00  0.44055842169E+03  0.44055842169E+03  0.00000000000E+00 0.  1.
         21   -1    0    0  501  503 -0.00000000000E+00 -0.00000000000E+00 -0.77536924849E+02  0.77536924849E+02  0.00000000000E+00 0.  1.
          6    1    1    2  501    0  0.53909203145E+02 -0.22582377624E+02  0.13378679409E+03  0.22560822732E+03  0.17200000000E+03 0. -1.
         -6    1    1    2    0  502 -0.53909203145E+02  0.22582377624E+02  0.22923470275E+03  0.29248711922E+03  0.17200000000E+03 0. -1.
</event>
<event>
 4    1  0.1222208E+000  0.1824481E+03  0.7818608E-02  0.1165455E+00
         21   -1    0    0  503  502  0.00000000000E+00  0.00000000000E+00  0.13320680276E+03  0.13320680276E+03  0.00000000000E+00 0.  1.
         21   -1    0    0  501  503 -0.00000000000E+00 -0.00000000000E+00 -0.41400953122E+03  0.41400953122E+03  0.00000000000E+00 0.  1.
          6    1    1    2  501    0 -0.60853667368E+02  0.35188144945E+00 -0.31266816570E+03  0.36200645643E+03  0.17200000000E+03 0.  1.
         -6    1    1    2    0  502  0.60853667368E+02 -0.35188144945E+00  0.31865437239E+02  0.18520987755E+03  0.17200000000E+03 0.  1.
</event>
<event>
 4    1  0.1222208E+000  0.2002894E+03  0.7818608E-02  0.1149495E+00
         21   -1    0    0  501  502  0.00000000000E+00  0.00000000000E+00  0.72365588493E+02  0.72365588493E+02  0.00000000000E+00 0. -1.
         21   -1    0    0  502  503 -0.00000000000E+00 -0.00000000000E+00 -0.57562435639E+03  0.57562435639E+03  0.00000000000E+00 0. -1.
          6    1    1    2  501    0  0.19956944215E+02  0.10066566644E+03 -0.18934229589E+03  0.27561995761E+03  0.17200000000E+03 0. -1.
         -6    1    1    2    0  503 -0.19956944215E+02 -0.10066566644E+03 -0.31391647201E+03  0.37236998727E+03  0.17200000000E+03 0. -1.
</event>
<event>
 4    1  0.1222208E+000  0.2025615E+03  0.7818608E-02  0.1147596E+00
         21   -1    0    0  503  502  0.00000000000E+00  0.00000000000E+00  0.10598958995E+04  0.10598958995E+04  0.00000000000E+00 0.  1.
         21   -1    0    0  501  503 -0.00000000000E+00 -0.00000000000E+00 -0.44962600015E+03  0.44962600015E+03  0.00000000000E+00 0. -1.
          6    1    1    2  501    0  0.10576466299E+03 -0.16154958099E+02 -0.41640263021E+03  0.46305755264E+03  0.17200000000E+03 0. -1.
         -6    1    1    2    0  502 -0.10576466299E+03  0.16154958099E+02  0.10266725295E+04  0.10464643470E+04  0.17200000000E+03 0.  1.
</event>
<event>
 4    1  0.1222208E+000  0.2627197E+03  0.7818608E-02  0.1105520E+00
         21   -1    0    0  501  502  0.00000000000E+00  0.00000000000E+00  0.66252389449E+02  0.66252389449E+02  0.00000000000E+00 0. -1.
         21   -1    0    0  502  503 -0.00000000000E+00 -0.00000000000E+00 -0.15592667142E+04  0.15592667142E+04  0.00000000000E+00 0. -1.
          6    1    1    2  501    0 -0.19736949597E+03 -0.21975429215E+02 -0.27829387625E+03  0.38271284142E+03  0.17200000000E+03 0. -1.
         -6    1    1    2    0  503  0.19736949597E+03  0.21975429215E+02 -0.12147204485E+04  0.12428062622E+04  0.17200000000E+03 0. -1.
</event>
<event>
 4    1  0.1222208E+000  0.1753574E+03  0.7818608E-02  0.1172373E+00
         21   -1    0    0  503  502  0.00000000000E+00  0.00000000000E+00  0.49950018623E+03  0.49950018623E+03  0.00000000000E+00 0. -1.
         21   -1    0    0  501  503 -0.00000000000E+00 -0.00000000000E+00 -0.63013578477E+02  0.63013578477E+02  0.00000000000E+00 0. -1.
          6    1    1    2  501    0  0.32606267003E+02 -0.10151697600E+02  0.17555510807E+03  0.24813266932E+03  0.17200000000E+03 0. -1.
         -6    1    1    2    0  502 -0.32606267003E+02  0.10151697600E+02  0.26093149968E+03  0.31438109539E+03  0.17200000000E+03 0. -1.
</event>
<event>
 4    1  0.1222208E+000  0.2479508E+03  0.7818608E-02  0.1114607E+00
         21   -1    0    0  503  502  0.00000000000E+00  0.00000000000E+00  0.16023841461E+03  0.16023841461E+03  0.00000000000E+00 0.  1.
         21   -1    0    0  501  503 -0.00000000000E+00 -0.00000000000E+00 -0.38742029060E+03  0.38742029060E+03  0.00000000000E+00 0. -1.
          6    1    1    2  501    0  0.15905129210E+03 -0.81229744872E+02 -0.86669929562E+02  0.26266187706E+03  0.17200000000E+03 0.  1.
         -6    1    1    2    0  502 -0.15905129210E+03  0.81229744872E+02 -0.14051194642E+03  0.28499682815E+03  0.17200000000E+03 0. -1.
</event>
<event>
 4    1  0.1222208E+000  0.2654455E+03  0.7818608E-02  0.1103915E+00
         21   -1    0    0  503  502  0.00000000000E+00  0.00000000000E+00  0.97993994429E+03  0.97993994429E+03  0.00000000000E+00 0.  1.
         21   -1    0    0  501  503 -0.00000000000E+00 -0.00000000000E+00 -0.24717266619E+03  0.24717266619E+03  0.00000000000E+00 0. -1.
          6    1    1    2  501    0 -0.16612788793E+03  0.11523383944E+03 -0.15027858420E+03  0.30503272901E+03  0.17200000000E+03 0. -1.
         -6    1    1    2    0  502  0.16612788793E+03 -0.11523383944E+03  0.88304586230E+03  0.92207988147E+03  0.17200000000E+03 0.  1.
</event>
<event>
 4    1  0.1222208E+000  0.1974082E+03  0.7818608E-02  0.1151944E+00
         21   -1    0    0  503  502  0.00000000000E+00  0.00000000000E+00  0.10967179422E+03  0.10967179422E+03  0.00000000000E+00 0. -1.
         21   -1    0    0  501  503 -0.00000000000E+00 -0.00000000000E+00 -0.43343362861E+03  0.43343362861E+03  0.00000000000E+00 0. -1.
          6    1    1    2  501    0  0.28062420764E+02  0.92728068939E+02 -0.27715201965E+03  0.34026935834E+03  0.17200000000E+03 0. -1.
         -6    1    1    2    0  502 -0.28062420764E+02 -0.92728068939E+02 -0.46609814729E+02  0.20283606449E+03  0.17200000000E+03 0. -1.
</event>
<event>
 4    1  0.1222208E+000  0.1748373E+03  0.7818608E-02  0.1172895E+00
         21   -1    0    0  503  502  0.00000000000E+00  0.00000000000E+00  0.15252265705E+04  0.15252265705E+04  0.00000000000E+00 0.  1.
         21   -1    0    0  501  503 -0.00000000000E+00 -0.00000000000E+00 -0.21381815903E+02  0.21381815903E+02  0.00000000000E+00 0.  1.
          6    1    1    2  501    0  0.14643458728E+02  0.27742471171E+02  0.94552239355E+03  0.96155118027E+03  0.17200000000E+03 0.  1.
         -6    1    1    2    0  502 -0.14643458728E+02 -0.27742471171E+02  0.55832236100E+03  0.58505720608E+03  0.17200000000E+03 0.  1.
</event>
<event>
 4    1  0.1222208E+000  0.2259131E+03  0.7818608E-02  0.1129550E+00
         21   -1    0    0  503  502  0.00000000000E+00  0.00000000000E+00  0.16370058504E+03  0.16370058504E+03  0.00000000000E+00 0. -1.
         21   -1    0    0  501  503 -0.00000000000E+00 -0.00000000000E+00 -0.31496129980E+03  0.31496129980E+03  0.00000000000E+00 0. -1.
          6    1    1    2  501    0 -0.10259429616E+03 -0.10453304453E+03 -0.51535148967E+02  0.23171667740E+03  0.17200000000E+03 0. -1.
         -6    1    1    2    0  502  0.10259429616E+03  0.10453304453E+03 -0.99725565792E+02  0.24694520744E+03  0.17200000000E+03 0. -1.
</event>
<event>
 4    1  0.1222208E+000  0.2347210E+03  0.7818608E-02  0.1123360E+00
         21   -1    0    0  501  502  0.00000000000E+00  0.00000000000E+00  0.14179585012E+03  0.14179585012E+03  0.00000000000E+00 0.  1.
         21   -1    0    0  502  503 -0.00000000000E+00 -0.00000000000E+00 -0.44051949008E+03  0.44051949008E+03  0.00000000000E+00 0.  1.
          6    1    1    2  501    0  0.15638861372E+03  0.32442859414E+02 -0.24937210124E+03  0.34246223515E+03  0.17200000000E+03 0.  1.
         -6    1    1    2    0  503 -0.15638861372E+03 -0.32442859414E+02 -0.49351538717E+02  0.23985310505E+03  0.17200000000E+03 0.  1.
</event>
<event>
 4    1  0.1222208E+000  0.3179647E+03  0.7818608E-02  0.1076590E+00
         21   -1    0    0  501  502  0.00000000000E+00  0.00000000000E+00  0.20532653577E+03  0.20532653577E+03  0.00000000000E+00 0. -1.
         21   -1    0    0  502  503 -0.00000000000E+00 -0.00000000000E+00 -0.52066883437E+03  0.52066883437E+03  0.00000000000E+00 0.  1.
          6    1    1    2  501    0  0.19462597413E+03 -0.18340734193E+03 -0.24226217137E+03  0.39974051903E+03  0.17200000000E+03 0. -1.
         -6    1    1    2    0  503 -0.19462597413E+03  0.18340734193E+03 -0.73080127224E+02  0.32625485111E+03  0.17200000000E+03 0.  1.
</event>
<event>
 4    1  0.1222208E+000  0.2840120E+03  0.7818608E-02  0.1093518E+00
         21   -1    0    0  503  502  0.00000000000E+00  0.00000000000E+00  0.62286171768E+03  0.62286171768E+03  0.00000000000E+00 0. -1.
         21   -1    0    0  501  503 -0.00000000000E+00 -0.00000000000E+00 -0.18590076880E+03  0.18590076880E+03  0.00000000000E+00 0.  1.
          6    1    1    2  501    0 -0.14447778938E+02 -0.22554393419E+03 -0.42497978580E+01  0.28404377365E+03  0.17200000000E+03 0.  1.
         -6    1    1    2    0  502  0.14447778938E+02  0.22554393419E+03  0.44121074673E+03  0.52471871284E+03  0.17200000000E+03 0. -1.
</event>
<event>
 4    1  0.1222208E+000  0.1933404E+03  0.7818608E-02  0.1155483E+00
         21   -1    0    0  503  502  0.00000000000E+00  0.00000000000E+00  0.11661800751E+04  0.11661800751E+04  0.00000000000E+00 0. -1.
         21   -1    0    0  501  503 -0.00000000000E+00 -0.00000000000E+00 -0.89761990684E+02  0.89761990684E+02  0.00000000000E+00 0. -1.
          6    1    1    2  501    0  0.64779889656E+02  0.60000552011E+02  0.34694392820E+02  0.19642861614E+03  0.17200000000E+03 0. -1.
         -6    1    1    2    0  502 -0.64779889656E+02 -0.60000552011E+02  0.10417236916E+04  0.10595134497E+04  0.17200000000E+03 0. -1.
</event>
<event>
 4    1  0.1222208E+000  0.3022335E+03  0.7818608E-02  0.1084129E+00
         21   -1    0    0  501  502  0.00000000000E+00  0.00000000000E+00  0.65146125539E+03  0.65146125539E+03  0.00000000000E+00 0.  1.
         21   -1    0    0  502  503 -0.00000000000E+00 -0.00000000000E+00 -0.16998426477E+03  0.16998426477E+03  0.00000000000E+00 0.  1.
          6    1    1    2  501    0 -0.20658378731E+03 -0.13814566610E+03  0.41261775174E+03  0.51146700313E+03  0.17200000000E+03 0.  1.
         -6    1    1    2    0  503  0.20658378731E+03  0.13814566610E+03  0.68859238881E+02  0.30997851703E+03  0.17200000000E+03 0.  1.
</event>
<event>
 4    1  0.1222208E+000  0.2406718E+03  0.7818608E-02  0.1119346E+00
         21   -1    0    0  503  502  0.00000000000E+00  0.00000000000E+00  0.23135067178E+03  0.23135067178E+03  0.00000000000E+00 0.  1.
         21   -1    0    0  501  503 -0.00000000000E+00 -0.00000000000E+00 -0.26247666768E+03  0.26247666768E+03  0.00000000000E+00 0. -1.
          6    1    1    2  501    0 -0.16605612581E+03 -0.27645568824E+02 -0.68595178162E+02  0.25025629435E+03  0.17200000000E+03 0. -1.
         -6    1    1    2    0  502  0.16605612581E+03  0.27645568824E+02  0.37469182257E+02  0.24357104511E+03  0.17200000000E+03 0. -1.
</event>
<event>
 4    1  0.1222208E+000  0.1779497E+03  0.7818608E-02  0.1169802E+00
         21   -1    0    0  501  502  0.00000000000E+00  0.00000000000E+00  0.11331049931E+03  0.11331049931E+03  0.00000000000E+00 0. -1.
         21   -1    0    0  502  503 -0.00000000000E+00 -0.00000000000E+00 -0.50619641741E+03  0.50619641741E+03  0.00000000000E+00 0. -1.
          6    1    1    2  501    0  0.41534227762E+02  0.18894945775E+02  0.10864169834E+02  0.17828107369E+03  0.17200000000E+03 0. -1.
         -6    1    1    2    0  503 -0.41534227762E+02 -0.18894945775E+02 -0.40375008793E+03  0.44122584303E+03  0.17200000000E+03 0. -1.
</event>
<event>
 4    1  0.1222208E+000  0.2224846E+03  0.7818608E-02  0.1132044E+00
         21   -1    0    0  501  502  0.00000000000E+00  0.00000000000E+00  0.31716700403E+03  0.31716700403E+03  0.00000000000E+00 0.  1.
         21   -1    0    0  502  503 -0.00000000000E+00 -0.00000000000E+00 -0.15715072634E+03  0.15715072634E+03  0.00000000000E+00 0.  1.
          6    1    1    2  501    0 -0.28644600616E+02 -0.13818431028E+03  0.99699194106E+02  0.24380185819E+03  0.17200000000E+03 0.  1.
         -6    1    1    2    0  503  0.28644600616E+02  0.13818431028E+03  0.60317083585E+02  0.23051587217E+03  0.17200000000E+03 0.  1.
</event>
<event>
 4    1  0.1222208E+000  0.2162876E+03  0.7818608E-02  0.1136681E+00
         21   -1    0    0  501  502  0.00000000000E+00  0.00000000000E+00  0.68180593183E+03  0.68180593183E+03  0.00000000000E+00 0. -1.
         21   -1    0    0  502  503 -0.00000000000E+00 -0.00000000000E+00 -0.20899095410E+03  0.20899095410E+03  0.00000000000E+00 0. -1.
          6    1    1    2  501    0  0.12158056879E+03 -0.49137458467E+02  0.60144321469E+03  0.63915120670E+03  0.17200000000E+03 0. -1.
         -6    1    1    2    0  503 -0.12158056879E+03  0.49137458467E+02 -0.12862823696E+03  0.25164567923E+03  0.17200000000E+03 0. -1.
</event>
<event>
 4    1  0.1222208E+000  0.1871215E+03  0.7818608E-02  0.1161083E+00
         21   -1    0    0  501  502  0.00000000000E+00  0.00000000000E+00  0.51000195123E+03  0.51000195123E+03  0.00000000000E+00 0. -1.
         21   -1    0    0  502  503 -0.00000000000E+00 -0.00000000000E+00 -0.76208908780E+02  0.76208908780E+02  0.00000000000E+00 0. -1.
          6    1    1    2  501    0 -0.64250136005E+02  0.36088618178E+02  0.30917296120E+03  0.36138952430E+03  0.17200000000E+03 0.  1.
         -6    1    1    2    0  503  0.64250136005E+02 -0.36088618178E+02  0.12462008125E+03  0.22482133571E+03  0.17200000000E+03 0.  1.
</event>
<event>
 4    1  0.1222208E+000  0.2143983E+03  0.7818608E-02  0.1138130E+00
         21   -1    0    0  501  502  0.00000000000E+00  0.00000000000E+00  0.56401250910E+02  0.56401250910E+02  0.00000000000E+00 0. -1.
         21   -1    0    0  502  503 -0.00000000000E+00 -0.00000000000E+00 -0.10325697565E+04  0.10325697565E+04  0.00000000000E+00 0. -1.
          6    1    1    2  501    0  0.99494489916E+02  0.80519922065E+02 -0.23814578333E+03  0.32043724111E+03  0.17200000000E+03 0.  1.
         -6    1    1    2    0  503 -0.99494489916E+02 -0.80519922065E+02 -0.73802272231E+03  0.76853376635E+03  0.17200000000E+03 0.  1.
</event>
<event>
 4    1  0.1222208E+000  0.1912873E+03  0.7818608E-02  0.1157305E+00
         21   -1    0    0  501  502  0.00000000000E+00  0.00000000000E+00  0.45418290207E+02  0.45418290207E+02  0.00000000000E+00 0.  1.
         21   -1    0    0  502  503 -0.00000000000E+00 -0.00000000000E+00 -0.88209444984E+03  0.88209444984E+03  0.00000000000E+00 0.  1.
          6    1    1    2  501    0 -0.82535050035E+02  0.13956769915E+02 -0.28180698774E+03  0.34059654175E+03  0.17200000000E+03 0.  1.
         -6    1    1    2    0  503  0.82535050035E+02 -0.13956769915E+02 -0.55486917190E+03  0.58691619830E+03  0.17200000000E+03 0.  1.
</event>
<event>
 4    1  0.1222208E+000  0.2040286E+03  0.7818608E-02  0.1146384E+00
         21   -1    0    0  503  502  0.00000000000E+00  0.00000000000E+00  0.19462459555E+04  0.19462459555E+04  0.00000000000E+00 0. -1.
         21   -1    0    0  501  503 -0.00000000000E+00 -0.00000000000E+00 -0.21499915425E+02  0.21499915425E+02  0.00000000000E+00 0.  1.
          6    1    1    2  501    0  0.85830167983E+02 -0.68387478249E+02  0.89160954984E+03  0.91465581192E+03  0.17200000000E+03 0. -1.
         -6    1    1    2    0  502 -0.85830167983E+02  0.68387478249E+02  0.10331364903E+04  0.10530900590E+04  0.17200000000E+03 0.  1.
</event>
<event>
 4    1  0.1222208E+000  0.1953050E+03  0.7818608E-02  0.1153762E+00
         21   -1    0    0  503  502  0.00000000000E+00  0.00000000000E+00  0.19283161484E+03  0.19283161484E+03  0.00000000000E+00 0. -1.
         21   -1    0    0  501  503 -0.00000000000E+00 -0.00000000000E+00 -0.19781012640E+03  0.19781012640E+03  0.00000000000E+00 0. -1.
          6    1    1    2  501    0 -0.20970285299E+02  0.90112669008E+02 -0.24781096258E+01  0.19532072857E+03  0.17200000000E+03 0.  1.
         -6    1    1    2    0  502  0.20970285299E+02 -0.90112669008E+02 -0.25004019264E+01  0.19532101267E+03  0.17200000000E+03 0.  1.
</event>
<event>
 4    1  0.1222208E+000  0.1841449E+03  0.7818608E-02  0.1163851E+00
         21   -1    0    0  503  502  0.00000000000E+00  0.00000000000E+00  0.18340534024E+04  0.18340534024E+04  0.00000000000E+00 0. -1.
         21   -1    0    0  501  503 -0.00000000000E+00 -0.00000000000E+00 -0.18733098947E+02  0.18733098947E+02  0.00000000000E+00 0. -1.
          6    1    1    2  501    0  0.49514288120E+02 -0.43286038133E+02  0.80185661753E+03  0.82272922697E+03  0.17200000000E+03 0. -1.
         -6    1    1    2    0  502 -0.49514288120E+02  0.43286038133E+02  0.10134636859E+04  0.10300572744E+04  0.17200000000E+03 0. -1.
</event>
<event>
 4    1  0.1222208E+000  0.1977562E+03  0.7818608E-02  0.1151646E+00
         21   -1    0    0  503  502  0.00000000000E+00  0.00000000000E+00  0.18411989361E+03  0.18411989361E+03  0.00000000000E+00 0.  1.
         21   -1    0    0  501  503 -0.00000000000E+00 -0.00000000000E+00 -0.63132049344E+03  0.63132049344E+03  0.00000000000E+00 0.  1.
          6    1    1    2  501    0 -0.79628256052E+02  0.56416966915E+02 -0.55572545020E+03  0.58986295808E+03  0.17200000000E+03 0.  1.
         -6    1    1    2    0  502  0.79628256052E+02 -0.56416966915E+02  0.10852485036E+03  0.22557742898E+03  0.17200000000E+03 0.  1.
</event>
<event>
 4    1  0.1222208E+000  0.2994967E+03  0.7818608E-02  0.1085492E+00
         21   -1    0    0  503  502  0.00000000000E+00  0.00000000000E+00  0.96751186682E+02  0.96751186682E+02  0.00000000000E+00 0. -1.
         21   -1    0    0  501  503 -0.00000000000E+00 -0.00000000000E+00 -0.93389664979E+03  0.93389664979E+03  0.00000000000E+00 0.  1.
          6    1    1    2  501    0  0.64726839066E+02 -0.23648409273E+03 -0.37461948772E+03  0.47962282096E+03  0.17200000000E+03 0.  1.
         -6    1    1    2    0  502 -0.64726839066E+02  0.23648409273E+03 -0.46252597539E+03  0.55102501551E+03  0.17200000000E+03 0. -1.
</event>
<event>
 4    1  0.1222208E+000  0.2918301E+03  0.7818608E-02  0.1089397E+00
         21   -1    0    0  503  502  0.00000000000E+00  0.00000000000E+00  0.47869018596E+03  0.47869018596E+03  0.00000000000E+00 0.  1.
         21   -1    0    0  501  503 -0.00000000000E+00 -0.00000000000E+00 -0.20595563297E+03  0.20595563297E+03  0.00000000000E+00 0.  1.
          6    1    1    2  501    0 -0.23459586902E+03 -0.23358038319E+02  0.10049408514E+02  0.29200309986E+03  0.17200000000E+03 0.  1.
         -6    1    1    2    0  502  0.23459586902E+03  0.23358038319E+02  0.26268514447E+03  0.39264271907E+03  0.17200000000E+03 0.  1.
</event>
<event>
 4    1  0.1222208E+000  0.3429080E+03  0.7818608E-02  0.1065564E+00
         21   -1    0    0  501  502  0.00000000000E+00  0.00000000000E+00  0.95879734916E+03  0.95879734916E+03  0.00000000000E+00 0. -1.
         21   -1    0    0  502  503 -0.00000000000E+00 -0.00000000000E+00 -0.12786189792E+03  0.12786189792E+03  0.00000000000E+00 0. -1.
          6    1    1    2  501    0  0.97485010547E+02 -0.28017593096E+03  0.52528016814E+03  0.62729987615E+03  0.17200000000E+03 0. -1.
         -6    1    1    2    0  503 -0.97485010547E+02  0.28017593096E+03  0.30565528310E+03  0.45935937092E+03  0.17200000000E+03 0. -1.
</event>
<event>
 4    1  0.1222208E+000  0.1880511E+03  0.7818608E-02  0.1160231E+00
         21   -1    0    0  503  502  0.00000000000E+00  0.00000000000E+00  0.66640375985E+02  0.66640375985E+02  0.00000000000E+00 0.  1.
         21   -1    0    0  501  503 -0.00000000000E+00 -0.00000000000E+00 -0.65996442531E+03  0.65996442531E+03  0.00000000000E+00 0.  1.
          6    1    1    2  501    0  0.14411677059E+02 -0.74642623625E+02 -0.45747416685E+03  0.49461685276E+03  0.17200000000E+03 0.  1.
         -6    1    1    2    0  502 -0.14411677059E+02  0.74642623625E+02 -0.13584988247E+03  0.23198794853E+03  0.17200000000E+03 0.  1.
</event>
<event>
 4    1  0.1222208E+000  0.1870153E+03  0.7818608E-02  0.1161181E+00
         21   -1    0    0  503  502  0.00000000000E+00  0.00000000000E+00  0.23222933857E+03  0.23222933857E+03  0.00000000000E+00 0.  1.
         21   -1    0    0  501  503 -0.00000000000E+00 -0.00000000000E+00 -0.18825687296E+03  0.18825687296E+03  0.00000000000E+00 0. -1.
          6    1    1    2  501    0 -0.35199318754E+02 -0.64433980058E+02 -0.72038877161E+02  0.20041040305E+03  0.17200000000E+03 0. -1.
         -6    1    1    2    0  502  0.35199318754E+02  0.64433980058E+02  0.11601134277E+03  0.22007580848E+03  0.17200000000E+03 0.  1.
</event>
<event>
 4    1  0.1222208E+000  0.2406846E+03  0.7818608E-02  0.1119338E+00
         21   -1    0    0  501  502  0.00000000000E+00  0.00000000000E+00  0.52101933409E+02  0.52101933409E+02  0.00000000000E+00 0.  1.
         21   -1    0    0  502  503 -0.00000000000E+00 -0.00000000000E+00 -0.14035340216E+04  0.14035340216E+04  0.00000000000E+00 0.  1.
          6    1    1    2  501    0  0.12000872182E+03 -0.11808036416E+03 -0.34391761419E+03  0.41977183214E+03  0.17200000000E+03 0.  1.
         -6    1    1    2    0  503 -0.12000872182E+03  0.11808036416E+03 -0.10075144740E+04  0.10358641228E+04  0.17200000000E+03 0.  1.
</event>
<event>
 4    1  0.1222208E+000  0.3202451E+03  0.7818608E-02  0.1075537E+00
         21   -1    0    0  501  502  0.00000000000E+00  0.00000000000E+00  0.20086762122E+03  0.20086762122E+03  0.00000000000E+00 0.  1.
         21   -1    0    0  502  503 -0.00000000000E+00 -0.00000000000E+00 -0.51430340946E+03  0.51430340946E+03  0.00000000000E+00 0.  1.
          6    1    1    2  501    0 -0.24069599363E+03  0.12263097793E+03 -0.12625007641E+03  0.34423247942E+03  0.17200000000E+03 0.  1.
         -6    1    1    2    0  503  0.24069599363E+03 -0.12263097793E+03 -0.18718571183E+03  0.37093855126E+03  0.17200000000E+03 0.  1.
</event>
<event>
 4    1  0.1222208E+000  0.1948506E+03  0.7818608E-02  0.1154158E+00
         21   -1    0    0  501  502  0.00000000000E+00  0.00000000000E+00  0.15308850715E+03  0.15308850715E+03  0.00000000000E+00 0.  1.
         21   -1    0    0  502  503 -0.00000000000E+00 -0.00000000000E+00 -0.31492118499E+03  0.31492118499E+03  0.00000000000E+00 0. -1.
          6    1    1    2  501    0  0.91549386881E+02  0.12070973273E+01  0.26950715386E+02  0.19670558808E+03  0.17200000000E+03 0.  1.
         -6    1    1    2    0  503 -0.91549386881E+02 -0.12070973273E+01 -0.18878339323E+03  0.27130410406E+03  0.17200000000E+03 0. -1.
</event>
<event>
 4    1  0.1222208E+000  0.2621791E+03  0.7818608E-02  0.1105841E+00
         21   -1    0    0  503  502  0.00000000000E+00  0.00000000000E+00  0.13580969345E+03  0.13580969345E+03  0.00000000000E+00 0. -1.
         21   -1    0    0  501  503 -0.00000000000E+00 -0.00000000000E+00 -0.52335877626E+03  0.52335877626E+03  0.00000000000E+00 0.  1.
          6    1    1    2  501    0  0.18339588915E+03  0.74295390367E+02 -0.25356718525E+03  0.36473850170E+03  0.17200000000E+03 0.  1.
         -6    1    1    2    0  502 -0.18339588915E+03 -0.74295390367E+02 -0.13398189756E+03  0.29442996801E+03  0.17200000000E+03 0. -1.
</event>
<event>
 4    1  0.1222208E+000  0.1765936E+03  0.7818608E-02  0.1171141E+00
         21   -1    0    0  501  502  0.00000000000E+00  0.00000000000E+00  0.12394449150E+03  0.12394449150E+03  0.00000000000E+00 0.  1.
         21   -1    0    0  502  503 -0.00000000000E+00 -0.00000000000E+00 -0.46342225632E+03  0.46342225632E+03  0.00000000000E+00 0.  1.
          6    1    1    2  501    0  0.32226831723E+02  0.23722058867E+02  0.28810943409E+02  0.17892840809E+03  0.17200000000E+03 0.  1.
         -6    1    1    2    0  503 -0.32226831723E+02 -0.23722058867E+02 -0.36828870823E+03  0.40843833974E+03  0.17200000000E+03 0.  1.
</event>
<event>
 4    1  0.1222208E+000  0.1794244E+03  0.7818608E-02  0.1168361E+00
         21   -1    0    0  503  502  0.00000000000E+00  0.00000000000E+00  0.44424770291E+03  0.44424770291E+03  0.00000000000E+00 0. -1.
         21   -1    0    0  501  503 -0.00000000000E+00 -0.00000000000E+00 -0.24731726651E+03  0.24731726651E+03  0.00000000000E+00 0. -1.
          6    1    1    2  501    0  0.46983789469E+02  0.20041202328E+02 -0.19227787196E+03  0.26299031600E+03  0.17200000000E+03 0. -1.
         -6    1    1    2    0  502 -0.46983789469E+02 -0.20041202328E+02  0.38920830835E+03  0.42857465342E+03  0.17200000000E+03 0. -1.
</event>
<event>
 4    1  0.1222208E+000  0.2750400E+03  0.7818608E-02  0.1098429E+00
         21   -1    0    0  501  502  0.00000000000E+00  0.00000000000E+00  0.22413000393E+03  0.22413000393E+03  0.00000000000E+00 0.  1.
         21   -1    0    0  502  503 -0.00000000000E+00 -0.00000000000E+00 -0.35148906020E+03  0.35148906020E+03  0.00000000000E+00 0. -1.
          6    1    1    2  501    0 -0.15226800828E+03 -0.15125298344E+03 -0.62908389411E+01  0.27511195175E+03  0.17200000000E+03 0. -1.
         -6    1    1    2    0  503  0.15226800828E+03  0.15125298344E+03 -0.12106821732E+03  0.30050711238E+03  0.17200000000E+03 0. -1.
</event>
<event>
 4    1  0.1222208E+000  0.2013059E+03  0.7818608E-02  0.1148642E+00
         21   -1    0    0  501  502  0.00000000000E+00  0.00000000000E+00  0.28584311316E+02  0.28584311316E+02  0.00000000000E+00 0. -1.
         21   -1    0    0  502  503 -0.00000000000E+00 -0.00000000000E+00 -0.16475466747E+04  0.16475466747E+04  0.00000000000E+00 0.  1.
          6    1    1    2  501    0  0.61476339088E+02  0.84621132516E+02 -0.49645910884E+03  0.53571981771E+03  0.17200000000E+03 0.  1.
         -6    1    1    2    0  503 -0.61476339088E+02 -0.84621132516E+02 -0.11225032546E+04  0.11404111683E+04  0.17200000000E+03 0. -1.
</event>
<event>
 4    1  0.1222208E+000  0.1861862E+03  0.7818608E-02  0.1161947E+00
         21   -1    0    0  501  502  0.00000000000E+00  0.00000000000E+00  0.58048395603E+03  0.58048395603E+03  0.00000000000E+00 0.  1.
         21   -1    0    0  502  503 -0.00000000000E+00 -0.00000000000E+00 -0.21985535396E+03  0.21985535396E+03  0.00000000000E+00 0.  1.
          6    1    1    2  501    0 -0.52668203631E+02  0.48035040268E+02  0.52183893790E+03  0.55405882529E+03  0.17200000000E+03 0. -1.
         -6    1    1    2    0  503  0.52668203631E+02 -0.48035040268E+02 -0.16121033583E+03  0.24628048471E+03  0.17200000000E+03 0. -1.
</event>
<event>
 4    1  0.1222208E+000  0.1871567E+03  0.7818608E-02  0.1161051E+00
         21   -1    0    0  501  502  0.00000000000E+00  0.00000000000E+00  0.26688247572E+02  0.26688247572E+02  0.00000000000E+00 0.  1.
         21   -1    0    0  502  503 -0.00000000000E+00 -0.00000000000E+00 -0.14283402988E+04  0.14283402988E+04  0.00000000000E+00 0.  1.
          6    1    1    2  501    0  0.63195138034E+02  0.38079174351E+02 -0.49361971386E+03  0.52790915024E+03  0.17200000000E+03 0.  1.
         -6    1    1    2    0  503 -0.63195138034E+02 -0.38079174351E+02 -0.90803233741E+03  0.92711939618E+03  0.17200000000E+03 0.  1.
</event>
<event>
 4    1  0.1222208E+000  0.1760216E+03  0.7818608E-02  0.1171710E+00
         21   -1    0    0  503  502  0.00000000000E+00  0.00000000000E+00  0.47957967872E+03  0.47957967872E+03  0.00000000000E+00 0. -1.
         21   -1    0    0  501  503 -0.00000000000E+00 -0.00000000000E+00 -0.66538587310E+02  0.66538587310E+02  0.00000000000E+00 0. -1.
          6    1    1    2  501    0 -0.94007399764E+01  0.36210977435E+02  0.15998158945E+03  0.23786071084E+03  0.17200000000E+03 0.  1.
         -6    1    1    2    0  502  0.94007399764E+01 -0.36210977435E+02  0.25305950196E+03  0.30825755519E+03  0.17200000000E+03 0.  1.
</event>
<event>
 4    1  0.1222208E+000  0.1765768E+03  0.7818608E-02  0.1171158E+00
         21   -1    0    0  501  502  0.00000000000E+00  0.00000000000E+00  0.14809187112E+04  0.14809187112E+04  0.00000000000E+00 0. -1.
         21   -1    0    0  502  503 -0.00000000000E+00 -0.00000000000E+00 -0.65090138706E+02  0.65090138706E+02  0.00000000000E+00 0. -1.
          6    1    1    2  501    0 -0.31867932266E+02  0.24079333592E+02  0.13437261216E+04  0.13552782995E+04  0.17200000000E+03 0. -1.
         -6    1    1    2    0  503  0.31867932266E+02 -0.24079333592E+02  0.72102450920E+02  0.19073055036E+03  0.17200000000E+03 0. -1.
</event>
<event>
 4    1  0.1222208E+000  0.2673776E+03  0.7818608E-02  0.1102790E+00
         21   -1    0    0  503  502  0.00000000000E+00  0.00000000000E+00  0.47449747508E+02  0.47449747508E+02  0.00000000000E+00 0.  1.
         21   -1    0    0  501  503 -0.00000000000E+00 -0.00000000000E+00 -0.15316290783E+04  0.15316290783E+04  0.00000000000E+00 0.  1.
          6    1    1    2  501    0  0.20452745861E+03 -0.86770333971E+01 -0.84289265305E+03  0.88428434160E+03  0.17200000000E+03 0. -1.
         -6    1    1    2    0  502 -0.20452745861E+03  0.86770333971E+01 -0.64128667773E+03  0.69479448419E+03  0.17200000000E+03 0. -1.
</event>
<event>
 4    1  0.1222208E+000  0.1925677E+03  0.7818608E-02  0.1156166E+00
         21   -1    0    0  503  502  0.00000000000E+00  0.00000000000E+00  0.40813181382E+03  0.40813181382E+03  0.00000000000E+00 0.  1.
         21   -1    0    0  501  503 -0.00000000000E+00 -0.00000000000E+00 -0.33138615636E+03  0.33138615636E+03  0.00000000000E+00 0. -1.
          6    1    1    2  501    0 -0.72299639322E+02 -0.47655821960E+02 -0.27664411114E+03  0.33706717349E+03  0.17200000000E+03 0. -1.
         -6    1    1    2    0  502  0.72299639322E+02  0.47655821960E+02  0.35338976860E+03  0.40245079670E+03  0.17200000000E+03 0.  1.
</event>
<event>
 4    1  0.1222208E+000  0.2437547E+03  0.7818608E-02  0.1117317E+00
         21   -1    0    0  503  502  0.00000000000E+00  0.00000000000E+00  0.99179759346E+03  0.99179759346E+03  0.00000000000E+00 0. -1.
         21   -1    0    0  501  503 -0.00000000000E+00 -0.00000000000E+00 -0.64221492006E+02  0.64221492006E+02  0.00000000000E+00 0. -1.
          6    1    1    2  501    0 -0.64415409174E+02  0.16025914595E+03  0.32694276158E+03  0.40780866611E+03  0.17200000000E+03 0. -1.
         -6    1    1    2    0  502  0.64415409174E+02 -0.16025914595E+03  0.60063333988E+03  0.64821041936E+03  0.17200000000E+03 0. -1.
</event>
<event>
 4    1  0.1222208E+000  0.2314673E+03  0.7818608E-02  0.1125611E+00
         21   -1    0    0  501  502  0.00000000000E+00  0.00000000000E+00  0.24317810503E+02  0.24317810503E+02  0.00000000000E+00 0.  1.
         21   -1    0    0  502  503 -0.00000000000E+00 -0.00000000000E+00 -0.22709011344E+04  0.22709011344E+04  0.00000000000E+00 0. -1.
          6    1    1    2  501    0  0.13280521269E+03  0.79723723695E+02 -0.13214353535E+04  0.13415545051E+04  0.17200000000E+03 0. -1.
         -6    1    1    2    0  503 -0.13280521269E+03 -0.79723723695E+02 -0.92514797038E+03  0.95366443980E+03  0.17200000000E+03 0.  1.
</event>
<event>
 4    1  0.1222208E+000  0.2106802E+03  0.7818608E-02  0.1141028E+00
         21   -1    0    0  503  502  0.00000000000E+00  0.00000000000E+00  0.39763114380E+02  0.39763114380E+02  0.00000000000E+00 0.  1.
         21   -1    0    0  501  503 -0.00000000000E+00 -0.00000000000E+00 -0.12422498844E+04  0.12422498844E+04  0.00000000000E+00 0.  1.
          6    1    1    2  501    0 -0.12158737406E+03  0.43195396533E+01 -0.80537875097E+03  0.83247887689E+03  0.17200000000E+03 0.  1.
         -6    1    1    2    0  502  0.12158737406E+03 -0.43195396533E+01 -0.39710801909E+03  0.44953412193E+03  0.17200000000E+03 0.  1.
</event>
<event>
 4    1  0.1222208E+000  0.2021009E+03  0.7818608E-02  0.1147978E+00
         21   -1    0    0  501  502  0.00000000000E+00  0.00000000000E+00  0.40611488557E+03  0.40611488557E+03  0.00000000000E+00 0.  1.
         21   -1    0    0  502  503 -0.00000000000E+00 -0.00000000000E+00 -0.14795141307E+03  0.14795141307E+03  0.00000000000E+00 0.  1.
          6    1    1    2  501    0 -0.10196962152E+03  0.29376418717E+02  0.28584916305E+03  0.35007787949E+03  0.17200000000E+03 0.  1.
         -6    1    1    2    0  503  0.10196962152E+03 -0.29376418717E+02 -0.27685690554E+02  0.20398841916E+03  0.17200000000E+03 0.  1.
</event>
<event>
 4    1  0.1222208E+000  0.1822469E+03  0.7818608E-02  0.1165646E+00
         21   -1    0    0  501  502  0.00000000000E+00  0.00000000000E+00  0.21461756055E+03  0.21461756055E+03  0.00000000000E+00 0. -1.
         21   -1    0    0  502  503 -0.00000000000E+00 -0.00000000000E+00 -0.29729817478E+03  0.29729817478E+03  0.00000000000E+00 0. -1.
          6    1    1    2  501    0 -0.43402226796E+01  0.60092494770E+02  0.13589076414E+03  0.22733289520E+03  0.17200000000E+03 0. -1.
         -6    1    1    2    0  503  0.43402226796E+01 -0.60092494770E+02 -0.21857137836E+03  0.28458284013E+03  0.17200000000E+03 0. -1.
</event>
<event>
 4    1  0.1222208E+000  0.1840940E+03  0.7818608E-02  0.1163899E+00
         21   -1    0    0  501  502  0.00000000000E+00  0.00000000000E+00  0.73646637184E+02  0.73646637184E+02  0.00000000000E+00 0.  1.
         21   -1    0    0  502  503 -0.00000000000E+00 -0.00000000000E+00 -0.47998536561E+03  0.47998536561E+03  0.00000000000E+00 0.  1.
          6    1    1    2  501    0 -0.65420870745E+02  0.51697845326E+01 -0.14693751122E+03  0.23554458008E+03  0.17200000000E+03 0. -1.
         -6    1    1    2    0  503  0.65420870745E+02 -0.51697845326E+01 -0.25940121720E+03  0.31808742271E+03  0.17200000000E+03 0. -1.
</event>
<event>
 4    1  0.1222208E+000  0.1766628E+03  0.7818608E-02  0.1171072E+00
         21   -1    0    0  501  502  0.00000000000E+00  0.00000000000E+00  0.66135620611E+02  0.66135620611E+02  0.00000000000E+00 0. -1.
         21   -1    0    0  502  503 -0.00000000000E+00 -0.00000000000E+00 -0.53071008687E+03  0.53071008687E+03  0.00000000000E+00 0. -1.
          6    1    1    2  501    0  0.14780129058E+02  0.37514012616E+02 -0.13295057297E+03  0.22110090052E+03  0.17200000000E+03 0.  1.
         -6    1    1    2    0  503 -0.14780129058E+02 -0.37514012616E+02 -0.33162389329E+03  0.37574480697E+03  0.17200000000E+03 0.  1.
</event>
<event>
 4    1  0.1222208E+000  0.2367592E+03  0.7818608E-02  0.1121971E+00
         21   -1    0    0  501  502  0.00000000000E+00  0.00000000000E+00  0.62946000748E+02  0.62946000748E+02  0.00000000000E+00 0. -1.
         21   -1    0    0  502  503 -0.00000000000E+00 -0.00000000000E+00 -0.10758535638E+04  0.10758535638E+04  0.00000000000E+00 0. -1.
          6    1    1    2  501    0 -0.15559768063E+03  0.47542460396E+02 -0.27012692487E+03  0.35919838432E+03  0.17200000000E+03 0. -1.
         -6    1    1    2    0  503  0.15559768063E+03 -0.47542460396E+02 -0.74278063817E+03  0.77960118021E+03  0.17200000000E+03 0. -1.
</event>
<event>
 4    1  0.1222208E+000  0.3070774E+03  0.7818608E-02  0.1081755E+00
         21   -1    0    0  503  502  0.00000000000E+00  0.00000000000E+00  0.10349868163E+04  0.10349868163E+04  0.00000000000E+00 0. -1.
         21   -1    0    0  501  503 -0.00000000000E+00 -0.00000000000E+00 -0.91273836232E+02  0.91273836232E+02  0.00000000000E+00 0.  1.
          6    1    1    2  501    0 -0.18014659388E+03 -0.17960988239E+03  0.44791779786E+03  0.54307168843E+03  0.17200000000E+03 0. -1.
         -6    1    1    2    0  502  0.18014659388E+03  0.17960988239E+03  0.49579518218E+03  0.58318896407E+03  0.17200000000E+03 0. -1.
</event>
<event>
 4    1  0.1222208E+000  0.2169029E+03  0.7818608E-02  0.1136213E+00
         21   -1    0    0  501  502  0.00000000000E+00  0.00000000000E+00  0.38987903437E+03  0.38987903437E+03  0.00000000000E+00 0.  1.
         21   -1    0    0  502  503 -0.00000000000E+00 -0.00000000000E+00 -0.14023625100E+03  0.14023625100E+03  0.00000000000E+00 0.  1.
          6    1    1    2  501    0  0.58522178970E+02  0.11848221861E+03  0.22382679889E+03  0.31168143586E+03  0.17200000000E+03 0.  1.
         -6    1    1    2    0  503 -0.58522178970E+02 -0.11848221861E+03  0.25815984485E+02  0.21843384951E+03  0.17200000000E+03 0.  1.
</event>
<event>
 4    1  0.1222208E+000  0.2093437E+03  0.7818608E-02  0.1142087E+00
         21   -1    0    0  503  502  0.00000000000E+00  0.00000000000E+00  0.47508997665E+02  0.47508997665E+02  0.00000000000E+00 0. -1.
         21   -1    0    0  501  503 -0.00000000000E+00 -0.00000000000E+00 -0.11401542326E+04  0.11401542326E+04  0.00000000000E+00 0.  1.
          6    1    1    2  501    0 -0.39088738730E+02 -0.11275129972E+03 -0.28683739119E+03  0.35510628560E+03  0.17200000000E+03 0.  1.
         -6    1    1    2    0  502  0.39088738730E+02  0.11275129972E+03 -0.80580784376E+03  0.83255694469E+03  0.17200000000E+03 0.  1.
</event>
<event>
 4    1  0.1222208E+000  0.2041822E+03  0.7818608E-02  0.1146258E+00
         21   -1    0    0  503  502  0.00000000000E+00  0.00000000000E+00  0.65504683642E+02  0.65504683642E+02  0.00000000000E+00 0.  1.
         21   -1    0    0  501  503 -0.00000000000E+00 -0.00000000000E+00 -0.68492837636E+03  0.68492837636E+03  0.00000000000E+00 0.  1.
          6    1    1    2  501    0  0.28827929889E+02  0.10618529970E+03 -0.40953688042E+03  0.45761427408E+03  0.17200000000E+03 0. -1.
         -6    1    1    2    0  502 -0.28827929889E+02 -0.10618529970E+03 -0.20988681230E+03  0.29281878592E+03  0.17200000000E+03 0. -1.
</event>
<event>
 4    1  0.1222208E+000  0.1741093E+03  0.7818608E-02  0.1173629E+00
         21   -1    0    0  503  502  0.00000000000E+00  0.00000000000E+00  0.42703042468E+02  0.42703042468E+02  0.00000000000E+00 0.  1.
         21   -1    0    0  501  503 -0.00000000000E+00 -0.00000000000E+00 -0.72274706351E+03  0.72274706351E+03  0.00000000000E+00 0.  1.
          6    1    1    2  501    0 -0.23192036408E+02  0.13862361149E+02 -0.28895581349E+03  0.33735663290E+03  0.17200000000E+03 0.  1.
         -6    1    1    2    0  502  0.23192036408E+02 -0.13862361149E+02 -0.39108820755E+03  0.42809347308E+03  0.17200000000E+03 0.  1.
</event>
<event>
 4    1  0.1222208E+000  0.2126432E+03  0.7818608E-02  0.1139490E+00
         21   -1    0    0  501  502  0.00000000000E+00  0.00000000000E+00  0.18516071203E+03  0.18516071203E+03  0.00000000000E+00 0.  1.
         21   -1    0    0  502  503 -0.00000000000E+00 -0.00000000000E+00 -0.33472129328E+03  0.33472129328E+03  0.00000000000E+00 0. -1.
          6    1    1    2  501    0 -0.11942035138E+03 -0.37039169479E+02  0.60394954007E+02  0.22105354751E+03  0.17200000000E+03 0.  1.
         -6    1    1    2    0  503  0.11942035138E+03  0.37039169479E+02 -0.20995553526E+03  0.29882845779E+03  0.17200000000E+03 0. -1.
</event>
<event>
 4    1  0.1222208E+000  0.1830216E+03  0.7818608E-02  0.1164910E+00
         21   -1    0    0  503  502  0.00000000000E+00  0.00000000000E+00  0.13218505385E+03  0.13218505385E+03  0.00000000000E+00 0. -1.
         21   -1    0    0  501  503 -0.00000000000E+00 -0.00000000000E+00 -0.25386639473E+03  0.25386639473E+03  0.00000000000E+00 0. -1.
          6    1    1    2  501    0  0.16857496346E+02 -0.60239020326E+02 -0.69031758788E+02  0.19560751129E+03  0.17200000000E+03 0.  1.
         -6    1    1    2    0  502 -0.16857496346E+02  0.60239020326E+02 -0.52649582094E+02  0.19044393728E+03  0.17200000000E+03 0.  1.
</event>
<event>
 4    1  0.1222208E+000  0.2182247E+03  0.7818608E-02  0.1135214E+00
         21   -1    0    0  501  502  0.00000000000E+00  0.00000000000E+00  0.35788894521E+03  0.35788894521E+03  0.00000000000E+00 0. -1.
         21   -1    0    0  502  503 -0.00000000000E+00 -0.00000000000E+00 -0.15028306694E+03  0.15028306694E+03  0.00000000000E+00 0. -1.
          6    1    1    2  501    0 -0.82732199326E+01  0.13405068369E+03  0.18981000777E+03  0.28922287429E+03  0.17200000000E+03 0. -1.
         -6    1    1    2    0  503  0.82732199326E+01 -0.13405068369E+03  0.17795870500E+02  0.21894913786E+03  0.17200000000E+03 0. -1.
</event>
<event>
 4    1  0.1222208E+000  0.1734181E+03  0.7818608E-02  0.1174329E+00
         21   -1    0    0  501  502  0.00000000000E+00  0.00000000000E+00  0.21750067678E+03  0.21750067678E+03  0.00000000000E+00 0.  1.
         21   -1    0    0  502  503 -0.00000000000E+00 -0.00000000000E+00 -0.29857841603E+03  0.29857841603E+03  0.00000000000E+00 0.  1.
          6    1    1    2  501    0 -0.14182857525E+02  0.16990938520E+02  0.14853654399E+03  0.22833517106E+03  0.17200000000E+03 0.  1.
         -6    1    1    2    0  503  0.14182857525E+02 -0.16990938520E+02 -0.22961428324E+03  0.28774392176E+03  0.17200000000E+03 0.  1.
</event>
<event>
 4    1  0.1222208E+000  0.1967422E+03  0.7818608E-02  0.1152517E+00
         21   -1    0    0  503  502  0.00000000000E+00  0.00000000000E+00  0.55631519196E+02  0.55631519196E+02  0.00000000000E+00 0.  1.
         21   -1    0    0  501  503 -0.00000000000E+00 -0.00000000000E+00 -0.12119084900E+04  0.12119084900E+04  0.00000000000E+00 0.  1.
          6    1    1    2  501    0  0.10485308387E+02 -0.94939691109E+02 -0.99173251386E+03  0.10110592790E+04  0.17200000000E+03 0.  1.
         -6    1    1    2    0  502 -0.10485308387E+02  0.94939691109E+02 -0.16454445693E+03  0.25648073017E+03  0.17200000000E+03 0.  1.
</event>
<event>
 4    1  0.1222208E+000  0.1875527E+03  0.7818608E-02  0.1160687E+00
         21   -1    0    0  503  502  0.00000000000E+00  0.00000000000E+00  0.12489365580E+03  0.12489365580E+03  0.00000000000E+00 0.  1.
         21   -1    0    0  501  503 -0.00000000000E+00 -0.00000000000E+00 -0.60712529558E+03  0.60712529558E+03  0.00000000000E+00 0. -1.
          6    1    1    2  501    0 -0.17231671771E+01 -0.74759838132E+02 -0.50910283928E+03  0.54255110697E+03  0.17200000000E+03 0. -1.
         -6    1    1    2    0  502  0.17231671771E+01  0.74759838132E+02  0.26871199501E+02  0.18946784441E+03  0.17200000000E+03 0.  1.
</event>
<event>
 4    1  0.1222208E+000  0.2568145E+03  0.7818608E-02  0.1109072E+00
         21   -1    0    0  503  502  0.00000000000E+00  0.00000000000E+00  0.12584183035E+04  0.12584183035E+04  0.00000000000E+00 0. -1.
         21   -1    0    0  501  503 -0.00000000000E+00 -0.00000000000E+00 -0.61800007809E+02  0.61800007809E+02  0.00000000000E+00 0. -1.
          6    1    1    2  501    0  0.58034736489E+02  0.18166365036E+03  0.85561774605E+03  0.89332829344E+03  0.17200000000E+03 0.  1.
         -6    1    1    2    0  502 -0.58034736489E+02 -0.18166365036E+03  0.34100054965E+03  0.42689001788E+03  0.17200000000E+03 0.  1.
</event>
<event>
 4    1  0.1222208E+000  0.1765613E+03  0.7818608E-02  0.1171173E+00
         21   -1    0    0  503  502  0.00000000000E+00  0.00000000000E+00  0.31434837110E+02  0.31434837110E+02  0.00000000000E+00 0.  1.
         21   -1    0    0  501  503 -0.00000000000E+00 -0.00000000000E+00 -0.99521377455E+03  0.99521377455E+03  0.00000000000E+00 0.  1.
          6    1    1    2  501    0  0.19359701630E+02  0.34858309378E+02 -0.45138412071E+03  0.48468703738E+03  0.17200000000E+03 0. -1.
         -6    1    1    2    0  502 -0.19359701630E+02 -0.34858309378E+02 -0.51239481673E+03  0.54196157428E+03  0.17200000000E+03 0. -1.
</event>
<event>
 4    1  0.1222208E+000  0.2439770E+03  0.7818608E-02  0.1117171E+00
         21   -1    0    0  503  502  0.00000000000E+00  0.00000000000E+00  0.23111529423E+03  0.23111529423E+03  0.00000000000E+00 0. -1.
         21   -1    0    0  501  503 -0.00000000000E+00 -0.00000000000E+00 -0.61259860769E+03  0.61259860769E+03  0.00000000000E+00 0.  1.
          6    1    1    2  501    0 -0.42691231362E+02  0.16768495653E+03 -0.51189936973E+03  0.56706767728E+03  0.17200000000E+03 0.  1.
         -6    1    1    2    0  502  0.42691231362E+02 -0.16768495653E+03  0.13041605627E+03  0.27664622465E+03  0.17200000000E+03 0. -1.
</event>
<event>
 4    1  0.1222208E+000  0.1967105E+03  0.7818608E-02  0.1152544E+00
         21   -1    0    0  503  502  0.00000000000E+00  0.00000000000E+00  0.28084753086E+03  0.28084753086E+03  0.00000000000E+00 0. -1.
         21   -1    0    0  501  503 -0.00000000000E+00 -0.00000000000E+00 -0.17176287755E+03  0.17176287755E+03  0.00000000000E+00 0. -1.
          6    1    1    2  501    0  0.82254285100E+02 -0.48427625635E+02  0.15520392946E+03  0.25056588368E+03  0.17200000000E+03 0. -1.
         -6    1    1    2    0  502 -0.82254285100E+02  0.48427625635E+02 -0.46119276154E+02  0.20204452473E+03  0.17200000000E+03 0. -1.
</event>
<event>
 4    1  0.1222208E+000  0.2157295E+03  0.7818608E-02  0.1137107E+00
         21   -1    0    0  503  502  0.00000000000E+00  0.00000000000E+00  0.36663808486E+03  0.36663808486E+03  0.00000000000E+00 0. -1.
         21   -1    0    0  501  503 -0.00000000000E+00 -0.00000000000E+00 -0.13480357032E+03  0.13480357032E+03  0.00000000000E+00 0. -1.
          6    1    1    2  501    0  0.12056746158E+03  0.49180517946E+02  0.55343388902E+02  0.22271534934E+03  0.17200000000E+03 0. -1.
         -6    1    1    2    0  502 -0.12056746158E+03 -0.49180517946E+02  0.17649112564E+03  0.27872630584E+03  0.17200000000E+03 0. -1.
</event>
<event>
 4    1  0.1222208E+000  0.2013332E+03  0.7818608E-02  0.1148619E+00
         21   -1    0    0  503  502  0.00000000000E+00  0.00000000000E+00  0.28098032797E+03  0.28098032797E+03  0.00000000000E+00 0. -1.
         21   -1    0    0  501  503 -0.00000000000E+00 -0.00000000000E+00 -0.17076663179E+03  0.17076663179E+03  0.00000000000E+00 0.  1.
          6    1    1    2  501    0 -0.78579408100E+02 -0.69110999802E+02  0.14409183956E+03  0.24758334334E+03  0.17200000000E+03 0. -1.
         -6    1    1    2    0  502  0.78579408100E+02  0.69110999802E+02 -0.33878143372E+02  0.20416361642E+03  0.17200000000E+03 0.  1.
</event>
<event>
 4    1  0.1222208E+000  0.2116561E+03  0.7818608E-02  0.1140261E+00
         21   -1    0    0  503  502  0.00000000000E+00  0.00000000000E+00  0.79340869799E+02  0.79340869799E+02  0.00000000000E+00 0. -1.
         21   -1    0    0  501  503 -0.00000000000E+00 -0.00000000000E+00 -0.71142602237E+03  0.71142602237E+03  0.00000000000E+00 0.  1.
          6    1    1    2  501    0 -0.12305680799E+03 -0.84446493876E+01 -0.49564398204E+03  0.53894456768E+03  0.17200000000E+03 0.  1.
         -6    1    1    2    0  502  0.12305680799E+03  0.84446493876E+01 -0.13644117053E+03  0.25182232449E+03  0.17200000000E+03 0. -1.
</event>
<event>
 4    1  0.1222208E+000  0.2032545E+03  0.7818608E-02  0.1147022E+00
         21   -1    0    0  503  502  0.00000000000E+00  0.00000000000E+00  0.19651781937E+03  0.19651781937E+03  0.00000000000E+00 0.  1.
         21   -1    0    0  501  503 -0.00000000000E+00 -0.00000000000E+00 -0.23036682174E+03  0.23036682174E+03  0.00000000000E+00 0. -1.
          6    1    1    2  501    0 -0.10491903365E+03  0.26840370929E+02 -0.80042043935E+02  0.21844710557E+03  0.17200000000E+03 0.  1.
         -6    1    1    2    0  502  0.10491903365E+03 -0.26840370929E+02  0.46193041564E+02  0.20843753554E+03  0.17200000000E+03 0. -1.
</event>
<event>
 4    1  0.1222208E+000  0.2048303E+03  0.7818608E-02  0.1145726E+00
         21   -1    0    0  501  502  0.00000000000E+00  0.00000000000E+00  0.95834053218E+03  0.95834053218E+03  0.00000000000E+00 0.  1.
         21   -1    0    0  502  503 -0.00000000000E+00 -0.00000000000E+00 -0.45247084421E+02  0.45247084421E+02  0.00000000000E+00 0. -1.
          6    1    1    2  501    0  0.25859537614E+02  0.10817925442E+03  0.36616870522E+03  0.41956523623E+03  0.17200000000E+03 0. -1.
         -6    1    1    2    0  503 -0.25859537614E+02 -0.10817925442E+03  0.54692474253E+03  0.58402238037E+03  0.17200000000E+03 0.  1.
</event>
<event>
 4    1  0.1222208E+000  0.1728947E+03  0.7818608E-02  0.1174862E+00
         21   -1    0    0  503  502  0.00000000000E+00  0.00000000000E+00  0.39406169920E+03  0.39406169920E+03  0.00000000000E+00 0. -1.
         21   -1    0    0  501  503 -0.00000000000E+00 -0.00000000000E+00 -0.14149424469E+03  0.14149424469E+03  0.00000000000E+00 0. -1.
          6    1    1    2  501    0 -0.79682285231E+01 -0.15655668332E+02 -0.56096812433E+02  0.18176755756E+03  0.17200000000E+03 0. -1.
         -6    1    1    2    0  502  0.79682285231E+01  0.15655668332E+02  0.30866426694E+03  0.35378838633E+03  0.17200000000E+03 0. -1.
</event>
<event>
 4    1  0.1222208E+000  0.2083373E+03  0.7818608E-02  0.1142890E+00
         21   -1    0    0  501  502  0.00000000000E+00  0.00000000000E+00  0.51330895070E+02  0.51330895070E+02  0.00000000000E+00 0.  1.
         21   -1    0    0  502  503 -0.00000000000E+00 -0.00000000000E+00 -0.84607023771E+03  0.84607023771E+03  0.00000000000E+00 0.  1.
          6    1    1    2  501    0  0.11681330397E+03  0.13231209326E+02 -0.40816305734E+03  0.45825919987E+03  0.17200000000E+03 0. -1.
         -6    1    1    2    0  503 -0.11681330397E+03 -0.13231209326E+02 -0.38657628530E+03  0.43914193291E+03  0.17200000000E+03 0. -1.
</event>
<event>
 4    1  0.1222208E+000  0.2188335E+03  0.7818608E-02  0.1134756E+00
         21   -1    0    0  501  502  0.00000000000E+00  0.00000000000E+00  0.16613646809E+03  0.16613646809E+03  0.00000000000E+00 0. -1.
         21   -1    0    0  502  503 -0.00000000000E+00 -0.00000000000E+00 -0.28826141186E+03  0.28826141186E+03  0.00000000000E+00 0. -1.
          6    1    1    2  501    0 -0.12856192067E+03  0.42142000865E+02 -0.59382908128E+02  0.22674753683E+03  0.17200000000E+03 0.  1.
         -6    1    1    2    0  503  0.12856192067E+03 -0.42142000865E+02 -0.62742035641E+02  0.22765034311E+03  0.17200000000E+03 0.  1.
</event>
<event>
 4    1  0.1222208E+000  0.2010737E+03  0.7818608E-02  0.1148836E+00
         21   -1    0    0  501  502  0.00000000000E+00  0.00000000000E+00  0.21993531681E+03  0.21993531681E+03  0.00000000000E+00 0. -1.
         21   -1    0    0  502  503 -0.00000000000E+00 -0.00000000000E+00 -0.22664086912E+03  0.22664086912E+03  0.00000000000E+00 0. -1.
          6    1    1    2  501    0  0.10347571811E+03 -0.11806297004E+02  0.93692789709E+02  0.22183090797E+03  0.17200000000E+03 0. -1.
         -6    1    1    2    0  503 -0.10347571811E+03  0.11806297004E+02 -0.10039834202E+03  0.22474527796E+03  0.17200000000E+03 0. -1.
</event>
<event>
 4    1  0.1222208E+000  0.3624714E+03  0.7818608E-02  0.1057610E+00
         21   -1    0    0  503  502  0.00000000000E+00  0.00000000000E+00  0.63341248064E+03  0.63341248064E+03  0.00000000000E+00 0.  1.
         21   -1    0    0  501  503 -0.00000000000E+00 -0.00000000000E+00 -0.29783389847E+03  0.29783389847E+03  0.00000000000E+00 0.  1.
          6    1    1    2  501    0 -0.28517264838E+02 -0.31778648450E+03 -0.88749772566E+02  0.37317824997E+03  0.17200000000E+03 0.  1.
         -6    1    1    2    0  502  0.28517264838E+02  0.31778648450E+03  0.42432835474E+03  0.55806812914E+03  0.17200000000E+03 0.  1.
</event>
<event>
 4    1  0.1222208E+000  0.1907251E+03  0.7818608E-02  0.1157809E+00
         21   -1    0    0  501  502  0.00000000000E+00  0.00000000000E+00  0.43614552582E+03  0.43614552582E+03  0.00000000000E+00 0.  1.
         21   -1    0    0  502  503 -0.00000000000E+00 -0.00000000000E+00 -0.87930376266E+02  0.87930376266E+02  0.00000000000E+00 0.  1.
          6    1    1    2  501    0  0.77748409710E+02  0.27335916591E+02  0.23356328629E+03  0.30154249494E+03  0.17200000000E+03 0.  1.
         -6    1    1    2    0  503 -0.77748409710E+02 -0.27335916591E+02  0.11465186326E+03  0.22253340715E+03  0.17200000000E+03 0.  1.
</event>
<event>
 4    1  0.1222208E+000  0.1744789E+03  0.7818608E-02  0.1173256E+00
         21   -1    0    0  503  502  0.00000000000E+00  0.00000000000E+00  0.72404254852E+02  0.72404254852E+02  0.00000000000E+00 0.  1.
         21   -1    0    0  501  503 -0.00000000000E+00 -0.00000000000E+00 -0.61973541655E+03  0.61973541655E+03  0.00000000000E+00 0.  1.
          6    1    1    2  501    0  0.29305810880E+02 -0.23463825092E+00 -0.46990695344E+03  0.50125385833E+03  0.17200000000E+03 0.  1.
         -6    1    1    2    0  502 -0.29305810880E+02  0.23463825092E+00 -0.77424208263E+02  0.19088581307E+03  0.17200000000E+03 0.  1.
</event>
<event>
 4    1  0.1222208E+000  0.2053369E+03  0.7818608E-02  0.1145313E+00
         21   -1    0    0  501  502  0.00000000000E+00  0.00000000000E+00  0.21558875316E+03  0.21558875316E+03  0.00000000000E+00 0. -1.
         21   -1    0    0  502  503 -0.00000000000E+00 -0.00000000000E+00 -0.25369358933E+03  0.25369358933E+03  0.00000000000E+00 0. -1.
          6    1    1    2  501    0  0.11046443722E+03  0.19412789259E+02 -0.13136180385E+03  0.24376048036E+03  0.17200000000E+03 0. -1.
         -6    1    1    2    0  503 -0.11046443722E+03 -0.19412789259E+02  0.93256967675E+02  0.22552186213E+03  0.17200000000E+03 0. -1.
</event>
<event>
 4    1  0.1222208E+000  0.1765668E+03  0.7818608E-02  0.1171168E+00
         21   -1    0    0  501  502  0.00000000000E+00  0.00000000000E+00  0.83728174986E+03  0.83728174986E+03  0.00000000000E+00 0. -1.
         21   -1    0    0  502  503 -0.00000000000E+00 -0.00000000000E+00 -0.37377084361E+02  0.37377084361E+02  0.00000000000E+00 0. -1.
          6    1    1    2  501    0  0.33501956119E+02 -0.21667240146E+02  0.42695401520E+03  0.46202335597E+03  0.17200000000E+03 0.  1.
         -6    1    1    2    0  503 -0.33501956119E+02  0.21667240146E+02  0.37295065029E+03  0.41263547825E+03  0.17200000000E+03 0.  1.
</event>
<event>
 4    1  0.1222208E+000  0.1997197E+03  0.7818608E-02  0.1149976E+00
         21   -1    0    0  501  502  0.00000000000E+00  0.00000000000E+00  0.31494456442E+02  0.31494456442E+02  0.00000000000E+00 0.  1.
         21   -1    0    0  502  503 -0.00000000000E+00 -0.00000000000E+00 -0.12813806404E+04  0.12813806404E+04  0.00000000000E+00 0.  1.
          6    1    1    2  501    0 -0.68528629619E+02 -0.74885116249E+02 -0.69566615172E+03  0.72376746843E+03  0.17200000000E+03 0. -1.
         -6    1    1    2    0  503  0.68528629619E+02  0.74885116249E+02 -0.55422003221E+03  0.58910762838E+03  0.17200000000E+03 0. -1.
</event>
<event>
 4    1  0.1222208E+000  0.1864739E+03  0.7818608E-02  0.1161681E+00
         21   -1    0    0  501  502  0.00000000000E+00  0.00000000000E+00  0.23163383327E+04  0.23163383327E+04  0.00000000000E+00 0. -1.
         21   -1    0    0  502  503 -0.00000000000E+00 -0.00000000000E+00 -0.61409405197E+02  0.61409405197E+02  0.00000000000E+00 0. -1.
          6    1    1    2  501    0  0.19459767807E+02  0.69353009705E+02  0.21608583475E+04  0.21688894210E+04  0.17200000000E+03 0. -1.
         -6    1    1    2    0  503 -0.19459767807E+02 -0.69353009705E+02  0.94070580000E+02  0.20885831690E+03  0.17200000000E+03 0. -1.
</event>
<event>
 4    1  0.1222208E+000  0.2037493E+03  0.7818608E-02  0.1146614E+00
         21   -1    0    0  501  502  0.00000000000E+00  0.00000000000E+00  0.34434352337E+03  0.34434352337E+03  0.00000000000E+00 0.  1.
         21   -1    0    0  502  503 -0.00000000000E+00 -0.00000000000E+00 -0.19199682349E+03  0.19199682349E+03  0.00000000000E+00 0. -1.
          6    1    1    2  501    0 -0.50729837524E+02  0.96727666314E+02  0.23975219716E+03  0.31463450842E+03  0.17200000000E+03 0.  1.
         -6    1    1    2    0  503  0.50729837524E+02 -0.96727666314E+02 -0.87405497278E+02  0.22170583844E+03  0.17200000000E+03 0. -1.
</event>
<event>
 4    1  0.1222208E+000  0.2666517E+03  0.7818608E-02  0.1103211E+00
         21   -1    0    0  503  502  0.00000000000E+00  0.00000000000E+00  0.87545815983E+03  0.87545815983E+03  0.00000000000E+00 0.  1.
         21   -1    0    0  501  503 -0.00000000000E+00 -0.00000000000E+00 -0.23767413374E+03  0.23767413374E+03  0.00000000000E+00 0. -1.
          6    1    1    2  501    0  0.20324073079E+03  0.14571194139E+02 -0.13267465825E+03  0.29783498668E+03  0.17200000000E+03 0. -1.
         -6    1    1    2    0  502 -0.20324073079E+03 -0.14571194139E+02  0.77045868434E+03  0.81529730689E+03  0.17200000000E+03 0.  1.
</event>
<event>
 4    1  0.1222208E+000  0.2771085E+03  0.7818608E-02  0.1097279E+00
         21   -1    0    0  501  502  0.00000000000E+00  0.00000000000E+00  0.42170434019E+03  0.42170434019E+03  0.00000000000E+00 0. -1.
         21   -1    0    0  502  503 -0.00000000000E+00 -0.00000000000E+00 -0.18481607630E+03  0.18481607630E+03  0.00000000000E+00 0.  1.
          6    1    1    2  501    0 -0.15630860554E+03 -0.15090641138E+03  0.15525948906E+03  0.31763915707E+03  0.17200000000E+03 0.  1.
         -6    1    1    2    0  503  0.15630860554E+03  0.15090641138E+03  0.81628774833E+02  0.28888125942E+03  0.17200000000E+03 0. -1.
</event>
<event>
 4    1  0.1222208E+000  0.1949749E+03  0.7818608E-02  0.1154049E+00
         21   -1    0    0  503  502  0.00000000000E+00  0.00000000000E+00  0.25727262702E+02  0.25727262702E+02  0.00000000000E+00 0. -1.
         21   -1    0    0  501  503 -0.00000000000E+00 -0.00000000000E+00 -0.16925669360E+04  0.16925669360E+04  0.00000000000E+00 0. -1.
          6    1    1    2  501    0 -0.90701992262E+02 -0.14295942273E+02 -0.52725450527E+03  0.56214992546E+03  0.17200000000E+03 0. -1.
         -6    1    1    2    0  502  0.90701992262E+02  0.14295942273E+02 -0.11395851680E+04  0.11561442732E+04  0.17200000000E+03 0. -1.
</event>
<event>
 4    1  0.1222208E+000  0.2311679E+03  0.7818608E-02  0.1125820E+00
         21   -1    0    0  501  502  0.00000000000E+00  0.00000000000E+00  0.24935211717E+03  0.24935211717E+03  0.00000000000E+00 0. -1.
         21   -1    0    0  502  503 -0.00000000000E+00 -0.00000000000E+00 -0.21563779748E+03  0.21563779748E+03  0.00000000000E+00 0.  1.
          6    1    1    2  501    0  0.84754180546E+02  0.12911756673E+03 -0.13876783959E+01  0.23117210647E+03  0.17200000000E+03 0. -1.
         -6    1    1    2    0  503 -0.84754180546E+02 -0.12911756673E+03  0.35101998084E+02  0.23381780819E+03  0.17200000000E+03 0.  1.
</event>
<event>
 4    1  0.1222208E+000  0.1797964E+03  0.7818608E-02  0.1168000E+00
         21   -1    0    0  501  502  0.00000000000E+00  0.00000000000E+00  0.15362976924E+03  0.15362976924E+03  0.00000000000E+00 0.  1.
         21   -1    0    0  502  503 -0.00000000000E+00 -0.00000000000E+00 -0.25991248827E+03  0.25991248827E+03  0.00000000000E+00 0.  1.
          6    1    1    2  501    0  0.24292284405E+02  0.46396475911E+02 -0.14337048927E+03  0.22996052977E+03  0.17200000000E+03 0.  1.
         -6    1    1    2    0  503 -0.24292284405E+02 -0.46396475911E+02  0.37087770242E+02  0.18358172774E+03  0.17200000000E+03 0.  1.
</event>
<event>
 4    1  0.1222208E+000  0.1797840E+03  0.7818608E-02  0.1168012E+00
         21   -1    0    0  503  502  0.00000000000E+00  0.00000000000E+00  0.16372588567E+03  0.16372588567E+03  0.00000000000E+00 0. -1.
         21   -1    0    0  501  503 -0.00000000000E+00 -0.00000000000E+00 -0.19924761098E+03  0.19924761098E+03  0.00000000000E+00 0. -1.
          6    1    1    2  501    0 -0.35841218111E+02 -0.38127131221E+02 -0.35156803637E+02  0.18318916969E+03  0.17200000000E+03 0. -1.
         -6    1    1    2    0  502  0.35841218111E+02  0.38127131221E+02 -0.36492166624E+00  0.17978432695E+03  0.17200000000E+03 0. -1.
</event>
<event>
 4    1  0.1222208E+000  0.1759213E+03  0.7818608E-02  0.1171810E+00
         21   -1    0    0  503  502  0.00000000000E+00  0.00000000000E+00  0.52949828867E+03  0.52949828867E+03  0.00000000000E+00 0. -1.
         21   -1    0    0  501  503 -0.00000000000E+00 -0.00000000000E+00 -0.80970590643E+02  0.80970590643E+02  0.00000000000E+00 0. -1.
          6    1    1    2  501    0 -0.29888645065E+02  0.21702213982E+02  0.63282564752E+02  0.18695721488E+03  0.17200000000E+03 0. -1.
         -6    1    1    2    0  502  0.29888645065E+02 -0.21702213982E+02  0.38524513327E+03  0.42351166443E+03  0.17200000000E+03 0. -1.
</event>
<event>
 4    1  0.1222208E+000  0.1992581E+03  0.7818608E-02  0.1150366E+00
         21   -1    0    0  503  502  0.00000000000E+00  0.00000000000E+00  0.13829735369E+03  0.13829735369E+03  0.00000000000E+00 0.  1.
         21   -1    0    0  501  503 -0.00000000000E+00 -0.00000000000E+00 -0.31865098388E+03  0.31865098388E+03  0.00000000000E+00 0.  1.
          6    1    1    2  501    0  0.58934637292E+02 -0.81526106017E+02 -0.16208101119E+03  0.25685414465E+03  0.17200000000E+03 0. -1.
         -6    1    1    2    0  502 -0.58934637292E+02  0.81526106017E+02 -0.18272618998E+02  0.20009419292E+03  0.17200000000E+03 0. -1.
</event>
<event>
 4    1  0.1222208E+000  0.2161169E+03  0.7818608E-02  0.1136812E+00
         21   -1    0    0  503  502  0.00000000000E+00  0.00000000000E+00  0.27347954736E+03  0.27347954736E+03  0.00000000000E+00 0. -1.
         21   -1    0    0  501  503 -0.00000000000E+00 -0.00000000000E+00 -0.17316053088E+03  0.17316053088E+03  0.00000000000E+00 0. -1.
          6    1    1    2  501    0  0.12972848251E+03 -0.17117772103E+02  0.24008665341E+02  0.21744634581E+03  0.17200000000E+03 0. -1.
         -6    1    1    2    0  502 -0.12972848251E+03  0.17117772103E+02  0.76310351138E+02  0.22919373243E+03  0.17200000000E+03 0. -1.
</event>
<event>
 4    1  0.1222208E+000  0.1747882E+03  0.7818608E-02  0.1172944E+00
         21   -1    0    0  503  502  0.00000000000E+00  0.00000000000E+00  0.31252330046E+02  0.31252330046E+02  0.00000000000E+00 0. -1.
         21   -1    0    0  501  503 -0.00000000000E+00 -0.00000000000E+00 -0.97803050735E+03  0.97803050735E+03  0.00000000000E+00 0. -1.
          6    1    1    2  501    0 -0.31036241621E+02  0.19187190205E+01 -0.48449443376E+03  0.51505901227E+03  0.17200000000E+03 0.  1.
         -6    1    1    2    0  502  0.31036241621E+02 -0.19187190205E+01 -0.46228374355E+03  0.49422382513E+03  0.17200000000E+03 0.  1.
</event>
<event>
 4    1  0.1222208E+000  0.1781753E+03  0.7818608E-02  0.1169581E+00
         21   -1    0    0  501  502  0.00000000000E+00  0.00000000000E+00  0.12567507074E+03  0.12567507074E+03  0.00000000000E+00 0.  1.
         21   -1    0    0  502  503 -0.00000000000E+00 -0.00000000000E+00 -0.25727229622E+03  0.25727229622E+03  0.00000000000E+00 0.  1.
          6    1    1    2  501    0 -0.45362359248E+02  0.10232360079E+02 -0.40015428584E+02  0.18261346980E+03  0.17200000000E+03 0.  1.
         -6    1    1    2    0  503  0.45362359248E+02 -0.10232360079E+02 -0.91581796898E+02  0.20033389716E+03  0.17200000000E+03 0.  1.
</event>
<event>
 4    1  0.1222208E+000  0.1873375E+03  0.7818608E-02  0.1160885E+00
         21   -1    0    0  501  502  0.00000000000E+00  0.00000000000E+00  0.84799756600E+02  0.84799756600E+02  0.00000000000E+00 0. -1.
         21   -1    0    0  502  503 -0.00000000000E+00 -0.00000000000E+00 -0.42505355286E+03  0.42505355286E+03  0.00000000000E+00 0. -1.
          6    1    1    2  501    0  0.61296711433E+02  0.41881422119E+02 -0.12876013615E+03  0.22732028729E+03  0.17200000000E+03 0. -1.
         -6    1    1    2    0  503 -0.61296711433E+02 -0.41881422119E+02 -0.21149366010E+03  0.28253302217E+03  0.17200000000E+03 0. -1.
</event>
<event>
 4    1  0.1222208E+000  0.1777513E+03  0.7818608E-02  0.1169997E+00
         21   -1    0    0  501  502  0.00000000000E+00  0.00000000000E+00  0.41153435128E+03  0.41153435128E+03  0.00000000000E+00 0.  1.
         21   -1    0    0  502  503 -0.00000000000E+00 -0.00000000000E+00 -0.10549147222E+03  0.10549147222E+03  0.00000000000E+00 0.  1.
          6    1    1    2  501    0 -0.97216189234E+01 -0.43783708588E+02  0.18143911314E+02  0.17867491298E+03  0.17200000000E+03 0.  1.
         -6    1    1    2    0  503  0.97216189234E+01  0.43783708588E+02  0.28789896775E+03  0.33835091051E+03  0.17200000000E+03 0.  1.
</event>
<event>
 4    1  0.1222208E+000  0.2236922E+03  0.7818608E-02  0.1131160E+00
         21   -1    0    0  503  502  0.00000000000E+00  0.00000000000E+00  0.45394826627E+02  0.45394826627E+02  0.00000000000E+00 0. -1.
         21   -1    0    0  501  503 -0.00000000000E+00 -0.00000000000E+00 -0.11565790817E+04  0.11565790817E+04  0.00000000000E+00 0.  1.
          6    1    1    2  501    0 -0.34283091226E+02 -0.13884835704E+03 -0.68580068148E+03  0.72136036162E+03  0.17200000000E+03 0.  1.
         -6    1    1    2    0  502  0.34283091226E+02  0.13884835704E+03 -0.42538357357E+03  0.48061354669E+03  0.17200000000E+03 0.  1.
</event>
<event>
 4    1  0.1222208E+000  0.1724925E+03  0.7818608E-02  0.1175273E+00
         21   -1    0    0  503  502  0.00000000000E+00  0.00000000000E+00  0.10466864807E+04  0.10466864807E+04  0.00000000000E+00 0. -1.
         21   -1    0    0  501  503 -0.00000000000E+00 -0.00000000000E+00 -0.47174827367E+02  0.47174827367E+02  0.00000000000E+00 0. -1.
          6    1    1    2  501    0  0.10627273342E+02 -0.75307351286E+01  0.15496303803E+03  0.23187754110E+03  0.17200000000E+03 0. -1.
         -6    1    1    2    0  502 -0.10627273342E+02  0.75307351286E+01  0.84454861534E+03  0.86198376701E+03  0.17200000000E+03 0. -1.
</event>
<event>
 4    1  0.1222208E+000  0.1924384E+03  0.7818608E-02  0.1156280E+00
         21   -1    0    0  503  502  0.00000000000E+00  0.00000000000E+00  0.96720895944E+03  0.96720895944E+03  0.00000000000E+00 0.  1.
         21   -1    0    0  501  503 -0.00000000000E+00 -0.00000000000E+00 -0.38649993693E+02  0.38649993693E+02  0.00000000000E+00 0.  1.
          6    1    1    2  501    0  0.21640945304E+02  0.83547557663E+02  0.41560903451E+03  0.45799933894E+03  0.17200000000E+03 0. -1.
         -6    1    1    2    0  502 -0.21640945304E+02 -0.83547557663E+02  0.51294993124E+03  0.54785961419E+03  0.17200000000E+03 0. -1.
</event>
<event>
 4    1  0.1222208E+000  0.1851789E+03  0.7818608E-02  0.1162883E+00
         21   -1    0    0  501  502  0.00000000000E+00  0.00000000000E+00  0.32155875365E+02  0.32155875365E+02  0.00000000000E+00 0. -1.
         21   -1    0    0  502  503 -0.00000000000E+00 -0.00000000000E+00 -0.15165054731E+04  0.15165054731E+04  0.00000000000E+00 0. -1.
          6    1    1    2  501    0 -0.67894258323E+02  0.98782413079E+01 -0.32032402332E+03  0.36999822956E+03  0.17200000000E+03 0. -1.
         -6    1    1    2    0  503  0.67894258323E+02 -0.98782413079E+01 -0.11640255744E+04  0.11786631189E+04  0.17200000000E+03 0. -1.
</event>
<event>
 4    1  0.1222208E+000  0.1774229E+03  0.7818608E-02  0.1170321E+00
         21   -1    0    0  501  502  0.00000000000E+00  0.00000000000E+00  0.15033934010E+03  0.15033934010E+03  0.00000000000E+00 0.  1.
         21   -1    0    0  502  503 -0.00000000000E+00 -0.00000000000E+00 -0.30625400567E+03  0.30625400567E+03  0.00000000000E+00 0.  1.
          6    1    1    2  501    0  0.21679278232E+02  0.37747683610E+02  0.50438219931E+02  0.18445295539E+03  0.17200000000E+03 0.  1.
         -6    1    1    2    0  503 -0.21679278232E+02 -0.37747683610E+02 -0.20635288550E+03  0.27214039038E+03  0.17200000000E+03 0.  1.
</event>
<event>
 4    1  0.1222208E+000  0.1812468E+03  0.7818608E-02  0.1166602E+00
         21   -1    0    0  501  502  0.00000000000E+00  0.00000000000E+00  0.33827417787E+03  0.33827417787E+03  0.00000000000E+00 0. -1.
         21   -1    0    0  502  503 -0.00000000000E+00 -0.00000000000E+00 -0.13976362832E+03  0.13976362832E+03  0.00000000000E+00 0. -1.
          6    1    1    2  501    0 -0.85669969044E+01 -0.56506847883E+02 -0.32784248293E+02  0.18418801326E+03  0.17200000000E+03 0. -1.
         -6    1    1    2    0  503  0.85669969044E+01  0.56506847883E+02  0.23129479784E+03  0.29384979293E+03  0.17200000000E+03 0. -1.
</event>
<event>
 4    1  0.1222208E+000  0.2593564E+03  0.7818608E-02  0.1107531E+00
         21   -1    0    0  503  502  0.00000000000E+00  0.00000000000E+00  0.71949437419E+03  0.71949437419E+03  0.00000000000E+00 0.  1.
         21   -1    0    0  501  503 -0.00000000000E+00 -0.00000000000E+00 -0.96883535623E+02  0.96883535623E+02  0.00000000000E+00 0.  1.
          6    1    1    2  501    0  0.97436778199E+02  0.16789222314E+03  0.23491390897E+03  0.34992894845E+03  0.17200000000E+03 0.  1.
         -6    1    1    2    0  502 -0.97436778199E+02 -0.16789222314E+03  0.38769692960E+03  0.46644896137E+03  0.17200000000E+03 0.  1.
</event>
<event>
 4    1  0.1222208E+000  0.2085485E+03  0.7818608E-02  0.1142721E+00
         21   -1    0    0  501  502  0.00000000000E+00  0.00000000000E+00  0.18428604144E+03  0.18428604144E+03  0.00000000000E+00 0.  1.
         21   -1    0    0  502  503 -0.00000000000E+00 -0.00000000000E+00 -0.53262145372E+03  0.53262145372E+03  0.00000000000E+00 0. -1.
          6    1    1    2  501    0  0.53194163966E+02 -0.10525612538E+03  0.93330727040E+02  0.22847996766E+03  0.17200000000E+03 0.  1.
         -6    1    1    2    0  503 -0.53194163966E+02  0.10525612538E+03 -0.44166613931E+03  0.48842752751E+03  0.17200000000E+03 0. -1.
</event>
<event>
 4    1  0.1222208E+000  0.1897382E+03  0.7818608E-02  0.1158698E+00
         21   -1    0    0  503  502  0.00000000000E+00  0.00000000000E+00  0.11668749739E+04  0.11668749739E+04  0.00000000000E+00 0.  1.
         21   -1    0    0  501  503 -0.00000000000E+00 -0.00000000000E+00 -0.13039388085E+03  0.13039388085E+03  0.00000000000E+00 0. -1.
          6    1    1    2  501    0  0.78755421713E+02  0.14633987137E+02 -0.48486635862E+02  0.19583545104E+03  0.17200000000E+03 0. -1.
         -6    1    1    2    0  502 -0.78755421713E+02 -0.14633987137E+02  0.10849677289E+04  0.11014334037E+04  0.17200000000E+03 0.  1.
</event>
<event>
 4    1  0.1222208E+000  0.1808254E+03  0.7818608E-02  0.1167007E+00
         21   -1    0    0  503  502  0.00000000000E+00  0.00000000000E+00  0.44151786526E+02  0.44151786526E+02  0.00000000000E+00 0. -1.
         21   -1    0    0  501  503 -0.00000000000E+00 -0.00000000000E+00 -0.76128513505E+03  0.76128513505E+03  0.00000000000E+00 0. -1.
          6    1    1    2  501    0 -0.42360450095E+02 -0.36323988463E+02 -0.29214828783E+03  0.34358181260E+03  0.17200000000E+03 0.  1.
         -6    1    1    2    0  502  0.42360450095E+02  0.36323988463E+02 -0.42498506070E+03  0.46185510898E+03  0.17200000000E+03 0.  1.
</event>
<event>
 4    1  0.1222208E+000  0.1897859E+03  0.7818608E-02  0.1158655E+00
         21   -1    0    0  501  502  0.00000000000E+00  0.00000000000E+00  0.60265553707E+03  0.60265553707E+03  0.00000000000E+00 0.  1.
         21   -1    0    0  502  503 -0.00000000000E+00 -0.00000000000E+00 -0.13957047899E+03  0.13957047899E+03  0.00000000000E+00 0.  1.
          6    1    1    2  501    0 -0.35919072994E+02 -0.71725103507E+02  0.51216432720E+03  0.54619682197E+03  0.17200000000E+03 0.  1.
         -6    1    1    2    0  503  0.35919072994E+02  0.71725103507E+02 -0.49079269124E+02  0.19602919409E+03  0.17200000000E+03 0.  1.
</event>
<event>
 4    1  0.1222208E+000  0.2352161E+03  0.7818608E-02  0.1123021E+00
         21   -1    0    0  503  502  0.00000000000E+00  0.00000000000E+00  0.10813359190E+04  0.10813359190E+04  0.00000000000E+00 0. -1.
         21   -1    0    0  501  503 -0.00000000000E+00 -0.00000000000E+00 -0.73146409106E+02  0.73146409106E+02  0.00000000000E+00 0.  1.
          6    1    1    2  501    0  0.15376180311E+03  0.45824815158E+02  0.82053234216E+03  0.85358065249E+03  0.17200000000E+03 0. -1.
         -6    1    1    2    0  502 -0.15376180311E+03 -0.45824815158E+02  0.18765716772E+03  0.30090167560E+03  0.17200000000E+03 0.  1.
</event>
<event>
 4    1  0.1222208E+000  0.2395819E+03  0.7818608E-02  0.1120072E+00
         21   -1    0    0  501  502  0.00000000000E+00  0.00000000000E+00  0.13007740943E+04  0.13007740943E+04  0.00000000000E+00 0. -1.
         21   -1    0    0  502  503 -0.00000000000E+00 -0.00000000000E+00 -0.74318868911E+02  0.74318868911E+02  0.00000000000E+00 0. -1.
          6    1    1    2  501    0  0.11217304179E+03 -0.12342076578E+03  0.10514517654E+04  0.10784017302E+04  0.17200000000E+03 0. -1.
         -6    1    1    2    0  503 -0.11217304179E+03  0.12342076578E+03  0.17500345995E+03  0.29669123298E+03  0.17200000000E+03 0. -1.
</event>
<event>
 4    1  0.1222208E+000  0.1736184E+03  0.7818608E-02  0.1174126E+00
         21   -1    0    0  503  502  0.00000000000E+00  0.00000000000E+00  0.45343258095E+03  0.45343258095E+03  0.00000000000E+00 0.  1.
         21   -1    0    0  501  503 -0.00000000000E+00 -0.00000000000E+00 -0.68828641324E+02  0.68828641324E+02  0.00000000000E+00 0.  1.
          6    1    1    2  501    0 -0.13118080320E+02  0.19679451382E+02  0.14404596643E+03  0.22559389460E+03  0.17200000000E+03 0.  1.
         -6    1    1    2    0  502  0.13118080320E+02 -0.19679451382E+02  0.24055797320E+03  0.29666732767E+03  0.17200000000E+03 0.  1.
</event>
<event>
 4    1  0.1222208E+000  0.1804250E+03  0.7818608E-02  0.1167392E+00
         21   -1    0    0  503  502  0.00000000000E+00  0.00000000000E+00  0.53776444474E+02  0.53776444474E+02  0.00000000000E+00 0. -1.
         21   -1    0    0  501  503 -0.00000000000E+00 -0.00000000000E+00 -0.63588237381E+03  0.63588237381E+03  0.00000000000E+00 0.  1.
          6    1    1    2  501    0 -0.14568954496E+02 -0.52506425568E+02 -0.36662271033E+03  0.40861398764E+03  0.17200000000E+03 0. -1.
         -6    1    1    2    0  502  0.14568954496E+02  0.52506425568E+02 -0.21548321901E+03  0.28104483065E+03  0.17200000000E+03 0. -1.
</event>
<event>
 4    1  0.1222208E+000  0.1732738E+03  0.7818608E-02  0.1174476E+00
         21   -1    0    0  501  502  0.00000000000E+00  0.00000000000E+00  0.26739601591E+03  0.26739601591E+03  0.00000000000E+00 0. -1.
         21   -1    0    0  502  503 -0.00000000000E+00 -0.00000000000E+00 -0.13140988742E+03  0.13140988742E+03  0.00000000000E+00 0. -1.
          6    1    1    2  501    0  0.20772306856E+02  0.28857645968E+01  0.14406923567E+03  0.22534365098E+03  0.17200000000E+03 0.  1.
         -6    1    1    2    0  503 -0.20772306856E+02 -0.28857645968E+01 -0.80831071835E+01  0.17346225235E+03  0.17200000000E+03 0.  1.
</event>
<event>
 4    1  0.1222208E+000  0.2672563E+03  0.7818608E-02  0.1102860E+00
         21   -1    0    0  503  502  0.00000000000E+00  0.00000000000E+00  0.17835418528E+04  0.17835418528E+04  0.00000000000E+00 0. -1.
         21   -1    0    0  501  503 -0.00000000000E+00 -0.00000000000E+00 -0.45632564588E+02  0.45632564588E+02  0.00000000000E+00 0. -1.
          6    1    1    2  501    0  0.20100839729E+03 -0.37914878767E+02  0.54898246723E+03  0.61057977623E+03  0.17200000000E+03 0. -1.
         -6    1    1    2    0  502 -0.20100839729E+03  0.37914878767E+02  0.11889268210E+04  0.12185946412E+04  0.17200000000E+03 0. -1.
</event>
<event>
 4    1  0.1222208E+000  0.2434825E+03  0.7818608E-02  0.1117494E+00
         21   -1    0    0  503  502  0.00000000000E+00  0.00000000000E+00  0.11522213613E+03  0.11522213613E+03  0.00000000000E+00 0. -1.
         21   -1    0    0  501  503 -0.00000000000E+00 -0.00000000000E+00 -0.64705679357E+03  0.64705679357E+03  0.00000000000E+00 0.  1.
          6    1    1    2  501    0 -0.16441979842E+03 -0.51632176100E+02 -0.43841602162E+03  0.50149013922E+03  0.17200000000E+03 0.  1.
         -6    1    1    2    0  502  0.16441979842E+03  0.51632176100E+02 -0.93418635830E+02  0.26078879048E+03  0.17200000000E+03 0. -1.
</event>
<event>
 4    1  0.1222208E+000  0.1820159E+03  0.7818608E-02  0.1165866E+00
         21   -1    0    0  501  502  0.00000000000E+00  0.00000000000E+00  0.14800359513E+03  0.14800359513E+03  0.00000000000E+00 0. -1.
         21   -1    0    0  502  503 -0.00000000000E+00 -0.00000000000E+00 -0.50496651356E+03  0.50496651356E+03  0.00000000000E+00 0. -1.
          6    1    1    2  501    0 -0.32462263278E+02 -0.49919868597E+02  0.65119748689E+02  0.19331418336E+03  0.17200000000E+03 0. -1.
         -6    1    1    2    0  503  0.32462263278E+02  0.49919868597E+02 -0.42208266711E+03  0.45965592533E+03  0.17200000000E+03 0. -1.
</event>
<event>
 4    1  0.1222208E+000  0.2637573E+03  0.7818608E-02  0.1104907E+00
         21   -1    0    0  501  502  0.00000000000E+00  0.00000000000E+00  0.14271351460E+04  0.14271351460E+04  0.00000000000E+00 0. -1.
         21   -1    0    0  502  503 -0.00000000000E+00 -0.00000000000E+00 -0.66683228443E+02  0.66683228443E+02  0.00000000000E+00 0. -1.
          6    1    1    2  501    0  0.11422154302E+03  0.16412605078E+03  0.10675999399E+04  0.10996988466E+04  0.17200000000E+03 0. -1.
         -6    1    1    2    0  503 -0.11422154302E+03 -0.16412605078E+03  0.29285197758E+03  0.39411952781E+03  0.17200000000E+03 0. -1.
</event>
<event>
 4    1  0.1222208E+000  0.2000922E+03  0.7818608E-02  0.1149661E+00
         21   -1    0    0  501  502  0.00000000000E+00  0.00000000000E+00  0.26705904810E+03  0.26705904810E+03  0.00000000000E+00 0. -1.
         21   -1    0    0  502  503 -0.00000000000E+00 -0.00000000000E+00 -0.15933885547E+03  0.15933885547E+03  0.00000000000E+00 0. -1.
          6    1    1    2  501    0  0.26266207435E+02  0.98807684827E+02  0.10570150852E+03  0.22629556146E+03  0.17200000000E+03 0. -1.
         -6    1    1    2    0  503 -0.26266207435E+02 -0.98807684827E+02  0.20186841148E+01  0.20010234211E+03  0.17200000000E+03 0. -1.
</event>
<event>
 4    1  0.1222208E+000  0.2043859E+03  0.7818608E-02  0.1146090E+00
         21   -1    0    0  503  502  0.00000000000E+00  0.00000000000E+00  0.22472190906E+03  0.22472190906E+03  0.00000000000E+00 0.  1.
         21   -1    0    0  501  503 -0.00000000000E+00 -0.00000000000E+00 -0.19395191832E+03  0.19395191832E+03  0.00000000000E+00 0.  1.
          6    1    1    2  501    0 -0.12147389710E+01 -0.11039987887E+03 -0.27293745797E+02  0.20620028469E+03  0.17200000000E+03 0.  1.
         -6    1    1    2    0  502  0.12147389710E+01  0.11039987887E+03  0.58063736534E+02  0.21247354269E+03  0.17200000000E+03 0.  1.
</event>
<event>
 4    1  0.1222208E+000  0.1727788E+03  0.7818608E-02  0.1174981E+00
         21   -1    0    0  501  502  0.00000000000E+00  0.00000000000E+00  0.13672978224E+04  0.13672978224E+04  0.00000000000E+00 0.  1.
         21   -1    0    0  502  503 -0.00000000000E+00 -0.00000000000E+00 -0.25138762701E+02  0.25138762701E+02  0.00000000000E+00 0.  1.
          6    1    1    2  501    0 -0.16378210777E+02 -0.50741213675E+00  0.92354116489E+03  0.93956414710E+03  0.17200000000E+03 0.  1.
         -6    1    1    2    0  503  0.16378210777E+02  0.50741213675E+00  0.41861789484E+03  0.45287243804E+03  0.17200000000E+03 0.  1.
</event>
<event>
 4    1  0.1222208E+000  0.1939089E+03  0.7818608E-02  0.1154982E+00
         21   -1    0    0  501  502  0.00000000000E+00  0.00000000000E+00  0.38835986279E+03  0.38835986279E+03  0.00000000000E+00 0.  1.
         21   -1    0    0  502  503 -0.00000000000E+00 -0.00000000000E+00 -0.11944073452E+03  0.11944073452E+03  0.00000000000E+00 0. -1.
          6    1    1    2  501    0  0.60408986844E+02 -0.66086481643E+02  0.24495607523E+03  0.31241662494E+03  0.17200000000E+03 0.  1.
         -6    1    1    2    0  503 -0.60408986844E+02  0.66086481643E+02  0.23963053043E+02  0.19538397237E+03  0.17200000000E+03 0. -1.
</event>
<event>
 4    1  0.1222208E+000  0.1831308E+03  0.7818608E-02  0.1164807E+00
         21   -1    0    0  501  502  0.00000000000E+00  0.00000000000E+00  0.51237251500E+03  0.51237251500E+03  0.00000000000E+00 0.  1.
         21   -1    0    0  502  503 -0.00000000000E+00 -0.00000000000E+00 -0.11488481515E+03  0.11488481515E+03  0.00000000000E+00 0.  1.
          6    1    1    2  501    0  0.56845096092E+02  0.26861304208E+02  0.40446681348E+03  0.44399357858E+03  0.17200000000E+03 0.  1.
         -6    1    1    2    0  503 -0.56845096092E+02 -0.26861304208E+02 -0.69791136271E+01  0.18326375157E+03  0.17200000000E+03 0.  1.
</event>
<event>
 4    1  0.1222208E+000  0.3810348E+03  0.7818608E-02  0.1050552E+00
         21   -1    0    0  501  502  0.00000000000E+00  0.00000000000E+00  0.54226388963E+03  0.54226388963E+03  0.00000000000E+00 0.  1.
         21   -1    0    0  502  503 -0.00000000000E+00 -0.00000000000E+00 -0.27298821712E+03  0.27298821712E+03  0.00000000000E+00 0. -1.
          6    1    1    2  501    0 -0.98841109489E+02  0.32532135394E+03  0.78136672739E+02  0.38896386449E+03  0.17200000000E+03 0. -1.
         -6    1    1    2    0  503  0.98841109489E+02 -0.32532135394E+03  0.19113899978E+03  0.42628824226E+03  0.17200000000E+03 0.  1.
</event>
<event>
 4    1  0.1222208E+000  0.1918973E+03  0.7818608E-02  0.1156761E+00
         21   -1    0    0  501  502  0.00000000000E+00  0.00000000000E+00  0.57089367029E+02  0.57089367029E+02  0.00000000000E+00 0. -1.
         21   -1    0    0  502  503 -0.00000000000E+00 -0.00000000000E+00 -0.11113210475E+04  0.11113210475E+04  0.00000000000E+00 0. -1.
          6    1    1    2  501    0 -0.13323558612E+02  0.84041948912E+02 -0.90553443045E+03  0.92564419251E+03  0.17200000000E+03 0. -1.
         -6    1    1    2    0  503  0.13323558612E+02 -0.84041948912E+02 -0.14869725002E+03  0.24276622202E+03  0.17200000000E+03 0. -1.
</event>
<event>
 4    1  0.1222208E+000  0.2420025E+03  0.7818608E-02  0.1118466E+00
         21   -1    0    0  503  502  0.00000000000E+00  0.00000000000E+00  0.72918009753E+02  0.72918009753E+02  0.00000000000E+00 0.  1.
         21   -1    0    0  501  503 -0.00000000000E+00 -0.00000000000E+00 -0.80320654166E+03  0.80320654166E+03  0.00000000000E+00 0.  1.
          6    1    1    2  501    0 -0.13476585922E+03  0.10401618811E+03 -0.36199954835E+03  0.43544101461E+03  0.17200000000E+03 0.  1.
         -6    1    1    2    0  502  0.13476585922E+03 -0.10401618811E+03 -0.36828898356E+03  0.44068353680E+03  0.17200000000E+03 0.  1.
</event>
<event>
 4    1  0.1222208E+000  0.2776032E+03  0.7818608E-02  0.1097005E+00
         21   -1    0    0  501  502  0.00000000000E+00  0.00000000000E+00  0.26236860057E+03  0.26236860057E+03  0.00000000000E+00 0.  1.
         21   -1    0    0  502  503 -0.00000000000E+00 -0.00000000000E+00 -0.50587144072E+03  0.50587144072E+03  0.00000000000E+00 0.  1.
          6    1    1    2  501    0 -0.63029949755E+02  0.20858268633E+03 -0.37050394076E+03  0.46296509774E+03  0.17200000000E+03 0.  1.
         -6    1    1    2    0  503  0.63029949755E+02 -0.20858268633E+03  0.12700110061E+03  0.30527494355E+03  0.17200000000E+03 0.  1.
</event>
<event>
 4    1  0.1222208E+000  0.2166789E+03  0.7818608E-02  0.1136384E+00
         21   -1    0    0  503  502  0.00000000000E+00  0.00000000000E+00  0.11351333779E+04  0.11351333779E+04  0.00000000000E+00 0. -1.
         21   -1    0    0  501  503 -0.00000000000E+00 -0.00000000000E+00 -0.78374459343E+02  0.78374459343E+02  0.00000000000E+00 0.  1.
          6    1    1    2  501    0  0.13016065406E+03 -0.20589575116E+02  0.11140652716E+03  0.24364141840E+03  0.17200000000E+03 0.  1.
         -6    1    1    2    0  502 -0.13016065406E+03  0.20589575116E+02  0.94535239138E+03  0.96986641882E+03  0.17200000000E+03 0. -1.
</event>
<event>
 4    1  0.1222208E+000  0.1818948E+03  0.7818608E-02  0.1165982E+00
         21   -1    0    0  503  502  0.00000000000E+00  0.00000000000E+00  0.91205522855E+02  0.91205522855E+02  0.00000000000E+00 0.  1.
         21   -1    0    0  501  503 -0.00000000000E+00 -0.00000000000E+00 -0.41225443424E+03  0.41225443424E+03  0.00000000000E+00 0.  1.
          6    1    1    2  501    0  0.58044023056E+02  0.11514931345E+02 -0.24774746952E+03  0.30735079455E+03  0.17200000000E+03 0.  1.
         -6    1    1    2    0  502 -0.58044023056E+02 -0.11514931345E+02 -0.73301441872E+02  0.19610916255E+03  0.17200000000E+03 0.  1.
</event>
<event>
 4    1  0.1222208E+000  0.2578597E+03  0.7818608E-02  0.1108436E+00
         21   -1    0    0  503  502  0.00000000000E+00  0.00000000000E+00  0.28688150226E+03  0.28688150226E+03  0.00000000000E+00 0.  1.
         21   -1    0    0  501  503 -0.00000000000E+00 -0.00000000000E+00 -0.24672652355E+03  0.24672652355E+03  0.00000000000E+00 0.  1.
          6    1    1    2  501    0  0.58078796955E+02 -0.18312415973E+03 -0.45604328863E+02  0.26186133610E+03  0.17200000000E+03 0.  1.
         -6    1    1    2    0  502 -0.58078796955E+02  0.18312415973E+03  0.85759307578E+02  0.27174668971E+03  0.17200000000E+03 0.  1.
</event>
<event>
 4    1  0.1222208E+000  0.1751122E+03  0.7818608E-02  0.1172619E+00
         21   -1    0    0  503  502  0.00000000000E+00  0.00000000000E+00  0.90453316537E+03  0.90453316537E+03  0.00000000000E+00 0. -1.
         21   -1    0    0  501  503 -0.00000000000E+00 -0.00000000000E+00 -0.35237073864E+02  0.35237073864E+02  0.00000000000E+00 0. -1.
          6    1    1    2  501    0 -0.22687987152E+02  0.23780876002E+02  0.52615658573E+03  0.55453135847E+03  0.17200000000E+03 0. -1.
         -6    1    1    2    0  502  0.22687987152E+02 -0.23780876002E+02  0.34313950578E+03  0.38523888076E+03  0.17200000000E+03 0. -1.
</event>
<event>
 4    1  0.1222208E+000  0.2022958E+03  0.7818608E-02  0.1147816E+00
         21   -1    0    0  501  502  0.00000000000E+00  0.00000000000E+00  0.26985738006E+02  0.26985738006E+02  0.00000000000E+00 0.  1.
         21   -1    0    0  502  503 -0.00000000000E+00 -0.00000000000E+00 -0.19484570266E+04  0.19484570266E+04  0.00000000000E+00 0.  1.
          6    1    1    2  501    0  0.21716960872E+02 -0.10424945464E+03 -0.49566938281E+03  0.53536129131E+03  0.17200000000E+03 0.  1.
         -6    1    1    2    0  503 -0.21716960872E+02  0.10424945464E+03 -0.14258019058E+04  0.14400814733E+04  0.17200000000E+03 0.  1.
</event>
<event>
 4    1  0.1222208E+000  0.1931664E+03  0.7818608E-02  0.1155636E+00
         21   -1    0    0  501  502  0.00000000000E+00  0.00000000000E+00  0.52007844874E+03  0.52007844874E+03  0.00000000000E+00 0. -1.
         21   -1    0    0  502  503 -0.00000000000E+00 -0.00000000000E+00 -0.18894109407E+03  0.18894109407E+03  0.00000000000E+00 0.  1.
          6    1    1    2  501    0 -0.46747772658E+02 -0.74457514964E+02  0.44477206567E+03  0.48490768831E+03  0.17200000000E+03 0. -1.
         -6    1    1    2    0  503  0.46747772658E+02  0.74457514964E+02 -0.11363471100E+03  0.22411185450E+03  0.17200000000E+03 0.  1.
</event>
<event>
 4    1  0.1222208E+000  0.1830321E+03  0.7818608E-02  0.1164900E+00
         21   -1    0    0  501  502  0.00000000000E+00  0.00000000000E+00  0.22772398500E+03  0.22772398500E+03  0.00000000000E+00 0.  1.
         21   -1    0    0  502  503 -0.00000000000E+00 -0.00000000000E+00 -0.70140897937E+03  0.70140897937E+03  0.00000000000E+00 0.  1.
          6    1    1    2  501    0 -0.43613711348E+02 -0.44884054576E+02  0.17614205452E+03  0.25402117538E+03  0.17200000000E+03 0.  1.
         -6    1    1    2    0  503  0.43613711348E+02  0.44884054576E+02 -0.64982704889E+03  0.67511178900E+03  0.17200000000E+03 0.  1.
</event>
<event>
 4    1  0.1222208E+000  0.1801477E+03  0.7818608E-02  0.1167660E+00
         21   -1    0    0  501  502  0.00000000000E+00  0.00000000000E+00  0.11215847977E+03  0.11215847977E+03  0.00000000000E+00 0.  1.
         21   -1    0    0  502  503 -0.00000000000E+00 -0.00000000000E+00 -0.63889026260E+03  0.63889026260E+03  0.00000000000E+00 0.  1.
          6    1    1    2  501    0 -0.45540524111E+02 -0.28200130801E+02  0.14396136209E+02  0.18072198386E+03  0.17200000000E+03 0.  1.
         -6    1    1    2    0  503  0.45540524111E+02  0.28200130801E+02 -0.54112791903E+03  0.57032675851E+03  0.17200000000E+03 0.  1.
</event>
<event>
 4    1  0.1222208E+000  0.1811681E+03  0.7818608E-02  0.1166677E+00
         21   -1    0    0  501  502  0.00000000000E+00  0.00000000000E+00  0.28275586702E+02  0.28275586702E+02  0.00000000000E+00 0. -1.
         21   -1    0    0  502  503 -0.00000000000E+00 -0.00000000000E+00 -0.15429152277E+04  0.15429152277E+04  0.00000000000E+00 0. -1.
          6    1    1    2  501    0 -0.12620986436E+02  0.55485137854E+02 -0.36635890752E+03  0.40870617679E+03  0.17200000000E+03 0. -1.
         -6    1    1    2    0  503  0.12620986436E+02 -0.55485137854E+02 -0.11482807334E+04  0.11624846376E+04  0.17200000000E+03 0. -1.
</event>
<event>
 4    1  0.1222208E+000  0.1877738E+03  0.7818608E-02  0.1160485E+00
         21   -1    0    0  503  502  0.00000000000E+00  0.00000000000E+00  0.12546715920E+03  0.12546715920E+03  0.00000000000E+00 0. -1.
         21   -1    0    0  501  503 -0.00000000000E+00 -0.00000000000E+00 -0.31503201457E+03  0.31503201457E+03  0.00000000000E+00 0. -1.
          6    1    1    2  501    0 -0.34727062566E+02  0.66850752267E+02 -0.16714986688E+03  0.25139226311E+03  0.17200000000E+03 0. -1.
         -6    1    1    2    0  502  0.34727062566E+02 -0.66850752267E+02 -0.22414988489E+02  0.18910691067E+03  0.17200000000E+03 0. -1.
</event>
<event>
 4    1  0.1222208E+000  0.2031153E+03  0.7818608E-02  0.1147137E+00
         21   -1    0    0  503  502  0.00000000000E+00  0.00000000000E+00  0.36420625523E+02  0.36420625523E+02  0.00000000000E+00 0.  1.
         21   -1    0    0  501  503 -0.00000000000E+00 -0.00000000000E+00 -0.24091112341E+04  0.24091112341E+04  0.00000000000E+00 0.  1.
          6    1    1    2  501    0  0.10656194032E+03  0.17786899816E+02 -0.29632475042E+03  0.35925503287E+03  0.17200000000E+03 0.  1.
         -6    1    1    2    0  502 -0.10656194032E+03 -0.17786899816E+02 -0.20763658582E+04  0.20862768268E+04  0.17200000000E+03 0.  1.
</event>
<event>
 4    1  0.1222208E+000  0.2734413E+03  0.7818608E-02  0.1099326E+00
         21   -1    0    0  501  502  0.00000000000E+00  0.00000000000E+00  0.32527350702E+03  0.32527350702E+03  0.00000000000E+00 0. -1.
         21   -1    0    0  502  503 -0.00000000000E+00 -0.00000000000E+00 -0.22987096405E+03  0.22987096405E+03  0.00000000000E+00 0. -1.
          6    1    1    2  501    0  0.21251708190E+03  0.47593700670E+01  0.46808826827E+02  0.27741886737E+03  0.17200000000E+03 0.  1.
         -6    1    1    2    0  503 -0.21251708190E+03 -0.47593700670E+01  0.48593716139E+02  0.27772560370E+03  0.17200000000E+03 0.  1.
</event>
<event>
 4    1  0.1222208E+000  0.2291550E+03  0.7818608E-02  0.1127236E+00
         21   -1    0    0  501  502  0.00000000000E+00  0.00000000000E+00  0.36613952900E+03  0.36613952900E+03  0.00000000000E+00 0. -1.
         21   -1    0    0  502  503 -0.00000000000E+00 -0.00000000000E+00 -0.19855717792E+03  0.19855717792E+03  0.00000000000E+00 0. -1.
          6    1    1    2  501    0  0.15132813085E+03 -0.52734282254E+01  0.23257705220E+03  0.32650282915E+03  0.17200000000E+03 0. -1.
         -6    1    1    2    0  503 -0.15132813085E+03  0.52734282254E+01 -0.64994701121E+02  0.23819387777E+03  0.17200000000E+03 0. -1.
</event>
<event>
 4    1  0.1222208E+000  0.1871109E+03  0.7818608E-02  0.1161093E+00
         21   -1    0    0  503  502  0.00000000000E+00  0.00000000000E+00  0.36491731051E+03  0.36491731051E+03  0.00000000000E+00 0. -1.
         21   -1    0    0  501  503 -0.00000000000E+00 -0.00000000000E+00 -0.96005604827E+02  0.96005604827E+02  0.00000000000E+00 0. -1.
          6    1    1    2  501    0 -0.35922129224E+02 -0.64312374725E+02  0.12847105226E+03  0.22696980456E+03  0.17200000000E+03 0. -1.
         -6    1    1    2    0  502  0.35922129224E+02  0.64312374725E+02  0.14044065342E+03  0.23395311078E+03  0.17200000000E+03 0. -1.
</event>
<event>
 4    1  0.1222208E+000  0.3967750E+03  0.7818608E-02  0.1044902E+00
         21   -1    0    0  503  502  0.00000000000E+00  0.00000000000E+00  0.24762868433E+03  0.24762868433E+03  0.00000000000E+00 0.  1.
         21   -1    0    0  501  503 -0.00000000000E+00 -0.00000000000E+00 -0.68374925963E+03  0.68374925963E+03  0.00000000000E+00 0.  1.
          6    1    1    2  501    0 -0.31586010596E+03  0.16756727888E+03 -0.34144357061E+03  0.52346357218E+03  0.17200000000E+03 0. -1.
         -6    1    1    2    0  502  0.31586010596E+03 -0.16756727888E+03 -0.94677004689E+02  0.40791437178E+03  0.17200000000E+03 0. -1.
</event>
<event>
 4    1  0.1222208E+000  0.2811594E+03  0.7818608E-02  0.1095057E+00
         21   -1    0    0  501  502  0.00000000000E+00  0.00000000000E+00  0.41182592785E+03  0.41182592785E+03  0.00000000000E+00 0.  1.
         21   -1    0    0  502  503 -0.00000000000E+00 -0.00000000000E+00 -0.21379475344E+03  0.21379475344E+03  0.00000000000E+00 0.  1.
          6    1    1    2  501    0  0.15831572204E+03  0.15621371529E+03  0.19900212470E+03  0.34445963236E+03  0.17200000000E+03 0.  1.
         -6    1    1    2    0  503 -0.15831572204E+03 -0.15621371529E+03 -0.97095030119E+00  0.28116104893E+03  0.17200000000E+03 0.  1.
</event>
<event>
 4    1  0.1222208E+000  0.2888810E+03  0.7818608E-02  0.1090935E+00
         21   -1    0    0  503  502  0.00000000000E+00  0.00000000000E+00  0.11987540706E+04  0.11987540706E+04  0.00000000000E+00 0. -1.
         21   -1    0    0  501  503 -0.00000000000E+00 -0.00000000000E+00 -0.24378651906E+03  0.24378651906E+03  0.00000000000E+00 0.  1.
          6    1    1    2  501    0  0.19634717526E+03 -0.12375781921E+03 -0.13216651983E+03  0.31767939815E+03  0.17200000000E+03 0.  1.
         -6    1    1    2    0  502 -0.19634717526E+03  0.12375781921E+03  0.10871340713E+04  0.11248611915E+04  0.17200000000E+03 0. -1.
</event>
<event>
 4    1  0.1222208E+000  0.1843902E+03  0.7818608E-02  0.1163621E+00
         21   -1    0    0  503  502  0.00000000000E+00  0.00000000000E+00  0.13095757720E+03  0.13095757720E+03  0.00000000000E+00 0.  1.
         21   -1    0    0  501  503 -0.00000000000E+00 -0.00000000000E+00 -0.26215596665E+03  0.26215596665E+03  0.00000000000E+00 0.  1.
          6    1    1    2  501    0 -0.43624100176E+02  0.50126679898E+02 -0.46282778096E+02  0.19011007786E+03  0.17200000000E+03 0. -1.
         -6    1    1    2    0  502  0.43624100176E+02 -0.50126679898E+02 -0.84915611361E+02  0.20300346600E+03  0.17200000000E+03 0. -1.
</event>
<event>
 4    1  0.1222208E+000  0.1792027E+03  0.7818608E-02  0.1168577E+00
         21   -1    0    0  503  502  0.00000000000E+00  0.00000000000E+00  0.25054811413E+03  0.25054811413E+03  0.00000000000E+00 0. -1.
         21   -1    0    0  501  503 -0.00000000000E+00 -0.00000000000E+00 -0.26469693980E+03  0.26469693980E+03  0.00000000000E+00 0. -1.
          6    1    1    2  501    0 -0.32182907493E+02 -0.38650788357E+02 -0.19209200430E+03  0.26270318059E+03  0.17200000000E+03 0. -1.
         -6    1    1    2    0  502  0.32182907493E+02  0.38650788357E+02  0.17794317863E+03  0.25254187335E+03  0.17200000000E+03 0. -1.
</event>
<event>
 4    1  0.1222208E+000  0.1753291E+03  0.7818608E-02  0.1172402E+00
         21   -1    0    0  501  502  0.00000000000E+00  0.00000000000E+00  0.12537378486E+03  0.12537378486E+03  0.00000000000E+00 0. -1.
         21   -1    0    0  502  503 -0.00000000000E+00 -0.00000000000E+00 -0.50185917936E+03  0.50185917936E+03  0.00000000000E+00 0. -1.
          6    1    1    2  501    0 -0.13688089206E+01  0.33976783309E+02  0.36039859394E+02  0.17899487956E+03  0.17200000000E+03 0. -1.
         -6    1    1    2    0  503  0.13688089206E+01 -0.33976783309E+02 -0.41252525390E+03  0.44823808467E+03  0.17200000000E+03 0. -1.
</event>
<event>
 4    1  0.1222208E+000  0.2126706E+03  0.7818608E-02  0.1139468E+00
         21   -1    0    0  501  502  0.00000000000E+00  0.00000000000E+00  0.23173725784E+03  0.23173725784E+03  0.00000000000E+00 0. -1.
         21   -1    0    0  502  503 -0.00000000000E+00 -0.00000000000E+00 -0.20815786876E+03  0.20815786876E+03  0.00000000000E+00 0. -1.
          6    1    1    2  501    0 -0.12246745443E+03 -0.25426612923E+02  0.66724332683E+02  0.22289218607E+03  0.17200000000E+03 0. -1.
         -6    1    1    2    0  503  0.12246745443E+03  0.25426612923E+02 -0.43144943605E+02  0.21700294053E+03  0.17200000000E+03 0. -1.
</event>
<event>
 4    1  0.1222208E+000  0.1886919E+03  0.7818608E-02  0.1159646E+00
         21   -1    0    0  503  502  0.00000000000E+00  0.00000000000E+00  0.92742861776E+02  0.92742861776E+02  0.00000000000E+00 0. -1.
         21   -1    0    0  501  503 -0.00000000000E+00 -0.00000000000E+00 -0.48309264000E+03  0.48309264000E+03  0.00000000000E+00 0. -1.
          6    1    1    2  501    0  0.52013960024E+02  0.57577747652E+02 -0.32563485817E+03  0.37635450032E+03  0.17200000000E+03 0. -1.
         -6    1    1    2    0  502 -0.52013960024E+02 -0.57577747652E+02 -0.64714920059E+02  0.19948100145E+03  0.17200000000E+03 0. -1.
</event>
<event>
 4    1  0.1222208E+000  0.2074729E+03  0.7818608E-02  0.1143583E+00
         21   -1    0    0  501  502  0.00000000000E+00  0.00000000000E+00  0.77289061818E+03  0.77289061818E+03  0.00000000000E+00 0.  1.
         21   -1    0    0  502  503 -0.00000000000E+00 -0.00000000000E+00 -0.70831348833E+02  0.70831348833E+02  0.00000000000E+00 0.  1.
          6    1    1    2  501    0  0.26856238970E+02  0.11287045781E+03  0.54605379815E+03  0.58414017863E+03  0.17200000000E+03 0.  1.
         -6    1    1    2    0  503 -0.26856238970E+02 -0.11287045781E+03  0.15600547120E+03  0.25958178839E+03  0.17200000000E+03 0.  1.
</event>
<event>
 4    1  0.1222208E+000  0.1810594E+03  0.7818608E-02  0.1166782E+00
         21   -1    0    0  501  502  0.00000000000E+00  0.00000000000E+00  0.14688548456E+03  0.14688548456E+03  0.00000000000E+00 0. -1.
         21   -1    0    0  502  503 -0.00000000000E+00 -0.00000000000E+00 -0.29524935927E+03  0.29524935927E+03  0.00000000000E+00 0. -1.
          6    1    1    2  501    0 -0.48399685168E+02 -0.29256832070E+02  0.35035883348E+02  0.18441801666E+03  0.17200000000E+03 0.  1.
         -6    1    1    2    0  503  0.48399685168E+02  0.29256832070E+02 -0.18339975807E+03  0.25771682717E+03  0.17200000000E+03 0.  1.
</event>
<event>
 4    1  0.1222208E+000  0.2246943E+03  0.7818608E-02  0.1130431E+00
         21   -1    0    0  501  502  0.00000000000E+00  0.00000000000E+00  0.12969995229E+03  0.12969995229E+03  0.00000000000E+00 0.  1.
         21   -1    0    0  502  503 -0.00000000000E+00 -0.00000000000E+00 -0.40222248230E+03  0.40222248230E+03  0.00000000000E+00 0.  1.
          6    1    1    2  501    0  0.97972954644E+01  0.14424820061E+03 -0.18399892845E+03  0.29041889754E+03  0.17200000000E+03 0. -1.
         -6    1    1    2    0  503 -0.97972954644E+01 -0.14424820061E+03 -0.88523601559E+02  0.24150353705E+03  0.17200000000E+03 0. -1.
</event>
<event>
 4    1  0.1222208E+000  0.2397743E+03  0.7818608E-02  0.1119943E+00
         21   -1    0    0  503  502  0.00000000000E+00  0.00000000000E+00  0.11178806705E+04  0.11178806705E+04  0.00000000000E+00 0. -1.
         21   -1    0    0  501  503 -0.00000000000E+00 -0.00000000000E+00 -0.62055558251E+02  0.62055558251E+02  0.00000000000E+00 0. -1.
          6    1    1    2  501    0  0.16011847112E+03 -0.47642110556E+02  0.28377720930E+03  0.37151204558E+03  0.17200000000E+03 0. -1.
         -6    1    1    2    0  502 -0.16011847112E+03  0.47642110556E+02  0.77204790295E+03  0.80842418317E+03  0.17200000000E+03 0. -1.
</event>
<event>
 4    1  0.1222208E+000  0.2698808E+03  0.7818608E-02  0.1101348E+00
         21   -1    0    0  503  502  0.00000000000E+00  0.00000000000E+00  0.11152348197E+03  0.11152348197E+03  0.00000000000E+00 0. -1.
         21   -1    0    0  501  503 -0.00000000000E+00 -0.00000000000E+00 -0.85854224553E+03  0.85854224553E+03  0.00000000000E+00 0. -1.
          6    1    1    2  501    0 -0.15275476625E+02  0.20740851087E+03 -0.61077705786E+03  0.66774564392E+03  0.17200000000E+03 0. -1.
         -6    1    1    2    0  502  0.15275476625E+02 -0.20740851087E+03 -0.13624170571E+03  0.30232008359E+03  0.17200000000E+03 0. -1.
</event>
<event>
 4    1  0.1222208E+000  0.2469700E+03  0.7818608E-02  0.1115235E+00
         21   -1    0    0  503  502  0.00000000000E+00  0.00000000000E+00  0.44803138400E+02  0.44803138400E+02  0.00000000000E+00 0. -1.
         21   -1    0    0  501  503 -0.00000000000E+00 -0.00000000000E+00 -0.20713526527E+04  0.20713526527E+04  0.00000000000E+00 0.  1.
          6    1    1    2  501    0  0.16469170540E+03 -0.65473719354E+02 -0.16327314606E+04  0.16513043899E+04  0.17200000000E+03 0.  1.
         -6    1    1    2    0  502 -0.16469170540E+03  0.65473719354E+02 -0.39381805369E+03  0.46485140116E+03  0.17200000000E+03 0.  1.
</event>
<event>
 4    1  0.1222208E+000  0.3581578E+03  0.7818608E-02  0.1059316E+00
         21   -1    0    0  501  502  0.00000000000E+00  0.00000000000E+00  0.24844064650E+04  0.24844064650E+04  0.00000000000E+00 0.  1.
         21   -1    0    0  502  503 -0.00000000000E+00 -0.00000000000E+00 -0.53036684567E+02  0.53036684567E+02  0.00000000000E+00 0. -1.
          6    1    1    2  501    0 -0.30395048561E+03  0.79417449899E+02  0.10092736001E+04  0.10709389473E+04  0.17200000000E+03 0.  1.
         -6    1    1    2    0  503  0.30395048561E+03 -0.79417449899E+02  0.14220961803E+04  0.14665042022E+04  0.17200000000E+03 0. -1.
</event>
<event>
 4    1  0.1222208E+000  0.2734977E+03  0.7818608E-02  0.1099294E+00
         21   -1    0    0  501  502  0.00000000000E+00  0.00000000000E+00  0.19827337486E+03  0.19827337486E+03  0.00000000000E+00 0.  1.
         21   -1    0    0  502  503 -0.00000000000E+00 -0.00000000000E+00 -0.62606403903E+03  0.62606403903E+03  0.00000000000E+00 0.  1.
          6    1    1    2  501    0 -0.76368031983E+02  0.19845637413E+03  0.45936651836E+02  0.27732865832E+03  0.17200000000E+03 0.  1.
         -6    1    1    2    0  503  0.76368031983E+02 -0.19845637413E+03 -0.47372731600E+03  0.54700875557E+03  0.17200000000E+03 0.  1.
</event>
<event>
 4    1  0.1222208E+000  0.1868457E+03  0.7818608E-02  0.1161337E+00
         21   -1    0    0  503  502  0.00000000000E+00  0.00000000000E+00  0.28551331354E+02  0.28551331354E+02  0.00000000000E+00 0. -1.
         21   -1    0    0  501  503 -0.00000000000E+00 -0.00000000000E+00 -0.17001759913E+04  0.17001759913E+04  0.00000000000E+00 0. -1.
          6    1    1    2  501    0 -0.69883094546E+02  0.21063261727E+02 -0.12938486556E+04  0.13072703055E+04  0.17200000000E+03 0. -1.
         -6    1    1    2    0  502  0.69883094546E+02 -0.21063261727E+02 -0.37777600438E+03  0.42145701724E+03  0.17200000000E+03 0. -1.
</event>
<event>
 4    1  0.1222208E+000  0.1788325E+03  0.7818608E-02  0.1168938E+00
         21   -1    0    0  501  502  0.00000000000E+00  0.00000000000E+00  0.94096319096E+03  0.94096319096E+03  0.00000000000E+00 0. -1.
         21   -1    0    0  502  503 -0.00000000000E+00 -0.00000000000E+00 -0.35735293070E+02  0.35735293070E+02  0.00000000000E+00 0. -1.
          6    1    1    2  501    0 -0.26165292424E+02 -0.41381730010E+02  0.56061197181E+03  0.58844443497E+03  0.17200000000E+03 0. -1.
         -6    1    1    2    0  503  0.26165292424E+02  0.41381730010E+02  0.34461592608E+03  0.38825404906E+03  0.17200000000E+03 0. -1.
</event>
<event>
 4    1  0.1222208E+000  0.2557277E+03  0.7818608E-02  0.1109738E+00
         21   -1    0    0  501  502  0.00000000000E+00  0.00000000000E+00  0.19344142272E+03  0.19344142272E+03  0.00000000000E+00 0. -1.
         21   -1    0    0  502  503 -0.00000000000E+00 -0.00000000000E+00 -0.52222621593E+03  0.52222621593E+03  0.00000000000E+00 0.  1.
          6    1    1    2  501    0 -0.93351409921E+02  0.16461527080E+03  0.48101107754E+02  0.26021220125E+03  0.17200000000E+03 0. -1.
         -6    1    1    2    0  503  0.93351409921E+02 -0.16461527080E+03 -0.37688590096E+03  0.45545543740E+03  0.17200000000E+03 0.  1.
</event>
<event>
 4    1  0.1222208E+000  0.1795554E+03  0.7818608E-02  0.1168234E+00
         21   -1    0    0  503  502  0.00000000000E+00  0.00000000000E+00  0.11226986643E+03  0.11226986643E+03  0.00000000000E+00 0. -1.
         21   -1    0    0  501  503 -0.00000000000E+00 -0.00000000000E+00 -0.33546969110E+03  0.33546969110E+03  0.00000000000E+00 0. -1.
          6    1    1    2  501    0  0.50845440088E+02 -0.84187169804E+01 -0.26651125975E+02  0.18152249472E+03  0.17200000000E+03 0.  1.
         -6    1    1    2    0  502 -0.50845440088E+02  0.84187169804E+01 -0.19654869870E+03  0.26621706281E+03  0.17200000000E+03 0.  1.
</event>
<event>
 4    1  0.1222208E+000  0.1870283E+03  0.7818608E-02  0.1161169E+00
         21   -1    0    0  503  502  0.00000000000E+00  0.00000000000E+00  0.38210416275E+03  0.38210416275E+03  0.00000000000E+00 0.  1.
         21   -1    0    0  501  503 -0.00000000000E+00 -0.00000000000E+00 -0.10814839607E+03  0.10814839607E+03  0.00000000000E+00 0.  1.
          6    1    1    2  501    0  0.57831101930E+02  0.45289627843E+02  0.40931050588E+02  0.19145479269E+03  0.17200000000E+03 0.  1.
         -6    1    1    2    0  502 -0.57831101930E+02 -0.45289627843E+02  0.23302471609E+03  0.29879776614E+03  0.17200000000E+03 0.  1.
</event>
<event>
 4    1  0.1222208E+000  0.1816755E+03  0.7818608E-02  0.1166191E+00
         21   -1    0    0  501  502  0.00000000000E+00  0.00000000000E+00  0.29946783833E+02  0.29946783833E+02  0.00000000000E+00 0.  1.
         21   -1    0    0  502  503 -0.00000000000E+00 -0.00000000000E+00 -0.15889484831E+04  0.15889484831E+04  0.00000000000E+00 0.  1.
          6    1    1    2  501    0  0.44080339252E+02  0.38456379975E+02 -0.33147131398E+03  0.37799365267E+03  0.17200000000E+03 0.  1.
         -6    1    1    2    0  503 -0.44080339252E+02 -0.38456379975E+02 -0.12275303853E+04  0.12409016143E+04  0.17200000000E+03 0.  1.
</event>
<event>
 4    1  0.1222208E+000  0.3239294E+03  0.7818608E-02  0.1073855E+00
         21   -1    0    0  501  502  0.00000000000E+00  0.00000000000E+00  0.36204173494E+03  0.36204173494E+03  0.00000000000E+00 0. -1.
         21   -1    0    0  502  503 -0.00000000000E+00 -0.00000000000E+00 -0.45549468809E+03  0.45549468809E+03  0.00000000000E+00 0. -1.
          6    1    1    2  501    0  0.50445327193E+02  0.26981762714E+03  0.19979310324E+03  0.38058844840E+03  0.17200000000E+03 0. -1.
         -6    1    1    2    0  503 -0.50445327193E+02 -0.26981762714E+03 -0.29324605639E+03  0.43694797464E+03  0.17200000000E+03 0. -1.
</event>
<event>
 4    1  0.1222208E+000  0.2284092E+03  0.7818608E-02  0.1127764E+00
         21   -1    0    0  503  502  0.00000000000E+00  0.00000000000E+00  0.20482901082E+03  0.20482901082E+03  0.00000000000E+00 0. -1.
         21   -1    0    0  501  503 -0.00000000000E+00 -0.00000000000E+00 -0.28254602399E+03  0.28254602399E+03  0.00000000000E+00 0. -1.
          6    1    1    2  501    0  0.94299966770E+02  0.11702264267E+03 -0.11535447415E+03  0.25588559423E+03  0.17200000000E+03 0. -1.
         -6    1    1    2    0  502 -0.94299966770E+02 -0.11702264267E+03  0.37637460982E+02  0.23148944058E+03  0.17200000000E+03 0. -1.
</event>
<event>
 4    1  0.1222208E+000  0.1798180E+03  0.7818608E-02  0.1167979E+00
         21   -1    0    0  503  502  0.00000000000E+00  0.00000000000E+00  0.48861336770E+02  0.48861336770E+02  0.00000000000E+00 0.  1.
         21   -1    0    0  501  503 -0.00000000000E+00 -0.00000000000E+00 -0.19426879357E+04  0.19426879357E+04  0.00000000000E+00 0.  1.
          6    1    1    2  501    0 -0.48228446256E+02 -0.20604500858E+02 -0.17554909120E+04  0.17646764209E+04  0.17200000000E+03 0.  1.
         -6    1    1    2    0  502  0.48228446256E+02  0.20604500858E+02 -0.13833568692E+03  0.22687285152E+03  0.17200000000E+03 0.  1.
</event>
<event>
 4    1  0.1222208E+000  0.1896372E+03  0.7818608E-02  0.1158789E+00
         21   -1    0    0  501  502  0.00000000000E+00  0.00000000000E+00  0.17955747584E+03  0.17955747584E+03  0.00000000000E+00 0. -1.
         21   -1    0    0  502  503 -0.00000000000E+00 -0.00000000000E+00 -0.34315446705E+03  0.34315446705E+03  0.00000000000E+00 0. -1.
          6    1    1    2  501    0 -0.41594927361E+02 -0.68177256493E+02  0.86841520834E+02  0.20857546842E+03  0.17200000000E+03 0. -1.
         -6    1    1    2    0  503  0.41594927361E+02  0.68177256493E+02 -0.25043851204E+03  0.31413647448E+03  0.17200000000E+03 0. -1.
</event>
<event>
 4    1  0.1222208E+000  0.2124390E+03  0.7818608E-02  0.1139649E+00
         21   -1    0    0  503  502  0.00000000000E+00  0.00000000000E+00  0.79901945303E+03  0.79901945303E+03  0.00000000000E+00 0. -1.
         21   -1    0    0  501  503 -0.00000000000E+00 -0.00000000000E+00 -0.83306901376E+02  0.83306901376E+02  0.00000000000E+00 0. -1.
          6    1    1    2  501    0 -0.12414400013E+03 -0.11601859868E+02  0.10751836425E+03  0.23809774163E+03  0.17200000000E+03 0.  1.
         -6    1    1    2    0  502  0.12414400013E+03  0.11601859868E+02  0.60819418741E+03  0.64422861278E+03  0.17200000000E+03 0.  1.
</event>
<event>
 4    1  0.1222208E+000  0.1968450E+03  0.7818608E-02  0.1152429E+00
         21   -1    0    0  501  502  0.00000000000E+00  0.00000000000E+00  0.41013429297E+02  0.41013429297E+02  0.00000000000E+00 0.  1.
         21   -1    0    0  502  503 -0.00000000000E+00 -0.00000000000E+00 -0.99670402043E+03  0.99670402043E+03  0.00000000000E+00 0.  1.
          6    1    1    2  501    0 -0.26963140593E+02 -0.91852842403E+02 -0.35939864727E+03  0.40977474699E+03  0.17200000000E+03 0. -1.
         -6    1    1    2    0  503  0.26963140593E+02  0.91852842403E+02 -0.59629194386E+03  0.62794270274E+03  0.17200000000E+03 0. -1.
</event>
<event>
 4    1  0.1222208E+000  0.2100351E+03  0.7818608E-02  0.1141538E+00
         21   -1    0    0  501  502  0.00000000000E+00  0.00000000000E+00  0.13555083024E+03  0.13555083024E+03  0.00000000000E+00 0.  1.
         21   -1    0    0  502  503 -0.00000000000E+00 -0.00000000000E+00 -0.43378967468E+03  0.43378967468E+03  0.00000000000E+00 0.  1.
          6    1    1    2  501    0  0.11781955861E+03 -0.25481372940E+02 -0.68537168230E+01  0.21014690621E+03  0.17200000000E+03 0.  1.
         -6    1    1    2    0  503 -0.11781955861E+03  0.25481372940E+02 -0.29138512762E+03  0.35919359871E+03  0.17200000000E+03 0.  1.
</event>
<event>
 4    1  0.1222208E+000  0.1880288E+03  0.7818608E-02  0.1160251E+00
         21   -1    0    0  501  502  0.00000000000E+00  0.00000000000E+00  0.12010829244E+03  0.12010829244E+03  0.00000000000E+00 0.  1.
         21   -1    0    0  502  503 -0.00000000000E+00 -0.00000000000E+00 -0.63267164899E+03  0.63267164899E+03  0.00000000000E+00 0.  1.
          6    1    1    2  501    0  0.32411862877E+02  0.68704347802E+02  0.18956531955E+02  0.18898192074E+03  0.17200000000E+03 0.  1.
         -6    1    1    2    0  503 -0.32411862877E+02 -0.68704347802E+02 -0.53151988851E+03  0.56379802070E+03  0.17200000000E+03 0.  1.
</event>
<event>
 4    1  0.1222208E+000  0.1937657E+03  0.7818608E-02  0.1155108E+00
         21   -1    0    0  503  502  0.00000000000E+00  0.00000000000E+00  0.10930807099E+03  0.10930807099E+03  0.00000000000E+00 0.  1.
         21   -1    0    0  501  503 -0.00000000000E+00 -0.00000000000E+00 -0.34368661829E+03  0.34368661829E+03  0.00000000000E+00 0.  1.
          6    1    1    2  501    0 -0.39905595324E+02 -0.79803999205E+02 -0.12274293774E+03  0.22937079935E+03  0.17200000000E+03 0. -1.
         -6    1    1    2    0  502  0.39905595324E+02  0.79803999205E+02 -0.11163560955E+03  0.22362388993E+03  0.17200000000E+03 0. -1.
</event>
<event>
 4    1  0.1222208E+000  0.2097053E+03  0.7818608E-02  0.1141800E+00
         21   -1    0    0  501  502  0.00000000000E+00  0.00000000000E+00  0.59002804960E+02  0.59002804960E+02  0.00000000000E+00 0. -1.
         21   -1    0    0  502  503 -0.00000000000E+00 -0.00000000000E+00 -0.98954478148E+03  0.98954478148E+03  0.00000000000E+00 0.  1.
          6    1    1    2  501    0 -0.10135476724E+03 -0.64183453038E+02 -0.20481745334E+03  0.29313221194E+03  0.17200000000E+03 0. -1.
         -6    1    1    2    0  503  0.10135476724E+03  0.64183453038E+02 -0.72572452317E+03  0.75541537449E+03  0.17200000000E+03 0. -1.
</event>
<event>
 4    1  0.1222208E+000  0.2069977E+03  0.7818608E-02  0.1143966E+00
         21   -1    0    0  503  502  0.00000000000E+00  0.00000000000E+00  0.15056519521E+03  0.15056519521E+03  0.00000000000E+00 0.  1.
         21   -1    0    0  501  503 -0.00000000000E+00 -0.00000000000E+00 -0.82381987952E+03  0.82381987952E+03  0.00000000000E+00 0.  1.
          6    1    1    2  501    0  0.11284884795E+03 -0.23004003553E+02 -0.73078952190E+03  0.75954023723E+03  0.17200000000E+03 0.  1.
         -6    1    1    2    0  502 -0.11284884795E+03  0.23004003553E+02  0.57534837589E+02  0.21484483750E+03  0.17200000000E+03 0.  1.
</event>
<event>
 4    1  0.1222208E+000  0.1758477E+03  0.7818608E-02  0.1171883E+00
         21   -1    0    0  503  502  0.00000000000E+00  0.00000000000E+00  0.11436946720E+04  0.11436946720E+04  0.00000000000E+00 0.  1.
         21   -1    0    0  501  503 -0.00000000000E+00 -0.00000000000E+00 -0.64541173533E+02  0.64541173533E+02  0.00000000000E+00 0.  1.
          6    1    1    2  501    0  0.23423723154E+02  0.28102390966E+02  0.79064317998E+02  0.19280451645E+03  0.17200000000E+03 0.  1.
         -6    1    1    2    0  502 -0.23423723154E+02 -0.28102390966E+02  0.10000891805E+04  0.10154313291E+04  0.17200000000E+03 0.  1.
</event>
<event>
 4    1  0.1222208E+000  0.1788743E+03  0.7818608E-02  0.1168897E+00
         21   -1    0    0  503  502  0.00000000000E+00  0.00000000000E+00  0.18183287794E+03  0.18183287794E+03  0.00000000000E+00 0.  1.
         21   -1    0    0  501  503 -0.00000000000E+00 -0.00000000000E+00 -0.21547216014E+03  0.21547216014E+03  0.00000000000E+00 0.  1.
          6    1    1    2  501    0  0.44150114491E+02 -0.21512664370E+02 -0.10188295448E+03  0.20585471516E+03  0.17200000000E+03 0.  1.
         -6    1    1    2    0  502 -0.44150114491E+02  0.21512664370E+02  0.68243672281E+02  0.19145032292E+03  0.17200000000E+03 0.  1.
</event>
<event>
 4    1  0.1222208E+000  0.2559669E+03  0.7818608E-02  0.1109591E+00
         21   -1    0    0  503  502  0.00000000000E+00  0.00000000000E+00  0.28455347416E+03  0.28455347416E+03  0.00000000000E+00 0.  1.
         21   -1    0    0  501  503 -0.00000000000E+00 -0.00000000000E+00 -0.54761572795E+03  0.54761572795E+03  0.00000000000E+00 0.  1.
          6    1    1    2  501    0  0.10718850508E+03  0.15635109860E+03 -0.44828522820E+03  0.51621573734E+03  0.17200000000E+03 0.  1.
         -6    1    1    2    0  502 -0.10718850508E+03 -0.15635109860E+03  0.18522297441E+03  0.31595346478E+03  0.17200000000E+03 0.  1.
</event>
<event>
 4    1  0.1222208E+000  0.2071426E+03  0.7818608E-02  0.1143849E+00
         21   -1    0    0  501  502  0.00000000000E+00  0.00000000000E+00  0.20895852168E+02  0.20895852168E+02  0.00000000000E+00 0. -1.
         21   -1    0    0  502  503 -0.00000000000E+00 -0.00000000000E+00 -0.20559045532E+04  0.20559045532E+04  0.00000000000E+00 0. -1.
          6    1    1    2  501    0 -0.10460275722E+01  0.11542509220E+03 -0.98143566937E+03  0.10030573359E+04  0.17200000000E+03 0. -1.
         -6    1    1    2    0  503  0.10460275722E+01 -0.11542509220E+03 -0.10535730316E+04  0.10737430694E+04  0.17200000000E+03 0. -1.
</event>
<event>
 4    1  0.1222208E+000  0.1968226E+03  0.7818608E-02  0.1152448E+00
         21   -1    0    0  503  502  0.00000000000E+00  0.00000000000E+00  0.33627566003E+03  0.33627566003E+03  0.00000000000E+00 0.  1.
         21   -1    0    0  501  503 -0.00000000000E+00 -0.00000000000E+00 -0.11593796630E+03  0.11593796630E+03  0.00000000000E+00 0.  1.
          6    1    1    2  501    0  0.74150166392E+02  0.60472295267E+02  0.92136465828E+02  0.21732067091E+03  0.17200000000E+03 0.  1.
         -6    1    1    2    0  502 -0.74150166392E+02 -0.60472295267E+02  0.12820122790E+03  0.23489295542E+03  0.17200000000E+03 0.  1.
</event>
<event>
 4    1  0.1222208E+000  0.2328409E+03  0.7818608E-02  0.1124656E+00
         21   -1    0    0  503  502  0.00000000000E+00  0.00000000000E+00  0.66341920569E+03  0.66341920569E+03  0.00000000000E+00 0.  1.
         21   -1    0    0  501  503 -0.00000000000E+00 -0.00000000000E+00 -0.29362066155E+03  0.29362066155E+03  0.00000000000E+00 0.  1.
          6    1    1    2  501    0  0.59014970418E+02  0.14542388724E+03 -0.22161190205E+03  0.32144472128E+03  0.17200000000E+03 0. -1.
         -6    1    1    2    0  502 -0.59014970418E+02 -0.14542388724E+03  0.59141044618E+03  0.63559514596E+03  0.17200000000E+03 0. -1.
</event>
<event>
 4    1  0.1222208E+000  0.1862712E+03  0.7818608E-02  0.1161868E+00
         21   -1    0    0  503  502  0.00000000000E+00  0.00000000000E+00  0.33929379673E+03  0.33929379673E+03  0.00000000000E+00 0.  1.
         21   -1    0    0  501  503 -0.00000000000E+00 -0.00000000000E+00 -0.10505116168E+03  0.10505116168E+03  0.00000000000E+00 0.  1.
          6    1    1    2  501    0 -0.32015070599E+02 -0.63937557228E+02  0.80921983654E+02  0.20308949606E+03  0.17200000000E+03 0. -1.
         -6    1    1    2    0  502  0.32015070599E+02  0.63937557228E+02  0.15332065140E+03  0.24125546236E+03  0.17200000000E+03 0. -1.
</event>
<event>
 4    1  0.1222208E+000  0.1796511E+03  0.7818608E-02  0.1168141E+00
         21   -1    0    0  501  502  0.00000000000E+00  0.00000000000E+00  0.57571663990E+02  0.57571663990E+02  0.00000000000E+00 0.  1.
         21   -1    0    0  502  503 -0.00000000000E+00 -0.00000000000E+00 -0.71189866291E+03  0.71189866291E+03  0.00000000000E+00 0.  1.
          6    1    1    2  501    0  0.51855950494E+02 -0.12126952600E+01 -0.14979583766E+03  0.23390874975E+03  0.17200000000E+03 0.  1.
         -6    1    1    2    0  503 -0.51855950494E+02  0.12126952600E+01 -0.50453116126E+03  0.53556157715E+03  0.17200000000E+03 0.  1.
</event>
<event>
 4    1  0.1222208E+000  0.1962973E+03  0.7818608E-02  0.1152901E+00
         21   -1    0    0  503  502  0.00000000000E+00  0.00000000000E+00  0.26698171508E+04  0.26698171508E+04  0.00000000000E+00 0.  1.
         21   -1    0    0  501  503 -0.00000000000E+00 -0.00000000000E+00 -0.15956854019E+02  0.15956854019E+02  0.00000000000E+00 0.  1.
          6    1    1    2  501    0 -0.89822028396E+02 -0.29675495506E+02  0.91189746399E+03  0.93278594363E+03  0.17200000000E+03 0. -1.
         -6    1    1    2    0  502  0.89822028396E+02  0.29675495506E+02  0.17419628328E+04  0.17529880612E+04  0.17200000000E+03 0. -1.
</event>
<event>
 4    1  0.1222208E+000  0.1775944E+03  0.7818608E-02  0.1170152E+00
         21   -1    0    0  501  502  0.00000000000E+00  0.00000000000E+00  0.11754263304E+03  0.11754263304E+03  0.00000000000E+00 0.  1.
         21   -1    0    0  502  503 -0.00000000000E+00 -0.00000000000E+00 -0.43920815270E+03  0.43920815270E+03  0.00000000000E+00 0.  1.
          6    1    1    2  501    0  0.43273703465E+02  0.91184749654E+01  0.12804863466E+02  0.17805539735E+03  0.17200000000E+03 0.  1.
         -6    1    1    2    0  503 -0.43273703465E+02 -0.91184749654E+01 -0.33447038313E+03  0.37869538839E+03  0.17200000000E+03 0.  1.
</event>
<event>
 4    1  0.1222208E+000  0.1765018E+03  0.7818608E-02  0.1171232E+00
         21   -1    0    0  503  502  0.00000000000E+00  0.00000000000E+00  0.71637848568E+02  0.71637848568E+02  0.00000000000E+00 0.  1.
         21   -1    0    0  501  503 -0.00000000000E+00 -0.00000000000E+00 -0.44136279016E+03  0.44136279016E+03  0.00000000000E+00 0.  1.
          6    1    1    2  501    0  0.39041706131E+02  0.66808360802E+01 -0.15374327261E+03  0.23407238680E+03  0.17200000000E+03 0.  1.
         -6    1    1    2    0  502 -0.39041706131E+02 -0.66808360802E+01 -0.21598166898E+03  0.27892825193E+03  0.17200000000E+03 0.  1.
</event>
<event>
 4    1  0.1222208E+000  0.2150493E+03  0.7818608E-02  0.1137629E+00
         21   -1    0    0  503  502  0.00000000000E+00  0.00000000000E+00  0.13865670517E+03  0.13865670517E+03  0.00000000000E+00 0.  1.
         21   -1    0    0  501  503 -0.00000000000E+00 -0.00000000000E+00 -0.36910889569E+03  0.36910889569E+03  0.00000000000E+00 0.  1.
          6    1    1    2  501    0  0.12493918316E+03 -0.32440888451E+02 -0.19404864910E+03  0.28965684689E+03  0.17200000000E+03 0.  1.
         -6    1    1    2    0  502 -0.12493918316E+03  0.32440888451E+02 -0.36403541430E+02  0.21810875397E+03  0.17200000000E+03 0.  1.
</event>
<event>
 4    1  0.1222208E+000  0.1810926E+03  0.7818608E-02  0.1166750E+00
         21   -1    0    0  503  502  0.00000000000E+00  0.00000000000E+00  0.70814215202E+02  0.70814215202E+02  0.00000000000E+00 0. -1.
         21   -1    0    0  501  503 -0.00000000000E+00 -0.00000000000E+00 -0.47751768592E+03  0.47751768592E+03  0.00000000000E+00 0. -1.
          6    1    1    2  501    0 -0.56626249694E+02 -0.20023506087E+01 -0.25098000161E+03  0.30949233072E+03  0.17200000000E+03 0. -1.
         -6    1    1    2    0  502  0.56626249694E+02  0.20023506087E+01 -0.15572346911E+03  0.23883957041E+03  0.17200000000E+03 0. -1.
</event>
<event>
 4    1  0.1222208E+000  0.1770214E+03  0.7818608E-02  0.1170717E+00
         21   -1    0    0  501  502  0.00000000000E+00  0.00000000000E+00  0.96910541385E+03  0.96910541385E+03  0.00000000000E+00 0.  1.
         21   -1    0    0  502  503 -0.00000000000E+00 -0.00000000000E+00 -0.60457779216E+02  0.60457779216E+02  0.00000000000E+00 0.  1.
          6    1    1    2  501    0  0.16669970381E+02 -0.38401448805E+02  0.80541649202E+03  0.82464070043E+03  0.17200000000E+03 0. -1.
         -6    1    1    2    0  503 -0.16669970381E+02  0.38401448805E+02  0.10323114261E+03  0.20492249263E+03  0.17200000000E+03 0. -1.
</event>
<event>
 4    1  0.1222208E+000  0.2555134E+03  0.7818608E-02  0.1109869E+00
         21   -1    0    0  501  502  0.00000000000E+00  0.00000000000E+00  0.62195796901E+03  0.62195796901E+03  0.00000000000E+00 0. -1.
         21   -1    0    0  502  503 -0.00000000000E+00 -0.00000000000E+00 -0.10524795703E+03  0.10524795703E+03  0.00000000000E+00 0. -1.
          6    1    1    2  501    0  0.17438454301E+03  0.72753750274E+02  0.23967735939E+03  0.35033171941E+03  0.17200000000E+03 0. -1.
         -6    1    1    2    0  503 -0.17438454301E+03 -0.72753750274E+02  0.27703265259E+03  0.37687420663E+03  0.17200000000E+03 0. -1.
</event>
<event>
 4    1  0.1222208E+000  0.1987788E+03  0.7818608E-02  0.1150773E+00
         21   -1    0    0  503  502  0.00000000000E+00  0.00000000000E+00  0.19477261906E+03  0.19477261906E+03  0.00000000000E+00 0. -1.
         21   -1    0    0  501  503 -0.00000000000E+00 -0.00000000000E+00 -0.38258243386E+03  0.38258243386E+03  0.00000000000E+00 0. -1.
          6    1    1    2  501    0  0.41290912603E+02 -0.90686617123E+02 -0.29175795611E+03  0.35303782650E+03  0.17200000000E+03 0. -1.
         -6    1    1    2    0  502 -0.41290912603E+02  0.90686617123E+02  0.10394814131E+03  0.22431722642E+03  0.17200000000E+03 0. -1.
</event>
<event>
 4    1  0.1222208E+000  0.2293492E+03  0.7818608E-02  0.1127099E+00
         21   -1    0    0  503  502  0.00000000000E+00  0.00000000000E+00  0.39238961216E+02  0.39238961216E+02  0.00000000000E+00 0. -1.
         21   -1    0    0  501  503 -0.00000000000E+00 -0.00000000000E+00 -0.15657669322E+04  0.15657669322E+04  0.00000000000E+00 0. -1.
          6    1    1    2  501    0 -0.14491501403E+03 -0.44907696006E+02 -0.10676337158E+04  0.10919902993E+04  0.17200000000E+03 0. -1.
         -6    1    1    2    0  502  0.14491501403E+03  0.44907696006E+02 -0.45889425511E+03  0.51301559413E+03  0.17200000000E+03 0. -1.
</event>
<event>
 4    1  0.1222208E+000  0.1993240E+03  0.7818608E-02  0.1150311E+00
         21   -1    0    0  501  502  0.00000000000E+00  0.00000000000E+00  0.52346134828E+03  0.52346134828E+03  0.00000000000E+00 0. -1.
         21   -1    0    0  502  503 -0.00000000000E+00 -0.00000000000E+00 -0.14758503184E+03  0.14758503184E+03  0.00000000000E+00 0.  1.
          6    1    1    2  501    0  0.12315096868E+02  0.99971971772E+02  0.42177850357E+03  0.46650526559E+03  0.17200000000E+03 0. -1.
         -6    1    1    2    0  503 -0.12315096868E+02 -0.99971971772E+02 -0.45902187134E+02  0.20454111453E+03  0.17200000000E+03 0.  1.
</event>
<event>
 4    1  0.1222208E+000  0.1948916E+03  0.7818608E-02  0.1154122E+00
         21   -1    0    0  501  502  0.00000000000E+00  0.00000000000E+00  0.20166026020E+03  0.20166026020E+03  0.00000000000E+00 0.  1.
         21   -1    0    0  502  503 -0.00000000000E+00 -0.00000000000E+00 -0.41818183772E+03  0.41818183772E+03  0.00000000000E+00 0.  1.
          6    1    1    2  501    0  0.22458533901E+02  0.88850236041E+02  0.12149866840E+03  0.22966209224E+03  0.17200000000E+03 0.  1.
         -6    1    1    2    0  503 -0.22458533901E+02 -0.88850236041E+02 -0.33802024592E+03  0.39018000569E+03  0.17200000000E+03 0.  1.
</event>
<event>
 4    1  0.1222208E+000  0.1891350E+03  0.7818608E-02  0.1159244E+00
         21   -1    0    0  503  502  0.00000000000E+00  0.00000000000E+00  0.25972933146E+03  0.25972933146E+03  0.00000000000E+00 0.  1.
         21   -1    0    0  501  503 -0.00000000000E+00 -0.00000000000E+00 -0.19603707958E+03  0.19603707958E+03  0.00000000000E+00 0.  1.
          6    1    1    2  501    0  0.58736098664E+02  0.52326950681E+02 -0.92436597193E+02  0.21051499603E+03  0.17200000000E+03 0.  1.
         -6    1    1    2    0  502 -0.58736098664E+02 -0.52326950681E+02  0.15612884907E+03  0.24525141501E+03  0.17200000000E+03 0.  1.
</event>
<event>
 4    1  0.1222208E+000  0.2223252E+03  0.7818608E-02  0.1132161E+00
         21   -1    0    0  503  502  0.00000000000E+00  0.00000000000E+00  0.62867490378E+03  0.62867490378E+03  0.00000000000E+00 0. -1.
         21   -1    0    0  501  503 -0.00000000000E+00 -0.00000000000E+00 -0.90998623343E+02  0.90998623343E+02  0.00000000000E+00 0. -1.
          6    1    1    2  501    0 -0.62699499630E+02 -0.12614785120E+03  0.13613962547E+03  0.26069619337E+03  0.17200000000E+03 0. -1.
         -6    1    1    2    0  502  0.62699499630E+02  0.12614785120E+03  0.40153665497E+03  0.45897733375E+03  0.17200000000E+03 0. -1.
</event>
<event>
 4    1  0.1222208E+000  0.1800124E+03  0.7818608E-02  0.1167791E+00
         21   -1    0    0  503  502  0.00000000000E+00  0.00000000000E+00  0.52702032676E+02  0.52702032676E+02  0.00000000000E+00 0.  1.
         21   -1    0    0  501  503 -0.00000000000E+00 -0.00000000000E+00 -0.66087005303E+03  0.66087005303E+03  0.00000000000E+00 0.  1.
          6    1    1    2  501    0  0.25960979370E+02 -0.46330192204E+02 -0.39822274670E+03  0.43701923888E+03  0.17200000000E+03 0.  1.
         -6    1    1    2    0  502 -0.25960979370E+02  0.46330192204E+02 -0.20994527365E+03  0.27655284683E+03  0.17200000000E+03 0.  1.
</event>
<event>
 4    1  0.1222208E+000  0.1769526E+03  0.7818608E-02  0.1170785E+00
         21   -1    0    0  503  502  0.00000000000E+00  0.00000000000E+00  0.30594006302E+03  0.30594006302E+03  0.00000000000E+00 0. -1.
         21   -1    0    0  501  503 -0.00000000000E+00 -0.00000000000E+00 -0.10871420333E+03  0.10871420333E+03  0.00000000000E+00 0. -1.
          6    1    1    2  501    0  0.41343583336E+02  0.43494114292E+01  0.48440014172E+02  0.18346292333E+03  0.17200000000E+03 0.  1.
         -6    1    1    2    0  502 -0.41343583336E+02 -0.43494114292E+01  0.14878584552E+03  0.23119134303E+03  0.17200000000E+03 0.  1.
</event>
<event>
 4    1  0.1222208E+000  0.2136451E+03  0.7818608E-02  0.1138712E+00
         21   -1    0    0  501  502  0.00000000000E+00  0.00000000000E+00  0.18693923642E+03  0.18693923642E+03  0.00000000000E+00 0.  1.
         21   -1    0    0  502  503 -0.00000000000E+00 -0.00000000000E+00 -0.32848489708E+03  0.32848489708E+03  0.00000000000E+00 0. -1.
          6    1    1    2  501    0  0.11062461321E+03  0.61825687837E+02  0.59795936009E+02  0.22185530124E+03  0.17200000000E+03 0.  1.
         -6    1    1    2    0  503 -0.11062461321E+03 -0.61825687837E+02 -0.20134159668E+03  0.29356883226E+03  0.17200000000E+03 0. -1.
</event>
<event>
 4    1  0.1222208E+000  0.2095095E+03  0.7818608E-02  0.1141955E+00
         21   -1    0    0  503  502  0.00000000000E+00  0.00000000000E+00  0.14627331987E+03  0.14627331987E+03  0.00000000000E+00 0. -1.
         21   -1    0    0  501  503 -0.00000000000E+00 -0.00000000000E+00 -0.31039658659E+03  0.31039658659E+03  0.00000000000E+00 0.  1.
          6    1    1    2  501    0 -0.46865629183E+02  0.11006291653E+03 -0.12368190871E+03  0.24329292496E+03  0.17200000000E+03 0.  1.
         -6    1    1    2    0  502  0.46865629183E+02 -0.11006291653E+03 -0.40441358011E+02  0.21337698150E+03  0.17200000000E+03 0. -1.
</event>
<event>
 4    1  0.1222208E+000  0.2317441E+03  0.7818608E-02  0.1125418E+00
         21   -1    0    0  501  502  0.00000000000E+00  0.00000000000E+00  0.17153544275E+03  0.17153544275E+03  0.00000000000E+00 0. -1.
         21   -1    0    0  502  503 -0.00000000000E+00 -0.00000000000E+00 -0.67105722040E+03  0.67105722040E+03  0.00000000000E+00 0. -1.
          6    1    1    2  501    0 -0.55782331524E+02 -0.14494706021E+03  0.57942338869E+02  0.23887786295E+03  0.17200000000E+03 0. -1.
         -6    1    1    2    0  503  0.55782331524E+02  0.14494706021E+03 -0.55746411652E+03  0.60371480020E+03  0.17200000000E+03 0. -1.
</event>
<event>
 4    1  0.1222208E+000  0.1764912E+03  0.7818608E-02  0.1171243E+00
         21   -1    0    0  503  502  0.00000000000E+00  0.00000000000E+00  0.65022809247E+03  0.65022809247E+03  0.00000000000E+00 0.  1.
         21   -1    0    0  501  503 -0.00000000000E+00 -0.00000000000E+00 -0.49407942779E+02  0.49407942779E+02  0.00000000000E+00 0.  1.
          6    1    1    2  501    0 -0.24245919719E+01 -0.39487624043E+02  0.23939730859E+03  0.29742263273E+03  0.17200000000E+03 0.  1.
         -6    1    1    2    0  502  0.24245919719E+01  0.39487624043E+02  0.36142284111E+03  0.40221340253E+03  0.17200000000E+03 0.  1.
</event>
<event>
 4    1  0.1222208E+000  0.2538468E+03  0.7818608E-02  0.1110898E+00
         21   -1    0    0  501  502  0.00000000000E+00  0.00000000000E+00  0.14241833067E+04  0.14241833067E+04  0.00000000000E+00 0.  1.
         21   -1    0    0  502  503 -0.00000000000E+00 -0.00000000000E+00 -0.45580080756E+02  0.45580080756E+02  0.00000000000E+00 0. -1.
          6    1    1    2  501    0  0.18423023826E+03 -0.30223084222E+02  0.75224209428E+03  0.79391837359E+03  0.17200000000E+03 0. -1.
         -6    1    1    2    0  503 -0.18423023826E+03  0.30223084222E+02  0.62636113162E+03  0.67584501383E+03  0.17200000000E+03 0.  1.
</event>
<event>
 4    1  0.1222208E+000  0.2025492E+03  0.7818608E-02  0.1147606E+00
         21   -1    0    0  501  502  0.00000000000E+00  0.00000000000E+00  0.40194288698E+03  0.40194288698E+03  0.00000000000E+00 0.  1.
         21   -1    0    0  502  503 -0.00000000000E+00 -0.00000000000E+00 -0.11679086394E+03  0.11679086394E+03  0.00000000000E+00 0.  1.
          6    1    1    2  501    0 -0.17882466463E+02 -0.10546281660E+03  0.23465938216E+03  0.30998582859E+03  0.17200000000E+03 0. -1.
         -6    1    1    2    0  503  0.17882466463E+02  0.10546281660E+03  0.50492640884E+02  0.20874792233E+03  0.17200000000E+03 0. -1.
</event>
<event>
 4    1  0.1222208E+000  0.2164263E+03  0.7818608E-02  0.1136576E+00
         21   -1    0    0  501  502  0.00000000000E+00  0.00000000000E+00  0.92062242401E+02  0.92062242401E+02  0.00000000000E+00 0.  1.
         21   -1    0    0  502  503 -0.00000000000E+00 -0.00000000000E+00 -0.58412275107E+03  0.58412275107E+03  0.00000000000E+00 0.  1.
          6    1    1    2  501    0 -0.89301912461E+02 -0.96340503419E+02 -0.12461419275E+03  0.24973790502E+03  0.17200000000E+03 0.  1.
         -6    1    1    2    0  503  0.89301912461E+02  0.96340503419E+02 -0.36744631592E+03  0.42644708846E+03  0.17200000000E+03 0.  1.
</event>
<event>
 4    1  0.1222208E+000  0.2081467E+03  0.7818608E-02  0.1143042E+00
         21   -1    0    0  503  502  0.00000000000E+00  0.00000000000E+00  0.45636680585E+03  0.45636680585E+03  0.00000000000E+00 0. -1.
         21   -1    0    0  501  503 -0.00000000000E+00 -0.00000000000E+00 -0.17783756815E+03  0.17783756815E+03  0.00000000000E+00 0.  1.
          6    1    1    2  501    0 -0.10846210152E+03  0.44463858857E+02  0.35577173016E+03  0.41218756191E+03  0.17200000000E+03 0. -1.
         -6    1    1    2    0  502  0.10846210152E+03 -0.44463858857E+02 -0.77242492462E+02  0.22201681209E+03  0.17200000000E+03 0.  1.
</event>
<event>
 4    1  0.1222208E+000  0.1855884E+03  0.7818608E-02  0.1162502E+00
         21   -1    0    0  501  502  0.00000000000E+00  0.00000000000E+00  0.38557382750E+03  0.38557382750E+03  0.00000000000E+00 0. -1.
         21   -1    0    0  502  503 -0.00000000000E+00 -0.00000000000E+00 -0.13459198390E+03  0.13459198390E+03  0.00000000000E+00 0. -1.
          6    1    1    2  501    0  0.43064895538E+02 -0.54813130647E+02  0.27631547889E+03  0.33285628790E+03  0.17200000000E+03 0. -1.
         -6    1    1    2    0  503 -0.43064895538E+02  0.54813130647E+02 -0.25333635284E+02  0.18730952351E+03  0.17200000000E+03 0. -1.
</event>
<event>
 4    1  0.1222208E+000  0.1748069E+03  0.7818608E-02  0.1172926E+00
         21   -1    0    0  501  502  0.00000000000E+00  0.00000000000E+00  0.91753789884E+02  0.91753789884E+02  0.00000000000E+00 0. -1.
         21   -1    0    0  502  503 -0.00000000000E+00 -0.00000000000E+00 -0.55994593584E+03  0.55994593584E+03  0.00000000000E+00 0. -1.
          6    1    1    2  501    0  0.52484261607E+01 -0.30755547114E+02 -0.26666894200E+02  0.17682921959E+03  0.17200000000E+03 0. -1.
         -6    1    1    2    0  503 -0.52484261607E+01  0.30755547114E+02 -0.44152525175E+03  0.47487050613E+03  0.17200000000E+03 0. -1.
</event>
<event>
 4    1  0.1222208E+000  0.2575605E+03  0.7818608E-02  0.1108618E+00
         21   -1    0    0  501  502  0.00000000000E+00  0.00000000000E+00  0.59377424779E+03  0.59377424779E+03  0.00000000000E+00 0. -1.
         21   -1    0    0  502  503 -0.00000000000E+00 -0.00000000000E+00 -0.11172777278E+03  0.11172777278E+03  0.00000000000E+00 0.  1.
          6    1    1    2  501    0 -0.18978320413E+03 -0.27124373790E+02  0.24364977665E+03  0.35454563865E+03  0.17200000000E+03 0. -1.
         -6    1    1    2    0  503  0.18978320413E+03  0.27124373790E+02  0.23839669835E+03  0.35095638192E+03  0.17200000000E+03 0. -1.
</event>
<event>
 4    1  0.1222208E+000  0.1794276E+03  0.7818608E-02  0.1168358E+00
         21   -1    0    0  501  502  0.00000000000E+00  0.00000000000E+00  0.25969266383E+02  0.25969266383E+02  0.00000000000E+00 0.  1.
         21   -1    0    0  502  503 -0.00000000000E+00 -0.00000000000E+00 -0.13757569201E+04  0.13757569201E+04  0.00000000000E+00 0.  1.
          6    1    1    2  501    0 -0.19109036852E+02  0.47382656515E+02 -0.89529408134E+03  0.91309679854E+03  0.17200000000E+03 0. -1.
         -6    1    1    2    0  503  0.19109036852E+02 -0.47382656515E+02 -0.45449357240E+03  0.48862938796E+03  0.17200000000E+03 0. -1.
</event>
<event>
 4    1  0.1222208E+000  0.2005671E+03  0.7818608E-02  0.1149261E+00
         21   -1    0    0  501  502  0.00000000000E+00  0.00000000000E+00  0.40316559549E+03  0.40316559549E+03  0.00000000000E+00 0. -1.
         21   -1    0    0  502  503 -0.00000000000E+00 -0.00000000000E+00 -0.99955154130E+02  0.99955154130E+02  0.00000000000E+00 0. -1.
          6    1    1    2  501    0 -0.81269751065E+02  0.63548268453E+02  0.14102202334E+03  0.24518231161E+03  0.17200000000E+03 0. -1.
         -6    1    1    2    0  503  0.81269751065E+02 -0.63548268453E+02  0.16218841803E+03  0.25793843801E+03  0.17200000000E+03 0. -1.
</event>
<event>
 4    1  0.1222208E+000  0.2704317E+03  0.7818608E-02  0.1101033E+00
         21   -1    0    0  501  502  0.00000000000E+00  0.00000000000E+00  0.26823739080E+03  0.26823739080E+03  0.00000000000E+00 0. -1.
         21   -1    0    0  502  503 -0.00000000000E+00 -0.00000000000E+00 -0.61874029139E+03  0.61874029139E+03  0.00000000000E+00 0.  1.
          6    1    1    2  501    0  0.15463810742E+03  0.14012983057E+03  0.15643442243E+03  0.31241805678E+03  0.17200000000E+03 0. -1.
         -6    1    1    2    0  503 -0.15463810742E+03 -0.14012983057E+03 -0.50693732303E+03  0.57455962542E+03  0.17200000000E+03 0.  1.
</event>
<event>
 4    1  0.1222208E+000  0.1864706E+03  0.7818608E-02  0.1161684E+00
         21   -1    0    0  503  502  0.00000000000E+00  0.00000000000E+00  0.60390829082E+03  0.60390829082E+03  0.00000000000E+00 0. -1.
         21   -1    0    0  501  503 -0.00000000000E+00 -0.00000000000E+00 -0.88727023974E+02  0.88727023974E+02  0.00000000000E+00 0. -1.
          6    1    1    2  501    0  0.37474929610E+02  0.61505450671E+02  0.46278958679E+03  0.49894437812E+03  0.17200000000E+03 0. -1.
         -6    1    1    2    0  502 -0.37474929610E+02 -0.61505450671E+02  0.52391680052E+02  0.19369093668E+03  0.17200000000E+03 0. -1.
</event>
<event>
 4    1  0.1222208E+000  0.1814108E+03  0.7818608E-02  0.1166445E+00
         21   -1    0    0  503  502  0.00000000000E+00  0.00000000000E+00  0.57063829858E+02  0.57063829858E+02  0.00000000000E+00 0.  1.
         21   -1    0    0  501  503 -0.00000000000E+00 -0.00000000000E+00 -0.70710378392E+03  0.70710378392E+03  0.00000000000E+00 0. -1.
          6    1    1    2  501    0  0.54136875643E+02  0.19876778315E+02 -0.48908945680E+03  0.52164967591E+03  0.17200000000E+03 0. -1.
         -6    1    1    2    0  502 -0.54136875643E+02 -0.19876778315E+02 -0.16095049726E+03  0.24251793787E+03  0.17200000000E+03 0.  1.
</event>
<event>
 4    1  0.1222208E+000  0.2080049E+03  0.7818608E-02  0.1143156E+00
         21   -1    0    0  501  502  0.00000000000E+00  0.00000000000E+00  0.73915529469E+02  0.73915529469E+02  0.00000000000E+00 0. -1.
         21   -1    0    0  502  503 -0.00000000000E+00 -0.00000000000E+00 -0.81543983557E+03  0.81543983557E+03  0.00000000000E+00 0. -1.
          6    1    1    2  501    0 -0.98954888924E+02  0.62369653594E+02 -0.13454939969E+03  0.24772885316E+03  0.17200000000E+03 0. -1.
         -6    1    1    2    0  503  0.98954888924E+02 -0.62369653594E+02 -0.60697490641E+03  0.64162651188E+03  0.17200000000E+03 0. -1.
</event>
<event>
 4    1  0.1222208E+000  0.1775296E+03  0.7818608E-02  0.1170216E+00
         21   -1    0    0  501  502  0.00000000000E+00  0.00000000000E+00  0.22331537045E+03  0.22331537045E+03  0.00000000000E+00 0. -1.
         21   -1    0    0  502  503 -0.00000000000E+00 -0.00000000000E+00 -0.14444920246E+03  0.14444920246E+03  0.00000000000E+00 0. -1.
          6    1    1    2  501    0  0.60715844206E+01 -0.43541802463E+02  0.11563875653E+02  0.17790580631E+03  0.17200000000E+03 0.  1.
         -6    1    1    2    0  503 -0.60715844206E+01  0.43541802463E+02  0.67302292340E+02  0.18985876660E+03  0.17200000000E+03 0.  1.
</event>
<event>
 4    1  0.1222208E+000  0.1764326E+03  0.7818608E-02  0.1171301E+00
         21   -1    0    0  503  502  0.00000000000E+00  0.00000000000E+00  0.30494192503E+03  0.30494192503E+03  0.00000000000E+00 0. -1.
         21   -1    0    0  501  503 -0.00000000000E+00 -0.00000000000E+00 -0.10611036778E+03  0.10611036778E+03  0.00000000000E+00 0. -1.
          6    1    1    2  501    0  0.36277896052E+02 -0.15112605819E+02  0.59360510342E+02  0.18615087103E+03  0.17200000000E+03 0. -1.
         -6    1    1    2    0  502 -0.36277896052E+02  0.15112605819E+02  0.13947104691E+03  0.22490142179E+03  0.17200000000E+03 0. -1.
</event>
<event>
 4    1  0.1222208E+000  0.1831972E+03  0.7818608E-02  0.1164744E+00
         21   -1    0    0  503  502  0.00000000000E+00  0.00000000000E+00  0.51092591635E+02  0.51092591635E+02  0.00000000000E+00 0. -1.
         21   -1    0    0  501  503 -0.00000000000E+00 -0.00000000000E+00 -0.82935138951E+03  0.82935138951E+03  0.00000000000E+00 0. -1.
          6    1    1    2  501    0 -0.38657123680E+02 -0.49828110508E+02 -0.58988746150E+03  0.61767987748E+03  0.17200000000E+03 0.  1.
         -6    1    1    2    0  502  0.38657123680E+02  0.49828110508E+02 -0.18837133638E+03  0.26276410367E+03  0.17200000000E+03 0.  1.
</event>
<event>
 4    1  0.1222208E+000  0.1898070E+03  0.7818608E-02  0.1158636E+00
         21   -1    0    0  503  502  0.00000000000E+00  0.00000000000E+00  0.72398870408E+03  0.72398870408E+03  0.00000000000E+00 0. -1.
         21   -1    0    0  501  503 -0.00000000000E+00 -0.00000000000E+00 -0.49789292229E+02  0.49789292229E+02  0.00000000000E+00 0. -1.
          6    1    1    2  501    0  0.35146006509E+02  0.72162676841E+02  0.32794306216E+03  0.37891073583E+03  0.17200000000E+03 0. -1.
         -6    1    1    2    0  502 -0.35146006509E+02 -0.72162676841E+02  0.34625634969E+03  0.39486726048E+03  0.17200000000E+03 0. -1.
</event>
<event>
 4    1  0.1222208E+000  0.1902315E+03  0.7818608E-02  0.1158253E+00
         21   -1    0    0  501  502  0.00000000000E+00  0.00000000000E+00  0.44695415174E+02  0.44695415174E+02  0.00000000000E+00 0.  1.
         21   -1    0    0  502  503 -0.00000000000E+00 -0.00000000000E+00 -0.97598018452E+03  0.97598018452E+03  0.00000000000E+00 0.  1.
          6    1    1    2  501    0 -0.76042631821E+02  0.28662519131E+02 -0.25496801556E+03  0.31811430464E+03  0.17200000000E+03 0.  1.
         -6    1    1    2    0  503  0.76042631821E+02 -0.28662519131E+02 -0.67631675379E+03  0.70256129505E+03  0.17200000000E+03 0.  1.
</event>
<event>
 4    1  0.1222208E+000  0.2356917E+03  0.7818608E-02  0.1122697E+00
         21   -1    0    0  501  502  0.00000000000E+00  0.00000000000E+00  0.49100316395E+03  0.49100316395E+03  0.00000000000E+00 0. -1.
         21   -1    0    0  502  503 -0.00000000000E+00 -0.00000000000E+00 -0.12800824812E+03  0.12800824812E+03  0.00000000000E+00 0. -1.
          6    1    1    2  501    0  0.12441894995E+03 -0.10240372956E+03  0.28699058517E+03  0.37136800470E+03  0.17200000000E+03 0. -1.
         -6    1    1    2    0  503 -0.12441894995E+03  0.10240372956E+03  0.76004330659E+02  0.24764340737E+03  0.17200000000E+03 0. -1.
</event>
<event>
 4    1  0.1222208E+000  0.2324526E+03  0.7818608E-02  0.1124925E+00
         21   -1    0    0  501  502  0.00000000000E+00  0.00000000000E+00  0.11961260538E+03  0.11961260538E+03  0.00000000000E+00 0. -1.
         21   -1    0    0  502  503 -0.00000000000E+00 -0.00000000000E+00 -0.47663653001E+03  0.47663653001E+03  0.00000000000E+00 0. -1.
          6    1    1    2  501    0  0.11978461458E+03 -0.10050799621E+03 -0.11038117470E+03  0.25732900132E+03  0.17200000000E+03 0. -1.
         -6    1    1    2    0  503 -0.11978461458E+03  0.10050799621E+03 -0.24664274993E+03  0.33892013408E+03  0.17200000000E+03 0. -1.
</event>
<event>
 4    1  0.1222208E+000  0.3473405E+03  0.7818608E-02  0.1063712E+00
         21   -1    0    0  501  502  0.00000000000E+00  0.00000000000E+00  0.60215414734E+03  0.60215414734E+03  0.00000000000E+00 0. -1.
         21   -1    0    0  502  503 -0.00000000000E+00 -0.00000000000E+00 -0.42810680303E+03  0.42810680303E+03  0.00000000000E+00 0.  1.
          6    1    1    2  501    0  0.15406377236E+03 -0.25947204912E+03  0.46274931001E+03  0.57860376264E+03  0.17200000000E+03 0. -1.
         -6    1    1    2    0  503 -0.15406377236E+03  0.25947204912E+03 -0.28870196570E+03  0.45165718773E+03  0.17200000000E+03 0.  1.
</event>
<event>
 4    1  0.1222208E+000  0.2342019E+03  0.7818608E-02  0.1123717E+00
         21   -1    0    0  501  502  0.00000000000E+00  0.00000000000E+00  0.24098619814E+02  0.24098619814E+02  0.00000000000E+00 0.  1.
         21   -1    0    0  502  503 -0.00000000000E+00 -0.00000000000E+00 -0.23465975928E+04  0.23465975928E+04  0.00000000000E+00 0. -1.
          6    1    1    2  501    0  0.15374472428E+03 -0.40362177905E+02 -0.95577636773E+03  0.98405234148E+03  0.17200000000E+03 0.  1.
         -6    1    1    2    0  503 -0.15374472428E+03  0.40362177905E+02 -0.13667226053E+04  0.13866438711E+04  0.17200000000E+03 0. -1.
</event>
<event>
 4    1  0.1222208E+000  0.2054373E+03  0.7818608E-02  0.1145231E+00
         21   -1    0    0  503  502  0.00000000000E+00  0.00000000000E+00  0.89266119989E+02  0.89266119989E+02  0.00000000000E+00 0. -1.
         21   -1    0    0  501  503 -0.00000000000E+00 -0.00000000000E+00 -0.65767513261E+03  0.65767513261E+03  0.00000000000E+00 0. -1.
          6    1    1    2  501    0  0.62273191167E+02 -0.93501428837E+02 -0.48221913607E+03  0.52415623885E+03  0.17200000000E+03 0. -1.
         -6    1    1    2    0  502 -0.62273191167E+02  0.93501428837E+02 -0.86189876557E+02  0.22278501375E+03  0.17200000000E+03 0. -1.
</event>
<event>
 4    1  0.1222208E+000  0.1796232E+03  0.7818608E-02  0.1168168E+00
         21   -1    0    0  501  502  0.00000000000E+00  0.00000000000E+00  0.16047346505E+04  0.16047346505E+04  0.00000000000E+00 0. -1.
         21   -1    0    0  502  503 -0.00000000000E+00 -0.00000000000E+00 -0.22228113546E+02  0.22228113546E+02  0.00000000000E+00 0. -1.
          6    1    1    2  501    0  0.20259345825E+02  0.47645158405E+02  0.53989146449E+03  0.56898795738E+03  0.17200000000E+03 0. -1.
         -6    1    1    2    0  503 -0.20259345825E+02 -0.47645158405E+02  0.10426150725E+04  0.10579748067E+04  0.17200000000E+03 0. -1.
</event>
<event>
 4    1  0.1222208E+000  0.2036513E+03  0.7818608E-02  0.1146694E+00
         21   -1    0    0  503  502  0.00000000000E+00  0.00000000000E+00  0.52835361585E+02  0.52835361585E+02  0.00000000000E+00 0.  1.
         21   -1    0    0  501  503 -0.00000000000E+00 -0.00000000000E+00 -0.93707106086E+03  0.93707106086E+03  0.00000000000E+00 0.  1.
          6    1    1    2  501    0  0.98735439766E+02  0.46272926149E+02 -0.64153026442E+03  0.67307871080E+03  0.17200000000E+03 0.  1.
         -6    1    1    2    0  502 -0.98735439766E+02 -0.46272926149E+02 -0.24270543485E+03  0.31682771165E+03  0.17200000000E+03 0.  1.
</event>
<event>
 4    1  0.1222208E+000  0.1777695E+03  0.7818608E-02  0.1169979E+00
         21   -1    0    0  503  502  0.00000000000E+00  0.00000000000E+00  0.28191804832E+02  0.28191804832E+02  0.00000000000E+00 0.  1.
         21   -1    0    0  501  503 -0.00000000000E+00 -0.00000000000E+00 -0.11525928675E+04  0.11525928675E+04  0.00000000000E+00 0.  1.
          6    1    1    2  501    0  0.32431825671E+02 -0.31083027258E+02 -0.66000293734E+03  0.68352458273E+03  0.17200000000E+03 0.  1.
         -6    1    1    2    0  502 -0.32431825671E+02  0.31083027258E+02 -0.46439812529E+03  0.49726008957E+03  0.17200000000E+03 0.  1.
</event>
<event>
 4    1  0.1222208E+000  0.2824059E+03  0.7818608E-02  0.1094382E+00
         21   -1    0    0  501  502  0.00000000000E+00  0.00000000000E+00  0.61079214262E+03  0.61079214262E+03  0.00000000000E+00 0. -1.
         21   -1    0    0  502  503 -0.00000000000E+00 -0.00000000000E+00 -0.15981784570E+03  0.15981784570E+03  0.00000000000E+00 0.  1.
          6    1    1    2  501    0  0.21136981557E+03 -0.74107237700E+02  0.60665132977E+02  0.28884829924E+03  0.17200000000E+03 0. -1.
         -6    1    1    2    0  503 -0.21136981557E+03  0.74107237700E+02  0.39030916394E+03  0.48176168908E+03  0.17200000000E+03 0. -1.
</event>
<event>
 4    1  0.1222208E+000  0.3380000E+03  0.7818608E-02  0.1067651E+00
         21   -1    0    0  501  502  0.00000000000E+00  0.00000000000E+00  0.35167253302E+03  0.35167253302E+03  0.00000000000E+00 0. -1.
         21   -1    0    0  502  503 -0.00000000000E+00 -0.00000000000E+00 -0.38985990032E+03  0.38985990032E+03  0.00000000000E+00 0.  1.
          6    1    1    2  501    0  0.81331992919E+02  0.27936553713E+03  0.13229920380E+03  0.36296980003E+03  0.17200000000E+03 0. -1.
         -6    1    1    2    0  503 -0.81331992919E+02 -0.27936553713E+03 -0.17048657111E+03  0.37856263331E+03  0.17200000000E+03 0. -1.
</event>
<event>
 4    1  0.1222208E+000  0.2352045E+03  0.7818608E-02  0.1123029E+00
         21   -1    0    0  503  502  0.00000000000E+00  0.00000000000E+00  0.12575546572E+04  0.12575546572E+04  0.00000000000E+00 0. -1.
         21   -1    0    0  501  503 -0.00000000000E+00 -0.00000000000E+00 -0.67346579142E+02  0.67346579142E+02  0.00000000000E+00 0. -1.
          6    1    1    2  501    0 -0.63573648020E+02 -0.14729401874E+03  0.20499079733E+03  0.31199737767E+03  0.17200000000E+03 0. -1.
         -6    1    1    2    0  502  0.63573648020E+02  0.14729401874E+03  0.98521728074E+03  0.10129038587E+04  0.17200000000E+03 0. -1.
</event>
<event>
 4    1  0.1222208E+000  0.2148915E+03  0.7818608E-02  0.1137750E+00
         21   -1    0    0  503  502  0.00000000000E+00  0.00000000000E+00  0.36996348435E+03  0.36996348435E+03  0.00000000000E+00 0.  1.
         21   -1    0    0  501  503 -0.00000000000E+00 -0.00000000000E+00 -0.20724975321E+03  0.20724975321E+03  0.00000000000E+00 0.  1.
          6    1    1    2  501    0 -0.75589222603E+02 -0.10431027634E+03 -0.10065708568E+03  0.23729773118E+03  0.17200000000E+03 0.  1.
         -6    1    1    2    0  502  0.75589222603E+02  0.10431027634E+03  0.26337081682E+03  0.33991550638E+03  0.17200000000E+03 0.  1.
</event>
<event>
 4    1  0.1222208E+000  0.1815735E+03  0.7818608E-02  0.1166289E+00
         21   -1    0    0  503  502  0.00000000000E+00  0.00000000000E+00  0.41709227306E+02  0.41709227306E+02  0.00000000000E+00 0. -1.
         21   -1    0    0  501  503 -0.00000000000E+00 -0.00000000000E+00 -0.79839758915E+03  0.79839758915E+03  0.00000000000E+00 0. -1.
          6    1    1    2  501    0  0.85086651092E+01  0.57554629764E+02 -0.42026165347E+03  0.45780868293E+03  0.17200000000E+03 0.  1.
         -6    1    1    2    0  502 -0.85086651092E+01 -0.57554629764E+02 -0.33642670837E+03  0.38229813352E+03  0.17200000000E+03 0.  1.
</event>
<event>
 4    1  0.1222208E+000  0.1793731E+03  0.7818608E-02  0.1168411E+00
         21   -1    0    0  501  502  0.00000000000E+00  0.00000000000E+00  0.25780744679E+03  0.25780744679E+03  0.00000000000E+00 0. -1.
         21   -1    0    0  502  503 -0.00000000000E+00 -0.00000000000E+00 -0.15089377051E+03  0.15089377051E+03  0.00000000000E+00 0. -1.
          6    1    1    2  501    0 -0.16452341405E+02 -0.48166659375E+02  0.13843313729E+03  0.22657987579E+03  0.17200000000E+03 0. -1.
         -6    1    1    2    0  503  0.16452341405E+02  0.48166659375E+02 -0.31519461012E+02  0.18212134152E+03  0.17200000000E+03 0. -1.
</event>
<event>
 4    1  0.1222208E+000  0.1955805E+03  0.7818608E-02  0.1153522E+00
         21   -1    0    0  501  502  0.00000000000E+00  0.00000000000E+00  0.12219814884E+04  0.12219814884E+04  0.00000000000E+00 0. -1.
         21   -1    0    0  502  503 -0.00000000000E+00 -0.00000000000E+00 -0.32615781609E+02  0.32615781609E+02  0.00000000000E+00 0. -1.
          6    1    1    2  501    0  0.73662567627E+02  0.56934644797E+02  0.72053224597E+03  0.74660461098E+03  0.17200000000E+03 0. -1.
         -6    1    1    2    0  503 -0.73662567627E+02 -0.56934644797E+02  0.46883346083E+03  0.50799265905E+03  0.17200000000E+03 0. -1.
</event>
<event>
 4    1  0.1222208E+000  0.1903718E+03  0.7818608E-02  0.1158126E+00
         21   -1    0    0  501  502  0.00000000000E+00  0.00000000000E+00  0.14080705378E+03  0.14080705378E+03  0.00000000000E+00 0. -1.
         21   -1    0    0  502  503 -0.00000000000E+00 -0.00000000000E+00 -0.46090302079E+03  0.46090302079E+03  0.00000000000E+00 0. -1.
          6    1    1    2  501    0 -0.59675008620E+02  0.55644692330E+02  0.39871604416E+02  0.19450239915E+03  0.17200000000E+03 0.  1.
         -6    1    1    2    0  503  0.59675008620E+02 -0.55644692330E+02 -0.35996757143E+03  0.40720767542E+03  0.17200000000E+03 0.  1.
</event>
<event>
 4    1  0.1222208E+000  0.1720219E+03  0.7818608E-02  0.1175756E+00
         21   -1    0    0  503  502  0.00000000000E+00  0.00000000000E+00  0.20428338419E+03  0.20428338419E+03  0.00000000000E+00 0. -1.
         21   -1    0    0  501  503 -0.00000000000E+00 -0.00000000000E+00 -0.24948612425E+03  0.24948612425E+03  0.00000000000E+00 0. -1.
          6    1    1    2  501    0  0.26963182787E+01 -0.50729926320E+00 -0.16953187588E+03  0.24152139538E+03  0.17200000000E+03 0. -1.
         -6    1    1    2    0  502 -0.26963182787E+01  0.50729926320E+00  0.12432913583E+03  0.21224811307E+03  0.17200000000E+03 0. -1.
</event>
<event>
 4    1  0.1222208E+000  0.1755944E+03  0.7818608E-02  0.1172136E+00
         21   -1    0    0  503  502  0.00000000000E+00  0.00000000000E+00  0.91288686046E+02  0.91288686046E+02  0.00000000000E+00 0. -1.
         21   -1    0    0  501  503 -0.00000000000E+00 -0.00000000000E+00 -0.33983689499E+03  0.33983689499E+03  0.00000000000E+00 0. -1.
          6    1    1    2  501    0 -0.16734875329E+02  0.31134443094E+02 -0.14113730280E+03  0.22528459300E+03  0.17200000000E+03 0. -1.
         -6    1    1    2    0  502  0.16734875329E+02 -0.31134443094E+02 -0.10741090614E+03  0.20584098804E+03  0.17200000000E+03 0. -1.
</event>
<event>
 4    1  0.1222208E+000  0.1785085E+03  0.7818608E-02  0.1169254E+00
         21   -1    0    0  501  502  0.00000000000E+00  0.00000000000E+00  0.44708853140E+02  0.44708853140E+02  0.00000000000E+00 0. -1.
         21   -1    0    0  502  503 -0.00000000000E+00 -0.00000000000E+00 -0.10627269187E+04  0.10627269187E+04  0.00000000000E+00 0.  1.
          6    1    1    2  501    0  0.95952362259E+01 -0.46789074026E+02 -0.19124072323E+03  0.26160714866E+03  0.17200000000E+03 0. -1.
         -6    1    1    2    0  503 -0.95952362259E+01  0.46789074026E+02 -0.82677734232E+03  0.84582862318E+03  0.17200000000E+03 0.  1.
</event>
<event>
 4    1  0.1222208E+000  0.1983318E+03  0.7818608E-02  0.1151154E+00
         21   -1    0    0  503  502  0.00000000000E+00  0.00000000000E+00  0.10424185296E+03  0.10424185296E+03  0.00000000000E+00 0. -1.
         21   -1    0    0  501  503 -0.00000000000E+00 -0.00000000000E+00 -0.37782679789E+03  0.37782679789E+03  0.00000000000E+00 0.  1.
          6    1    1    2  501    0 -0.55597705917E+02  0.81611357496E+02 -0.12821754038E+03  0.23616785606E+03  0.17200000000E+03 0. -1.
         -6    1    1    2    0  502  0.55597705917E+02 -0.81611357496E+02 -0.14536740454E+03  0.24590079479E+03  0.17200000000E+03 0. -1.
</event>
<event>
 4    1  0.1222208E+000  0.1838217E+03  0.7818608E-02  0.1164155E+00
         21   -1    0    0  503  502  0.00000000000E+00  0.00000000000E+00  0.35618133467E+03  0.35618133467E+03  0.00000000000E+00 0. -1.
         21   -1    0    0  501  503 -0.00000000000E+00 -0.00000000000E+00 -0.10528026945E+03  0.10528026945E+03  0.00000000000E+00 0. -1.
          6    1    1    2  501    0  0.20858678712E+02 -0.61411274859E+02  0.52891413970E+02  0.19127971881E+03  0.17200000000E+03 0. -1.
         -6    1    1    2    0  502 -0.20858678712E+02  0.61411274859E+02  0.19800965125E+03  0.27018188530E+03  0.17200000000E+03 0. -1.
</event>
<event>
 4    1  0.1222208E+000  0.1892342E+03  0.7818608E-02  0.1159154E+00
         21   -1    0    0  503  502  0.00000000000E+00  0.00000000000E+00  0.69676332013E+03  0.69676332013E+03  0.00000000000E+00 0. -1.
         21   -1    0    0  501  503 -0.00000000000E+00 -0.00000000000E+00 -0.36829543240E+03  0.36829543240E+03  0.00000000000E+00 0. -1.
          6    1    1    2  501    0  0.78714513690E+02  0.54403118266E+01 -0.32974380782E+03  0.38018488983E+03  0.17200000000E+03 0. -1.
         -6    1    1    2    0  502 -0.78714513690E+02 -0.54403118266E+01  0.65821169555E+03  0.68487386271E+03  0.17200000000E+03 0. -1.
</event>
<event>
 4    1  0.1222208E+000  0.2410281E+03  0.7818608E-02  0.1119110E+00
         21   -1    0    0  503  502  0.00000000000E+00  0.00000000000E+00  0.18464371305E+03  0.18464371305E+03  0.00000000000E+00 0. -1.
         21   -1    0    0  501  503 -0.00000000000E+00 -0.00000000000E+00 -0.34220152241E+03  0.34220152241E+03  0.00000000000E+00 0. -1.
          6    1    1    2  501    0  0.10849604404E+03 -0.12937978812E+03 -0.40068194022E+01  0.24106135266E+03  0.17200000000E+03 0. -1.
         -6    1    1    2    0  502 -0.10849604404E+03  0.12937978812E+03 -0.15355098996E+03  0.28578388279E+03  0.17200000000E+03 0. -1.
</event>
<event>
 4    1  0.1222208E+000  0.1836329E+03  0.7818608E-02  0.1164333E+00
         21   -1    0    0  501  502  0.00000000000E+00  0.00000000000E+00  0.38306770081E+03  0.38306770081E+03  0.00000000000E+00 0. -1.
         21   -1    0    0  502  503 -0.00000000000E+00 -0.00000000000E+00 -0.91502201651E+02  0.91502201651E+02  0.00000000000E+00 0. -1.
          6    1    1    2  501    0  0.51025147431E+01 -0.64117255557E+02  0.19201242174E+03  0.26568746342E+03  0.17200000000E+03 0.  1.
         -6    1    1    2    0  503 -0.51025147431E+01  0.64117255557E+02  0.99553077429E+02  0.20888243905E+03  0.17200000000E+03 0.  1.
</event>
<event>
 4    1  0.1222208E+000  0.1995185E+03  0.7818608E-02  0.1150146E+00
         21   -1    0    0  503  502  0.00000000000E+00  0.00000000000E+00  0.78124689471E+03  0.78124689471E+03  0.00000000000E+00 0. -1.
         21   -1    0    0  501  503 -0.00000000000E+00 -0.00000000000E+00 -0.36062009038E+03  0.36062009038E+03  0.00000000000E+00 0.  1.
          6    1    1    2  501    0  0.15677048121E+02  0.99889171959E+02 -0.31874963550E+03  0.37604380948E+03  0.17200000000E+03 0.  1.
         -6    1    1    2    0  502 -0.15677048121E+02 -0.99889171959E+02  0.73937643984E+03  0.76582317561E+03  0.17200000000E+03 0. -1.
</event>
<event>
 4    1  0.1222208E+000  0.2722187E+03  0.7818608E-02  0.1100016E+00
         21   -1    0    0  501  502  0.00000000000E+00  0.00000000000E+00  0.59104359833E+03  0.59104359833E+03  0.00000000000E+00 0.  1.
         21   -1    0    0  502  503 -0.00000000000E+00 -0.00000000000E+00 -0.16754913767E+03  0.16754913767E+03  0.00000000000E+00 0. -1.
          6    1    1    2  501    0  0.32302405791E+01 -0.21097058445E+03  0.40204012933E+03  0.48552990387E+03  0.17200000000E+03 0.  1.
         -6    1    1    2    0  503 -0.32302405791E+01  0.21097058445E+03  0.21454331324E+02  0.27306283213E+03  0.17200000000E+03 0.  1.
</event>
<event>
 4    1  0.1222208E+000  0.2144738E+03  0.7818608E-02  0.1138071E+00
         21   -1    0    0  501  502  0.00000000000E+00  0.00000000000E+00  0.42251588340E+03  0.42251588340E+03  0.00000000000E+00 0.  1.
         21   -1    0    0  502  503 -0.00000000000E+00 -0.00000000000E+00 -0.10966061489E+03  0.10966061489E+03  0.00000000000E+00 0.  1.
          6    1    1    2  501    0  0.39966805456E+02 -0.12172783903E+03  0.17903096885E+03  0.27937626982E+03  0.17200000000E+03 0.  1.
         -6    1    1    2    0  503 -0.39966805456E+02  0.12172783903E+03  0.13382429966E+03  0.25280022847E+03  0.17200000000E+03 0.  1.
</event>
<event>
 4    1  0.1222208E+000  0.2217927E+03  0.7818608E-02  0.1132554E+00
         21   -1    0    0  501  502  0.00000000000E+00  0.00000000000E+00  0.11939666911E+03  0.11939666911E+03  0.00000000000E+00 0.  1.
         21   -1    0    0  502  503 -0.00000000000E+00 -0.00000000000E+00 -0.41209259317E+03  0.41209259317E+03  0.00000000000E+00 0. -1.
          6    1    1    2  501    0 -0.12512966025E+03 -0.62853568529E+02 -0.15022636043E+03  0.26788050007E+03  0.17200000000E+03 0.  1.
         -6    1    1    2    0  503  0.12512966025E+03  0.62853568529E+02 -0.14246956363E+03  0.26360876221E+03  0.17200000000E+03 0.  1.
</event>
<event>
 4    1  0.1222208E+000  0.2163345E+03  0.7818608E-02  0.1136646E+00
         21   -1    0    0  501  502  0.00000000000E+00  0.00000000000E+00  0.83614645355E+03  0.83614645355E+03  0.00000000000E+00 0. -1.
         21   -1    0    0  502  503 -0.00000000000E+00 -0.00000000000E+00 -0.75683263628E+02  0.75683263628E+02  0.00000000000E+00 0. -1.
          6    1    1    2  501    0 -0.35384759136E+02  0.12635082712E+03  0.61290319726E+03  0.64996226191E+03  0.17200000000E+03 0. -1.
         -6    1    1    2    0  503  0.35384759136E+02 -0.12635082712E+03  0.14755999266E+03  0.26186745527E+03  0.17200000000E+03 0. -1.
</event>
<event>
 4    1  0.1222208E+000  0.1774474E+03  0.7818608E-02  0.1170297E+00
         21   -1    0    0  503  502  0.00000000000E+00  0.00000000000E+00  0.11297156825E+03  0.11297156825E+03  0.00000000000E+00 0.  1.
         21   -1    0    0  501  503 -0.00000000000E+00 -0.00000000000E+00 -0.30046942752E+03  0.30046942752E+03  0.00000000000E+00 0.  1.
          6    1    1    2  501    0  0.38444736095E+02  0.20629558729E+02 -0.14936430308E+03  0.23194238824E+03  0.17200000000E+03 0.  1.
         -6    1    1    2    0  502 -0.38444736095E+02 -0.20629558729E+02 -0.38133556182E+02  0.18149860753E+03  0.17200000000E+03 0.  1.
</event>
<event>
 4    1  0.1222208E+000  0.2036723E+03  0.7818608E-02  0.1146677E+00
         21   -1    0    0  503  502  0.00000000000E+00  0.00000000000E+00  0.21135719710E+03  0.21135719710E+03  0.00000000000E+00 0. -1.
         21   -1    0    0  501  503 -0.00000000000E+00 -0.00000000000E+00 -0.28160655437E+03  0.28160655437E+03  0.00000000000E+00 0. -1.
          6    1    1    2  501    0  0.99853193802E+02 -0.43906166985E+02 -0.17081196962E+03  0.26581787144E+03  0.17200000000E+03 0. -1.
         -6    1    1    2    0  502 -0.99853193802E+02  0.43906166985E+02  0.10056261235E+03  0.22714588003E+03  0.17200000000E+03 0. -1.
</event>
<event>
 4    1  0.1222208E+000  0.1819682E+03  0.7818608E-02  0.1165912E+00
         21   -1    0    0  501  502  0.00000000000E+00  0.00000000000E+00  0.18417184338E+04  0.18417184338E+04  0.00000000000E+00 0. -1.
         21   -1    0    0  502  503 -0.00000000000E+00 -0.00000000000E+00 -0.21867473763E+02  0.21867473763E+02  0.00000000000E+00 0.  1.
          6    1    1    2  501    0  0.57158330259E+02 -0.16166394429E+02  0.13028458163E+04  0.13154921695E+04  0.17200000000E+03 0. -1.
         -6    1    1    2    0  503 -0.57158330259E+02  0.16166394429E+02  0.51700514373E+03  0.54809373804E+03  0.17200000000E+03 0.  1.
</event>
<event>
 4    1  0.1222208E+000  0.1721323E+03  0.7818608E-02  0.1175642E+00
         21   -1    0    0  501  502  0.00000000000E+00  0.00000000000E+00  0.63519561897E+02  0.63519561897E+02  0.00000000000E+00 0. -1.
         21   -1    0    0  502  503 -0.00000000000E+00 -0.00000000000E+00 -0.48286766226E+03  0.48286766226E+03  0.00000000000E+00 0. -1.
          6    1    1    2  501    0  0.26383859961E+01 -0.62103351891E+01 -0.15931943231E+03  0.23454682018E+03  0.17200000000E+03 0.  1.
         -6    1    1    2    0  503 -0.26383859961E+01  0.62103351891E+01 -0.26002866805E+03  0.31184040397E+03  0.17200000000E+03 0.  1.
</event>
<event>
 4    1  0.1222208E+000  0.1880946E+03  0.7818608E-02  0.1160191E+00
         21   -1    0    0  501  502  0.00000000000E+00  0.00000000000E+00  0.14442091614E+04  0.14442091614E+04  0.00000000000E+00 0. -1.
         21   -1    0    0  502  503 -0.00000000000E+00 -0.00000000000E+00 -0.26474050819E+02  0.26474050819E+02  0.00000000000E+00 0. -1.
          6    1    1    2  501    0 -0.63521986045E+02 -0.41958721897E+02  0.90978985059E+03  0.92903021980E+03  0.17200000000E+03 0. -1.
         -6    1    1    2    0  503  0.63521986045E+02  0.41958721897E+02  0.50794525997E+03  0.54165299241E+03  0.17200000000E+03 0. -1.
</event>
<event>
 4    1  0.1222208E+000  0.2288740E+03  0.7818608E-02  0.1127435E+00
         21   -1    0    0  503  502  0.00000000000E+00  0.00000000000E+00  0.33506526813E+02  0.33506526813E+02  0.00000000000E+00 0. -1.
         21   -1    0    0  501  503 -0.00000000000E+00 -0.00000000000E+00 -0.25248252423E+04  0.25248252423E+04  0.00000000000E+00 0. -1.
          6    1    1    2  501    0  0.13681813704E+03 -0.63875853791E+02 -0.20350176983E+04  0.20478477384E+04  0.17200000000E+03 0. -1.
         -6    1    1    2    0  502 -0.13681813704E+03  0.63875853791E+02 -0.45630101723E+03  0.51048403075E+03  0.17200000000E+03 0. -1.
</event>
<event>
 4    1  0.1222208E+000  0.2041790E+03  0.7818608E-02  0.1146260E+00
         21   -1    0    0  501  502  0.00000000000E+00  0.00000000000E+00  0.40290853648E+03  0.40290853648E+03  0.00000000000E+00 0.  1.
         21   -1    0    0  502  503 -0.00000000000E+00 -0.00000000000E+00 -0.13367938985E+03  0.13367938985E+03  0.00000000000E+00 0. -1.
          6    1    1    2  501    0  0.91359798729E+02 -0.61306050853E+02  0.26215500846E+03  0.33228646249E+03  0.17200000000E+03 0.  1.
         -6    1    1    2    0  503 -0.91359798729E+02  0.61306050853E+02  0.70741381671E+01  0.20430146384E+03  0.17200000000E+03 0.  1.
</event>
<event>
 4    1  0.1222208E+000  0.2744487E+03  0.7818608E-02  0.1098760E+00
         21   -1    0    0  501  502  0.00000000000E+00  0.00000000000E+00  0.10635798136E+04  0.10635798136E+04  0.00000000000E+00 0.  1.
         21   -1    0    0  502  503 -0.00000000000E+00 -0.00000000000E+00 -0.13735502115E+03  0.13735502115E+03  0.00000000000E+00 0. -1.
          6    1    1    2  501    0  0.19160592964E+03 -0.95001291933E+02  0.88103350202E+03  0.92279039300E+03  0.17200000000E+03 0.  1.
         -6    1    1    2    0  503 -0.19160592964E+03  0.95001291933E+02  0.45191290432E+02  0.27814444175E+03  0.17200000000E+03 0. -1.
</event>
<event>
 4    1  0.1222208E+000  0.1776488E+03  0.7818608E-02  0.1170098E+00
         21   -1    0    0  503  502  0.00000000000E+00  0.00000000000E+00  0.14438858403E+03  0.14438858403E+03  0.00000000000E+00 0. -1.
         21   -1    0    0  501  503 -0.00000000000E+00 -0.00000000000E+00 -0.49741358107E+03  0.49741358107E+03  0.00000000000E+00 0. -1.
          6    1    1    2  501    0  0.29838583794E+02  0.32935523535E+02 -0.41677847371E+03  0.45306002465E+03  0.17200000000E+03 0. -1.
         -6    1    1    2    0  502 -0.29838583794E+02 -0.32935523535E+02  0.63753476664E+02  0.18874214045E+03  0.17200000000E+03 0. -1.
</event>
<event>
 4    1  0.1222208E+000  0.1893402E+03  0.7818608E-02  0.1159058E+00
         21   -1    0    0  503  502  0.00000000000E+00  0.00000000000E+00  0.10687438024E+03  0.10687438024E+03  0.00000000000E+00 0.  1.
         21   -1    0    0  501  503 -0.00000000000E+00 -0.00000000000E+00 -0.37734885263E+03  0.37734885263E+03  0.00000000000E+00 0.  1.
          6    1    1    2  501    0 -0.79028432971E+02  0.44948518410E+01 -0.21592522359E+03  0.28718182236E+03  0.17200000000E+03 0.  1.
         -6    1    1    2    0  502  0.79028432971E+02 -0.44948518410E+01 -0.54549248803E+02  0.19704141051E+03  0.17200000000E+03 0.  1.
</event>
<event>
 4    1  0.1222208E+000  0.3716607E+03  0.7818608E-02  0.1054060E+00
         21   -1    0    0  501  502  0.00000000000E+00  0.00000000000E+00  0.39025404190E+03  0.39025404190E+03  0.00000000000E+00 0. -1.
         21   -1    0    0  502  503 -0.00000000000E+00 -0.00000000000E+00 -0.96843858927E+03  0.96843858927E+03  0.00000000000E+00 0.  1.
          6    1    1    2  501    0 -0.11543886556E+01  0.32946373190E+03  0.25204935812E+03  0.44906632270E+03  0.17200000000E+03 0. -1.
         -6    1    1    2    0  503  0.11543886556E+01 -0.32946373190E+03 -0.83023390549E+03  0.90962630848E+03  0.17200000000E+03 0.  1.
</event>
<event>
 4    1  0.1222208E+000  0.2628951E+03  0.7818608E-02  0.1105416E+00
         21   -1    0    0  503  502  0.00000000000E+00  0.00000000000E+00  0.12513395024E+03  0.12513395024E+03  0.00000000000E+00 0. -1.
         21   -1    0    0  501  503 -0.00000000000E+00 -0.00000000000E+00 -0.11408611261E+04  0.11408611261E+04  0.00000000000E+00 0.  1.
          6    1    1    2  501    0 -0.19842696334E+03  0.12513718590E+02 -0.96251068511E+03  0.99776784469E+03  0.17200000000E+03 0.  1.
         -6    1    1    2    0  502  0.19842696334E+03 -0.12513718590E+02 -0.53216490784E+02  0.26822723170E+03  0.17200000000E+03 0. -1.
</event>
<event>
 4    1  0.1222208E+000  0.2174488E+03  0.7818608E-02  0.1135799E+00
         21   -1    0    0  503  502  0.00000000000E+00  0.00000000000E+00  0.10924585416E+03  0.10924585416E+03  0.00000000000E+00 0. -1.
         21   -1    0    0  501  503 -0.00000000000E+00 -0.00000000000E+00 -0.79485715144E+03  0.79485715144E+03  0.00000000000E+00 0.  1.
          6    1    1    2  501    0 -0.64461813688E+02  0.11638151342E+03 -0.64788926982E+03  0.68340653204E+03  0.17200000000E+03 0.  1.
         -6    1    1    2    0  502  0.64461813688E+02 -0.11638151342E+03 -0.37722027460E+02  0.22069647357E+03  0.17200000000E+03 0. -1.
</event>
<event>
 4    1  0.1222208E+000  0.3762891E+03  0.7818608E-02  0.1052314E+00
         21   -1    0    0  503  502  0.00000000000E+00  0.00000000000E+00  0.36072834771E+03  0.36072834771E+03  0.00000000000E+00 0.  1.
         21   -1    0    0  501  503 -0.00000000000E+00 -0.00000000000E+00 -0.39426624611E+03  0.39426624611E+03  0.00000000000E+00 0. -1.
          6    1    1    2  501    0 -0.14686435714E+02 -0.33435578519E+03 -0.41884157981E+02  0.37861294903E+03  0.17200000000E+03 0.  1.
         -6    1    1    2    0  502  0.14686435714E+02  0.33435578519E+03  0.83462595794E+01  0.37638164479E+03  0.17200000000E+03 0. -1.
</event>
<event>
 4    1  0.1222208E+000  0.1746329E+03  0.7818608E-02  0.1173101E+00
         21   -1    0    0  503  502  0.00000000000E+00  0.00000000000E+00  0.89338806321E+03  0.89338806321E+03  0.00000000000E+00 0. -1.
         21   -1    0    0  501  503 -0.00000000000E+00 -0.00000000000E+00 -0.82338339956E+02  0.82338339956E+02  0.00000000000E+00 0. -1.
          6    1    1    2  501    0 -0.30005105450E+02  0.35146743457E+01  0.32247846690E+02  0.17758542425E+03  0.17200000000E+03 0. -1.
         -6    1    1    2    0  502  0.30005105450E+02 -0.35146743457E+01  0.77880187657E+03  0.79814097892E+03  0.17200000000E+03 0. -1.
</event>
<event>
 4    1  0.1222208E+000  0.2370304E+03  0.7818608E-02  0.1121787E+00
         21   -1    0    0  501  502  0.00000000000E+00  0.00000000000E+00  0.66229654152E+03  0.66229654152E+03  0.00000000000E+00 0.  1.
         21   -1    0    0  502  503 -0.00000000000E+00 -0.00000000000E+00 -0.85747462226E+02  0.85747462226E+02  0.00000000000E+00 0. -1.
          6    1    1    2  501    0  0.15551793697E+03 -0.49128452962E+02  0.32693687547E+03  0.40382069555E+03  0.17200000000E+03 0. -1.
         -6    1    1    2    0  503 -0.15551793697E+03  0.49128452962E+02  0.24961220383E+03  0.34422330820E+03  0.17200000000E+03 0. -1.
</event>
<event>
 4    1  0.1222208E+000  0.2521324E+03  0.7818608E-02  0.1111965E+00
         21   -1    0    0  503  502  0.00000000000E+00  0.00000000000E+00  0.66290080747E+02  0.66290080747E+02  0.00000000000E+00 0. -1.
         21   -1    0    0  501  503 -0.00000000000E+00 -0.00000000000E+00 -0.96397353668E+03  0.96397353668E+03  0.00000000000E+00 0.  1.
          6    1    1    2  501    0  0.18424675208E+03 -0.63143558089E+01 -0.41175898535E+03  0.48282108359E+03  0.17200000000E+03 0. -1.
         -6    1    1    2    0  502 -0.18424675208E+03  0.63143558089E+01 -0.48592447058E+03  0.54744253383E+03  0.17200000000E+03 0.  1.
</event>
<event>
 4    1  0.1222208E+000  0.1772392E+03  0.7818608E-02  0.1170502E+00
         21   -1    0    0  501  502  0.00000000000E+00  0.00000000000E+00  0.60354828307E+03  0.60354828307E+03  0.00000000000E+00 0. -1.
         21   -1    0    0  502  503 -0.00000000000E+00 -0.00000000000E+00 -0.52399743264E+02  0.52399743264E+02  0.00000000000E+00 0. -1.
          6    1    1    2  501    0 -0.37492305342E+02  0.20592690032E+02  0.24871890495E+03  0.30540927544E+03  0.17200000000E+03 0.  1.
         -6    1    1    2    0  503  0.37492305342E+02 -0.20592690032E+02  0.30242963485E+03  0.35053875089E+03  0.17200000000E+03 0.  1.
</event>
<event>
 4    1  0.1222208E+000  0.1892432E+03  0.7818608E-02  0.1159146E+00
         21   -1    0    0  501  502  0.00000000000E+00  0.00000000000E+00  0.64154985687E+03  0.64154985687E+03  0.00000000000E+00 0.  1.
         21   -1    0    0  502  503 -0.00000000000E+00 -0.00000000000E+00 -0.69846166405E+02  0.69846166405E+02  0.00000000000E+00 0.  1.
          6    1    1    2  501    0  0.78376654085E+02 -0.92788596961E+01  0.44523374507E+03  0.48378309694E+03  0.17200000000E+03 0. -1.
         -6    1    1    2    0  503 -0.78376654085E+02  0.92788596961E+01  0.12646994540E+03  0.22761292633E+03  0.17200000000E+03 0. -1.
</event>
<event>
 4    1  0.1222208E+000  0.1927214E+03  0.7818608E-02  0.1156029E+00
         21   -1    0    0  503  502  0.00000000000E+00  0.00000000000E+00  0.12676047151E+04  0.12676047151E+04  0.00000000000E+00 0. -1.
         21   -1    0    0  501  503 -0.00000000000E+00 -0.00000000000E+00 -0.32624094682E+02  0.32624094682E+02  0.00000000000E+00 0.  1.
          6    1    1    2  501    0  0.66704940046E+02  0.55749291472E+02  0.40998919775E+03  0.45302613037E+03  0.17200000000E+03 0.  1.
         -6    1    1    2    0  502 -0.66704940046E+02 -0.55749291472E+02  0.82499142266E+03  0.84720267940E+03  0.17200000000E+03 0. -1.
</event>
<event>
 4    1  0.1222208E+000  0.4682103E+03  0.7818608E-02  0.1022427E+00
         21   -1    0    0  501  502  0.00000000000E+00  0.00000000000E+00  0.10860916973E+04  0.10860916973E+04  0.00000000000E+00 0. -1.
         21   -1    0    0  502  503 -0.00000000000E+00 -0.00000000000E+00 -0.23112151910E+03  0.23112151910E+03  0.00000000000E+00 0.  1.
          6    1    1    2  501    0  0.25263622658E+03 -0.35469965583E+03  0.19307608844E+03  0.50645758436E+03  0.17200000000E+03 0.  1.
         -6    1    1    2    0  503 -0.25263622658E+03  0.35469965583E+03  0.66189408972E+03  0.81075563201E+03  0.17200000000E+03 0. -1.
</event>
<event>
 4    1  0.1222208E+000  0.1755368E+03  0.7818608E-02  0.1172194E+00
         21   -1    0    0  503  502  0.00000000000E+00  0.00000000000E+00  0.51477549968E+02  0.51477549968E+02  0.00000000000E+00 0.  1.
         21   -1    0    0  501  503 -0.00000000000E+00 -0.00000000000E+00 -0.60636245799E+03  0.60636245799E+03  0.00000000000E+00 0.  1.
          6    1    1    2  501    0 -0.32920248979E+02 -0.12058556039E+02 -0.31471889149E+03  0.36036250114E+03  0.17200000000E+03 0.  1.
         -6    1    1    2    0  502  0.32920248979E+02  0.12058556039E+02 -0.24016601653E+03  0.29747750682E+03  0.17200000000E+03 0.  1.
</event>
<event>
 4    1  0.1222208E+000  0.1896032E+03  0.7818608E-02  0.1158820E+00
         21   -1    0    0  503  502  0.00000000000E+00  0.00000000000E+00  0.32864746674E+03  0.32864746674E+03  0.00000000000E+00 0. -1.
         21   -1    0    0  501  503 -0.00000000000E+00 -0.00000000000E+00 -0.12163232191E+03  0.12163232191E+03  0.00000000000E+00 0. -1.
          6    1    1    2  501    0 -0.19749371731E+02 -0.77300359962E+02  0.32068894349E+02  0.19229611883E+03  0.17200000000E+03 0. -1.
         -6    1    1    2    0  502  0.19749371731E+02  0.77300359962E+02  0.17494625048E+03  0.25798366982E+03  0.17200000000E+03 0. -1.
</event>
<event>
 4    1  0.1222208E+000  0.2742632E+03  0.7818608E-02  0.1098864E+00
         21   -1    0    0  503  502  0.00000000000E+00  0.00000000000E+00  0.23924820868E+04  0.23924820868E+04  0.00000000000E+00 0.  1.
         21   -1    0    0  501  503 -0.00000000000E+00 -0.00000000000E+00 -0.60184380502E+02  0.60184380502E+02  0.00000000000E+00 0.  1.
          6    1    1    2  501    0  0.21329139080E+03  0.11962739134E+02  0.31864651384E+03  0.42042350707E+03  0.17200000000E+03 0.  1.
         -6    1    1    2    0  502 -0.21329139080E+03 -0.11962739134E+02  0.20136511924E+04  0.20322429602E+04  0.17200000000E+03 0.  1.
</event>
<event>
 4    1  0.1222208E+000  0.1776045E+03  0.7818608E-02  0.1170142E+00
         21   -1    0    0  501  502  0.00000000000E+00  0.00000000000E+00  0.65254087135E+02  0.65254087135E+02  0.00000000000E+00 0.  1.
         21   -1    0    0  502  503 -0.00000000000E+00 -0.00000000000E+00 -0.55970201586E+03  0.55970201586E+03  0.00000000000E+00 0.  1.
          6    1    1    2  501    0 -0.20921688381E+02 -0.39008323228E+02 -0.13184433947E+03  0.22119289359E+03  0.17200000000E+03 0.  1.
         -6    1    1    2    0  503  0.20921688381E+02  0.39008323228E+02 -0.36260358925E+03  0.40376320940E+03  0.17200000000E+03 0.  1.
</event>
<event>
 4    1  0.1222208E+000  0.1809243E+03  0.7818608E-02  0.1166912E+00
         21   -1    0    0  503  502  0.00000000000E+00  0.00000000000E+00  0.76299524730E+02  0.76299524730E+02  0.00000000000E+00 0. -1.
         21   -1    0    0  501  503 -0.00000000000E+00 -0.00000000000E+00 -0.43619419559E+03  0.43619419559E+03  0.00000000000E+00 0. -1.
          6    1    1    2  501    0 -0.22014969236E+02  0.51622925579E+02 -0.21282329363E+03  0.27933374237E+03  0.17200000000E+03 0. -1.
         -6    1    1    2    0  502  0.22014969236E+02 -0.51622925579E+02 -0.14707137723E+03  0.23315997795E+03  0.17200000000E+03 0. -1.
</event>
<event>
 4    1  0.1222208E+000  0.1767073E+03  0.7818608E-02  0.1171028E+00
         21   -1    0    0  501  502  0.00000000000E+00  0.00000000000E+00  0.45482420536E+02  0.45482420536E+02  0.00000000000E+00 0. -1.
         21   -1    0    0  502  503 -0.00000000000E+00 -0.00000000000E+00 -0.73884984165E+03  0.73884984165E+03  0.00000000000E+00 0. -1.
          6    1    1    2  501    0  0.40370974120E+02 -0.34130953021E+01 -0.24233502081E+03  0.29991953435E+03  0.17200000000E+03 0. -1.
         -6    1    1    2    0  503 -0.40370974120E+02  0.34130953021E+01 -0.45103240030E+03  0.48441272784E+03  0.17200000000E+03 0. -1.
</event>
<event>
 4    1  0.1222208E+000  0.4543456E+03  0.7818608E-02  0.1026434E+00
         21   -1    0    0  503  502  0.00000000000E+00  0.00000000000E+00  0.39984903162E+03  0.39984903162E+03  0.00000000000E+00 0.  1.
         21   -1    0    0  501  503 -0.00000000000E+00 -0.00000000000E+00 -0.66772792646E+03  0.66772792646E+03  0.00000000000E+00 0. -1.
          6    1    1    2  501    0  0.27763117872E+03  0.31585898145E+03 -0.38816298585E+03  0.59757884094E+03  0.17200000000E+03 0. -1.
         -6    1    1    2    0  502 -0.27763117872E+03 -0.31585898145E+03  0.12028409100E+03  0.46999811713E+03  0.17200000000E+03 0.  1.
</event>
<event>
 4    1  0.1222208E+000  0.2125579E+03  0.7818608E-02  0.1139556E+00
         21   -1    0    0  501  502  0.00000000000E+00  0.00000000000E+00  0.15603701110E+04  0.15603701110E+04  0.00000000000E+00 0.  1.
         21   -1    0    0  502  503 -0.00000000000E+00 -0.00000000000E+00 -0.57513124050E+02  0.57513124050E+02  0.00000000000E+00 0.  1.
          6    1    1    2  501    0  0.62314300453E+02  0.10823030998E+03  0.13214573026E+04  0.13384432281E+04  0.17200000000E+03 0.  1.
         -6    1    1    2    0  503 -0.62314300453E+02 -0.10823030998E+03  0.18139968431E+03  0.27944000699E+03  0.17200000000E+03 0.  1.
</event>
<event>
 4    1  0.1222208E+000  0.1806776E+03  0.7818608E-02  0.1167149E+00
         21   -1    0    0  503  502  0.00000000000E+00  0.00000000000E+00  0.51717642543E+03  0.51717642543E+03  0.00000000000E+00 0.  1.
         21   -1    0    0  501  503 -0.00000000000E+00 -0.00000000000E+00 -0.19694943394E+03  0.19694943394E+03  0.00000000000E+00 0.  1.
          6    1    1    2  501    0  0.33124757813E+02  0.44307222853E+02 -0.13422195783E+03  0.22507757227E+03  0.17200000000E+03 0.  1.
         -6    1    1    2    0  502 -0.33124757813E+02 -0.44307222853E+02  0.45444894931E+03  0.48904828709E+03  0.17200000000E+03 0.  1.
</event>
<event>
 4    1  0.1222208E+000  0.1981530E+03  0.7818608E-02  0.1151307E+00
         21   -1    0    0  503  502  0.00000000000E+00  0.00000000000E+00  0.63993070561E+03  0.63993070561E+03  0.00000000000E+00 0.  1.
         21   -1    0    0  501  503 -0.00000000000E+00 -0.00000000000E+00 -0.61365530467E+02  0.61365530467E+02  0.00000000000E+00 0.  1.
          6    1    1    2  501    0  0.54185003499E+02  0.82125405628E+02  0.28529034477E+03  0.34735454175E+03  0.17200000000E+03 0.  1.
         -6    1    1    2    0  502 -0.54185003499E+02 -0.82125405628E+02  0.29327483037E+03  0.35394169432E+03  0.17200000000E+03 0.  1.
</event>
<event>
 4    1  0.1222208E+000  0.1810961E+03  0.7818608E-02  0.1166746E+00
         21   -1    0    0  501  502  0.00000000000E+00  0.00000000000E+00  0.16436125855E+04  0.16436125855E+04  0.00000000000E+00 0. -1.
         21   -1    0    0  502  503 -0.00000000000E+00 -0.00000000000E+00 -0.38293041479E+02  0.38293041479E+02  0.00000000000E+00 0. -1.
          6    1    1    2  501    0 -0.49814900098E+02  0.27023689606E+02  0.13846371118E+04  0.13964296385E+04  0.17200000000E+03 0. -1.
         -6    1    1    2    0  503  0.49814900098E+02 -0.27023689606E+02  0.22068243221E+03  0.28547598841E+03  0.17200000000E+03 0. -1.
</event>
<event>
 4    1  0.1222208E+000  0.1748004E+03  0.7818608E-02  0.1172932E+00
         21   -1    0    0  501  502  0.00000000000E+00  0.00000000000E+00  0.17381767814E+03  0.17381767814E+03  0.00000000000E+00 0. -1.
         21   -1    0    0  502  503 -0.00000000000E+00 -0.00000000000E+00 -0.25414662279E+03  0.25414662279E+03  0.00000000000E+00 0. -1.
          6    1    1    2  501    0 -0.23850779528E+02  0.20057941698E+02  0.78652062090E+02  0.19168027436E+03  0.17200000000E+03 0.  1.
         -6    1    1    2    0  503  0.23850779528E+02 -0.20057941698E+02 -0.15898100673E+03  0.23628402657E+03  0.17200000000E+03 0.  1.
</event>
<event>
 4    1  0.1222208E+000  0.1784171E+03  0.7818608E-02  0.1169344E+00
         21   -1    0    0  503  502  0.00000000000E+00  0.00000000000E+00  0.28299045057E+02  0.28299045057E+02  0.00000000000E+00 0. -1.
         21   -1    0    0  501  503 -0.00000000000E+00 -0.00000000000E+00 -0.13056451280E+04  0.13056451280E+04  0.00000000000E+00 0. -1.
          6    1    1    2  501    0  0.51359968064E+01 -0.47141267648E+02 -0.39049271016E+03  0.42932183064E+03  0.17200000000E+03 0. -1.
         -6    1    1    2    0  502 -0.51359968064E+01  0.47141267648E+02 -0.88685337280E+03  0.90462234243E+03  0.17200000000E+03 0. -1.
</event>
<event>
 4    1  0.1222208E+000  0.1779831E+03  0.7818608E-02  0.1169769E+00
         21   -1    0    0  503  502  0.00000000000E+00  0.00000000000E+00  0.16750693712E+02  0.16750693712E+02  0.00000000000E+00 0. -1.
         21   -1    0    0  501  503 -0.00000000000E+00 -0.00000000000E+00 -0.21563772327E+04  0.21563772327E+04  0.00000000000E+00 0. -1.
          6    1    1    2  501    0  0.38225456432E+02  0.25155790182E+02 -0.68874248278E+03  0.71136784218E+03  0.17200000000E+03 0. -1.
         -6    1    1    2    0  502 -0.38225456432E+02 -0.25155790182E+02 -0.14508840562E+04  0.14617600843E+04  0.17200000000E+03 0. -1.
</event>
<event>
 4    1  0.1222208E+000  0.1851535E+03  0.7818608E-02  0.1162907E+00
         21   -1    0    0  501  502  0.00000000000E+00  0.00000000000E+00  0.69777888196E+03  0.69777888196E+03  0.00000000000E+00 0.  1.
         21   -1    0    0  502  503 -0.00000000000E+00 -0.00000000000E+00 -0.63691256489E+02  0.63691256489E+02  0.00000000000E+00 0.  1.
          6    1    1    2  501    0  0.36448558449E+02 -0.58045759968E+02  0.49909095644E+03  0.53232846107E+03  0.17200000000E+03 0.  1.
         -6    1    1    2    0  503 -0.36448558449E+02  0.58045759968E+02  0.13499666903E+03  0.22914167738E+03  0.17200000000E+03 0.  1.
</event>
<event>
 4    1  0.1222208E+000  0.1808264E+03  0.7818608E-02  0.1167006E+00
         21   -1    0    0  501  502  0.00000000000E+00  0.00000000000E+00  0.89473607351E+02  0.89473607351E+02  0.00000000000E+00 0.  1.
         21   -1    0    0  502  503 -0.00000000000E+00 -0.00000000000E+00 -0.37805334466E+03  0.37805334466E+03  0.00000000000E+00 0.  1.
          6    1    1    2  501    0 -0.17473520649E+02 -0.52998605579E+02 -0.10160891617E+03  0.20741877437E+03  0.17200000000E+03 0.  1.
         -6    1    1    2    0  503  0.17473520649E+02  0.52998605579E+02 -0.18697082114E+03  0.26010817764E+03  0.17200000000E+03 0.  1.
</event>
<event>
 4    1  0.1222208E+000  0.2688980E+03  0.7818608E-02  0.1101912E+00
         21   -1    0    0  501  502  0.00000000000E+00  0.00000000000E+00  0.37739509402E+03  0.37739509402E+03  0.00000000000E+00 0.  1.
         21   -1    0    0  502  503 -0.00000000000E+00 -0.00000000000E+00 -0.19273995242E+03  0.19273995242E+03  0.00000000000E+00 0.  1.
          6    1    1    2  501    0 -0.81898066760E+02 -0.18977577085E+03  0.11432113507E+03  0.29219079120E+03  0.17200000000E+03 0. -1.
         -6    1    1    2    0  503  0.81898066760E+02  0.18977577085E+03  0.70334006530E+02  0.27794425523E+03  0.17200000000E+03 0. -1.
</event>
<event>
 4    1  0.1222208E+000  0.1905390E+03  0.7818608E-02  0.1157976E+00
         21   -1    0    0  501  502  0.00000000000E+00  0.00000000000E+00  0.15260821877E+02  0.15260821877E+02  0.00000000000E+00 0.  1.
         21   -1    0    0  502  503 -0.00000000000E+00 -0.00000000000E+00 -0.23795058130E+04  0.23795058130E+04  0.00000000000E+00 0. -1.
          6    1    1    2  501    0  0.71190254427E+02  0.40657688015E+02 -0.11642234315E+04  0.11797123795E+04  0.17200000000E+03 0. -1.
         -6    1    1    2    0  503 -0.71190254427E+02 -0.40657688015E+02 -0.12000215596E+04  0.12150542554E+04  0.17200000000E+03 0. -1.
</event>
<event>
 4    1  0.1222208E+000  0.1783126E+03  0.7818608E-02  0.1169446E+00
         21   -1    0    0  501  502  0.00000000000E+00  0.00000000000E+00  0.10340888279E+04  0.10340888279E+04  0.00000000000E+00 0.  1.
         21   -1    0    0  502  503 -0.00000000000E+00 -0.00000000000E+00 -0.32355646896E+02  0.32355646896E+02  0.00000000000E+00 0. -1.
          6    1    1    2  501    0  0.23555372565E+02  0.40700488199E+02  0.61975243170E+03  0.64489414784E+03  0.17200000000E+03 0.  1.
         -6    1    1    2    0  503 -0.23555372565E+02 -0.40700488199E+02  0.38198074926E+03  0.42155032692E+03  0.17200000000E+03 0. -1.
</event>
<event>
 4    1  0.1222208E+000  0.3037788E+03  0.7818608E-02  0.1083367E+00
         21   -1    0    0  503  502  0.00000000000E+00  0.00000000000E+00  0.33457384447E+03  0.33457384447E+03  0.00000000000E+00 0. -1.
         21   -1    0    0  501  503 -0.00000000000E+00 -0.00000000000E+00 -0.30405108867E+03  0.30405108867E+03  0.00000000000E+00 0. -1.
          6    1    1    2  501    0  0.13340671215E+03 -0.21189664512E+03 -0.82040367343E+02  0.31466197885E+03  0.17200000000E+03 0. -1.
         -6    1    1    2    0  502 -0.13340671215E+03  0.21189664512E+03  0.11256312315E+03  0.32396295429E+03  0.17200000000E+03 0. -1.
</event>
<event>
 4    1  0.1222208E+000  0.1942637E+03  0.7818608E-02  0.1154671E+00
         21   -1    0    0  501  502  0.00000000000E+00  0.00000000000E+00  0.17890548498E+04  0.17890548498E+04  0.00000000000E+00 0.  1.
         21   -1    0    0  502  503 -0.00000000000E+00 -0.00000000000E+00 -0.21517957720E+02  0.21517957720E+02  0.00000000000E+00 0. -1.
          6    1    1    2  501    0 -0.36464528583E+02  0.82611950715E+02  0.10108333981E+04  0.10293311202E+04  0.17200000000E+03 0.  1.
         -6    1    1    2    0  503  0.36464528583E+02 -0.82611950715E+02  0.75670349402E+03  0.78124168738E+03  0.17200000000E+03 0.  1.
</event>
<event>
 4    1  0.1222208E+000  0.1950881E+03  0.7818608E-02  0.1153951E+00
         21   -1    0    0  503  502  0.00000000000E+00  0.00000000000E+00  0.39928594780E+02  0.39928594780E+02  0.00000000000E+00 0.  1.
         21   -1    0    0  501  503 -0.00000000000E+00 -0.00000000000E+00 -0.95744875046E+03  0.95744875046E+03  0.00000000000E+00 0.  1.
          6    1    1    2  501    0  0.45979714318E+01 -0.91946801818E+02 -0.49203710713E+03  0.52930130408E+03  0.17200000000E+03 0.  1.
         -6    1    1    2    0  502 -0.45979714318E+01  0.91946801818E+02 -0.42548304854E+03  0.46807604116E+03  0.17200000000E+03 0.  1.
</event>
<event>
 4    1  0.1222208E+000  0.2009253E+03  0.7818608E-02  0.1148961E+00
         21   -1    0    0  503  502  0.00000000000E+00  0.00000000000E+00  0.33829758591E+03  0.33829758591E+03  0.00000000000E+00 0. -1.
         21   -1    0    0  501  503 -0.00000000000E+00 -0.00000000000E+00 -0.12254142280E+03  0.12254142280E+03  0.00000000000E+00 0.  1.
          6    1    1    2  501    0 -0.10776973355E+02 -0.10329967487E+03  0.70609452853E+02  0.21297103281E+03  0.17200000000E+03 0.  1.
         -6    1    1    2    0  502  0.10776973355E+02  0.10329967487E+03  0.14514671026E+03  0.24786797591E+03  0.17200000000E+03 0. -1.
</event>
<event>
 4    1  0.1222208E+000  0.2041457E+03  0.7818608E-02  0.1146288E+00
         21   -1    0    0  501  502  0.00000000000E+00  0.00000000000E+00  0.67904079127E+02  0.67904079127E+02  0.00000000000E+00 0. -1.
         21   -1    0    0  502  503 -0.00000000000E+00 -0.00000000000E+00 -0.86399212348E+03  0.86399212348E+03  0.00000000000E+00 0. -1.
          6    1    1    2  501    0  0.10764238640E+03  0.22462680610E+02 -0.14727639783E+03  0.25172562986E+03  0.17200000000E+03 0. -1.
         -6    1    1    2    0  503 -0.10764238640E+03 -0.22462680610E+02 -0.64881164651E+03  0.68017057274E+03  0.17200000000E+03 0. -1.
</event>
<event>
 4    1  0.1222208E+000  0.2839326E+03  0.7818608E-02  0.1093560E+00
         21   -1    0    0  503  502  0.00000000000E+00  0.00000000000E+00  0.13643689728E+03  0.13643689728E+03  0.00000000000E+00 0.  1.
         21   -1    0    0  501  503 -0.00000000000E+00 -0.00000000000E+00 -0.61774559743E+03  0.61774559743E+03  0.00000000000E+00 0. -1.
          6    1    1    2  501    0 -0.22818293068E+02  0.22475109004E+03 -0.16201386084E+03  0.32690398908E+03  0.17200000000E+03 0.  1.
         -6    1    1    2    0  502  0.22818293068E+02 -0.22475109004E+03 -0.31929483931E+03  0.42727850564E+03  0.17200000000E+03 0.  1.
</event>
<event>
 4    1  0.1222208E+000  0.2137606E+03  0.7818608E-02  0.1138622E+00
         21   -1    0    0  503  502  0.00000000000E+00  0.00000000000E+00  0.62782656248E+03  0.62782656248E+03  0.00000000000E+00 0. -1.
         21   -1    0    0  501  503 -0.00000000000E+00 -0.00000000000E+00 -0.77084055884E+02  0.77084055884E+02  0.00000000000E+00 0. -1.
          6    1    1    2  501    0 -0.49441903115E+02  0.11689772448E+03  0.35864950366E+03  0.41752011479E+03  0.17200000000E+03 0. -1.
         -6    1    1    2    0  502  0.49441903115E+02 -0.11689772448E+03  0.19209300293E+03  0.28739050358E+03  0.17200000000E+03 0. -1.
</event>
<event>
 4    1  0.1222208E+000  0.4418365E+03  0.7818608E-02  0.1030185E+00
         21   -1    0    0  501  502  0.00000000000E+00  0.00000000000E+00  0.10737657450E+04  0.10737657450E+04  0.00000000000E+00 0. -1.
         21   -1    0    0  502  503 -0.00000000000E+00 -0.00000000000E+00 -0.22622306549E+03  0.22622306549E+03  0.00000000000E+00 0.  1.
          6    1    1    2  501    0 -0.38246467000E+03  0.13912674766E+03  0.13576298474E+03  0.46222404063E+03  0.17200000000E+03 0.  1.
         -6    1    1    2    0  503  0.38246467000E+03 -0.13912674766E+03  0.71177969477E+03  0.83776476985E+03  0.17200000000E+03 0. -1.
</event>
<event>
 4    1  0.1222208E+000  0.2034779E+03  0.7818608E-02  0.1146837E+00
         21   -1    0    0  501  502  0.00000000000E+00  0.00000000000E+00  0.26138613512E+03  0.26138613512E+03  0.00000000000E+00 0.  1.
         21   -1    0    0  502  503 -0.00000000000E+00 -0.00000000000E+00 -0.26796396092E+03  0.26796396092E+03  0.00000000000E+00 0.  1.
          6    1    1    2  501    0  0.89729974918E+02  0.61382167870E+02  0.16595424946E+03  0.26257199364E+03  0.17200000000E+03 0.  1.
         -6    1    1    2    0  503 -0.89729974918E+02 -0.61382167870E+02 -0.17253207526E+03  0.26677810241E+03  0.17200000000E+03 0.  1.
</event>
<event>
 4    1  0.1222208E+000  0.2046413E+03  0.7818608E-02  0.1145881E+00
         21   -1    0    0  503  502  0.00000000000E+00  0.00000000000E+00  0.37143489105E+03  0.37143489105E+03  0.00000000000E+00 0. -1.
         21   -1    0    0  501  503 -0.00000000000E+00 -0.00000000000E+00 -0.22594109153E+03  0.22594109153E+03  0.00000000000E+00 0. -1.
          6    1    1    2  501    0  0.40486851921E+02 -0.10322238329E+03 -0.13866657822E+03  0.24719721986E+03  0.17200000000E+03 0. -1.
         -6    1    1    2    0  502 -0.40486851921E+02  0.10322238329E+03  0.28416037774E+03  0.35017876273E+03  0.17200000000E+03 0. -1.
</event>
<event>
 4    1  0.1222208E+000  0.1808554E+03  0.7818608E-02  0.1166978E+00
         21   -1    0    0  503  502  0.00000000000E+00  0.00000000000E+00  0.10317247446E+03  0.10317247446E+03  0.00000000000E+00 0.  1.
         21   -1    0    0  501  503 -0.00000000000E+00 -0.00000000000E+00 -0.32512112047E+03  0.32512112047E+03  0.00000000000E+00 0.  1.
          6    1    1    2  501    0  0.55211282048E+02 -0.87398726906E+01 -0.14475893668E+03  0.23165452896E+03  0.17200000000E+03 0. -1.
         -6    1    1    2    0  502 -0.55211282048E+02  0.87398726906E+01 -0.77189709335E+02  0.19663906597E+03  0.17200000000E+03 0. -1.
</event>
<event>
 4    1  0.1222208E+000  0.1789825E+03  0.7818608E-02  0.1168791E+00
         21   -1    0    0  503  502  0.00000000000E+00  0.00000000000E+00  0.83952388416E+02  0.83952388416E+02  0.00000000000E+00 0.  1.
         21   -1    0    0  501  503 -0.00000000000E+00 -0.00000000000E+00 -0.18180030419E+04  0.18180030419E+04  0.00000000000E+00 0.  1.
          6    1    1    2  501    0 -0.46611464384E+02 -0.16676916718E+02 -0.21719493033E+02  0.18029554776E+03  0.17200000000E+03 0.  1.
         -6    1    1    2    0  502  0.46611464384E+02  0.16676916718E+02 -0.17123311604E+04  0.17216598825E+04  0.17200000000E+03 0.  1.
</event>
<event>
 4    1  0.1222208E+000  0.2191021E+03  0.7818608E-02  0.1134554E+00
         21   -1    0    0  503  502  0.00000000000E+00  0.00000000000E+00  0.51691521401E+03  0.51691521401E+03  0.00000000000E+00 0.  1.
         21   -1    0    0  501  503 -0.00000000000E+00 -0.00000000000E+00 -0.92970274289E+02  0.92970274289E+02  0.00000000000E+00 0.  1.
          6    1    1    2  501    0  0.11888502655E+03 -0.65483282470E+02  0.20193780737E+03  0.29796742753E+03  0.17200000000E+03 0. -1.
         -6    1    1    2    0  502 -0.11888502655E+03  0.65483282470E+02  0.22200713235E+03  0.31191806077E+03  0.17200000000E+03 0. -1.
</event>
<event>
 4    1  0.1222208E+000  0.2834043E+03  0.7818608E-02  0.1093844E+00
         21   -1    0    0  503  502  0.00000000000E+00  0.00000000000E+00  0.30173747952E+03  0.30173747952E+03  0.00000000000E+00 0.  1.
         21   -1    0    0  501  503 -0.00000000000E+00 -0.00000000000E+00 -0.79909437177E+03  0.79909437177E+03  0.00000000000E+00 0. -1.
          6    1    1    2  501    0 -0.10648848481E+03 -0.19847971619E+03 -0.69816699132E+03  0.75349528393E+03  0.17200000000E+03 0. -1.
         -6    1    1    2    0  502  0.10648848481E+03  0.19847971619E+03  0.20081009907E+03  0.34733656736E+03  0.17200000000E+03 0.  1.
</event>
<event>
 4    1  0.1222208E+000  0.1790709E+03  0.7818608E-02  0.1168705E+00
         21   -1    0    0  503  502  0.00000000000E+00  0.00000000000E+00  0.11745301023E+04  0.11745301023E+04  0.00000000000E+00 0. -1.
         21   -1    0    0  501  503 -0.00000000000E+00 -0.00000000000E+00 -0.28023386628E+02  0.28023386628E+02  0.00000000000E+00 0. -1.
          6    1    1    2  501    0  0.22135823103E+02 -0.44636385667E+02  0.47674680775E+03  0.50926802402E+03  0.17200000000E+03 0. -1.
         -6    1    1    2    0  502 -0.22135823103E+02  0.44636385667E+02  0.66975990788E+03  0.69328546486E+03  0.17200000000E+03 0. -1.
</event>
<event>
 4    1  0.1222208E+000  0.1722705E+03  0.7818608E-02  0.1175501E+00
         21   -1    0    0  501  502  0.00000000000E+00  0.00000000000E+00  0.52999041223E+02  0.52999041223E+02  0.00000000000E+00 0. -1.
         21   -1    0    0  502  503 -0.00000000000E+00 -0.00000000000E+00 -0.56737661418E+03  0.56737661418E+03  0.00000000000E+00 0. -1.
          6    1    1    2  501    0  0.36944999804E+01 -0.89154252843E+01 -0.22171502031E+03  0.28077514913E+03  0.17200000000E+03 0.  1.
         -6    1    1    2    0  503 -0.36944999804E+01  0.89154252843E+01 -0.29266255264E+03  0.33960050627E+03  0.17200000000E+03 0.  1.
</event>
<event>
 4    1  0.1222208E+000  0.2548704E+03  0.7818608E-02  0.1110265E+00
         21   -1    0    0  501  502  0.00000000000E+00  0.00000000000E+00  0.12701337031E+04  0.12701337031E+04  0.00000000000E+00 0. -1.
         21   -1    0    0  502  503 -0.00000000000E+00 -0.00000000000E+00 -0.14291206788E+03  0.14291206788E+03  0.00000000000E+00 0. -1.
          6    1    1    2  501    0  0.66579943233E+02  0.17590343224E+03  0.11297706952E+04  0.11581626527E+04  0.17200000000E+03 0. -1.
         -6    1    1    2    0  503 -0.66579943233E+02 -0.17590343224E+03 -0.25490599331E+01  0.25488311835E+03  0.17200000000E+03 0. -1.
</event>
<event>
 4    1  0.1222208E+000  0.2007387E+03  0.7818608E-02  0.1149117E+00
         21   -1    0    0  503  502  0.00000000000E+00  0.00000000000E+00  0.11392094285E+04  0.11392094285E+04  0.00000000000E+00 0.  1.
         21   -1    0    0  501  503 -0.00000000000E+00 -0.00000000000E+00 -0.39316761605E+02  0.39316761605E+02  0.00000000000E+00 0.  1.
          6    1    1    2  501    0  0.89220073367E+02  0.52457740357E+02  0.36329348821E+03  0.41506408492E+03  0.17200000000E+03 0.  1.
         -6    1    1    2    0  502 -0.89220073367E+02 -0.52457740357E+02  0.73659917872E+03  0.76346210522E+03  0.17200000000E+03 0.  1.
</event>
<event>
 4    1  0.1222208E+000  0.2875846E+03  0.7818608E-02  0.1091617E+00
         21   -1    0    0  501  502  0.00000000000E+00  0.00000000000E+00  0.39255115090E+03  0.39255115090E+03  0.00000000000E+00 0.  1.
         21   -1    0    0  502  503 -0.00000000000E+00 -0.00000000000E+00 -0.34711546659E+03  0.34711546659E+03  0.00000000000E+00 0.  1.
          6    1    1    2  501    0 -0.20516944290E+03 -0.10500674766E+03  0.25457664808E+03  0.38407575698E+03  0.17200000000E+03 0.  1.
         -6    1    1    2    0  503  0.20516944290E+03  0.10500674766E+03 -0.20914096377E+03  0.35559086051E+03  0.17200000000E+03 0.  1.
</event>
<event>
 4    1  0.1222208E+000  0.2019738E+03  0.7818608E-02  0.1148084E+00
         21   -1    0    0  501  502  0.00000000000E+00  0.00000000000E+00  0.54947519754E+02  0.54947519754E+02  0.00000000000E+00 0.  1.
         21   -1    0    0  502  503 -0.00000000000E+00 -0.00000000000E+00 -0.75585142337E+03  0.75585142337E+03  0.00000000000E+00 0.  1.
          6    1    1    2  501    0 -0.21380637245E+02  0.10369329927E+03 -0.29638479855E+03  0.35866053696E+03  0.17200000000E+03 0.  1.
         -6    1    1    2    0  503  0.21380637245E+02 -0.10369329927E+03 -0.40451910507E+03  0.45213840616E+03  0.17200000000E+03 0.  1.
</event>
<event>
 4    1  0.1222208E+000  0.1948776E+03  0.7818608E-02  0.1154134E+00
         21   -1    0    0  503  502  0.00000000000E+00  0.00000000000E+00  0.11110497947E+03  0.11110497947E+03  0.00000000000E+00 0. -1.
         21   -1    0    0  501  503 -0.00000000000E+00 -0.00000000000E+00 -0.94569674227E+03  0.94569674227E+03  0.00000000000E+00 0. -1.
          6    1    1    2  501    0  0.44350237712E+02 -0.80164419336E+02 -0.83954013606E+03  0.86186131005E+03  0.17200000000E+03 0. -1.
         -6    1    1    2    0  502 -0.44350237712E+02  0.80164419336E+02  0.49483732617E+01  0.19494041169E+03  0.17200000000E+03 0. -1.
</event>
<event>
 4    1  0.1222208E+000  0.3634029E+03  0.7818608E-02  0.1057245E+00
         21   -1    0    0  501  502  0.00000000000E+00  0.00000000000E+00  0.15460430025E+03  0.15460430025E+03  0.00000000000E+00 0.  1.
         21   -1    0    0  502  503 -0.00000000000E+00 -0.00000000000E+00 -0.15104332173E+04  0.15104332173E+04  0.00000000000E+00 0.  1.
          6    1    1    2  501    0  0.17033195406E+03  0.27104377361E+03 -0.12916370061E+03  0.38567468590E+03  0.17200000000E+03 0.  1.
         -6    1    1    2    0  503 -0.17033195406E+03 -0.27104377361E+03 -0.12266652165E+04  0.12793628317E+04  0.17200000000E+03 0.  1.
</event>
<event>
 4    1  0.1222208E+000  0.1810545E+03  0.7818608E-02  0.1166786E+00
         21   -1    0    0  503  502  0.00000000000E+00  0.00000000000E+00  0.77640728858E+02  0.77640728858E+02  0.00000000000E+00 0. -1.
         21   -1    0    0  501  503 -0.00000000000E+00 -0.00000000000E+00 -0.42423176236E+03  0.42423176236E+03  0.00000000000E+00 0.  1.
          6    1    1    2  501    0  0.52580556044E+02 -0.20784597454E+02 -0.19061743955E+03  0.26289869270E+03  0.17200000000E+03 0.  1.
         -6    1    1    2    0  502 -0.52580556044E+02  0.20784597454E+02 -0.15597359396E+03  0.23897379852E+03  0.17200000000E+03 0.  1.
</event>
<event>
 4    1  0.1222208E+000  0.1981763E+03  0.7818608E-02  0.1151287E+00
         21   -1    0    0  503  502  0.00000000000E+00  0.00000000000E+00  0.14961571789E+03  0.14961571789E+03  0.00000000000E+00 0. -1.
         21   -1    0    0  501  503 -0.00000000000E+00 -0.00000000000E+00 -0.42516245070E+03  0.42516245070E+03  0.00000000000E+00 0.  1.
          6    1    1    2  501    0 -0.66473048413E+02 -0.72602946748E+02 -0.31553535475E+03  0.37260758733E+03  0.17200000000E+03 0.  1.
         -6    1    1    2    0  502  0.66473048413E+02  0.72602946748E+02  0.39988621938E+02  0.20217058126E+03  0.17200000000E+03 0. -1.
</event>
<event>
 4    1  0.1222208E+000  0.2199022E+03  0.7818608E-02  0.1133956E+00
         21   -1    0    0  503  502  0.00000000000E+00  0.00000000000E+00  0.13943303829E+03  0.13943303829E+03  0.00000000000E+00 0. -1.
         21   -1    0    0  501  503 -0.00000000000E+00 -0.00000000000E+00 -0.10335008498E+04  0.10335008498E+04  0.00000000000E+00 0.  1.
          6    1    1    2  501    0 -0.34915543875E+01 -0.13697002228E+03 -0.92507835785E+03  0.95085590187E+03  0.17200000000E+03 0.  1.
         -6    1    1    2    0  502  0.34915543875E+01  0.13697002228E+03  0.31010546383E+02  0.22207798617E+03  0.17200000000E+03 0. -1.
</event>
<event>
 4    1  0.1222208E+000  0.1958482E+03  0.7818608E-02  0.1153290E+00
         21   -1    0    0  501  502  0.00000000000E+00  0.00000000000E+00  0.55170716183E+03  0.55170716183E+03  0.00000000000E+00 0.  1.
         21   -1    0    0  502  503 -0.00000000000E+00 -0.00000000000E+00 -0.97702946319E+02  0.97702946319E+02  0.00000000000E+00 0.  1.
          6    1    1    2  501    0  0.32172923740E+01 -0.93606360424E+02  0.40138464771E+03  0.44661631979E+03  0.17200000000E+03 0.  1.
         -6    1    1    2    0  503 -0.32172923740E+01  0.93606360424E+02  0.52619567796E+02  0.20279378836E+03  0.17200000000E+03 0.  1.
</event>
<event>
 4    1  0.1222208E+000  0.1839559E+03  0.7818608E-02  0.1164029E+00
         21   -1    0    0  501  502  0.00000000000E+00  0.00000000000E+00  0.45626370520E+02  0.45626370520E+02  0.00000000000E+00 0.  1.
         21   -1    0    0  502  503 -0.00000000000E+00 -0.00000000000E+00 -0.16354475220E+04  0.16354475220E+04  0.00000000000E+00 0.  1.
          6    1    1    2  501    0  0.68048242108E+01  0.64880337221E+02 -0.17353678616E+03  0.25289282303E+03  0.17200000000E+03 0.  1.
         -6    1    1    2    0  503 -0.68048242108E+01 -0.64880337221E+02 -0.14162843653E+04  0.14281810695E+04  0.17200000000E+03 0.  1.
</event>
<event>
 4    1  0.1222208E+000  0.2558095E+03  0.7818608E-02  0.1109687E+00
         21   -1    0    0  501  502  0.00000000000E+00  0.00000000000E+00  0.10344814470E+04  0.10344814470E+04  0.00000000000E+00 0.  1.
         21   -1    0    0  502  503 -0.00000000000E+00 -0.00000000000E+00 -0.81177822145E+02  0.81177822145E+02  0.00000000000E+00 0. -1.
          6    1    1    2  501    0  0.18348612775E+03 -0.46768869899E+02  0.73874661746E+03  0.78178325071E+03  0.17200000000E+03 0.  1.
         -6    1    1    2    0  503 -0.18348612775E+03  0.46768869899E+02  0.21455700739E+03  0.33387601844E+03  0.17200000000E+03 0. -1.
</event>
<event>
 4    1  0.1222208E+000  0.1998824E+03  0.7818608E-02  0.1149838E+00
         21   -1    0    0  501  502  0.00000000000E+00  0.00000000000E+00  0.12621962988E+04  0.12621962988E+04  0.00000000000E+00 0.  1.
         21   -1    0    0  502  503 -0.00000000000E+00 -0.00000000000E+00 -0.48274875184E+02  0.48274875184E+02  0.00000000000E+00 0.  1.
          6    1    1    2  501    0 -0.93294718006E+02  0.40805192625E+02  0.99143737465E+03  0.10113857009E+04  0.17200000000E+03 0. -1.
         -6    1    1    2    0  503  0.93294718006E+02 -0.40805192625E+02  0.22248404892E+03  0.29908547303E+03  0.17200000000E+03 0. -1.
</event>
<event>
 4    1  0.1222208E+000  0.1723458E+03  0.7818608E-02  0.1175423E+00
         21   -1    0    0  503  502  0.00000000000E+00  0.00000000000E+00  0.53162147402E+02  0.53162147402E+02  0.00000000000E+00 0.  1.
         21   -1    0    0  501  503 -0.00000000000E+00 -0.00000000000E+00 -0.60404775232E+03  0.60404775232E+03  0.00000000000E+00 0.  1.
          6    1    1    2  501    0 -0.96815345263E+01 -0.50357798049E+01 -0.36545269834E+03  0.40405292464E+03  0.17200000000E+03 0. -1.
         -6    1    1    2    0  502  0.96815345263E+01  0.50357798049E+01 -0.18543290658E+03  0.25315697508E+03  0.17200000000E+03 0. -1.
</event>
<event>
 4    1  0.1222208E+000  0.1917985E+03  0.7818608E-02  0.1156849E+00
         21   -1    0    0  501  502  0.00000000000E+00  0.00000000000E+00  0.96336324001E+03  0.96336324001E+03  0.00000000000E+00 0. -1.
         21   -1    0    0  502  503 -0.00000000000E+00 -0.00000000000E+00 -0.38847410897E+02  0.38847410897E+02  0.00000000000E+00 0. -1.
          6    1    1    2  501    0 -0.62482457566E+02  0.57433663897E+02  0.52765941556E+03  0.56143667682E+03  0.17200000000E+03 0. -1.
         -6    1    1    2    0  503  0.62482457566E+02 -0.57433663897E+02  0.39685641356E+03  0.44077397409E+03  0.17200000000E+03 0. -1.
</event>
<event>
 4    1  0.1222208E+000  0.2034644E+03  0.7818608E-02  0.1146849E+00
         21   -1    0    0  501  502  0.00000000000E+00  0.00000000000E+00  0.11648021832E+03  0.11648021832E+03  0.00000000000E+00 0.  1.
         21   -1    0    0  502  503 -0.00000000000E+00 -0.00000000000E+00 -0.72466975003E+03  0.72466975003E+03  0.00000000000E+00 0. -1.
          6    1    1    2  501    0 -0.10134372169E+03 -0.39283739076E+02 -0.38733000883E+01  0.20350126421E+03  0.17200000000E+03 0.  1.
         -6    1    1    2    0  503  0.10134372169E+03  0.39283739076E+02 -0.60431623162E+03  0.63764870414E+03  0.17200000000E+03 0.  1.
</event>
<event>
 4    1  0.1222208E+000  0.2251356E+03  0.7818608E-02  0.1130111E+00
         21   -1    0    0  503  502  0.00000000000E+00  0.00000000000E+00  0.11519424772E+04  0.11519424772E+04  0.00000000000E+00 0.  1.
         21   -1    0    0  501  503 -0.00000000000E+00 -0.00000000000E+00 -0.49412235530E+02  0.49412235530E+02  0.00000000000E+00 0.  1.
          6    1    1    2  501    0  0.14206300575E+03 -0.30334070586E+02  0.75005395948E+03  0.78311365432E+03  0.17200000000E+03 0.  1.
         -6    1    1    2    0  502 -0.14206300575E+03  0.30334070586E+02  0.35247628220E+03  0.41824105843E+03  0.17200000000E+03 0.  1.
</event>
<event>
 4    1  0.1222208E+000  0.3634468E+03  0.7818608E-02  0.1057227E+00
         21   -1    0    0  501  502  0.00000000000E+00  0.00000000000E+00  0.21516637486E+03  0.21516637486E+03  0.00000000000E+00 0. -1.
         21   -1    0    0  502  503 -0.00000000000E+00 -0.00000000000E+00 -0.61604785002E+03  0.61604785002E+03  0.00000000000E+00 0. -1.
          6    1    1    2  501    0  0.31944859233E+03  0.21498028655E+02 -0.22490297787E+03  0.42740486407E+03  0.17200000000E+03 0. -1.
         -6    1    1    2    0  503 -0.31944859233E+03 -0.21498028655E+02 -0.17597849728E+03  0.40380936082E+03  0.17200000000E+03 0. -1.
</event>
<event>
 4    1  0.1222208E+000  0.2194581E+03  0.7818608E-02  0.1134288E+00
         21   -1    0    0  503  502  0.00000000000E+00  0.00000000000E+00  0.82369736649E+03  0.82369736649E+03  0.00000000000E+00 0.  1.
         21   -1    0    0  501  503 -0.00000000000E+00 -0.00000000000E+00 -0.58641319302E+02  0.58641319302E+02  0.00000000000E+00 0.  1.
          6    1    1    2  501    0 -0.42227143249E+02 -0.12959449176E+03  0.35870608999E+03  0.42051387957E+03  0.17200000000E+03 0.  1.
         -6    1    1    2    0  502  0.42227143249E+02  0.12959449176E+03  0.40634995720E+03  0.46182480622E+03  0.17200000000E+03 0.  1.
</event>
<event>
 4    1  0.1222208E+000  0.2083398E+03  0.7818608E-02  0.1142887E+00
         21   -1    0    0  503  502  0.00000000000E+00  0.00000000000E+00  0.62423467705E+03  0.62423467705E+03  0.00000000000E+00 0. -1.
         21   -1    0    0  501  503 -0.00000000000E+00 -0.00000000000E+00 -0.74120919527E+02  0.74120919527E+02  0.00000000000E+00 0.  1.
          6    1    1    2  501    0 -0.10293071750E+03  0.56804561139E+02  0.36192092679E+03  0.41760297894E+03  0.17200000000E+03 0. -1.
         -6    1    1    2    0  502  0.10293071750E+03 -0.56804561139E+02  0.18819283073E+03  0.28075261764E+03  0.17200000000E+03 0.  1.
</event>
<event>
 4    1  0.1222208E+000  0.1753352E+03  0.7818608E-02  0.1172396E+00
         21   -1    0    0  503  502  0.00000000000E+00  0.00000000000E+00  0.39229698415E+03  0.39229698415E+03  0.00000000000E+00 0.  1.
         21   -1    0    0  501  503 -0.00000000000E+00 -0.00000000000E+00 -0.83447137290E+02  0.83447137290E+02  0.00000000000E+00 0.  1.
          6    1    1    2  501    0  0.16592130135E+02 -0.29717533529E+02  0.95722980225E+02  0.19976315858E+03  0.17200000000E+03 0. -1.
         -6    1    1    2    0  502 -0.16592130135E+02  0.29717533529E+02  0.21312686664E+03  0.27598096287E+03  0.17200000000E+03 0. -1.
</event>
<event>
 4    1  0.1222208E+000  0.1721211E+03  0.7818608E-02  0.1175654E+00
         21   -1    0    0  501  502  0.00000000000E+00  0.00000000000E+00  0.23792617589E+03  0.23792617589E+03  0.00000000000E+00 0. -1.
         21   -1    0    0  502  503 -0.00000000000E+00 -0.00000000000E+00 -0.12487347223E+03  0.12487347223E+03  0.00000000000E+00 0. -1.
          6    1    1    2  501    0  0.65239555690E+00 -0.64221380421E+01  0.66228895885E+02  0.18442325267E+03  0.17200000000E+03 0. -1.
         -6    1    1    2    0  503 -0.65239555690E+00  0.64221380421E+01  0.46823807775E+02  0.17837639544E+03  0.17200000000E+03 0. -1.
</event>
<event>
 4    1  0.1222208E+000  0.2067879E+03  0.7818608E-02  0.1144135E+00
         21   -1    0    0  501  502  0.00000000000E+00  0.00000000000E+00  0.88359156299E+03  0.88359156299E+03  0.00000000000E+00 0. -1.
         21   -1    0    0  502  503 -0.00000000000E+00 -0.00000000000E+00 -0.51810368185E+02  0.51810368185E+02  0.00000000000E+00 0.  1.
          6    1    1    2  501    0  0.11479213391E+03  0.11235765958E+00  0.29580505834E+03  0.36091810590E+03  0.17200000000E+03 0.  1.
         -6    1    1    2    0  503 -0.11479213391E+03 -0.11235765958E+00  0.53597613648E+03  0.57448382528E+03  0.17200000000E+03 0.  1.
</event>
<event>
 4    1  0.1222208E+000  0.1952540E+03  0.7818608E-02  0.1153806E+00
         21   -1    0    0  501  502  0.00000000000E+00  0.00000000000E+00  0.73309949217E+02  0.73309949217E+02  0.00000000000E+00 0. -1.
         21   -1    0    0  502  503 -0.00000000000E+00 -0.00000000000E+00 -0.52803129400E+03  0.52803129400E+03  0.00000000000E+00 0.  1.
          6    1    1    2  501    0  0.45579538907E+02  0.80390381048E+02 -0.19037197192E+03  0.27270056000E+03  0.17200000000E+03 0. -1.
         -6    1    1    2    0  503 -0.45579538907E+02 -0.80390381048E+02 -0.26434937286E+03  0.32864068322E+03  0.17200000000E+03 0.  1.
</event>
<event>
 4    1  0.1222208E+000  0.2291612E+03  0.7818608E-02  0.1127232E+00
         21   -1    0    0  503  502  0.00000000000E+00  0.00000000000E+00  0.78147445680E+02  0.78147445680E+02  0.00000000000E+00 0.  1.
         21   -1    0    0  501  503 -0.00000000000E+00 -0.00000000000E+00 -0.14019160073E+04  0.14019160073E+04  0.00000000000E+00 0.  1.
          6    1    1    2  501    0  0.86068397009E+02 -0.12459164690E+03 -0.11958663630E+04  0.12176252320E+04  0.17200000000E+03 0. -1.
         -6    1    1    2    0  502 -0.86068397009E+02  0.12459164690E+03 -0.12790219870E+03  0.26243822106E+03  0.17200000000E+03 0. -1.
</event>
<event>
 4    1  0.1222208E+000  0.2203392E+03  0.7818608E-02  0.1133630E+00
         21   -1    0    0  501  502  0.00000000000E+00  0.00000000000E+00  0.16019370771E+03  0.16019370771E+03  0.00000000000E+00 0.  1.
         21   -1    0    0  502  503 -0.00000000000E+00 -0.00000000000E+00 -0.33624448086E+03  0.33624448086E+03  0.00000000000E+00 0. -1.
          6    1    1    2  501    0 -0.13754894660E+03  0.67580634055E+01 -0.10054757976E+02  0.22056854329E+03  0.17200000000E+03 0. -1.
         -6    1    1    2    0  503  0.13754894660E+03 -0.67580634055E+01 -0.16599601518E+03  0.27586964528E+03  0.17200000000E+03 0. -1.
</event>
<event>
 4    1  0.1222208E+000  0.2936894E+03  0.7818608E-02  0.1088438E+00
         21   -1    0    0  501  502  0.00000000000E+00  0.00000000000E+00  0.13400351302E+03  0.13400351302E+03  0.00000000000E+00 0. -1.
         21   -1    0    0  502  503 -0.00000000000E+00 -0.00000000000E+00 -0.68993673628E+03  0.68993673628E+03  0.00000000000E+00 0.  1.
          6    1    1    2  501    0 -0.22657697635E+03  0.73022872346E+02 -0.17127858978E+03  0.33998503116E+03  0.17200000000E+03 0.  1.
         -6    1    1    2    0  503  0.22657697635E+03 -0.73022872346E+02 -0.38465463348E+03  0.48395521813E+03  0.17200000000E+03 0.  1.
</event>
<event>
 4    1  0.1222208E+000  0.2121033E+03  0.7818608E-02  0.1139911E+00
         21   -1    0    0  501  502  0.00000000000E+00  0.00000000000E+00  0.15855738784E+03  0.15855738784E+03  0.00000000000E+00 0.  1.
         21   -1    0    0  502  503 -0.00000000000E+00 -0.00000000000E+00 -0.32711981221E+03  0.32711981221E+03  0.00000000000E+00 0.  1.
          6    1    1    2  501    0 -0.12360520435E+03  0.11204793394E+02  0.41587430600E+01  0.21214402910E+03  0.17200000000E+03 0.  1.
         -6    1    1    2    0  503  0.12360520435E+03 -0.11204793394E+02 -0.17272116743E+03  0.27353317096E+03  0.17200000000E+03 0.  1.
</event>
<event>
 4    1  0.1222208E+000  0.1762907E+03  0.7818608E-02  0.1171442E+00
         21   -1    0    0  503  502  0.00000000000E+00  0.00000000000E+00  0.13816502567E+04  0.13816502567E+04  0.00000000000E+00 0.  1.
         21   -1    0    0  501  503 -0.00000000000E+00 -0.00000000000E+00 -0.33003632488E+02  0.33003632488E+02  0.00000000000E+00 0.  1.
          6    1    1    2  501    0 -0.26236802810E+02  0.28391122939E+02  0.27517039774E+03  0.32679836822E+03  0.17200000000E+03 0.  1.
         -6    1    1    2    0  502  0.26236802810E+02 -0.28391122939E+02  0.10734762265E+04  0.10878555210E+04  0.17200000000E+03 0.  1.
</event>
<event>
 4    1  0.1222208E+000  0.2848127E+03  0.7818608E-02  0.1093089E+00
         21   -1    0    0  501  502  0.00000000000E+00  0.00000000000E+00  0.66609096085E+03  0.66609096085E+03  0.00000000000E+00 0. -1.
         21   -1    0    0  502  503 -0.00000000000E+00 -0.00000000000E+00 -0.18261825625E+03  0.18261825625E+03  0.00000000000E+00 0. -1.
          6    1    1    2  501    0 -0.11057960609E+03  0.19825844041E+03  0.48666302897E+03  0.56387867688E+03  0.17200000000E+03 0. -1.
         -6    1    1    2    0  503  0.11057960609E+03 -0.19825844041E+03 -0.31903243674E+01  0.28483054022E+03  0.17200000000E+03 0. -1.
</event>
<event>
 4    1  0.1222208E+000  0.1895303E+03  0.7818608E-02  0.1158886E+00
         21   -1    0    0  503  502  0.00000000000E+00  0.00000000000E+00  0.55594283500E+02  0.55594283500E+02  0.00000000000E+00 0.  1.
         21   -1    0    0  501  503 -0.00000000000E+00 -0.00000000000E+00 -0.10318087659E+04  0.10318087659E+04  0.00000000000E+00 0.  1.
          6    1    1    2  501    0  0.78589501611E+01 -0.79220984398E+02 -0.82051243607E+03  0.84211779770E+03  0.17200000000E+03 0.  1.
         -6    1    1    2    0  502 -0.78589501611E+01  0.79220984398E+02 -0.15570204632E+03  0.24528525169E+03  0.17200000000E+03 0.  1.
</event>
<event>
 4    1  0.1222208E+000  0.2436457E+03  0.7818608E-02  0.1117388E+00
         21   -1    0    0  501  502  0.00000000000E+00  0.00000000000E+00  0.15026204164E+04  0.15026204164E+04  0.00000000000E+00 0. -1.
         21   -1    0    0  502  503 -0.00000000000E+00 -0.00000000000E+00 -0.11428450577E+03  0.11428450577E+03  0.00000000000E+00 0. -1.
          6    1    1    2  501    0 -0.17239552851E+03 -0.76821421721E+01  0.13481228983E+04  0.13699629858E+04  0.17200000000E+03 0. -1.
         -6    1    1    2    0  503  0.17239552851E+03  0.76821421721E+01  0.40213012287E+02  0.24694193633E+03  0.17200000000E+03 0. -1.
</event>
<event>
 4    1  0.1222208E+000  0.3374529E+03  0.7818608E-02  0.1067886E+00
         21   -1    0    0  501  502  0.00000000000E+00  0.00000000000E+00  0.19550837324E+03  0.19550837324E+03  0.00000000000E+00 0. -1.
         21   -1    0    0  502  503 -0.00000000000E+00 -0.00000000000E+00 -0.58422242549E+03  0.58422242549E+03  0.00000000000E+00 0.  1.
          6    1    1    2  501    0 -0.28581229270E+03 -0.51008074747E+02 -0.21581107099E+03  0.40056074285E+03  0.17200000000E+03 0.  1.
         -6    1    1    2    0  503  0.28581229270E+03  0.51008074747E+02 -0.17290298126E+03  0.37917005588E+03  0.17200000000E+03 0. -1.
</event>
<event>
 4    1  0.1222208E+000  0.1801513E+03  0.7818608E-02  0.1167657E+00
         21   -1    0    0  501  502  0.00000000000E+00  0.00000000000E+00  0.40099880828E+03  0.40099880828E+03  0.00000000000E+00 0.  1.
         21   -1    0    0  502  503 -0.00000000000E+00 -0.00000000000E+00 -0.83925833079E+02  0.83925833079E+02  0.00000000000E+00 0.  1.
          6    1    1    2  501    0 -0.32175562315E+01 -0.53480257299E+02  0.20431434972E+03  0.27239464769E+03  0.17200000000E+03 0. -1.
         -6    1    1    2    0  503  0.32175562315E+01  0.53480257299E+02  0.11275862548E+03  0.21252999367E+03  0.17200000000E+03 0. -1.
</event>
<event>
 4    1  0.1222208E+000  0.1972418E+03  0.7818608E-02  0.1152087E+00
         21   -1    0    0  503  502  0.00000000000E+00  0.00000000000E+00  0.66566985346E+03  0.66566985346E+03  0.00000000000E+00 0. -1.
         21   -1    0    0  501  503 -0.00000000000E+00 -0.00000000000E+00 -0.19198316994E+03  0.19198316994E+03  0.00000000000E+00 0. -1.
          6    1    1    2  501    0 -0.17262214419E+02 -0.94986002850E+02 -0.12080366103E+03  0.23129602094E+03  0.17200000000E+03 0. -1.
         -6    1    1    2    0  502  0.17262214419E+02  0.94986002850E+02  0.59449034454E+03  0.62635700246E+03  0.17200000000E+03 0. -1.
</event>
<event>
 4    1  0.1222208E+000  0.2040859E+03  0.7818608E-02  0.1146337E+00
         21   -1    0    0  503  502  0.00000000000E+00  0.00000000000E+00  0.13663826200E+04  0.13663826200E+04  0.00000000000E+00 0. -1.
         21   -1    0    0  501  503 -0.00000000000E+00 -0.00000000000E+00 -0.33398276010E+02  0.33398276010E+02  0.00000000000E+00 0. -1.
          6    1    1    2  501    0  0.27187536881E+02  0.10643251925E+03  0.45970214918E+03  0.50296829849E+03  0.17200000000E+03 0. -1.
         -6    1    1    2    0  502 -0.27187536881E+02 -0.10643251925E+03  0.87328219485E+03  0.89681259757E+03  0.17200000000E+03 0. -1.
</event>
<event>
 4    1  0.1222208E+000  0.2649807E+03  0.7818608E-02  0.1104187E+00
         21   -1    0    0  501  502  0.00000000000E+00  0.00000000000E+00  0.13634209354E+03  0.13634209354E+03  0.00000000000E+00 0. -1.
         21   -1    0    0  502  503 -0.00000000000E+00 -0.00000000000E+00 -0.63308191451E+03  0.63308191451E+03  0.00000000000E+00 0. -1.
          6    1    1    2  501    0 -0.60683026680E+02  0.19221947591E+03 -0.82213672915E+02  0.27744160585E+03  0.17200000000E+03 0. -1.
         -6    1    1    2    0  503  0.60683026680E+02 -0.19221947591E+03 -0.41452614806E+03  0.49198240219E+03  0.17200000000E+03 0. -1.
</event>
<event>
 4    1  0.1222208E+000  0.2028553E+03  0.7818608E-02  0.1147352E+00
         21   -1    0    0  501  502  0.00000000000E+00  0.00000000000E+00  0.16490674356E+03  0.16490674356E+03  0.00000000000E+00 0.  1.
         21   -1    0    0  502  503 -0.00000000000E+00 -0.00000000000E+00 -0.34349610329E+03  0.34349610329E+03  0.00000000000E+00 0. -1.
          6    1    1    2  501    0 -0.27816286870E+02 -0.10388704705E+03 -0.22224441589E+03  0.30090338109E+03  0.17200000000E+03 0. -1.
         -6    1    1    2    0  503  0.27816286870E+02  0.10388704705E+03  0.43655056157E+02  0.20749946575E+03  0.17200000000E+03 0.  1.
</event>
<event>
 4    1  0.1222208E+000  0.1734374E+03  0.7818608E-02  0.1174310E+00
         21   -1    0    0  503  502  0.00000000000E+00  0.00000000000E+00  0.17958853616E+03  0.17958853616E+03  0.00000000000E+00 0.  1.
         21   -1    0    0  501  503 -0.00000000000E+00 -0.00000000000E+00 -0.21481267327E+03  0.21481267327E+03  0.00000000000E+00 0.  1.
          6    1    1    2  501    0 -0.11419632015E+02  0.19134433007E+02 -0.11016303777E+03  0.20546637052E+03  0.17200000000E+03 0. -1.
         -6    1    1    2    0  502  0.11419632015E+02 -0.19134433007E+02  0.74938900663E+02  0.18893483891E+03  0.17200000000E+03 0. -1.
</event>
<event>
 4    1  0.1222208E+000  0.1820310E+03  0.7818608E-02  0.1165852E+00
         21   -1    0    0  501  502  0.00000000000E+00  0.00000000000E+00  0.90533320503E+03  0.90533320503E+03  0.00000000000E+00 0. -1.
         21   -1    0    0  502  503 -0.00000000000E+00 -0.00000000000E+00 -0.42713955391E+02  0.42713955391E+02  0.00000000000E+00 0. -1.
          6    1    1    2  501    0 -0.48705874049E+02  0.34336864325E+02  0.61064780831E+03  0.63720171705E+03  0.17200000000E+03 0. -1.
         -6    1    1    2    0  503  0.48705874049E+02 -0.34336864325E+02  0.25197144132E+03  0.31084544337E+03  0.17200000000E+03 0. -1.
</event>
<event>
 4    1  0.1222208E+000  0.1834300E+03  0.7818608E-02  0.1164524E+00
         21   -1    0    0  501  502  0.00000000000E+00  0.00000000000E+00  0.16799127470E+03  0.16799127470E+03  0.00000000000E+00 0.  1.
         21   -1    0    0  502  503 -0.00000000000E+00 -0.00000000000E+00 -0.23460043762E+03  0.23460043762E+03  0.00000000000E+00 0.  1.
          6    1    1    2  501    0  0.63081810348E+02 -0.91235923842E+01 -0.11028837168E+03  0.21403289388E+03  0.17200000000E+03 0.  1.
         -6    1    1    2    0  503 -0.63081810348E+02  0.91235923842E+01  0.43679208761E+02  0.18855881844E+03  0.17200000000E+03 0.  1.
</event>
<event>
 4    1  0.1222208E+000  0.2278905E+03  0.7818608E-02  0.1128133E+00
         21   -1    0    0  501  502  0.00000000000E+00  0.00000000000E+00  0.87436477327E+02  0.87436477327E+02  0.00000000000E+00 0.  1.
         21   -1    0    0  502  503 -0.00000000000E+00 -0.00000000000E+00 -0.60304852479E+03  0.60304852479E+03  0.00000000000E+00 0. -1.
          6    1    1    2  501    0  0.99153274785E+01 -0.14917028991E+03 -0.21543122715E+03  0.31359958983E+03  0.17200000000E+03 0.  1.
         -6    1    1    2    0  503 -0.99153274785E+01  0.14917028991E+03 -0.30018082031E+03  0.37688541228E+03  0.17200000000E+03 0. -1.
</event>
<event>
 4    1  0.1222208E+000  0.2084863E+03  0.7818608E-02  0.1142770E+00
         21   -1    0    0  503  502  0.00000000000E+00  0.00000000000E+00  0.28558992647E+03  0.28558992647E+03  0.00000000000E+00 0.  1.
         21   -1    0    0  501  503 -0.00000000000E+00 -0.00000000000E+00 -0.21721486260E+03  0.21721486260E+03  0.00000000000E+00 0.  1.
          6    1    1    2  501    0 -0.11525584231E+03  0.24466538422E+02 -0.10335406985E+03  0.23269848397E+03  0.17200000000E+03 0. -1.
         -6    1    1    2    0  502  0.11525584231E+03 -0.24466538422E+02  0.17172913371E+03  0.27010630510E+03  0.17200000000E+03 0. -1.
</event>
<event>
 4    1  0.1222208E+000  0.1866768E+03  0.7818608E-02  0.1161493E+00
         21   -1    0    0  501  502  0.00000000000E+00  0.00000000000E+00  0.16911245225E+04  0.16911245225E+04  0.00000000000E+00 0.  1.
         21   -1    0    0  502  503 -0.00000000000E+00 -0.00000000000E+00 -0.29699303598E+02  0.29699303598E+02  0.00000000000E+00 0.  1.
          6    1    1    2  501    0 -0.15000585928E+02  0.70987420792E+02  0.13067939302E+04  0.13200600772E+04  0.17200000000E+03 0.  1.
         -6    1    1    2    0  503  0.15000585928E+02 -0.70987420792E+02  0.35463128880E+03  0.40076374896E+03  0.17200000000E+03 0.  1.
</event>
<event>
 4    1  0.1222208E+000  0.1835544E+03  0.7818608E-02  0.1164407E+00
         21   -1    0    0  501  502  0.00000000000E+00  0.00000000000E+00  0.27617138972E+03  0.27617138972E+03  0.00000000000E+00 0.  1.
         21   -1    0    0  502  503 -0.00000000000E+00 -0.00000000000E+00 -0.12202670311E+03  0.12202670311E+03  0.00000000000E+00 0.  1.
          6    1    1    2  501    0 -0.47595303862E+02  0.42928989358E+02  0.73990768931E+02  0.19790615191E+03  0.17200000000E+03 0.  1.
         -6    1    1    2    0  503  0.47595303862E+02 -0.42928989358E+02  0.80153917678E+02  0.20029194092E+03  0.17200000000E+03 0.  1.
</event>
<event>
 4    1  0.1222208E+000  0.2660377E+03  0.7818608E-02  0.1103569E+00
         21   -1    0    0  503  502  0.00000000000E+00  0.00000000000E+00  0.24170496289E+04  0.24170496289E+04  0.00000000000E+00 0.  1.
         21   -1    0    0  501  503 -0.00000000000E+00 -0.00000000000E+00 -0.29343719183E+02  0.29343719183E+02  0.00000000000E+00 0. -1.
          6    1    1    2  501    0 -0.16912529697E+03  0.11219933147E+03  0.11377564310E+04  0.11684458706E+04  0.17200000000E+03 0.  1.
         -6    1    1    2    0  502  0.16912529697E+03 -0.11219933147E+03  0.12499494787E+04  0.12779474776E+04  0.17200000000E+03 0. -1.
</event>
<event>
 4    1  0.1222208E+000  0.1841402E+03  0.7818608E-02  0.1163855E+00
         21   -1    0    0  501  502  0.00000000000E+00  0.00000000000E+00  0.23915767904E+02  0.23915767904E+02  0.00000000000E+00 0.  1.
         21   -1    0    0  502  503 -0.00000000000E+00 -0.00000000000E+00 -0.14500286879E+04  0.14500286879E+04  0.00000000000E+00 0.  1.
          6    1    1    2  501    0  0.63765242743E+02 -0.16049919395E+02 -0.82293981834E+03  0.84328971931E+03  0.17200000000E+03 0.  1.
         -6    1    1    2    0  503 -0.63765242743E+02  0.16049919395E+02 -0.60317310170E+03  0.63065473653E+03  0.17200000000E+03 0.  1.
</event>
<event>
 4    1  0.1222208E+000  0.1873869E+03  0.7818608E-02  0.1160839E+00
         21   -1    0    0  501  502  0.00000000000E+00  0.00000000000E+00  0.63856151577E+03  0.63856151577E+03  0.00000000000E+00 0. -1.
         21   -1    0    0  502  503 -0.00000000000E+00 -0.00000000000E+00 -0.63807566971E+02  0.63807566971E+02  0.00000000000E+00 0. -1.
          6    1    1    2  501    0 -0.30920443653E+02 -0.67629765722E+02  0.41793341835E+03  0.45801986990E+03  0.17200000000E+03 0.  1.
         -6    1    1    2    0  503  0.30920443653E+02  0.67629765722E+02  0.15682053045E+03  0.24434921285E+03  0.17200000000E+03 0.  1.
</event>
<event>
 4    1  0.1222208E+000  0.1840551E+03  0.7818608E-02  0.1163935E+00
         21   -1    0    0  501  502  0.00000000000E+00  0.00000000000E+00  0.45689192895E+02  0.45689192895E+02  0.00000000000E+00 0. -1.
         21   -1    0    0  502  503 -0.00000000000E+00 -0.00000000000E+00 -0.10337915916E+04  0.10337915916E+04  0.00000000000E+00 0. -1.
          6    1    1    2  501    0 -0.60235738702E+02  0.25766781343E+02 -0.20703037031E+03  0.27701596609E+03  0.17200000000E+03 0. -1.
         -6    1    1    2    0  503  0.60235738702E+02 -0.25766781343E+02 -0.78107202841E+03  0.80246481842E+03  0.17200000000E+03 0. -1.
</event>
<event>
 4    1  0.1222208E+000  0.2306963E+03  0.7818608E-02  0.1126151E+00
         21   -1    0    0  501  502  0.00000000000E+00  0.00000000000E+00  0.91745224064E+03  0.91745224064E+03  0.00000000000E+00 0.  1.
         21   -1    0    0  502  503 -0.00000000000E+00 -0.00000000000E+00 -0.13906816935E+03  0.13906816935E+03  0.00000000000E+00 0.  1.
          6    1    1    2  501    0  0.19257821082E+01 -0.15373046006E+03  0.79249767564E+03  0.82539283307E+03  0.17200000000E+03 0.  1.
         -6    1    1    2    0  503 -0.19257821082E+01  0.15373046006E+03 -0.14113604355E+02  0.23112757692E+03  0.17200000000E+03 0.  1.
</event>
<event>
 4    1  0.1222208E+000  0.1936650E+03  0.7818608E-02  0.1155197E+00
         21   -1    0    0  503  502  0.00000000000E+00  0.00000000000E+00  0.22829680073E+02  0.22829680073E+02  0.00000000000E+00 0. -1.
         21   -1    0    0  501  503 -0.00000000000E+00 -0.00000000000E+00 -0.18383340178E+04  0.18383340178E+04  0.00000000000E+00 0.  1.
          6    1    1    2  501    0 -0.87243184831E+02  0.17628579094E+02 -0.12111961452E+04  0.12265815269E+04  0.17200000000E+03 0.  1.
         -6    1    1    2    0  502  0.87243184831E+02 -0.17628579094E+02 -0.60430819251E+03  0.63458217091E+03  0.17200000000E+03 0. -1.
</event>
<event>
 4    1  0.1222208E+000  0.1800300E+03  0.7818608E-02  0.1167774E+00
         21   -1    0    0  503  502  0.00000000000E+00  0.00000000000E+00  0.14121313421E+04  0.14121313421E+04  0.00000000000E+00 0. -1.
         21   -1    0    0  501  503 -0.00000000000E+00 -0.00000000000E+00 -0.37591928968E+02  0.37591928968E+02  0.00000000000E+00 0. -1.
          6    1    1    2  501    0  0.37391337061E+02 -0.37798043954E+02  0.23491214335E+03  0.29596371282E+03  0.17200000000E+03 0.  1.
         -6    1    1    2    0  502 -0.37391337061E+02  0.37798043954E+02  0.11396272698E+04  0.11537595583E+04  0.17200000000E+03 0.  1.
</event>
<event>
 4    1  0.1222208E+000  0.1823817E+03  0.7818608E-02  0.1165518E+00
         21   -1    0    0  503  502  0.00000000000E+00  0.00000000000E+00  0.53462081857E+03  0.53462081857E+03  0.00000000000E+00 0. -1.
         21   -1    0    0  501  503 -0.00000000000E+00 -0.00000000000E+00 -0.87554388961E+02  0.87554388961E+02  0.00000000000E+00 0. -1.
          6    1    1    2  501    0  0.37150825054E+02  0.47946819890E+02  0.56187186154E+02  0.19084046014E+03  0.17200000000E+03 0. -1.
         -6    1    1    2    0  502 -0.37150825054E+02 -0.47946819890E+02  0.39087924346E+03  0.43133474739E+03  0.17200000000E+03 0. -1.
</event>
<event>
 4    1  0.1222208E+000  0.3107691E+03  0.7818608E-02  0.1079978E+00
         21   -1    0    0  503  502  0.00000000000E+00  0.00000000000E+00  0.67395685664E+03  0.67395685664E+03  0.00000000000E+00 0.  1.
         21   -1    0    0  501  503 -0.00000000000E+00 -0.00000000000E+00 -0.19189007725E+03  0.19189007725E+03  0.00000000000E+00 0. -1.
          6    1    1    2  501    0 -0.14394038251E+03 -0.21511533793E+03  0.23180924919E+02  0.31163247201E+03  0.17200000000E+03 0.  1.
         -6    1    1    2    0  502  0.14394038251E+03  0.21511533793E+03  0.45888585447E+03  0.55421446188E+03  0.17200000000E+03 0. -1.
</event>
<event>
 4    1  0.1222208E+000  0.1845794E+03  0.7818608E-02  0.1163443E+00
         21   -1    0    0  503  502  0.00000000000E+00  0.00000000000E+00  0.10365168556E+04  0.10365168556E+04  0.00000000000E+00 0. -1.
         21   -1    0    0  501  503 -0.00000000000E+00 -0.00000000000E+00 -0.35323292022E+02  0.35323292022E+02  0.00000000000E+00 0. -1.
          6    1    1    2  501    0  0.36875962799E+02 -0.55908162097E+02  0.35934039829E+03  0.40397410940E+03  0.17200000000E+03 0.  1.
         -6    1    1    2    0  502 -0.36875962799E+02  0.55908162097E+02  0.64185316530E+03  0.66786603824E+03  0.17200000000E+03 0.  1.
</event>
<event>
 4    1  0.1222208E+000  0.1803505E+03  0.7818608E-02  0.1167464E+00
         21   -1    0    0  503  502  0.00000000000E+00  0.00000000000E+00  0.65935085430E+02  0.65935085430E+02  0.00000000000E+00 0.  1.
         21   -1    0    0  501  503 -0.00000000000E+00 -0.00000000000E+00 -0.50760227259E+03  0.50760227259E+03  0.00000000000E+00 0.  1.
          6    1    1    2  501    0  0.37343533383E+02  0.39341405846E+02 -0.26895689814E+03  0.32382726685E+03  0.17200000000E+03 0.  1.
         -6    1    1    2    0  502 -0.37343533383E+02 -0.39341405846E+02 -0.17271028903E+03  0.24971009118E+03  0.17200000000E+03 0.  1.
</event>
<event>
 4    1  0.1222208E+000  0.1756320E+03  0.7818608E-02  0.1172099E+00
         21   -1    0    0  501  502  0.00000000000E+00  0.00000000000E+00  0.89863801105E+03  0.89863801105E+03  0.00000000000E+00 0. -1.
         21   -1    0    0  502  503 -0.00000000000E+00 -0.00000000000E+00 -0.36808852774E+02  0.36808852774E+02  0.00000000000E+00 0. -1.
          6    1    1    2  501    0 -0.22394480932E+02 -0.27587925408E+02  0.55239115861E+03  0.57964005944E+03  0.17200000000E+03 0. -1.
         -6    1    1    2    0  503  0.22394480932E+02  0.27587925408E+02  0.30943799967E+03  0.35580680438E+03  0.17200000000E+03 0. -1.
</event>
<event>
 4    1  0.1222208E+000  0.1975492E+03  0.7818608E-02  0.1151823E+00
         21   -1    0    0  501  502  0.00000000000E+00  0.00000000000E+00  0.14171370385E+03  0.14171370385E+03  0.00000000000E+00 0. -1.
         21   -1    0    0  502  503 -0.00000000000E+00 -0.00000000000E+00 -0.59318272547E+03  0.59318272547E+03  0.00000000000E+00 0. -1.
          6    1    1    2  501    0  0.83230772688E+02  0.50142932828E+02  0.43219499609E+02  0.20222166150E+03  0.17200000000E+03 0. -1.
         -6    1    1    2    0  503 -0.83230772688E+02 -0.50142932828E+02 -0.49468852123E+03  0.53267476782E+03  0.17200000000E+03 0. -1.
</event>
<event>
 4    1  0.1222208E+000  0.2434096E+03  0.7818608E-02  0.1117542E+00
         21   -1    0    0  503  502  0.00000000000E+00  0.00000000000E+00  0.14323651283E+03  0.14323651283E+03  0.00000000000E+00 0.  1.
         21   -1    0    0  501  503 -0.00000000000E+00 -0.00000000000E+00 -0.42703743824E+03  0.42703743824E+03  0.00000000000E+00 0. -1.
          6    1    1    2  501    0 -0.14773757281E+03 -0.88531662194E+02 -0.91394414738E+02  0.26000227821E+03  0.17200000000E+03 0.  1.
         -6    1    1    2    0  502  0.14773757281E+03  0.88531662194E+02 -0.19240651066E+03  0.31027167286E+03  0.17200000000E+03 0.  1.
</event>
<event>
 4    1  0.1222208E+000  0.1812756E+03  0.7818608E-02  0.1166574E+00
         21   -1    0    0  501  502  0.00000000000E+00  0.00000000000E+00  0.51456868203E+03  0.51456868203E+03  0.00000000000E+00 0. -1.
         21   -1    0    0  502  503 -0.00000000000E+00 -0.00000000000E+00 -0.16806265244E+03  0.16806265244E+03  0.00000000000E+00 0. -1.
          6    1    1    2  501    0  0.45366827271E+02  0.34910058014E+02  0.44200888469E+03  0.47773707760E+03  0.17200000000E+03 0. -1.
         -6    1    1    2    0  503 -0.45366827271E+02 -0.34910058014E+02 -0.95502855103E+02  0.20489425687E+03  0.17200000000E+03 0. -1.
</event>
<event>
 4    1  0.1222208E+000  0.1720770E+03  0.7818608E-02  0.1175699E+00
         21   -1    0    0  501  502  0.00000000000E+00  0.00000000000E+00  0.12994938185E+04  0.12994938185E+04  0.00000000000E+00 0. -1.
         21   -1    0    0  502  503 -0.00000000000E+00 -0.00000000000E+00 -0.24912386974E+02  0.24912386974E+02  0.00000000000E+00 0. -1.
          6    1    1    2  501    0  0.49521911117E+01  0.14014247505E+01  0.83074896031E+03  0.84838335866E+03  0.17200000000E+03 0. -1.
         -6    1    1    2    0  503 -0.49521911117E+01 -0.14014247505E+01  0.44383247124E+03  0.47602284684E+03  0.17200000000E+03 0. -1.
</event>
<event>
 4    1  0.1222208E+000  0.2328584E+03  0.7818608E-02  0.1124644E+00
         21   -1    0    0  501  502  0.00000000000E+00  0.00000000000E+00  0.46799288667E+03  0.46799288667E+03  0.00000000000E+00 0. -1.
         21   -1    0    0  502  503 -0.00000000000E+00 -0.00000000000E+00 -0.12427342205E+03  0.12427342205E+03  0.00000000000E+00 0. -1.
          6    1    1    2  501    0  0.13721657566E+03 -0.76227651257E+02  0.94821252834E+02  0.25142417036E+03  0.17200000000E+03 0. -1.
         -6    1    1    2    0  503 -0.13721657566E+03  0.76227651257E+02  0.24889821179E+03  0.34084213836E+03  0.17200000000E+03 0. -1.
</event>
<event>
 4    1  0.1222208E+000  0.1869850E+03  0.7818608E-02  0.1161209E+00
         21   -1    0    0  501  502  0.00000000000E+00  0.00000000000E+00  0.34193987096E+03  0.34193987096E+03  0.00000000000E+00 0.  1.
         21   -1    0    0  502  503 -0.00000000000E+00 -0.00000000000E+00 -0.23603808711E+03  0.23603808711E+03  0.00000000000E+00 0. -1.
          6    1    1    2  501    0 -0.43696899397E+02  0.58906311927E+02  0.27052081637E+03  0.32885389566E+03  0.17200000000E+03 0.  1.
         -6    1    1    2    0  503  0.43696899397E+02 -0.58906311927E+02 -0.16461903252E+03  0.24912406241E+03  0.17200000000E+03 0. -1.
</event>
<event>
 4    1  0.1222208E+000  0.2041824E+03  0.7818608E-02  0.1146258E+00
         21   -1    0    0  501  502  0.00000000000E+00  0.00000000000E+00  0.80207257729E+02  0.80207257729E+02  0.00000000000E+00 0. -1.
         21   -1    0    0  502  503 -0.00000000000E+00 -0.00000000000E+00 -0.67994218728E+03  0.67994218728E+03  0.00000000000E+00 0. -1.
          6    1    1    2  501    0  0.10001627839E+03  0.45860720429E+02 -0.11540527651E+03  0.23453963304E+03  0.17200000000E+03 0. -1.
         -6    1    1    2    0  503 -0.10001627839E+03 -0.45860720429E+02 -0.48432965304E+03  0.52560981196E+03  0.17200000000E+03 0. -1.
</event>
<event>
 4    1  0.1222208E+000  0.2403630E+03  0.7818608E-02  0.1119551E+00
         21   -1    0    0  501  502  0.00000000000E+00  0.00000000000E+00  0.75824581689E+02  0.75824581689E+02  0.00000000000E+00 0. -1.
         21   -1    0    0  502  503 -0.00000000000E+00 -0.00000000000E+00 -0.78338889375E+03  0.78338889375E+03  0.00000000000E+00 0.  1.
          6    1    1    2  501    0 -0.13510445497E+03  0.99685308216E+02 -0.28270898649E+03  0.37107781592E+03  0.17200000000E+03 0. -1.
         -6    1    1    2    0  503  0.13510445497E+03 -0.99685308216E+02 -0.42485532557E+03  0.48813565951E+03  0.17200000000E+03 0. -1.
</event>
<event>
 4    1  0.1222208E+000  0.2027772E+03  0.7818608E-02  0.1147417E+00
         21   -1    0    0  501  502  0.00000000000E+00  0.00000000000E+00  0.13139424732E+03  0.13139424732E+03  0.00000000000E+00 0.  1.
         21   -1    0    0  502  503 -0.00000000000E+00 -0.00000000000E+00 -0.54056832952E+03  0.54056832952E+03  0.00000000000E+00 0. -1.
          6    1    1    2  501    0  0.30220516366E+01  0.10735675864E+03  0.13435948035E+02  0.20322187658E+03  0.17200000000E+03 0.  1.
         -6    1    1    2    0  503 -0.30220516366E+01 -0.10735675864E+03 -0.42261003024E+03  0.46874070026E+03  0.17200000000E+03 0.  1.
</event>
<event>
 4    1  0.1222208E+000  0.2327920E+03  0.7818608E-02  0.1124690E+00
         21   -1    0    0  501  502  0.00000000000E+00  0.00000000000E+00  0.35523588133E+03  0.35523588133E+03  0.00000000000E+00 0.  1.
         21   -1    0    0  502  503 -0.00000000000E+00 -0.00000000000E+00 -0.24325216003E+03  0.24325216003E+03  0.00000000000E+00 0.  1.
          6    1    1    2  501    0  0.15443485238E+03 -0.27531707656E+02  0.23871770610E+03  0.33343404410E+03  0.17200000000E+03 0.  1.
         -6    1    1    2    0  503 -0.15443485238E+03  0.27531707656E+02 -0.12673398480E+03  0.26505399725E+03  0.17200000000E+03 0.  1.
</event>
<event>
 4    1  0.1222208E+000  0.1734229E+03  0.7818608E-02  0.1174325E+00
         21   -1    0    0  503  502  0.00000000000E+00  0.00000000000E+00  0.23150715190E+03  0.23150715190E+03  0.00000000000E+00 0.  1.
         21   -1    0    0  501  503 -0.00000000000E+00 -0.00000000000E+00 -0.16138024256E+03  0.16138024256E+03  0.00000000000E+00 0.  1.
          6    1    1    2  501    0  0.22154837169E+02  0.80824962320E+00  0.12180979469E+03  0.21192714823E+03  0.17200000000E+03 0.  1.
         -6    1    1    2    0  502 -0.22154837169E+02 -0.80824962320E+00 -0.51682885344E+02  0.18096024623E+03  0.17200000000E+03 0.  1.
</event>
<event>
 4    1  0.1222208E+000  0.2117381E+03  0.7818608E-02  0.1140197E+00
         21   -1    0    0  503  502  0.00000000000E+00  0.00000000000E+00  0.52315277902E+03  0.52315277902E+03  0.00000000000E+00 0.  1.
         21   -1    0    0  501  503 -0.00000000000E+00 -0.00000000000E+00 -0.19675580547E+03  0.19675580547E+03  0.00000000000E+00 0. -1.
          6    1    1    2  501    0 -0.11510064662E+03 -0.44731028585E+02 -0.10723382619E+03  0.23734387974E+03  0.17200000000E+03 0. -1.
         -6    1    1    2    0  502  0.11510064662E+03  0.44731028585E+02  0.43363079975E+03  0.48256470474E+03  0.17200000000E+03 0.  1.
</event>
<event>
 4    1  0.1222208E+000  0.1994492E+03  0.7818608E-02  0.1150205E+00
         21   -1    0    0  503  502  0.00000000000E+00  0.00000000000E+00  0.12173474910E+03  0.12173474910E+03  0.00000000000E+00 0.  1.
         21   -1    0    0  501  503 -0.00000000000E+00 -0.00000000000E+00 -0.34770267840E+03  0.34770267840E+03  0.00000000000E+00 0.  1.
          6    1    1    2  501    0 -0.82920837976E+02 -0.57620346603E+02 -0.17056718515E+03  0.26243691501E+03  0.17200000000E+03 0.  1.
         -6    1    1    2    0  502  0.82920837976E+02  0.57620346603E+02 -0.55400744154E+02  0.20700051248E+03  0.17200000000E+03 0.  1.
</event>
<event>
 4    1  0.1222208E+000  0.1894071E+03  0.7818608E-02  0.1158997E+00
         21   -1    0    0  501  502  0.00000000000E+00  0.00000000000E+00  0.22072100884E+04  0.22072100884E+04  0.00000000000E+00 0. -1.
         21   -1    0    0  502  503 -0.00000000000E+00 -0.00000000000E+00 -0.39274062679E+02  0.39274062679E+02  0.00000000000E+00 0. -1.
          6    1    1    2  501    0 -0.17535481841E+02 -0.77353447881E+02  0.19439269873E+04  0.19531326583E+04  0.17200000000E+03 0. -1.
         -6    1    1    2    0  503  0.17535481841E+02  0.77353447881E+02  0.22400903849E+03  0.29335149283E+03  0.17200000000E+03 0. -1.
</event>
<event>
 4    1  0.1222208E+000  0.2336649E+03  0.7818608E-02  0.1124087E+00
         21   -1    0    0  501  502  0.00000000000E+00  0.00000000000E+00  0.13008575515E+03  0.13008575515E+03  0.00000000000E+00 0.  1.
         21   -1    0    0  502  503 -0.00000000000E+00 -0.00000000000E+00 -0.66307263327E+03  0.66307263327E+03  0.00000000000E+00 0. -1.
          6    1    1    2  501    0  0.15629470005E+03  0.24233226138E+02 -0.26240045967E+02  0.23513362695E+03  0.17200000000E+03 0.  1.
         -6    1    1    2    0  503 -0.15629470005E+03 -0.24233226138E+02 -0.50674683215E+03  0.55802476146E+03  0.17200000000E+03 0. -1.
</event>
<event>
 4    1  0.1222208E+000  0.2002712E+03  0.7818608E-02  0.1149510E+00
         21   -1    0    0  503  502  0.00000000000E+00  0.00000000000E+00  0.13879633016E+04  0.13879633016E+04  0.00000000000E+00 0. -1.
         21   -1    0    0  501  503 -0.00000000000E+00 -0.00000000000E+00 -0.29368962696E+02  0.29368962696E+02  0.00000000000E+00 0. -1.
          6    1    1    2  501    0  0.94210141274E+02  0.40607706491E+02  0.76909485834E+03  0.79474237189E+03  0.17200000000E+03 0.  1.
         -6    1    1    2    0  502 -0.94210141274E+02 -0.40607706491E+02  0.58949948054E+03  0.62258989239E+03  0.17200000000E+03 0.  1.
</event>
<event>
 4    1  0.1222208E+000  0.1752945E+03  0.7818608E-02  0.1172436E+00
         21   -1    0    0  503  502  0.00000000000E+00  0.00000000000E+00  0.83854111529E+02  0.83854111529E+02  0.00000000000E+00 0. -1.
         21   -1    0    0  501  503 -0.00000000000E+00 -0.00000000000E+00 -0.46405705192E+03  0.46405705192E+03  0.00000000000E+00 0. -1.
          6    1    1    2  501    0  0.16793438481E+01  0.33783788514E+02 -0.31574487458E+03  0.36114123329E+03  0.17200000000E+03 0. -1.
         -6    1    1    2    0  502 -0.16793438481E+01 -0.33783788514E+02 -0.64458065813E+02  0.18676993016E+03  0.17200000000E+03 0. -1.
</event>
<event>
 4    1  0.1222208E+000  0.1891499E+03  0.7818608E-02  0.1159230E+00
         21   -1    0    0  501  502  0.00000000000E+00  0.00000000000E+00  0.62997145445E+03  0.62997145445E+03  0.00000000000E+00 0.  1.
         21   -1    0    0  502  503 -0.00000000000E+00 -0.00000000000E+00 -0.16131674998E+03  0.16131674998E+03  0.00000000000E+00 0.  1.
          6    1    1    2  501    0 -0.68968347015E+02  0.37908630429E+02  0.55280088934E+03  0.58426579603E+03  0.17200000000E+03 0.  1.
         -6    1    1    2    0  503  0.68968347015E+02 -0.37908630429E+02 -0.84146184877E+02  0.20702240840E+03  0.17200000000E+03 0.  1.
</event>
<event>
 4    1  0.1222208E+000  0.2631302E+03  0.7818608E-02  0.1105277E+00
         21   -1    0    0  503  502  0.00000000000E+00  0.00000000000E+00  0.99868738258E+02  0.99868738258E+02  0.00000000000E+00 0.  1.
         21   -1    0    0  501  503 -0.00000000000E+00 -0.00000000000E+00 -0.12686880283E+04  0.12686880283E+04  0.00000000000E+00 0. -1.
          6    1    1    2  501    0  0.60834177899E+02  0.18961199806E+03 -0.12357890841E+03  0.29070475333E+03  0.17200000000E+03 0.  1.
         -6    1    1    2    0  502 -0.60834177899E+02 -0.18961199806E+03 -0.10452403816E+04  0.10778520132E+04  0.17200000000E+03 0. -1.
</event>
<event>
 4    1  0.1222208E+000  0.1831926E+03  0.7818608E-02  0.1164749E+00
         21   -1    0    0  503  502  0.00000000000E+00  0.00000000000E+00  0.14966731302E+03  0.14966731302E+03  0.00000000000E+00 0.  1.
         21   -1    0    0  501  503 -0.00000000000E+00 -0.00000000000E+00 -0.43193851194E+03  0.43193851194E+03  0.00000000000E+00 0.  1.
          6    1    1    2  501    0  0.35522228872E+02  0.52093060310E+02 -0.34279460946E+03  0.38867423372E+03  0.17200000000E+03 0.  1.
         -6    1    1    2    0  502 -0.35522228872E+02 -0.52093060310E+02  0.60523410545E+02  0.19293159125E+03  0.17200000000E+03 0.  1.
</event>
<event>
 4    1  0.1222208E+000  0.1825610E+03  0.7818608E-02  0.1165347E+00
         21   -1    0    0  503  502  0.00000000000E+00  0.00000000000E+00  0.35059417656E+03  0.35059417656E+03  0.00000000000E+00 0. -1.
         21   -1    0    0  501  503 -0.00000000000E+00 -0.00000000000E+00 -0.17842096384E+03  0.17842096384E+03  0.00000000000E+00 0.  1.
          6    1    1    2  501    0 -0.56520389561E+02  0.23451526129E+02 -0.94709368202E+02  0.20566573108E+03  0.17200000000E+03 0.  1.
         -6    1    1    2    0  502  0.56520389561E+02 -0.23451526129E+02  0.26688258091E+03  0.32334940932E+03  0.17200000000E+03 0. -1.
</event>
<event>
 4    1  0.1222208E+000  0.2119113E+03  0.7818608E-02  0.1140061E+00
         21   -1    0    0  501  502  0.00000000000E+00  0.00000000000E+00  0.98907639155E+03  0.98907639155E+03  0.00000000000E+00 0. -1.
         21   -1    0    0  502  503 -0.00000000000E+00 -0.00000000000E+00 -0.52915291559E+02  0.52915291559E+02  0.00000000000E+00 0.  1.
          6    1    1    2  501    0  0.69347548328E+02  0.10253440623E+03  0.66439344551E+03  0.69737008637E+03  0.17200000000E+03 0.  1.
         -6    1    1    2    0  503 -0.69347548328E+02 -0.10253440623E+03  0.27176765448E+03  0.34462159675E+03  0.17200000000E+03 0.  1.
</event>
<event>
 4    1  0.1222208E+000  0.2241316E+03  0.7818608E-02  0.1130840E+00
         21   -1    0    0  503  502  0.00000000000E+00  0.00000000000E+00  0.14055570921E+03  0.14055570921E+03  0.00000000000E+00 0.  1.
         21   -1    0    0  501  503 -0.00000000000E+00 -0.00000000000E+00 -0.35877950242E+03  0.35877950242E+03  0.00000000000E+00 0.  1.
          6    1    1    2  501    0  0.10021373473E+03 -0.10299606085E+03 -0.93645324764E+02  0.24290827081E+03  0.17200000000E+03 0. -1.
         -6    1    1    2    0  502 -0.10021373473E+03  0.10299606085E+03 -0.12457846845E+03  0.25642694082E+03  0.17200000000E+03 0. -1.
</event>
<event>
 4    1  0.1222208E+000  0.2493265E+03  0.7818608E-02  0.1113731E+00
         21   -1    0    0  503  502  0.00000000000E+00  0.00000000000E+00  0.68888470730E+02  0.68888470730E+02  0.00000000000E+00 0.  1.
         21   -1    0    0  501  503 -0.00000000000E+00 -0.00000000000E+00 -0.90238401321E+03  0.90238401321E+03  0.00000000000E+00 0.  1.
          6    1    1    2  501    0 -0.94487493456E+02  0.15379153092E+03 -0.41603668318E+03  0.48502602317E+03  0.17200000000E+03 0. -1.
         -6    1    1    2    0  502  0.94487493456E+02 -0.15379153092E+03 -0.41745885930E+03  0.48624646077E+03  0.17200000000E+03 0. -1.
</event>
<event>
 4    1  0.1222208E+000  0.3246190E+03  0.7818608E-02  0.1073543E+00
         21   -1    0    0  501  502  0.00000000000E+00  0.00000000000E+00  0.33635092539E+03  0.33635092539E+03  0.00000000000E+00 0.  1.
         21   -1    0    0  502  503 -0.00000000000E+00 -0.00000000000E+00 -0.33628179424E+03  0.33628179424E+03  0.00000000000E+00 0. -1.
          6    1    1    2  501    0 -0.27529162252E+03  0.28335540002E+01 -0.87892599190E+02  0.33630732292E+03  0.17200000000E+03 0.  1.
         -6    1    1    2    0  503  0.27529162252E+03 -0.28335540002E+01  0.87961730340E+02  0.33632539670E+03  0.17200000000E+03 0.  1.
</event>
<event>
 4    1  0.1222208E+000  0.2038921E+03  0.7818608E-02  0.1146496E+00
         21   -1    0    0  503  502  0.00000000000E+00  0.00000000000E+00  0.30526152414E+03  0.30526152414E+03  0.00000000000E+00 0. -1.
         21   -1    0    0  501  503 -0.00000000000E+00 -0.00000000000E+00 -0.45526627917E+03  0.45526627917E+03  0.00000000000E+00 0.  1.
          6    1    1    2  501    0 -0.54731744495E+02  0.94828356075E+02 -0.39335113064E+03  0.44305427765E+03  0.17200000000E+03 0.  1.
         -6    1    1    2    0  502  0.54731744495E+02 -0.94828356075E+02  0.24334637561E+03  0.31747352566E+03  0.17200000000E+03 0. -1.
</event>
<event>
 4    1  0.1222208E+000  0.2040308E+03  0.7818608E-02  0.1146382E+00
         21   -1    0    0  503  502  0.00000000000E+00  0.00000000000E+00  0.74481290993E+03  0.74481290993E+03  0.00000000000E+00 0. -1.
         21   -1    0    0  501  503 -0.00000000000E+00 -0.00000000000E+00 -0.58089974757E+02  0.58089974757E+02  0.00000000000E+00 0.  1.
          6    1    1    2  501    0 -0.61182262867E+02  0.91111490304E+02  0.42146333965E+03  0.46825198304E+03  0.17200000000E+03 0.  1.
         -6    1    1    2    0  502  0.61182262867E+02 -0.91111490304E+02  0.26525959553E+03  0.33465090165E+03  0.17200000000E+03 0.  1.
</event>
<event>
 4    1  0.1222208E+000  0.2291617E+03  0.7818608E-02  0.1127231E+00
         21   -1    0    0  501  502  0.00000000000E+00  0.00000000000E+00  0.47722694756E+03  0.47722694756E+03  0.00000000000E+00 0. -1.
         21   -1    0    0  502  503 -0.00000000000E+00 -0.00000000000E+00 -0.11258305031E+03  0.11258305031E+03  0.00000000000E+00 0. -1.
          6    1    1    2  501    0  0.10541477506E+03  0.10871435090E+03  0.22662549061E+03  0.32229520301E+03  0.17200000000E+03 0. -1.
         -6    1    1    2    0  503 -0.10541477506E+03 -0.10871435090E+03  0.13801840665E+03  0.26751479486E+03  0.17200000000E+03 0. -1.
</event>
<event>
 4    1  0.1222208E+000  0.2071025E+03  0.7818608E-02  0.1143881E+00
         21   -1    0    0  501  502  0.00000000000E+00  0.00000000000E+00  0.39456395851E+03  0.39456395851E+03  0.00000000000E+00 0.  1.
         21   -1    0    0  502  503 -0.00000000000E+00 -0.00000000000E+00 -0.32612104023E+03  0.32612104023E+03  0.00000000000E+00 0.  1.
          6    1    1    2  501    0  0.44614525882E+02 -0.10638129347E+03  0.32844062211E+03  0.38828427443E+03  0.17200000000E+03 0.  1.
         -6    1    1    2    0  503 -0.44614525882E+02  0.10638129347E+03 -0.25999770383E+03  0.33240072430E+03  0.17200000000E+03 0.  1.
</event>
<event>
 4    1  0.1222208E+000  0.1729058E+03  0.7818608E-02  0.1174851E+00
         21   -1    0    0  503  502  0.00000000000E+00  0.00000000000E+00  0.14488899821E+03  0.14488899821E+03  0.00000000000E+00 0. -1.
         21   -1    0    0  501  503 -0.00000000000E+00 -0.00000000000E+00 -0.29899818182E+03  0.29899818182E+03  0.00000000000E+00 0. -1.
          6    1    1    2  501    0  0.54926657813E+01 -0.16799814384E+02  0.46497499998E+02  0.17904865441E+03  0.17200000000E+03 0. -1.
         -6    1    1    2    0  502 -0.54926657813E+01  0.16799814384E+02 -0.20060668361E+03  0.26483852562E+03  0.17200000000E+03 0. -1.
</event>
<event>
 4    1  0.1222208E+000  0.2639149E+03  0.7818608E-02  0.1104814E+00
         21   -1    0    0  503  502  0.00000000000E+00  0.00000000000E+00  0.92863051997E+02  0.92863051997E+02  0.00000000000E+00 0. -1.
         21   -1    0    0  501  503 -0.00000000000E+00 -0.00000000000E+00 -0.86086855619E+03  0.86086855619E+03  0.00000000000E+00 0. -1.
          6    1    1    2  501    0 -0.18413668298E+03  0.78490508587E+02 -0.55510354615E+03  0.61464707346E+03  0.17200000000E+03 0. -1.
         -6    1    1    2    0  502  0.18413668298E+03 -0.78490508587E+02 -0.21290195804E+03  0.33908453473E+03  0.17200000000E+03 0. -1.
</event>
<event>
 4    1  0.1222208E+000  0.2168895E+03  0.7818608E-02  0.1136223E+00
         21   -1    0    0  501  502  0.00000000000E+00  0.00000000000E+00  0.36363280482E+02  0.36363280482E+02  0.00000000000E+00 0. -1.
         21   -1    0    0  502  503 -0.00000000000E+00 -0.00000000000E+00 -0.27275617091E+04  0.27275617091E+04  0.00000000000E+00 0.  1.
          6    1    1    2  501    0 -0.12868307734E+03  0.29962134314E+02 -0.34359074136E+03  0.40631965426E+03  0.17200000000E+03 0.  1.
         -6    1    1    2    0  503  0.12868307734E+03 -0.29962134314E+02 -0.23476076873E+04  0.23576053353E+04  0.17200000000E+03 0.  1.
</event>
<event>
 4    1  0.1222208E+000  0.3230915E+03  0.7818608E-02  0.1074235E+00
         21   -1    0    0  503  502  0.00000000000E+00  0.00000000000E+00  0.10014351648E+03  0.10014351648E+03  0.00000000000E+00 0.  1.
         21   -1    0    0  501  503 -0.00000000000E+00 -0.00000000000E+00 -0.10435850428E+04  0.10435850428E+04  0.00000000000E+00 0. -1.
          6    1    1    2  501    0 -0.24428961831E+03  0.12299059202E+03 -0.49111266161E+03  0.58786031482E+03  0.17200000000E+03 0. -1.
         -6    1    1    2    0  502  0.24428961831E+03 -0.12299059202E+03 -0.45232886466E+03  0.55586824441E+03  0.17200000000E+03 0.  1.
</event>
<event>
 4    1  0.1222208E+000  0.1773233E+03  0.7818608E-02  0.1170419E+00
         21   -1    0    0  503  502  0.00000000000E+00  0.00000000000E+00  0.49533591397E+02  0.49533591397E+02  0.00000000000E+00 0.  1.
         21   -1    0    0  501  503 -0.00000000000E+00 -0.00000000000E+00 -0.68301649731E+03  0.68301649731E+03  0.00000000000E+00 0.  1.
          6    1    1    2  501    0  0.43047044182E+02  0.25472905175E+01 -0.41406652986E+03  0.45043826198E+03  0.17200000000E+03 0. -1.
         -6    1    1    2    0  502 -0.43047044182E+02 -0.25472905175E+01 -0.21941637605E+03  0.28211182673E+03  0.17200000000E+03 0. -1.
</event>
<event>
 4    1  0.1222208E+000  0.1739303E+03  0.7818608E-02  0.1173810E+00
         21   -1    0    0  501  502  0.00000000000E+00  0.00000000000E+00  0.74513850418E+03  0.74513850418E+03  0.00000000000E+00 0. -1.
         21   -1    0    0  502  503 -0.00000000000E+00 -0.00000000000E+00 -0.23322920599E+03  0.23322920599E+03  0.00000000000E+00 0. -1.
          6    1    1    2  501    0 -0.23263399101E+02  0.11249323972E+02  0.70052762760E+03  0.72179684819E+03  0.17200000000E+03 0. -1.
         -6    1    1    2    0  503  0.23263399101E+02 -0.11249323972E+02 -0.18861832941E+03  0.25657086198E+03  0.17200000000E+03 0. -1.
</event>
<event>
 4    1  0.1222208E+000  0.1751886E+03  0.7818608E-02  0.1172542E+00
         21   -1    0    0  501  502  0.00000000000E+00  0.00000000000E+00  0.27142143223E+03  0.27142143223E+03  0.00000000000E+00 0. -1.
         21   -1    0    0  502  503 -0.00000000000E+00 -0.00000000000E+00 -0.16484963443E+03  0.16484963443E+03  0.00000000000E+00 0. -1.
          6    1    1    2  501    0 -0.30111749668E+02  0.14153532188E+02  0.17553340052E+03  0.24799801338E+03  0.17200000000E+03 0. -1.
         -6    1    1    2    0  503  0.30111749668E+02 -0.14153532188E+02 -0.68961602722E+02  0.18827305328E+03  0.17200000000E+03 0. -1.
</event>
<event>
 4    1  0.1222208E+000  0.2188444E+03  0.7818608E-02  0.1134748E+00
         21   -1    0    0  501  502  0.00000000000E+00  0.00000000000E+00  0.10998008447E+04  0.10998008447E+04  0.00000000000E+00 0. -1.
         21   -1    0    0  502  503 -0.00000000000E+00 -0.00000000000E+00 -0.44098886857E+02  0.44098886857E+02  0.00000000000E+00 0. -1.
          6    1    1    2  501    0  0.63890039369E+02  0.11927677286E+03  0.59184212169E+03  0.63100711778E+03  0.17200000000E+03 0.  1.
         -6    1    1    2    0  503 -0.63890039369E+02 -0.11927677286E+03  0.46385983611E+03  0.51289261374E+03  0.17200000000E+03 0.  1.
</event>
<event>
 4    1  0.1222208E+000  0.1981164E+03  0.7818608E-02  0.1151338E+00
         21   -1    0    0  501  502  0.00000000000E+00  0.00000000000E+00  0.42727361809E+03  0.42727361809E+03  0.00000000000E+00 0.  1.
         21   -1    0    0  502  503 -0.00000000000E+00 -0.00000000000E+00 -0.10746334745E+03  0.10746334745E+03  0.00000000000E+00 0. -1.
          6    1    1    2  501    0 -0.45600941476E+02 -0.87101433526E+02  0.26177939268E+03  0.32829644533E+03  0.17200000000E+03 0.  1.
         -6    1    1    2    0  503  0.45600941476E+02  0.87101433526E+02  0.58030877955E+02  0.20644052020E+03  0.17200000000E+03 0.  1.
</event>
<event>
 4    1  0.1222208E+000  0.1759489E+03  0.7818608E-02  0.1171782E+00
         21   -1    0    0  503  502  0.00000000000E+00  0.00000000000E+00  0.22418054469E+03  0.22418054469E+03  0.00000000000E+00 0. -1.
         21   -1    0    0  501  503 -0.00000000000E+00 -0.00000000000E+00 -0.13910956436E+03  0.13910956436E+03  0.00000000000E+00 0. -1.
          6    1    1    2  501    0  0.33550092369E+02 -0.15761181971E+02  0.58054536352E+02  0.18527912118E+03  0.17200000000E+03 0. -1.
         -6    1    1    2    0  502 -0.33550092369E+02  0.15761181971E+02  0.27016443979E+02  0.17801098786E+03  0.17200000000E+03 0. -1.
</event>
<event>
 4    1  0.1222208E+000  0.2099077E+03  0.7818608E-02  0.1141639E+00
         21   -1    0    0  501  502  0.00000000000E+00  0.00000000000E+00  0.54099955761E+03  0.54099955761E+03  0.00000000000E+00 0.  1.
         21   -1    0    0  502  503 -0.00000000000E+00 -0.00000000000E+00 -0.85400008391E+02  0.85400008391E+02  0.00000000000E+00 0.  1.
          6    1    1    2  501    0  0.87470888537E+02 -0.82620109011E+02  0.29520815862E+03  0.36222796091E+03  0.17200000000E+03 0.  1.
         -6    1    1    2    0  503 -0.87470888537E+02  0.82620109011E+02  0.16039139060E+03  0.26417160509E+03  0.17200000000E+03 0.  1.
</event>
<event>
 4    1  0.1222208E+000  0.1939949E+03  0.7818608E-02  0.1154907E+00
         21   -1    0    0  503  502  0.00000000000E+00  0.00000000000E+00  0.25265491843E+03  0.25265491843E+03  0.00000000000E+00 0. -1.
         21   -1    0    0  501  503 -0.00000000000E+00 -0.00000000000E+00 -0.16321656647E+03  0.16321656647E+03  0.00000000000E+00 0. -1.
          6    1    1    2  501    0  0.82710089803E+02  0.34771462514E+02 -0.16747918574E+02  0.19471647680E+03  0.17200000000E+03 0. -1.
         -6    1    1    2    0  502 -0.82710089803E+02 -0.34771462514E+02  0.10618627053E+03  0.22115500810E+03  0.17200000000E+03 0. -1.
</event>
<event>
 4    1  0.1222208E+000  0.2290092E+03  0.7818608E-02  0.1127339E+00
         21   -1    0    0  503  502  0.00000000000E+00  0.00000000000E+00  0.13659368892E+03  0.13659368892E+03  0.00000000000E+00 0.  1.
         21   -1    0    0  501  503 -0.00000000000E+00 -0.00000000000E+00 -0.48230377315E+03  0.48230377315E+03  0.00000000000E+00 0. -1.
          6    1    1    2  501    0  0.14789070319E+03 -0.31456949324E+02 -0.31259578064E+03  0.38750654424E+03  0.17200000000E+03 0.  1.
         -6    1    1    2    0  502 -0.14789070319E+03  0.31456949324E+02 -0.33114303585E+02  0.23139091783E+03  0.17200000000E+03 0.  1.
</event>
<event>
 4    1  0.1222208E+000  0.2027591E+03  0.7818608E-02  0.1147432E+00
         21   -1    0    0  503  502  0.00000000000E+00  0.00000000000E+00  0.86327246438E+03  0.86327246438E+03  0.00000000000E+00 0.  1.
         21   -1    0    0  501  503 -0.00000000000E+00 -0.00000000000E+00 -0.89440859268E+02  0.89440859268E+02  0.00000000000E+00 0. -1.
          6    1    1    2  501    0 -0.20998912405E+02  0.10529139943E+03  0.61193486087E+02  0.21179205806E+03  0.17200000000E+03 0. -1.
         -6    1    1    2    0  502  0.20998912405E+02 -0.10529139943E+03  0.71263811903E+03  0.74092126559E+03  0.17200000000E+03 0.  1.
</event>
<event>
 4    1  0.1222208E+000  0.2047749E+03  0.7818608E-02  0.1145772E+00
         21   -1    0    0  501  502  0.00000000000E+00  0.00000000000E+00  0.61949660660E+03  0.61949660660E+03  0.00000000000E+00 0. -1.
         21   -1    0    0  502  503 -0.00000000000E+00 -0.00000000000E+00 -0.81740768359E+02  0.81740768359E+02  0.00000000000E+00 0. -1.
          6    1    1    2  501    0  0.96126247486E+02 -0.55753851246E+02  0.41425305489E+03  0.46210208923E+03  0.17200000000E+03 0. -1.
         -6    1    1    2    0  503 -0.96126247486E+02  0.55753851246E+02  0.12350278335E+03  0.23913528572E+03  0.17200000000E+03 0. -1.
</event>
<event>
 4    1  0.1222208E+000  0.2196192E+03  0.7818608E-02  0.1134167E+00
         21   -1    0    0  501  502  0.00000000000E+00  0.00000000000E+00  0.50402680298E+02  0.50402680298E+02  0.00000000000E+00 0. -1.
         21   -1    0    0  502  503 -0.00000000000E+00 -0.00000000000E+00 -0.10327504987E+04  0.10327504987E+04  0.00000000000E+00 0.  1.
          6    1    1    2  501    0  0.93331246471E+01  0.13624060973E+03 -0.63790140478E+03  0.67464865906E+03  0.17200000000E+03 0.  1.
         -6    1    1    2    0  503 -0.93331246471E+01 -0.13624060973E+03 -0.34444641367E+03  0.40850451998E+03  0.17200000000E+03 0. -1.
</event>
<event>
 4    1  0.1222208E+000  0.2359936E+03  0.7818608E-02  0.1122491E+00
         21   -1    0    0  501  502  0.00000000000E+00  0.00000000000E+00  0.11858969827E+03  0.11858969827E+03  0.00000000000E+00 0. -1.
         21   -1    0    0  502  503 -0.00000000000E+00 -0.00000000000E+00 -0.48410254998E+03  0.48410254998E+03  0.00000000000E+00 0.  1.
          6    1    1    2  501    0 -0.83886534024E+02  0.13810155699E+03 -0.23486462467E+03  0.33294801780E+03  0.17200000000E+03 0. -1.
         -6    1    1    2    0  503  0.83886534024E+02 -0.13810155699E+03 -0.13064822704E+03  0.26974423045E+03  0.17200000000E+03 0. -1.
</event>
<event>
 4    1  0.1222208E+000  0.4243463E+03  0.7818608E-02  0.1035661E+00
         21   -1    0    0  503  502  0.00000000000E+00  0.00000000000E+00  0.32869545317E+03  0.32869545317E+03  0.00000000000E+00 0. -1.
         21   -1    0    0  501  503 -0.00000000000E+00 -0.00000000000E+00 -0.14473043490E+04  0.14473043490E+04  0.00000000000E+00 0.  1.
          6    1    1    2  501    0  0.22981497713E+03  0.31252339641E+03 -0.12593510611E+04  0.13289224552E+04  0.17200000000E+03 0.  1.
         -6    1    1    2    0  502 -0.22981497713E+03 -0.31252339641E+03  0.14074216528E+03  0.44707734689E+03  0.17200000000E+03 0. -1.
</event>
<event>
 4    1  0.1222208E+000  0.1808856E+03  0.7818608E-02  0.1166949E+00
         21   -1    0    0  501  502  0.00000000000E+00  0.00000000000E+00  0.63235207443E+03  0.63235207443E+03  0.00000000000E+00 0. -1.
         21   -1    0    0  502  503 -0.00000000000E+00 -0.00000000000E+00 -0.53510234962E+02  0.53510234962E+02  0.00000000000E+00 0. -1.
          6    1    1    2  501    0 -0.36248574060E+02  0.42680822131E+02  0.35174716460E+03  0.39553214725E+03  0.17200000000E+03 0. -1.
         -6    1    1    2    0  503  0.36248574060E+02 -0.42680822131E+02  0.22709467487E+03  0.29033016215E+03  0.17200000000E+03 0. -1.
</event>
<event>
 4    1  0.1222208E+000  0.1736731E+03  0.7818608E-02  0.1174071E+00
         21   -1    0    0  501  502  0.00000000000E+00  0.00000000000E+00  0.52631973801E+02  0.52631973801E+02  0.00000000000E+00 0.  1.
         21   -1    0    0  502  503 -0.00000000000E+00 -0.00000000000E+00 -0.17998759686E+04  0.17998759686E+04  0.00000000000E+00 0.  1.
          6    1    1    2  501    0  0.22108252609E+02 -0.94633718748E+01 -0.10891516896E+03  0.20499962017E+03  0.17200000000E+03 0.  1.
         -6    1    1    2    0  503 -0.22108252609E+02  0.94633718748E+01 -0.16383288259E+04  0.16475083223E+04  0.17200000000E+03 0.  1.
</event>
<event>
 4    1  0.1222208E+000  0.1788096E+03  0.7818608E-02  0.1168960E+00
         21   -1    0    0  501  502  0.00000000000E+00  0.00000000000E+00  0.26287536999E+03  0.26287536999E+03  0.00000000000E+00 0.  1.
         21   -1    0    0  502  503 -0.00000000000E+00 -0.00000000000E+00 -0.13034795028E+03  0.13034795028E+03  0.00000000000E+00 0.  1.
          6    1    1    2  501    0  0.38618816967E+02 -0.29957446046E+02  0.11711802420E+03  0.21375100746E+03  0.17200000000E+03 0.  1.
         -6    1    1    2    0  503 -0.38618816967E+02  0.29957446046E+02  0.15409395511E+02  0.17947231282E+03  0.17200000000E+03 0.  1.
</event>
<event>
 4    1  0.1222208E+000  0.1915455E+03  0.7818608E-02  0.1157075E+00
         21   -1    0    0  501  502  0.00000000000E+00  0.00000000000E+00  0.13680109801E+03  0.13680109801E+03  0.00000000000E+00 0. -1.
         21   -1    0    0  502  503 -0.00000000000E+00 -0.00000000000E+00 -0.26819956399E+03  0.26819956399E+03  0.00000000000E+00 0. -1.
          6    1    1    2  501    0  0.71710294321E+02 -0.44309453469E+02 -0.66279108510E+02  0.20268846589E+03  0.17200000000E+03 0.  1.
         -6    1    1    2    0  503 -0.71710294321E+02  0.44309453469E+02 -0.65119357466E+02  0.20231219611E+03  0.17200000000E+03 0.  1.
</event>
<event>
 4    1  0.1222208E+000  0.1724187E+03  0.7818608E-02  0.1175349E+00
         21   -1    0    0  501  502  0.00000000000E+00  0.00000000000E+00  0.31697150978E+02  0.31697150978E+02  0.00000000000E+00 0. -1.
         21   -1    0    0  502  503 -0.00000000000E+00 -0.00000000000E+00 -0.94865061495E+03  0.94865061495E+03  0.00000000000E+00 0. -1.
          6    1    1    2  501    0 -0.45559737913E+01 -0.11110207510E+02 -0.51070107276E+03  0.53902113068E+03  0.17200000000E+03 0.  1.
         -6    1    1    2    0  503  0.45559737913E+01  0.11110207510E+02 -0.40625239121E+03  0.44132663524E+03  0.17200000000E+03 0.  1.
</event>
<event>
 4    1  0.1222208E+000  0.1800116E+03  0.7818608E-02  0.1167792E+00
         21   -1    0    0  503  502  0.00000000000E+00  0.00000000000E+00  0.93608552289E+02  0.93608552289E+02  0.00000000000E+00 0. -1.
         21   -1    0    0  501  503 -0.00000000000E+00 -0.00000000000E+00 -0.35992846227E+03  0.35992846227E+03  0.00000000000E+00 0. -1.
          6    1    1    2  501    0  0.30974019771E+02 -0.43136774744E+02 -0.17750145601E+03  0.25280612754E+03  0.17200000000E+03 0. -1.
         -6    1    1    2    0  502 -0.30974019771E+02  0.43136774744E+02 -0.88818453964E+02  0.20073088701E+03  0.17200000000E+03 0. -1.
</event>
<event>
 4    1  0.1222208E+000  0.1822336E+03  0.7818608E-02  0.1165659E+00
         21   -1    0    0  503  502  0.00000000000E+00  0.00000000000E+00  0.17521637886E+03  0.17521637886E+03  0.00000000000E+00 0. -1.
         21   -1    0    0  501  503 -0.00000000000E+00 -0.00000000000E+00 -0.21324855324E+03  0.21324855324E+03  0.00000000000E+00 0. -1.
          6    1    1    2  501    0 -0.59369860876E+02  0.10015025199E+02 -0.83790891696E+02  0.20057416245E+03  0.17200000000E+03 0.  1.
         -6    1    1    2    0  502  0.59369860876E+02 -0.10015025199E+02  0.45758717313E+02  0.18789076965E+03  0.17200000000E+03 0.  1.
</event>
<event>
 4    1  0.1222208E+000  0.2341541E+03  0.7818608E-02  0.1123750E+00
         21   -1    0    0  501  502  0.00000000000E+00  0.00000000000E+00  0.62522922261E+03  0.62522922261E+03  0.00000000000E+00 0.  1.
         21   -1    0    0  502  503 -0.00000000000E+00 -0.00000000000E+00 -0.93748657065E+02  0.93748657065E+02  0.00000000000E+00 0. -1.
          6    1    1    2  501    0  0.12606144961E+03 -0.96709023244E+02  0.17437325655E+03  0.29194889425E+03  0.17200000000E+03 0. -1.
         -6    1    1    2    0  503 -0.12606144961E+03  0.96709023244E+02  0.35710730899E+03  0.42702898542E+03  0.17200000000E+03 0. -1.
</event>
<event>
 4    1  0.1222208E+000  0.3203264E+03  0.7818608E-02  0.1075499E+00
         21   -1    0    0  501  502  0.00000000000E+00  0.00000000000E+00  0.81587713739E+03  0.81587713739E+03  0.00000000000E+00 0.  1.
         21   -1    0    0  502  503 -0.00000000000E+00 -0.00000000000E+00 -0.12894498498E+03  0.12894498498E+03  0.00000000000E+00 0.  1.
          6    1    1    2  501    0 -0.26900546459E+03 -0.25711481949E+02  0.41765019418E+03  0.52634656358E+03  0.17200000000E+03 0.  1.
         -6    1    1    2    0  503  0.26900546459E+03  0.25711481949E+02  0.26928195823E+03  0.41847555880E+03  0.17200000000E+03 0.  1.
</event>
<event>
 4    1  0.1222208E+000  0.1985648E+03  0.7818608E-02  0.1150956E+00
         21   -1    0    0  501  502  0.00000000000E+00  0.00000000000E+00  0.30968609311E+03  0.30968609311E+03  0.00000000000E+00 0. -1.
         21   -1    0    0  502  503 -0.00000000000E+00 -0.00000000000E+00 -0.12737571230E+03  0.12737571230E+03  0.00000000000E+00 0. -1.
          6    1    1    2  501    0  0.53190093584E+02 -0.83754339901E+02  0.95889164686E+02  0.22050557229E+03  0.17200000000E+03 0.  1.
         -6    1    1    2    0  503 -0.53190093584E+02  0.83754339901E+02  0.86421216126E+02  0.21655623312E+03  0.17200000000E+03 0.  1.
</event>
<event>
 4    1  0.1222208E+000  0.1785074E+03  0.7818608E-02  0.1169255E+00
         21   -1    0    0  501  502  0.00000000000E+00  0.00000000000E+00  0.11085664027E+03  0.11085664027E+03  0.00000000000E+00 0. -1.
         21   -1    0    0  502  503 -0.00000000000E+00 -0.00000000000E+00 -0.28744554832E+03  0.28744554832E+03  0.00000000000E+00 0. -1.
          6    1    1    2  501    0 -0.47599164203E+02 -0.39007528355E+01 -0.87633074201E+02  0.19885786884E+03  0.17200000000E+03 0. -1.
         -6    1    1    2    0  503  0.47599164203E+02  0.39007528355E+01 -0.88955833852E+02  0.19944431975E+03  0.17200000000E+03 0. -1.
</event>
<event>
 4    1  0.1222208E+000  0.1815598E+03  0.7818608E-02  0.1166302E+00
         21   -1    0    0  501  502  0.00000000000E+00  0.00000000000E+00  0.34792574069E+02  0.34792574069E+02  0.00000000000E+00 0.  1.
         21   -1    0    0  502  503 -0.00000000000E+00 -0.00000000000E+00 -0.23122438857E+04  0.23122438857E+04  0.00000000000E+00 0.  1.
          6    1    1    2  501    0  0.51811018527E+02 -0.26373856341E+02 -0.23713842016E+03  0.29866133371E+03  0.17200000000E+03 0.  1.
         -6    1    1    2    0  503 -0.51811018527E+02  0.26373856341E+02 -0.20403128915E+04  0.20483751261E+04  0.17200000000E+03 0.  1.
</event>
<event>
 4    1  0.1222208E+000  0.1746951E+03  0.7818608E-02  0.1173038E+00
         21   -1    0    0  501  502  0.00000000000E+00  0.00000000000E+00  0.22034511932E+03  0.22034511932E+03  0.00000000000E+00 0.  1.
         21   -1    0    0  502  503 -0.00000000000E+00 -0.00000000000E+00 -0.14398461841E+03  0.14398461841E+03  0.00000000000E+00 0.  1.
          6    1    1    2  501    0  0.23004298083E+02 -0.20128942930E+02  0.26353916639E+01  0.17471496033E+03  0.17200000000E+03 0. -1.
         -6    1    1    2    0  503 -0.23004298083E+02  0.20128942930E+02  0.73725109251E+02  0.18961477740E+03  0.17200000000E+03 0. -1.
</event>
<event>
 4    1  0.1222208E+000  0.1819651E+03  0.7818608E-02  0.1165915E+00
         21   -1    0    0  503  502  0.00000000000E+00  0.00000000000E+00  0.58366610562E+03  0.58366610562E+03  0.00000000000E+00 0.  1.
         21   -1    0    0  501  503 -0.00000000000E+00 -0.00000000000E+00 -0.77383193263E+02  0.77383193263E+02  0.00000000000E+00 0.  1.
          6    1    1    2  501    0  0.53820116271E+02  0.25113325355E+02  0.82385512283E+02  0.19974648097E+03  0.17200000000E+03 0. -1.
         -6    1    1    2    0  502 -0.53820116271E+02 -0.25113325355E+02  0.42389740007E+03  0.46130281791E+03  0.17200000000E+03 0. -1.
</event>
<event>
 4    1  0.1222208E+000  0.1743597E+03  0.7818608E-02  0.1173376E+00
         21   -1    0    0  501  502  0.00000000000E+00  0.00000000000E+00  0.16033807207E+03  0.16033807207E+03  0.00000000000E+00 0. -1.
         21   -1    0    0  502  503 -0.00000000000E+00 -0.00000000000E+00 -0.41448405423E+03  0.41448405423E+03  0.00000000000E+00 0. -1.
          6    1    1    2  501    0 -0.33281087473E+01  0.28394243586E+02  0.84627373562E+02  0.19381202680E+03  0.17200000000E+03 0. -1.
         -6    1    1    2    0  503  0.33281087473E+01 -0.28394243586E+02 -0.33877335572E+03  0.38101009950E+03  0.17200000000E+03 0. -1.
</event>
<event>
 4    1  0.1222208E+000  0.2378373E+03  0.7818608E-02  0.1121242E+00
         21   -1    0    0  503  502  0.00000000000E+00  0.00000000000E+00  0.61615010541E+03  0.61615010541E+03  0.00000000000E+00 0.  1.
         21   -1    0    0  501  503 -0.00000000000E+00 -0.00000000000E+00 -0.11688062362E+03  0.11688062362E+03  0.00000000000E+00 0. -1.
          6    1    1    2  501    0  0.16425831373E+03  0.13397865650E+01  0.79875372693E+02  0.25089173725E+03  0.17200000000E+03 0. -1.
         -6    1    1    2    0  502 -0.16425831373E+03 -0.13397865650E+01  0.41939410909E+03  0.48213899179E+03  0.17200000000E+03 0. -1.
</event>
<event>
 4    1  0.1222208E+000  0.2046369E+03  0.7818608E-02  0.1145885E+00
         21   -1    0    0  503  502  0.00000000000E+00  0.00000000000E+00  0.34383423958E+03  0.34383423958E+03  0.00000000000E+00 0.  1.
         21   -1    0    0  501  503 -0.00000000000E+00 -0.00000000000E+00 -0.12737632499E+03  0.12737632499E+03  0.00000000000E+00 0.  1.
          6    1    1    2  501    0  0.20813541758E+02 -0.10889937682E+03  0.58897497958E+02  0.21294410783E+03  0.17200000000E+03 0.  1.
         -6    1    1    2    0  502 -0.20813541758E+02  0.10889937682E+03  0.15756041663E+03  0.25826645675E+03  0.17200000000E+03 0.  1.
</event>
<event>
 4    1  0.1222208E+000  0.1843680E+03  0.7818608E-02  0.1163641E+00
         21   -1    0    0  501  502  0.00000000000E+00  0.00000000000E+00  0.18301093423E+04  0.18301093423E+04  0.00000000000E+00 0.  1.
         21   -1    0    0  502  503 -0.00000000000E+00 -0.00000000000E+00 -0.20723662780E+02  0.20723662780E+02  0.00000000000E+00 0. -1.
          6    1    1    2  501    0  0.53418167227E+02  0.39421619551E+02  0.12027764253E+04  0.12168248411E+04  0.17200000000E+03 0. -1.
         -6    1    1    2    0  503 -0.53418167227E+02 -0.39421619551E+02  0.60660925421E+03  0.63400816396E+03  0.17200000000E+03 0. -1.
</event>
<event>
 4    1  0.1222208E+000  0.1777852E+03  0.7818608E-02  0.1169964E+00
         21   -1    0    0  503  502  0.00000000000E+00  0.00000000000E+00  0.68148571866E+02  0.68148571866E+02  0.00000000000E+00 0.  1.
         21   -1    0    0  501  503 -0.00000000000E+00 -0.00000000000E+00 -0.47285911803E+03  0.47285911803E+03  0.00000000000E+00 0.  1.
          6    1    1    2  501    0 -0.43053696507E+02  0.13036326941E+02 -0.23978868473E+03  0.29850658272E+03  0.17200000000E+03 0. -1.
         -6    1    1    2    0  502  0.43053696507E+02 -0.13036326941E+02 -0.16492186144E+03  0.24250110718E+03  0.17200000000E+03 0. -1.
</event>
<event>
 4    1  0.1222208E+000  0.2191272E+03  0.7818608E-02  0.1134535E+00
         21   -1    0    0  503  502  0.00000000000E+00  0.00000000000E+00  0.17887877830E+03  0.17887877830E+03  0.00000000000E+00 0. -1.
         21   -1    0    0  501  503 -0.00000000000E+00 -0.00000000000E+00 -0.47292078859E+03  0.47292078859E+03  0.00000000000E+00 0. -1.
          6    1    1    2  501    0 -0.13306297738E+03 -0.26962471152E+02 -0.36132238197E+03  0.42257614049E+03  0.17200000000E+03 0.  1.
         -6    1    1    2    0  502  0.13306297738E+03  0.26962471152E+02  0.67280371685E+02  0.22922342640E+03  0.17200000000E+03 0.  1.
</event>
<event>
 4    1  0.1222208E+000  0.2222374E+03  0.7818608E-02  0.1132226E+00
         21   -1    0    0  503  502  0.00000000000E+00  0.00000000000E+00  0.80097700693E+02  0.80097700693E+02  0.00000000000E+00 0. -1.
         21   -1    0    0  501  503 -0.00000000000E+00 -0.00000000000E+00 -0.65455431936E+03  0.65455431936E+03  0.00000000000E+00 0. -1.
          6    1    1    2  501    0  0.79297618381E+02 -0.11626422509E+03 -0.37566263000E+03  0.43647668196E+03  0.17200000000E+03 0. -1.
         -6    1    1    2    0  502 -0.79297618381E+02  0.11626422509E+03 -0.19879398866E+03  0.29817533809E+03  0.17200000000E+03 0. -1.
</event>
<event>
 4    1  0.1222208E+000  0.1756794E+03  0.7818608E-02  0.1172051E+00
         21   -1    0    0  503  502  0.00000000000E+00  0.00000000000E+00  0.64634246150E+02  0.64634246150E+02  0.00000000000E+00 0.  1.
         21   -1    0    0  501  503 -0.00000000000E+00 -0.00000000000E+00 -0.48515156082E+03  0.48515156082E+03  0.00000000000E+00 0.  1.
          6    1    1    2  501    0 -0.27387956729E+01  0.35661611070E+02 -0.24476703798E+03  0.30128749458E+03  0.17200000000E+03 0. -1.
         -6    1    1    2    0  502  0.27387956729E+01 -0.35661611070E+02 -0.17575027668E+03  0.24849831239E+03  0.17200000000E+03 0. -1.
</event>
<event>
 4    1  0.1222208E+000  0.2796722E+03  0.7818608E-02  0.1095868E+00
         21   -1    0    0  501  502  0.00000000000E+00  0.00000000000E+00  0.37412749666E+03  0.37412749666E+03  0.00000000000E+00 0. -1.
         21   -1    0    0  502  503 -0.00000000000E+00 -0.00000000000E+00 -0.39530807525E+03  0.39530807525E+03  0.00000000000E+00 0.  1.
          6    1    1    2  501    0 -0.17531098299E+03  0.13378572395E+03  0.25347769417E+03  0.37744867483E+03  0.17200000000E+03 0. -1.
         -6    1    1    2    0  503  0.17531098299E+03 -0.13378572395E+03 -0.27465827276E+03  0.39198689708E+03  0.17200000000E+03 0.  1.
</event>
<event>
 4    1  0.1222208E+000  0.2565327E+03  0.7818608E-02  0.1109245E+00
         21   -1    0    0  503  502  0.00000000000E+00  0.00000000000E+00  0.25920849934E+03  0.25920849934E+03  0.00000000000E+00 0. -1.
         21   -1    0    0  501  503 -0.00000000000E+00 -0.00000000000E+00 -0.41334203213E+03  0.41334203213E+03  0.00000000000E+00 0.  1.
          6    1    1    2  501    0  0.17270956041E+03  0.79977612250E+02 -0.28593034207E+03  0.38414212374E+03  0.17200000000E+03 0.  1.
         -6    1    1    2    0  502 -0.17270956041E+03 -0.79977612250E+02  0.13179680928E+03  0.28840840774E+03  0.17200000000E+03 0. -1.
</event>
<event>
 4    1  0.1222208E+000  0.1988543E+03  0.7818608E-02  0.1150709E+00
         21   -1    0    0  501  502  0.00000000000E+00  0.00000000000E+00  0.45866983782E+03  0.45866983782E+03  0.00000000000E+00 0. -1.
         21   -1    0    0  502  503 -0.00000000000E+00 -0.00000000000E+00 -0.94514536737E+02  0.94514536737E+02  0.00000000000E+00 0. -1.
          6    1    1    2  501    0 -0.83493436838E+02  0.54661528387E+02  0.26405332955E+03  0.33055589169E+03  0.17200000000E+03 0. -1.
         -6    1    1    2    0  503  0.83493436838E+02 -0.54661528387E+02  0.10010197153E+03  0.22262848287E+03  0.17200000000E+03 0. -1.
</event>
<event>
 4    1  0.1222208E+000  0.1771606E+03  0.7818608E-02  0.1170580E+00
         21   -1    0    0  503  502  0.00000000000E+00  0.00000000000E+00  0.11427151049E+04  0.11427151049E+04  0.00000000000E+00 0.  1.
         21   -1    0    0  501  503 -0.00000000000E+00 -0.00000000000E+00 -0.27971918961E+02  0.27971918961E+02  0.00000000000E+00 0.  1.
          6    1    1    2  501    0  0.40315195993E+02 -0.13287677868E+02  0.47865505447E+03  0.51038861526E+03  0.17200000000E+03 0. -1.
         -6    1    1    2    0  502 -0.40315195993E+02  0.13287677868E+02  0.63608813144E+03  0.66029840858E+03  0.17200000000E+03 0. -1.
</event>
<event>
 4    1  0.1222208E+000  0.3253515E+03  0.7818608E-02  0.1073212E+00
         21   -1    0    0  501  502  0.00000000000E+00  0.00000000000E+00  0.45751049148E+02  0.45751049148E+02  0.00000000000E+00 0.  1.
         21   -1    0    0  502  503 -0.00000000000E+00 -0.00000000000E+00 -0.31487221203E+04  0.31487221203E+04  0.00000000000E+00 0.  1.
          6    1    1    2  501    0 -0.11625181353E+03  0.25050976586E+03 -0.72895061912E+03  0.79826225770E+03  0.17200000000E+03 0.  1.
         -6    1    1    2    0  503  0.11625181353E+03 -0.25050976586E+03 -0.23740204520E+04  0.23962109118E+04  0.17200000000E+03 0.  1.
</event>
<event>
 4    1  0.1222208E+000  0.2175845E+03  0.7818608E-02  0.1135697E+00
         21   -1    0    0  501  502  0.00000000000E+00  0.00000000000E+00  0.19249987476E+03  0.19249987476E+03  0.00000000000E+00 0. -1.
         21   -1    0    0  502  503 -0.00000000000E+00 -0.00000000000E+00 -0.25850837592E+03  0.25850837592E+03  0.00000000000E+00 0. -1.
          6    1    1    2  501    0 -0.13287583633E+03 -0.10150563881E+02  0.16722768324E+02  0.21822619643E+03  0.17200000000E+03 0.  1.
         -6    1    1    2    0  503  0.13287583633E+03  0.10150563881E+02 -0.82731269483E+02  0.23278205425E+03  0.17200000000E+03 0.  1.
</event>
<event>
 4    1  0.1222208E+000  0.1849732E+03  0.7818608E-02  0.1163075E+00
         21   -1    0    0  503  502  0.00000000000E+00  0.00000000000E+00  0.38717560172E+03  0.38717560172E+03  0.00000000000E+00 0.  1.
         21   -1    0    0  501  503 -0.00000000000E+00 -0.00000000000E+00 -0.90046058007E+02  0.90046058007E+02  0.00000000000E+00 0.  1.
          6    1    1    2  501    0  0.65577084620E+02  0.18185612956E+02  0.18110952227E+03  0.25887396471E+03  0.17200000000E+03 0. -1.
         -6    1    1    2    0  502 -0.65577084620E+02 -0.18185612956E+02  0.11602002145E+03  0.21834769502E+03  0.17200000000E+03 0. -1.
</event>
<event>
 4    1  0.1222208E+000  0.2142306E+03  0.7818608E-02  0.1138259E+00
         21   -1    0    0  501  502  0.00000000000E+00  0.00000000000E+00  0.10425599038E+03  0.10425599038E+03  0.00000000000E+00 0.  1.
         21   -1    0    0  502  503 -0.00000000000E+00 -0.00000000000E+00 -0.55870621890E+03  0.55870621890E+03  0.00000000000E+00 0.  1.
          6    1    1    2  501    0  0.31867913755E+02 -0.12367373952E+03 -0.37988159951E+03  0.43612473838E+03  0.17200000000E+03 0.  1.
         -6    1    1    2    0  503 -0.31867913755E+02  0.12367373952E+03 -0.74568629010E+02  0.22683747091E+03  0.17200000000E+03 0.  1.
</event>
<event>
 4    1  0.1222208E+000  0.2218449E+03  0.7818608E-02  0.1132515E+00
         21   -1    0    0  501  502  0.00000000000E+00  0.00000000000E+00  0.48407776331E+03  0.48407776331E+03  0.00000000000E+00 0.  1.
         21   -1    0    0  502  503 -0.00000000000E+00 -0.00000000000E+00 -0.10376800778E+03  0.10376800778E+03  0.00000000000E+00 0.  1.
          6    1    1    2  501    0  0.36523774908E+02 -0.13526696679E+03  0.23196959056E+03  0.32097512268E+03  0.17200000000E+03 0.  1.
         -6    1    1    2    0  503 -0.36523774908E+02  0.13526696679E+03  0.14834016498E+03  0.26687064841E+03  0.17200000000E+03 0.  1.
</event>
<event>
 4    1  0.1222208E+000  0.1893157E+03  0.7818608E-02  0.1159080E+00
         21   -1    0    0  501  502  0.00000000000E+00  0.00000000000E+00  0.11802228699E+03  0.11802228699E+03  0.00000000000E+00 0.  1.
         21   -1    0    0  502  503 -0.00000000000E+00 -0.00000000000E+00 -0.35512429958E+03  0.35512429958E+03  0.00000000000E+00 0.  1.
          6    1    1    2  501    0 -0.79008564677E+02  0.37509994576E+01 -0.28504873714E+02  0.19144960463E+03  0.17200000000E+03 0.  1.
         -6    1    1    2    0  503  0.79008564677E+02 -0.37509994576E+01 -0.20859713887E+03  0.28169698194E+03  0.17200000000E+03 0.  1.
</event>
<event>
 4    1  0.1222208E+000  0.1793003E+03  0.7818608E-02  0.1168482E+00
         21   -1    0    0  501  502  0.00000000000E+00  0.00000000000E+00  0.81502533454E+02  0.81502533454E+02  0.00000000000E+00 0.  1.
         21   -1    0    0  502  503 -0.00000000000E+00 -0.00000000000E+00 -0.44345108432E+03  0.44345108432E+03  0.00000000000E+00 0.  1.
          6    1    1    2  501    0  0.38724296024E+02  0.32634653678E+02 -0.93722270951E+02  0.20231771004E+03  0.17200000000E+03 0. -1.
         -6    1    1    2    0  503 -0.38724296024E+02 -0.32634653678E+02 -0.26822627991E+03  0.32263590773E+03  0.17200000000E+03 0. -1.
</event>
<event>
 4    1  0.1222208E+000  0.1734424E+03  0.7818608E-02  0.1174305E+00
         21   -1    0    0  501  502  0.00000000000E+00  0.00000000000E+00  0.60609396677E+03  0.60609396677E+03  0.00000000000E+00 0.  1.
         21   -1    0    0  502  503 -0.00000000000E+00 -0.00000000000E+00 -0.53155891380E+02  0.53155891380E+02  0.00000000000E+00 0.  1.
          6    1    1    2  501    0  0.20671859425E+02  0.84220846189E+01  0.19161071602E+03  0.25845100846E+03  0.17200000000E+03 0. -1.
         -6    1    1    2    0  503 -0.20671859425E+02 -0.84220846189E+01  0.36132735937E+03  0.40079884969E+03  0.17200000000E+03 0. -1.
</event>
<event>
 4    1  0.1222208E+000  0.1858460E+03  0.7818608E-02  0.1162262E+00
         21   -1    0    0  501  502  0.00000000000E+00  0.00000000000E+00  0.48239356098E+03  0.48239356098E+03  0.00000000000E+00 0.  1.
         21   -1    0    0  502  503 -0.00000000000E+00 -0.00000000000E+00 -0.80266039904E+02  0.80266039904E+02  0.00000000000E+00 0. -1.
          6    1    1    2  501    0  0.69207935510E+02  0.12845266598E+02  0.29351088150E+03  0.34740088769E+03  0.17200000000E+03 0.  1.
         -6    1    1    2    0  503 -0.69207935510E+02 -0.12845266598E+02  0.10861663958E+03  0.21525871319E+03  0.17200000000E+03 0. -1.
</event>
<event>
 4    1  0.1222208E+000  0.1815592E+03  0.7818608E-02  0.1166303E+00
         21   -1    0    0  503  502  0.00000000000E+00  0.00000000000E+00  0.36444507061E+03  0.36444507061E+03  0.00000000000E+00 0.  1.
         21   -1    0    0  501  503 -0.00000000000E+00 -0.00000000000E+00 -0.93724739376E+02  0.93724739376E+02  0.00000000000E+00 0.  1.
          6    1    1    2  501    0 -0.48241648364E+02  0.32442177382E+02  0.17818672974E+03  0.25438998048E+03  0.17200000000E+03 0. -1.
         -6    1    1    2    0  502  0.48241648364E+02 -0.32442177382E+02  0.92533601491E+02  0.20377982951E+03  0.17200000000E+03 0. -1.
</event>
<event>
 4    1  0.1222208E+000  0.2855653E+03  0.7818608E-02  0.1092688E+00
         21   -1    0    0  503  502  0.00000000000E+00  0.00000000000E+00  0.17730800273E+03  0.17730800273E+03  0.00000000000E+00 0. -1.
         21   -1    0    0  501  503 -0.00000000000E+00 -0.00000000000E+00 -0.70233816156E+03  0.70233816156E+03  0.00000000000E+00 0.  1.
          6    1    1    2  501    0 -0.89287502040E+02 -0.20974102089E+03 -0.52091190369E+03  0.59405114702E+03  0.17200000000E+03 0. -1.
         -6    1    1    2    0  502  0.89287502040E+02  0.20974102089E+03 -0.41182551418E+01  0.28559501727E+03  0.17200000000E+03 0. -1.
</event>
<event>
 4    1  0.1222208E+000  0.1748377E+03  0.7818608E-02  0.1172895E+00
         21   -1    0    0  503  502  0.00000000000E+00  0.00000000000E+00  0.11241668053E+03  0.11241668053E+03  0.00000000000E+00 0.  1.
         21   -1    0    0  501  503 -0.00000000000E+00 -0.00000000000E+00 -0.30999108003E+03  0.30999108003E+03  0.00000000000E+00 0. -1.
          6    1    1    2  501    0 -0.12123773930E+01  0.31348781643E+02 -0.17280418245E+03  0.24582412705E+03  0.17200000000E+03 0. -1.
         -6    1    1    2    0  502  0.12123773930E+01 -0.31348781643E+02 -0.24770217045E+02  0.17658363351E+03  0.17200000000E+03 0.  1.
</event>
<event>
 4    1  0.1222208E+000  0.2581180E+03  0.7818608E-02  0.1108279E+00
         21   -1    0    0  503  502  0.00000000000E+00  0.00000000000E+00  0.11473362629E+03  0.11473362629E+03  0.00000000000E+00 0.  1.
         21   -1    0    0  501  503 -0.00000000000E+00 -0.00000000000E+00 -0.12964425662E+04  0.12964425662E+04  0.00000000000E+00 0. -1.
          6    1    1    2  501    0 -0.16538906530E+03  0.98424477443E+02 -0.11151249407E+04  0.11446084720E+04  0.17200000000E+03 0. -1.
         -6    1    1    2    0  502  0.16538906530E+03 -0.98424477443E+02 -0.66583999209E+02  0.26656772053E+03  0.17200000000E+03 0.  1.
</event>
<event>
 4    1  0.1222208E+000  0.1853666E+03  0.7818608E-02  0.1162708E+00
         21   -1    0    0  503  502  0.00000000000E+00  0.00000000000E+00  0.15948718676E+03  0.15948718676E+03  0.00000000000E+00 0.  1.
         21   -1    0    0  501  503 -0.00000000000E+00 -0.00000000000E+00 -0.21796850202E+03  0.21796850202E+03  0.00000000000E+00 0.  1.
          6    1    1    2  501    0 -0.68721457190E+02 -0.73575732748E+01 -0.49546028746E+02  0.19187386880E+03  0.17200000000E+03 0.  1.
         -6    1    1    2    0  502  0.68721457190E+02  0.73575732748E+01 -0.89352865170E+01  0.18558181998E+03  0.17200000000E+03 0.  1.
</event>
<event>
 4    1  0.1222208E+000  0.1841990E+03  0.7818608E-02  0.1163800E+00
         21   -1    0    0  501  502  0.00000000000E+00  0.00000000000E+00  0.93290269929E+03  0.93290269929E+03  0.00000000000E+00 0.  1.
         21   -1    0    0  502  503 -0.00000000000E+00 -0.00000000000E+00 -0.39518455594E+02  0.39518455594E+02  0.00000000000E+00 0.  1.
          6    1    1    2  501    0  0.17225860760E+02  0.63628281304E+02  0.58393869167E+03  0.61230195500E+03  0.17200000000E+03 0.  1.
         -6    1    1    2    0  503 -0.17225860760E+02 -0.63628281304E+02  0.30944555202E+03  0.36011919989E+03  0.17200000000E+03 0.  1.
</event>
<event>
 4    1  0.1222208E+000  0.1735511E+03  0.7818608E-02  0.1174194E+00
         21   -1    0    0  501  502  0.00000000000E+00  0.00000000000E+00  0.41870826782E+02  0.41870826782E+02  0.00000000000E+00 0.  1.
         21   -1    0    0  502  503 -0.00000000000E+00 -0.00000000000E+00 -0.13080755946E+04  0.13080755946E+04  0.00000000000E+00 0.  1.
          6    1    1    2  501    0  0.23085042703E+02  0.17499726704E+01 -0.18028322807E+03  0.25024392884E+03  0.17200000000E+03 0.  1.
         -6    1    1    2    0  503 -0.23085042703E+02 -0.17499726704E+01 -0.10859215398E+04  0.10997024926E+04  0.17200000000E+03 0.  1.
</event>
<event>
 4    1  0.1222208E+000  0.1978902E+03  0.7818608E-02  0.1151531E+00
         21   -1    0    0  503  502  0.00000000000E+00  0.00000000000E+00  0.17127844663E+03  0.17127844663E+03  0.00000000000E+00 0. -1.
         21   -1    0    0  501  503 -0.00000000000E+00 -0.00000000000E+00 -0.25897634292E+03  0.25897634292E+03  0.00000000000E+00 0. -1.
          6    1    1    2  501    0 -0.20296863580E+02  0.95731823920E+02 -0.11748163605E+03  0.23013578512E+03  0.17200000000E+03 0. -1.
         -6    1    1    2    0  502  0.20296863580E+02 -0.95731823920E+02  0.29783739763E+02  0.20011900444E+03  0.17200000000E+03 0. -1.
</event>
<event>
 4    1  0.1222208E+000  0.1739888E+03  0.7818608E-02  0.1173751E+00
         21   -1    0    0  503  502  0.00000000000E+00  0.00000000000E+00  0.11008157080E+04  0.11008157080E+04  0.00000000000E+00 0. -1.
         21   -1    0    0  501  503 -0.00000000000E+00 -0.00000000000E+00 -0.28108400139E+02  0.28108400139E+02  0.00000000000E+00 0. -1.
          6    1    1    2  501    0 -0.37661267120E+01  0.25959948559E+02  0.61941865843E+03  0.64339068773E+03  0.17200000000E+03 0. -1.
         -6    1    1    2    0  502  0.37661267120E+01 -0.25959948559E+02  0.45328864947E+03  0.48553342046E+03  0.17200000000E+03 0. -1.
</event>
<event>
 4    1  0.1222208E+000  0.1729171E+03  0.7818608E-02  0.1174839E+00
         21   -1    0    0  501  502  0.00000000000E+00  0.00000000000E+00  0.41804137269E+03  0.41804137269E+03  0.00000000000E+00 0. -1.
         21   -1    0    0  502  503 -0.00000000000E+00 -0.00000000000E+00 -0.78962394451E+02  0.78962394451E+02  0.00000000000E+00 0. -1.
          6    1    1    2  501    0 -0.11963318490E+02  0.13161267905E+02  0.24580615699E+03  0.30053453508E+03  0.17200000000E+03 0. -1.
         -6    1    1    2    0  503  0.11963318490E+02 -0.13161267905E+02  0.93272821250E+02  0.19646923206E+03  0.17200000000E+03 0. -1.
</event>
<event>
 4    1  0.1222208E+000  0.3030482E+03  0.7818608E-02  0.1083727E+00
         21   -1    0    0  503  502  0.00000000000E+00  0.00000000000E+00  0.57736999545E+03  0.57736999545E+03  0.00000000000E+00 0. -1.
         21   -1    0    0  501  503 -0.00000000000E+00 -0.00000000000E+00 -0.18844749713E+03  0.18844749713E+03  0.00000000000E+00 0.  1.
          6    1    1    2  501    0 -0.24429916050E+03 -0.50716069892E+02  0.43258641026E+02  0.30612009014E+03  0.17200000000E+03 0.  1.
         -6    1    1    2    0  502  0.24429916050E+03  0.50716069892E+02  0.34566385729E+03  0.45969740243E+03  0.17200000000E+03 0. -1.
</event>
<event>
 4    1  0.1222208E+000  0.1746362E+03  0.7818608E-02  0.1173098E+00
         21   -1    0    0  501  502  0.00000000000E+00  0.00000000000E+00  0.39529882133E+03  0.39529882133E+03  0.00000000000E+00 0. -1.
         21   -1    0    0  502  503 -0.00000000000E+00 -0.00000000000E+00 -0.24908799740E+03  0.24908799740E+03  0.00000000000E+00 0. -1.
          6    1    1    2  501    0 -0.30155368695E+02 -0.21086949215E+01  0.34079077353E+03  0.38293099141E+03  0.17200000000E+03 0. -1.
         -6    1    1    2    0  503  0.30155368695E+02  0.21086949215E+01 -0.19457994960E+03  0.26145582732E+03  0.17200000000E+03 0. -1.
</event>
<event>
 4    1  0.1222208E+000  0.1768264E+03  0.7818608E-02  0.1170910E+00
         21   -1    0    0  503  502  0.00000000000E+00  0.00000000000E+00  0.99156322003E+02  0.99156322003E+02  0.00000000000E+00 0.  1.
         21   -1    0    0  501  503 -0.00000000000E+00 -0.00000000000E+00 -0.61096551906E+03  0.61096551906E+03  0.00000000000E+00 0.  1.
          6    1    1    2  501    0  0.59597283649E-01  0.41031530160E+02 -0.89209594747E+01  0.17705133023E+03  0.17200000000E+03 0.  1.
         -6    1    1    2    0  502 -0.59597283649E-01 -0.41031530160E+02 -0.50288823758E+03  0.53307051083E+03  0.17200000000E+03 0.  1.
</event>
<event>
 4    1  0.1222208E+000  0.2990074E+03  0.7818608E-02  0.1085738E+00
         21   -1    0    0  503  502  0.00000000000E+00  0.00000000000E+00  0.90558717424E+03  0.90558717424E+03  0.00000000000E+00 0.  1.
         21   -1    0    0  501  503 -0.00000000000E+00 -0.00000000000E+00 -0.11776167217E+03  0.11776167217E+03  0.00000000000E+00 0. -1.
          6    1    1    2  501    0 -0.14810546296E+02 -0.24413533685E+03  0.18819555336E+03  0.35330295963E+03  0.17200000000E+03 0.  1.
         -6    1    1    2    0  502  0.14810546296E+02  0.24413533685E+03  0.59962994872E+03  0.67004588678E+03  0.17200000000E+03 0. -1.
</event>
<event>
 4    1  0.1222208E+000  0.1720420E+03  0.7818608E-02  0.1175735E+00
         21   -1    0    0  501  502  0.00000000000E+00  0.00000000000E+00  0.26039010675E+02  0.26039010675E+02  0.00000000000E+00 0.  1.
         21   -1    0    0  502  503 -0.00000000000E+00 -0.00000000000E+00 -0.13260625966E+04  0.13260625966E+04  0.00000000000E+00 0.  1.
          6    1    1    2  501    0 -0.34756630096E+01  0.15381436102E+01 -0.90548696853E+03  0.92168600743E+03  0.17200000000E+03 0.  1.
         -6    1    1    2    0  503  0.34756630096E+01 -0.15381436102E+01 -0.39453661735E+03  0.43041559980E+03  0.17200000000E+03 0.  1.
</event>
<event>
 4    1  0.1222208E+000  0.2182592E+03  0.7818608E-02  0.1135188E+00
         21   -1    0    0  503  502  0.00000000000E+00  0.00000000000E+00  0.35012966700E+03  0.35012966700E+03  0.00000000000E+00 0. -1.
         21   -1    0    0  501  503 -0.00000000000E+00 -0.00000000000E+00 -0.14089422779E+03  0.14089422779E+03  0.00000000000E+00 0.  1.
          6    1    1    2  501    0 -0.13435845923E+03  0.92977226864E+00  0.59119698698E+02  0.22612429948E+03  0.17200000000E+03 0.  1.
         -6    1    1    2    0  502  0.13435845923E+03 -0.92977226864E+00  0.15011574051E+03  0.26489959530E+03  0.17200000000E+03 0. -1.
</event>
<event>
 4    1  0.1222208E+000  0.3041595E+03  0.7818608E-02  0.1083180E+00
         21   -1    0    0  501  502  0.00000000000E+00  0.00000000000E+00  0.86375060976E+03  0.86375060976E+03  0.00000000000E+00 0.  1.
         21   -1    0    0  502  503 -0.00000000000E+00 -0.00000000000E+00 -0.15300253273E+03  0.15300253273E+03  0.00000000000E+00 0. -1.
          6    1    1    2  501    0  0.68807898240E+02 -0.24123532998E+03  0.76938030822E+02  0.31373949684E+03  0.17200000000E+03 0. -1.
         -6    1    1    2    0  503 -0.68807898240E+02  0.24123532998E+03  0.63381004621E+03  0.70301364565E+03  0.17200000000E+03 0.  1.
</event>
<event>
 4    1  0.1222208E+000  0.2483848E+03  0.7818608E-02  0.1114330E+00
         21   -1    0    0  501  502  0.00000000000E+00  0.00000000000E+00  0.63299193535E+03  0.63299193535E+03  0.00000000000E+00 0.  1.
         21   -1    0    0  502  503 -0.00000000000E+00 -0.00000000000E+00 -0.10958020130E+03  0.10958020130E+03  0.00000000000E+00 0.  1.
          6    1    1    2  501    0  0.17010143530E+03  0.56360496641E+02  0.38515706998E+03  0.45830227190E+03  0.17200000000E+03 0. -1.
         -6    1    1    2    0  503 -0.17010143530E+03 -0.56360496641E+02  0.13825466406E+03  0.28426986476E+03  0.17200000000E+03 0. -1.
</event>
<event>
 4    1  0.1222208E+000  0.5920886E+03  0.7818608E-02  0.9921957E-01
         21   -1    0    0  503  502  0.00000000000E+00  0.00000000000E+00  0.12662643564E+04  0.12662643564E+04  0.00000000000E+00 0. -1.
         21   -1    0    0  501  503 -0.00000000000E+00 -0.00000000000E+00 -0.42606239075E+03  0.42606239075E+03  0.00000000000E+00 0.  1.
          6    1    1    2  501    0 -0.40780202802E+03  0.39329680635E+03 -0.80643239747E+02  0.59755518914E+03  0.17200000000E+03 0. -1.
         -6    1    1    2    0  502  0.40780202802E+03 -0.39329680635E+03  0.92084520539E+03  0.10947715580E+04  0.17200000000E+03 0. -1.
</event>
<event>
 4    1  0.1222208E+000  0.2173287E+03  0.7818608E-02  0.1135890E+00
         21   -1    0    0  501  502  0.00000000000E+00  0.00000000000E+00  0.10246576553E+03  0.10246576553E+03  0.00000000000E+00 0.  1.
         21   -1    0    0  502  503 -0.00000000000E+00 -0.00000000000E+00 -0.75357797346E+03  0.75357797346E+03  0.00000000000E+00 0.  1.
          6    1    1    2  501    0  0.34158551988E+02 -0.12837825170E+03 -0.59227784857E+03  0.63089209227E+03  0.17200000000E+03 0.  1.
         -6    1    1    2    0  503 -0.34158551988E+02  0.12837825170E+03 -0.58834359367E+02  0.22515164673E+03  0.17200000000E+03 0.  1.
</event>
<event>
 4    1  0.1222208E+000  0.2685143E+03  0.7818608E-02  0.1102133E+00
         21   -1    0    0  503  502  0.00000000000E+00  0.00000000000E+00  0.13465008219E+03  0.13465008219E+03  0.00000000000E+00 0. -1.
         21   -1    0    0  501  503 -0.00000000000E+00 -0.00000000000E+00 -0.54372574230E+03  0.54372574230E+03  0.00000000000E+00 0.  1.
          6    1    1    2  501    0 -0.17458173783E+03  0.10971397833E+03 -0.24635464180E+03  0.36440437670E+03  0.17200000000E+03 0. -1.
         -6    1    1    2    0  502  0.17458173783E+03 -0.10971397833E+03 -0.16272101832E+03  0.31397144779E+03  0.17200000000E+03 0.  1.
</event>
<event>
 4    1  0.1222208E+000  0.2195876E+03  0.7818608E-02  0.1134191E+00
         21   -1    0    0  501  502  0.00000000000E+00  0.00000000000E+00  0.14059245673E+03  0.14059245673E+03  0.00000000000E+00 0.  1.
         21   -1    0    0  502  503 -0.00000000000E+00 -0.00000000000E+00 -0.60189085201E+03  0.60189085201E+03  0.00000000000E+00 0.  1.
          6    1    1    2  501    0  0.90204975293E+02 -0.10245862622E+03 -0.47414027716E+03  0.52252053556E+03  0.17200000000E+03 0.  1.
         -6    1    1    2    0  503 -0.90204975293E+02  0.10245862622E+03  0.12841881884E+02  0.21996277318E+03  0.17200000000E+03 0.  1.
</event>
<event>
 4    1  0.1222208E+000  0.1994589E+03  0.7818608E-02  0.1150196E+00
         21   -1    0    0  503  502  0.00000000000E+00  0.00000000000E+00  0.57737077355E+03  0.57737077355E+03  0.00000000000E+00 0.  1.
         21   -1    0    0  501  503 -0.00000000000E+00 -0.00000000000E+00 -0.13044309894E+03  0.13044309894E+03  0.00000000000E+00 0. -1.
          6    1    1    2  501    0 -0.65723732539E+02  0.76682742873E+02 -0.19616500745E+02  0.20042120440E+03  0.17200000000E+03 0. -1.
         -6    1    1    2    0  502  0.65723732539E+02 -0.76682742873E+02  0.46654417535E+03  0.50739266809E+03  0.17200000000E+03 0.  1.
</event>
<event>
 4    1  0.1222208E+000  0.1991294E+03  0.7818608E-02  0.1150476E+00
         21   -1    0    0  501  502  0.00000000000E+00  0.00000000000E+00  0.55291411520E+03  0.55291411520E+03  0.00000000000E+00 0. -1.
         21   -1    0    0  502  503 -0.00000000000E+00 -0.00000000000E+00 -0.93101775265E+02  0.93101775265E+02  0.00000000000E+00 0. -1.
          6    1    1    2  501    0 -0.96145596424E+02  0.28714711565E+02  0.38471717649E+03  0.43319720251E+03  0.17200000000E+03 0. -1.
         -6    1    1    2    0  503  0.96145596424E+02 -0.28714711565E+02  0.75095163444E+02  0.21281868796E+03  0.17200000000E+03 0. -1.
</event>
<event>
 4    1  0.1222208E+000  0.1802185E+03  0.7818608E-02  0.1167592E+00
         21   -1    0    0  501  502  0.00000000000E+00  0.00000000000E+00  0.48607350213E+02  0.48607350213E+02  0.00000000000E+00 0. -1.
         21   -1    0    0  502  503 -0.00000000000E+00 -0.00000000000E+00 -0.67060951223E+03  0.67060951223E+03  0.00000000000E+00 0. -1.
          6    1    1    2  501    0  0.51609709213E+02 -0.15202932642E+02 -0.28937750229E+03  0.34090765623E+03  0.17200000000E+03 0.  1.
         -6    1    1    2    0  503 -0.51609709213E+02  0.15202932642E+02 -0.33262465973E+03  0.37830920621E+03  0.17200000000E+03 0.  1.
</event>
<event>
 4    1  0.1222208E+000  0.2264356E+03  0.7818608E-02  0.1129174E+00
         21   -1    0    0  501  502  0.00000000000E+00  0.00000000000E+00  0.31443918306E+03  0.31443918306E+03  0.00000000000E+00 0.  1.
         21   -1    0    0  502  503 -0.00000000000E+00 -0.00000000000E+00 -0.19654502400E+03  0.19654502400E+03  0.00000000000E+00 0. -1.
          6    1    1    2  501    0  0.72723459424E+01  0.14709239956E+03  0.16440014926E+03  0.27982221159E+03  0.17200000000E+03 0. -1.
         -6    1    1    2    0  503 -0.72723459424E+01 -0.14709239956E+03 -0.46505990206E+02  0.23116199547E+03  0.17200000000E+03 0.  1.
</event>
<event>
 4    1  0.1222208E+000  0.2198885E+03  0.7818608E-02  0.1133966E+00
         21   -1    0    0  503  502  0.00000000000E+00  0.00000000000E+00  0.13813475296E+03  0.13813475296E+03  0.00000000000E+00 0. -1.
         21   -1    0    0  501  503 -0.00000000000E+00 -0.00000000000E+00 -0.40894212970E+03  0.40894212970E+03  0.00000000000E+00 0. -1.
          6    1    1    2  501    0 -0.13132359418E+03 -0.39001105851E+02 -0.23922792324E+03  0.32493225741E+03  0.17200000000E+03 0. -1.
         -6    1    1    2    0  502  0.13132359418E+03  0.39001105851E+02 -0.31579453492E+02  0.22214462525E+03  0.17200000000E+03 0. -1.
</event>
<event>
 4    1  0.1222208E+000  0.1845406E+03  0.7818608E-02  0.1163480E+00
         21   -1    0    0  503  502  0.00000000000E+00  0.00000000000E+00  0.15367549950E+03  0.15367549950E+03  0.00000000000E+00 0.  1.
         21   -1    0    0  501  503 -0.00000000000E+00 -0.00000000000E+00 -0.38609307664E+03  0.38609307664E+03  0.00000000000E+00 0.  1.
          6    1    1    2  501    0 -0.62914056506E+02  0.22650994922E+02 -0.29236538787E+03  0.34573510973E+03  0.17200000000E+03 0.  1.
         -6    1    1    2    0  502  0.62914056506E+02 -0.22650994922E+02  0.59947810727E+02  0.19403346641E+03  0.17200000000E+03 0.  1.
</event>
<event>
 4    1  0.1222208E+000  0.1987723E+03  0.7818608E-02  0.1150779E+00
         21   -1    0    0  501  502  0.00000000000E+00  0.00000000000E+00  0.26923031719E+03  0.26923031719E+03  0.00000000000E+00 0.  1.
         21   -1    0    0  502  503 -0.00000000000E+00 -0.00000000000E+00 -0.57856309299E+03  0.57856309299E+03  0.00000000000E+00 0.  1.
          6    1    1    2  501    0 -0.61806093412E+02  0.78143642143E+02  0.21154424550E+03  0.29027812490E+03  0.17200000000E+03 0.  1.
         -6    1    1    2    0  503  0.61806093412E+02 -0.78143642143E+02 -0.52087702130E+03  0.55751528527E+03  0.17200000000E+03 0.  1.
</event>
<event>
 4    1  0.1222208E+000  0.2111439E+03  0.7818608E-02  0.1140663E+00
         21   -1    0    0  501  502  0.00000000000E+00  0.00000000000E+00  0.50330164579E+02  0.50330164579E+02  0.00000000000E+00 0. -1.
         21   -1    0    0  502  503 -0.00000000000E+00 -0.00000000000E+00 -0.88976365260E+03  0.88976365260E+03  0.00000000000E+00 0. -1.
          6    1    1    2  501    0  0.35612015849E+02 -0.11717304713E+03 -0.38828740778E+03  0.44198286131E+03  0.17200000000E+03 0. -1.
         -6    1    1    2    0  503 -0.35612015849E+02  0.11717304713E+03 -0.45114608024E+03  0.49811095587E+03  0.17200000000E+03 0. -1.
</event>
<event>
 4    1  0.1222208E+000  0.1886686E+03  0.7818608E-02  0.1159668E+00
         21   -1    0    0  503  502  0.00000000000E+00  0.00000000000E+00  0.96104036362E+03  0.96104036362E+03  0.00000000000E+00 0. -1.
         21   -1    0    0  501  503 -0.00000000000E+00 -0.00000000000E+00 -0.39136955751E+02  0.39136955751E+02  0.00000000000E+00 0. -1.
          6    1    1    2  501    0  0.74774792739E+02  0.20507982084E+02  0.34516322927E+03  0.39336179504E+03  0.17200000000E+03 0. -1.
         -6    1    1    2    0  502 -0.74774792739E+02 -0.20507982084E+02  0.57674017860E+03  0.60681552433E+03  0.17200000000E+03 0. -1.
</event>
<event>
 4    1  0.1222208E+000  0.2254054E+03  0.7818608E-02  0.1129916E+00
         21   -1    0    0  501  502  0.00000000000E+00  0.00000000000E+00  0.22118610912E+03  0.22118610912E+03  0.00000000000E+00 0. -1.
         21   -1    0    0  502  503 -0.00000000000E+00 -0.00000000000E+00 -0.30452474756E+03  0.30452474756E+03  0.00000000000E+00 0.  1.
          6    1    1    2  501    0  0.13254710097E+03 -0.60455340580E+02  0.88621381423E+02  0.24220101450E+03  0.17200000000E+03 0.  1.
         -6    1    1    2    0  503 -0.13254710097E+03  0.60455340580E+02 -0.17196001986E+03  0.28350984218E+03  0.17200000000E+03 0.  1.
</event>
<event>
 4    1  0.1222208E+000  0.3807714E+03  0.7818608E-02  0.1050649E+00
         21   -1    0    0  501  502  0.00000000000E+00  0.00000000000E+00  0.10913420672E+03  0.10913420672E+03  0.00000000000E+00 0.  1.
         21   -1    0    0  502  503 -0.00000000000E+00 -0.00000000000E+00 -0.13553791496E+04  0.13553791496E+04  0.00000000000E+00 0. -1.
          6    1    1    2  501    0 -0.13767936856E+03  0.31055951902E+03 -0.52003867639E+03  0.64453630489E+03  0.17200000000E+03 0. -1.
         -6    1    1    2    0  503  0.13767936856E+03 -0.31055951902E+03 -0.72620626654E+03  0.81997705148E+03  0.17200000000E+03 0. -1.
</event>
<event>
 4    1  0.1222208E+000  0.1965227E+03  0.7818608E-02  0.1152706E+00
         21   -1    0    0  501  502  0.00000000000E+00  0.00000000000E+00  0.23233431488E+03  0.23233431488E+03  0.00000000000E+00 0. -1.
         21   -1    0    0  502  503 -0.00000000000E+00 -0.00000000000E+00 -0.18342037864E+03  0.18342037864E+03  0.00000000000E+00 0. -1.
          6    1    1    2  501    0  0.52938421288E+02 -0.78960060557E+02  0.88094502743E+02  0.21536436341E+03  0.17200000000E+03 0. -1.
         -6    1    1    2    0  503 -0.52938421288E+02  0.78960060557E+02 -0.39180566506E+02  0.20039033011E+03  0.17200000000E+03 0. -1.
</event>
<event>
 4    1  0.1222208E+000  0.2049289E+03  0.7818608E-02  0.1145646E+00
         21   -1    0    0  501  502  0.00000000000E+00  0.00000000000E+00  0.19821848868E+03  0.19821848868E+03  0.00000000000E+00 0. -1.
         21   -1    0    0  502  503 -0.00000000000E+00 -0.00000000000E+00 -0.39725014717E+03  0.39725014717E+03  0.00000000000E+00 0.  1.
          6    1    1    2  501    0  0.39568716175E+02 -0.10414489050E+03  0.10387560909E+03  0.22975200474E+03  0.17200000000E+03 0. -1.
         -6    1    1    2    0  503 -0.39568716175E+02  0.10414489050E+03 -0.30290726758E+03  0.36571663111E+03  0.17200000000E+03 0.  1.
</event>
<event>
 4    1  0.1222208E+000  0.1789082E+03  0.7818608E-02  0.1168864E+00
         21   -1    0    0  503  502  0.00000000000E+00  0.00000000000E+00  0.10753460578E+03  0.10753460578E+03  0.00000000000E+00 0.  1.
         21   -1    0    0  501  503 -0.00000000000E+00 -0.00000000000E+00 -0.84730109742E+03  0.84730109742E+03  0.00000000000E+00 0.  1.
          6    1    1    2  501    0 -0.43348837866E+02  0.23345645308E+02 -0.75440561476E+03  0.77532958958E+03  0.17200000000E+03 0.  1.
         -6    1    1    2    0  502  0.43348837866E+02 -0.23345645308E+02  0.14639123116E+02  0.17950611361E+03  0.17200000000E+03 0.  1.
</event>
<event>
 4    1  0.1222208E+000  0.1851530E+03  0.7818608E-02  0.1162907E+00
         21   -1    0    0  503  502  0.00000000000E+00  0.00000000000E+00  0.34269999020E+03  0.34269999020E+03  0.00000000000E+00 0. -1.
         21   -1    0    0  501  503 -0.00000000000E+00 -0.00000000000E+00 -0.10193190704E+03  0.10193190704E+03  0.00000000000E+00 0. -1.
          6    1    1    2  501    0 -0.40332660915E+02  0.55415809246E+02  0.90048053527E+02  0.20588901718E+03  0.17200000000E+03 0. -1.
         -6    1    1    2    0  502  0.40332660915E+02 -0.55415809246E+02  0.15072002963E+03  0.23874288007E+03  0.17200000000E+03 0. -1.
</event>
<event>
 4    1  0.1222208E+000  0.2285382E+03  0.7818608E-02  0.1127673E+00
         21   -1    0    0  503  502  0.00000000000E+00  0.00000000000E+00  0.13439760471E+04  0.13439760471E+04  0.00000000000E+00 0. -1.
         21   -1    0    0  501  503 -0.00000000000E+00 -0.00000000000E+00 -0.49138221804E+02  0.49138221804E+02  0.00000000000E+00 0.  1.
          6    1    1    2  501    0 -0.14525968777E+03 -0.39310755412E+02  0.32888039877E+03  0.40048973655E+03  0.17200000000E+03 0.  1.
         -6    1    1    2    0  502  0.14525968777E+03  0.39310755412E+02  0.96595742654E+03  0.99262453238E+03  0.17200000000E+03 0. -1.
</event>
<event>
 4    1  0.1222208E+000  0.1861587E+03  0.7818608E-02  0.1161972E+00
         21   -1    0    0  503  502  0.00000000000E+00  0.00000000000E+00  0.83370330275E+02  0.83370330275E+02  0.00000000000E+00 0.  1.
         21   -1    0    0  501  503 -0.00000000000E+00 -0.00000000000E+00 -0.59853876615E+03  0.59853876615E+03  0.00000000000E+00 0.  1.
          6    1    1    2  501    0 -0.50305588799E+02  0.50402602171E+02 -0.44604134805E+03  0.48333007225E+03  0.17200000000E+03 0.  1.
         -6    1    1    2    0  502  0.50305588799E+02 -0.50402602171E+02 -0.69127087818E+02  0.19857902417E+03  0.17200000000E+03 0.  1.
</event>
<event>
 4    1  0.1222208E+000  0.2626581E+03  0.7818608E-02  0.1105557E+00
         21   -1    0    0  501  502  0.00000000000E+00  0.00000000000E+00  0.17965181777E+03  0.17965181777E+03  0.00000000000E+00 0.  1.
         21   -1    0    0  502  503 -0.00000000000E+00 -0.00000000000E+00 -0.42848549926E+03  0.42848549926E+03  0.00000000000E+00 0. -1.
          6    1    1    2  501    0 -0.17881555150E+03  0.86199082583E+02 -0.26460692400E+02  0.26398759732E+03  0.17200000000E+03 0.  1.
         -6    1    1    2    0  503  0.17881555150E+03 -0.86199082583E+02 -0.22237298910E+03  0.34414971971E+03  0.17200000000E+03 0.  1.
</event>
<event>
 4    1  0.1222208E+000  0.2259996E+03  0.7818608E-02  0.1129488E+00
         21   -1    0    0  503  502  0.00000000000E+00  0.00000000000E+00  0.26649224132E+02  0.26649224132E+02  0.00000000000E+00 0.  1.
         21   -1    0    0  501  503 -0.00000000000E+00 -0.00000000000E+00 -0.22005252434E+04  0.22005252434E+04  0.00000000000E+00 0.  1.
          6    1    1    2  501    0 -0.58045386804E+02 -0.13462001845E+03 -0.14869431358E+04  0.15040198487E+04  0.17200000000E+03 0.  1.
         -6    1    1    2    0  502  0.58045386804E+02  0.13462001845E+03 -0.68693288352E+03  0.72315461884E+03  0.17200000000E+03 0.  1.
</event>
<event>
 4    1  0.1222208E+000  0.1839239E+03  0.7818608E-02  0.1164059E+00
         21   -1    0    0  503  502  0.00000000000E+00  0.00000000000E+00  0.29688067313E+03  0.29688067313E+03  0.00000000000E+00 0. -1.
         21   -1    0    0  501  503 -0.00000000000E+00 -0.00000000000E+00 -0.11507065108E+03  0.11507065108E+03  0.00000000000E+00 0. -1.
          6    1    1    2  501    0  0.51377244667E+02 -0.40054841623E+02  0.70531196284E+02  0.19698391116E+03  0.17200000000E+03 0. -1.
         -6    1    1    2    0  502 -0.51377244667E+02  0.40054841623E+02  0.11127882577E+03  0.21496741305E+03  0.17200000000E+03 0. -1.
</event>
<event>
 4    1  0.1222208E+000  0.3137243E+03  0.7818608E-02  0.1078574E+00
         21   -1    0    0  503  502  0.00000000000E+00  0.00000000000E+00  0.96821467979E+02  0.96821467979E+02  0.00000000000E+00 0. -1.
         21   -1    0    0  501  503 -0.00000000000E+00 -0.00000000000E+00 -0.10684033466E+04  0.10684033466E+04  0.00000000000E+00 0.  1.
          6    1    1    2  501    0 -0.24469212870E+03  0.94682140811E+02 -0.61415403759E+03  0.68964347856E+03  0.17200000000E+03 0. -1.
         -6    1    1    2    0  502  0.24469212870E+03 -0.94682140811E+02 -0.35742784108E+03  0.47558133607E+03  0.17200000000E+03 0.  1.
</event>
<event>
 4    1  0.1222208E+000  0.2026691E+03  0.7818608E-02  0.1147506E+00
         21   -1    0    0  503  502  0.00000000000E+00  0.00000000000E+00  0.30462487149E+03  0.30462487149E+03  0.00000000000E+00 0.  1.
         21   -1    0    0  501  503 -0.00000000000E+00 -0.00000000000E+00 -0.31406329618E+03  0.31406329618E+03  0.00000000000E+00 0. -1.
          6    1    1    2  501    0  0.10591090685E+03 -0.16542580890E+02  0.22896737993E+03  0.30577906770E+03  0.17200000000E+03 0.  1.
         -6    1    1    2    0  502 -0.10591090685E+03  0.16542580890E+02 -0.23840580461E+03  0.31290909997E+03  0.17200000000E+03 0. -1.
</event>
<event>
 4    1  0.1222208E+000  0.1734022E+03  0.7818608E-02  0.1174346E+00
         21   -1    0    0  501  502  0.00000000000E+00  0.00000000000E+00  0.36182821406E+02  0.36182821406E+02  0.00000000000E+00 0. -1.
         21   -1    0    0  502  503 -0.00000000000E+00 -0.00000000000E+00 -0.95294271984E+03  0.95294271984E+03  0.00000000000E+00 0. -1.
          6    1    1    2  501    0  0.17243211290E+02 -0.13674168022E+02 -0.28147216908E+03  0.33059778156E+03  0.17200000000E+03 0. -1.
         -6    1    1    2    0  503 -0.17243211290E+02  0.13674168022E+02 -0.63528772936E+03  0.65852775969E+03  0.17200000000E+03 0. -1.
</event>
<event>
 4    1  0.1222208E+000  0.1817821E+03  0.7818608E-02  0.1166089E+00
         21   -1    0    0  501  502  0.00000000000E+00  0.00000000000E+00  0.21826425856E+03  0.21826425856E+03  0.00000000000E+00 0.  1.
         21   -1    0    0  502  503 -0.00000000000E+00 -0.00000000000E+00 -0.15149669597E+03  0.15149669597E+03  0.00000000000E+00 0.  1.
          6    1    1    2  501    0 -0.28788478411E+02  0.51302532383E+02  0.38107688467E+02  0.18573347097E+03  0.17200000000E+03 0. -1.
         -6    1    1    2    0  503  0.28788478411E+02 -0.51302532383E+02  0.28659874123E+02  0.18402748355E+03  0.17200000000E+03 0. -1.
</event>
<event>
 4    1  0.1222208E+000  0.1875826E+03  0.7818608E-02  0.1160660E+00
         21   -1    0    0  501  502  0.00000000000E+00  0.00000000000E+00  0.14873624532E+03  0.14873624532E+03  0.00000000000E+00 0. -1.
         21   -1    0    0  502  503 -0.00000000000E+00 -0.00000000000E+00 -0.24090762018E+03  0.24090762018E+03  0.00000000000E+00 0. -1.
          6    1    1    2  501    0  0.38950489867E+02  0.63922648021E+02 -0.19958145641E+02  0.18864138774E+03  0.17200000000E+03 0. -1.
         -6    1    1    2    0  503 -0.38950489867E+02 -0.63922648021E+02 -0.72213229222E+02  0.20100247776E+03  0.17200000000E+03 0. -1.
</event>
<event>
 4    1  0.1222208E+000  0.2998439E+03  0.7818608E-02  0.1085319E+00
         21   -1    0    0  501  502  0.00000000000E+00  0.00000000000E+00  0.68137217834E+02  0.68137217834E+02  0.00000000000E+00 0. -1.
         21   -1    0    0  502  503 -0.00000000000E+00 -0.00000000000E+00 -0.16075993551E+04  0.16075993551E+04  0.00000000000E+00 0.  1.
          6    1    1    2  501    0 -0.22971840510E+03 -0.86901354844E+02 -0.41502765253E+03  0.51201010095E+03  0.17200000000E+03 0.  1.
         -6    1    1    2    0  503  0.22971840510E+03  0.86901354844E+02 -0.11244344847E+04  0.11637264719E+04  0.17200000000E+03 0.  1.
</event>
<event>
 4    1  0.1222208E+000  0.1940960E+03  0.7818608E-02  0.1154818E+00
         21   -1    0    0  503  502  0.00000000000E+00  0.00000000000E+00  0.83592426515E+03  0.83592426515E+03  0.00000000000E+00 0. -1.
         21   -1    0    0  501  503 -0.00000000000E+00 -0.00000000000E+00 -0.19542099215E+03  0.19542099215E+03  0.00000000000E+00 0.  1.
          6    1    1    2  501    0  0.89181438325E+02  0.11658278912E+02 -0.13206737265E+03  0.23476591603E+03  0.17200000000E+03 0.  1.
         -6    1    1    2    0  502 -0.89181438325E+02 -0.11658278912E+02  0.77257064565E+03  0.79657934127E+03  0.17200000000E+03 0. -1.
</event>
<event>
 4    1  0.1222208E+000  0.1889173E+03  0.7818608E-02  0.1159441E+00
         21   -1    0    0  501  502  0.00000000000E+00  0.00000000000E+00  0.34463489295E+03  0.34463489295E+03  0.00000000000E+00 0. -1.
         21   -1    0    0  502  503 -0.00000000000E+00 -0.00000000000E+00 -0.13493519921E+03  0.13493519921E+03  0.00000000000E+00 0. -1.
          6    1    1    2  501    0 -0.51629975631E+02  0.58652451358E+02  0.22047844666E+03  0.29034550087E+03  0.17200000000E+03 0. -1.
         -6    1    1    2    0  503  0.51629975631E+02 -0.58652451358E+02 -0.10778752927E+02  0.18922459129E+03  0.17200000000E+03 0. -1.
</event>
<event>
 4    1  0.1222208E+000  0.2201774E+03  0.7818608E-02  0.1133751E+00
         21   -1    0    0  501  502  0.00000000000E+00  0.00000000000E+00  0.10176022289E+04  0.10176022289E+04  0.00000000000E+00 0. -1.
         21   -1    0    0  502  503 -0.00000000000E+00 -0.00000000000E+00 -0.49785917550E+02  0.49785917550E+02  0.00000000000E+00 0. -1.
          6    1    1    2  501    0 -0.56271662712E+02 -0.12540960020E+03  0.59472239889E+03  0.63417095454E+03  0.17200000000E+03 0. -1.
         -6    1    1    2    0  503  0.56271662712E+02  0.12540960020E+03  0.37309391246E+03  0.43321719191E+03  0.17200000000E+03 0. -1.
</event>
<event>
 4    1  0.1222208E+000  0.1730917E+03  0.7818608E-02  0.1174662E+00
         21   -1    0    0  501  502  0.00000000000E+00  0.00000000000E+00  0.19347745423E+02  0.19347745423E+02  0.00000000000E+00 0. -1.
         21   -1    0    0  502  503 -0.00000000000E+00 -0.00000000000E+00 -0.32005384573E+04  0.32005384573E+04  0.00000000000E+00 0. -1.
          6    1    1    2  501    0 -0.13139389311E+02 -0.14286050023E+02 -0.43393999018E+03  0.46718802409E+03  0.17200000000E+03 0. -1.
         -6    1    1    2    0  503  0.13139389311E+02  0.14286050023E+02 -0.27472507217E+04  0.27526981787E+04  0.17200000000E+03 0. -1.
</event>
<event>
 4    1  0.1222208E+000  0.2157773E+03  0.7818608E-02  0.1137071E+00
         21   -1    0    0  503  502  0.00000000000E+00  0.00000000000E+00  0.26572942958E+03  0.26572942958E+03  0.00000000000E+00 0.  1.
         21   -1    0    0  501  503 -0.00000000000E+00 -0.00000000000E+00 -0.39779377816E+03  0.39779377816E+03  0.00000000000E+00 0.  1.
          6    1    1    2  501    0  0.60837066707E+02 -0.11521582900E+03 -0.31419618985E+03  0.38115493130E+03  0.17200000000E+03 0.  1.
         -6    1    1    2    0  502 -0.60837066707E+02  0.11521582900E+03  0.18213184127E+03  0.28236827645E+03  0.17200000000E+03 0.  1.
</event>
<event>
 4    1  0.1222208E+000  0.1827654E+03  0.7818608E-02  0.1165153E+00
         21   -1    0    0  501  502  0.00000000000E+00  0.00000000000E+00  0.68630382387E+02  0.68630382387E+02  0.00000000000E+00 0.  1.
         21   -1    0    0  502  503 -0.00000000000E+00 -0.00000000000E+00 -0.54912994346E+03  0.54912994346E+03  0.00000000000E+00 0.  1.
          6    1    1    2  501    0  0.61269226875E+02  0.80784534220E+01 -0.13611165103E+03  0.22788058522E+03  0.17200000000E+03 0.  1.
         -6    1    1    2    0  503 -0.61269226875E+02 -0.80784534220E+01 -0.34438791004E+03  0.38987974063E+03  0.17200000000E+03 0.  1.
</event>
<event>
 4    1  0.1222208E+000  0.1816396E+03  0.7818608E-02  0.1166226E+00
         21   -1    0    0  503  502  0.00000000000E+00  0.00000000000E+00  0.21612679970E+03  0.21612679970E+03  0.00000000000E+00 0.  1.
         21   -1    0    0  501  503 -0.00000000000E+00 -0.00000000000E+00 -0.17130951561E+03  0.17130951561E+03  0.00000000000E+00 0.  1.
          6    1    1    2  501    0  0.58386122712E+02  0.12352665725E-02 -0.41515666980E+02  0.18632361614E+03  0.17200000000E+03 0.  1.
         -6    1    1    2    0  502 -0.58386122712E+02 -0.12352665725E-02  0.86332951068E+02  0.20111269917E+03  0.17200000000E+03 0.  1.
</event>
<event>
 4    1  0.1222208E+000  0.1721731E+03  0.7818608E-02  0.1175600E+00
         21   -1    0    0  503  502  0.00000000000E+00  0.00000000000E+00  0.66033773070E+03  0.66033773070E+03  0.00000000000E+00 0. -1.
         21   -1    0    0  501  503 -0.00000000000E+00 -0.00000000000E+00 -0.11132797739E+03  0.11132797739E+03  0.00000000000E+00 0. -1.
          6    1    1    2  501    0  0.53659879748E+01  0.55485747784E+01 -0.23552723067E+02  0.17377661314E+03  0.17200000000E+03 0.  1.
         -6    1    1    2    0  502 -0.53659879748E+01 -0.55485747784E+01  0.57256247638E+03  0.59788909495E+03  0.17200000000E+03 0.  1.
</event>
<event>
 4    1  0.1222208E+000  0.1790884E+03  0.7818608E-02  0.1168688E+00
         21   -1    0    0  501  502  0.00000000000E+00  0.00000000000E+00  0.89677440228E+02  0.89677440228E+02  0.00000000000E+00 0.  1.
         21   -1    0    0  502  503 -0.00000000000E+00 -0.00000000000E+00 -0.39925784043E+03  0.39925784043E+03  0.00000000000E+00 0.  1.
          6    1    1    2  501    0 -0.38461881941E+02  0.31770338936E+02 -0.75866153953E+02  0.19449510049E+03  0.17200000000E+03 0. -1.
         -6    1    1    2    0  503  0.38461881941E+02 -0.31770338936E+02 -0.23371424625E+03  0.29444018017E+03  0.17200000000E+03 0. -1.
</event>
<event>
 4    1  0.1222208E+000  0.2175006E+03  0.7818608E-02  0.1135760E+00
         21   -1    0    0  503  502  0.00000000000E+00  0.00000000000E+00  0.23660309073E+04  0.23660309073E+04  0.00000000000E+00 0.  1.
         21   -1    0    0  501  503 -0.00000000000E+00 -0.00000000000E+00 -0.20947429499E+02  0.20947429499E+02  0.00000000000E+00 0. -1.
          6    1    1    2  501    0  0.11430629318E+02  0.13263434767E+03  0.91792493836E+03  0.94334125423E+03  0.17200000000E+03 0. -1.
         -6    1    1    2    0  502 -0.11430629318E+02 -0.13263434767E+03  0.14271585394E+04  0.14436370826E+04  0.17200000000E+03 0. -1.
</event>
<event>
 4    1  0.1222208E+000  0.1871549E+03  0.7818608E-02  0.1161053E+00
         21   -1    0    0  503  502  0.00000000000E+00  0.00000000000E+00  0.95087543198E+02  0.95087543198E+02  0.00000000000E+00 0. -1.
         21   -1    0    0  501  503 -0.00000000000E+00 -0.00000000000E+00 -0.48049752259E+03  0.48049752259E+03  0.00000000000E+00 0. -1.
          6    1    1    2  501    0 -0.62882810735E+02 -0.38583551509E+02 -0.33173207757E+03  0.38088464083E+03  0.17200000000E+03 0. -1.
         -6    1    1    2    0  502  0.62882810735E+02  0.38583551509E+02 -0.53677901819E+02  0.19470042495E+03  0.17200000000E+03 0. -1.
</event>
<event>
 4    1  0.1222208E+000  0.1985556E+03  0.7818608E-02  0.1150963E+00
         21   -1    0    0  503  502  0.00000000000E+00  0.00000000000E+00  0.26563652257E+03  0.26563652257E+03  0.00000000000E+00 0. -1.
         21   -1    0    0  501  503 -0.00000000000E+00 -0.00000000000E+00 -0.15244895869E+03  0.15244895869E+03  0.00000000000E+00 0. -1.
          6    1    1    2  501    0  0.83377122103E+02  0.53745576589E+02  0.90600246313E+02  0.21824925229E+03  0.17200000000E+03 0. -1.
         -6    1    1    2    0  502 -0.83377122103E+02 -0.53745576589E+02  0.22587317568E+02  0.19983622897E+03  0.17200000000E+03 0. -1.
</event>
<event>
 4    1  0.1222208E+000  0.2025257E+03  0.7818608E-02  0.1147625E+00
         21   -1    0    0  503  502  0.00000000000E+00  0.00000000000E+00  0.99080459649E+02  0.99080459649E+02  0.00000000000E+00 0. -1.
         21   -1    0    0  501  503 -0.00000000000E+00 -0.00000000000E+00 -0.77530608476E+03  0.77530608476E+03  0.00000000000E+00 0.  1.
          6    1    1    2  501    0 -0.97291236042E+02 -0.44351488509E+02 -0.63657595957E+03  0.66801616106E+03  0.17200000000E+03 0.  1.
         -6    1    1    2    0  502  0.97291236042E+02  0.44351488509E+02 -0.39649665542E+02  0.20637038334E+03  0.17200000000E+03 0. -1.
</event>
<event>
 4    1  0.1222208E+000  0.2212091E+03  0.7818608E-02  0.1132985E+00
         21   -1    0    0  503  502  0.00000000000E+00  0.00000000000E+00  0.12040586097E+03  0.12040586097E+03  0.00000000000E+00 0. -1.
         21   -1    0    0  501  503 -0.00000000000E+00 -0.00000000000E+00 -0.43285321308E+03  0.43285321308E+03  0.00000000000E+00 0.  1.
          6    1    1    2  501    0  0.77136830405E+02  0.11575564368E+03 -0.22460415548E+03  0.31524670705E+03  0.17200000000E+03 0.  1.
         -6    1    1    2    0  502 -0.77136830405E+02 -0.11575564368E+03 -0.87843196637E+02  0.23801236700E+03  0.17200000000E+03 0.  1.
</event>
<event>
 4    1  0.1222208E+000  0.2373300E+03  0.7818608E-02  0.1121584E+00
         21   -1    0    0  503  502  0.00000000000E+00  0.00000000000E+00  0.13227894918E+03  0.13227894918E+03  0.00000000000E+00 0.  1.
         21   -1    0    0  501  503 -0.00000000000E+00 -0.00000000000E+00 -0.50918430774E+03  0.50918430774E+03  0.00000000000E+00 0. -1.
          6    1    1    2  501    0 -0.26044662038E+01 -0.16350768372E+03 -0.31823735792E+03  0.39698937247E+03  0.17200000000E+03 0. -1.
         -6    1    1    2    0  502  0.26044662038E+01  0.16350768372E+03 -0.58668000646E+02  0.24447388445E+03  0.17200000000E+03 0.  1.
</event>
<event>
 4    1  0.1222208E+000  0.1880843E+03  0.7818608E-02  0.1160201E+00
         21   -1    0    0  501  502  0.00000000000E+00  0.00000000000E+00  0.51604314844E+02  0.51604314844E+02  0.00000000000E+00 0. -1.
         21   -1    0    0  502  503 -0.00000000000E+00 -0.00000000000E+00 -0.72963578405E+03  0.72963578405E+03  0.00000000000E+00 0.  1.
          6    1    1    2  501    0  0.56859886847E+02  0.50583066089E+02 -0.43506801575E+03  0.47398298665E+03  0.17200000000E+03 0.  1.
         -6    1    1    2    0  503 -0.56859886847E+02 -0.50583066089E+02 -0.24296345346E+03  0.30725711224E+03  0.17200000000E+03 0. -1.
</event>
<event>
 4    1  0.1222208E+000  0.1762146E+03  0.7818608E-02  0.1171518E+00
         21   -1    0    0  501  502  0.00000000000E+00  0.00000000000E+00  0.21398184432E+03  0.21398184432E+03  0.00000000000E+00 0. -1.
         21   -1    0    0  502  503 -0.00000000000E+00 -0.00000000000E+00 -0.16316249973E+03  0.16316249973E+03  0.00000000000E+00 0. -1.
          6    1    1    2  501    0  0.11013906022E+02 -0.36691648277E+02  0.88128509777E+02  0.19702339306E+03  0.17200000000E+03 0. -1.
         -6    1    1    2    0  503 -0.11013906022E+02  0.36691648277E+02 -0.37309165184E+02  0.18012095099E+03  0.17200000000E+03 0. -1.
</event>
<event>
 4    1  0.1222208E+000  0.2080543E+03  0.7818608E-02  0.1143116E+00
         21   -1    0    0  503  502  0.00000000000E+00  0.00000000000E+00  0.41888463609E+03  0.41888463609E+03  0.00000000000E+00 0. -1.
         21   -1    0    0  501  503 -0.00000000000E+00 -0.00000000000E+00 -0.12290098597E+03  0.12290098597E+03  0.00000000000E+00 0. -1.
          6    1    1    2  501    0  0.56613647730E+02  0.10245714472E+03  0.39912957866E+02  0.21184809609E+03  0.17200000000E+03 0. -1.
         -6    1    1    2    0  502 -0.56613647730E+02 -0.10245714472E+03  0.25607069225E+03  0.32993752597E+03  0.17200000000E+03 0. -1.
</event>
<event>
 4    1  0.1222208E+000  0.1878271E+03  0.7818608E-02  0.1160436E+00
         21   -1    0    0  503  502  0.00000000000E+00  0.00000000000E+00  0.73781311083E+02  0.73781311083E+02  0.00000000000E+00 0.  1.
         21   -1    0    0  501  503 -0.00000000000E+00 -0.00000000000E+00 -0.10963917212E+04  0.10963917212E+04  0.00000000000E+00 0.  1.
          6    1    1    2  501    0 -0.42287030889E+02  0.62504528747E+02 -0.95065872313E+03  0.96903612779E+03  0.17200000000E+03 0.  1.
         -6    1    1    2    0  502  0.42287030889E+02 -0.62504528747E+02 -0.71951687009E+02  0.20113690452E+03  0.17200000000E+03 0.  1.
</event>
<event>
 4    1  0.1222208E+000  0.1730291E+03  0.7818608E-02  0.1174725E+00
         21   -1    0    0  503  502  0.00000000000E+00  0.00000000000E+00  0.15122115492E+03  0.15122115492E+03  0.00000000000E+00 0.  1.
         21   -1    0    0  501  503 -0.00000000000E+00 -0.00000000000E+00 -0.19805303549E+03  0.19805303549E+03  0.00000000000E+00 0.  1.
          6    1    1    2  501    0  0.14275988452E+02 -0.12298644422E+02 -0.20107612187E+02  0.17419350323E+03  0.17200000000E+03 0.  1.
         -6    1    1    2    0  502 -0.14275988452E+02  0.12298644422E+02 -0.26724268386E+02  0.17508068718E+03  0.17200000000E+03 0.  1.
</event>
<event>
 4    1  0.1222208E+000  0.1829677E+03  0.7818608E-02  0.1164961E+00
         21   -1    0    0  503  502  0.00000000000E+00  0.00000000000E+00  0.23758357929E+03  0.23758357929E+03  0.00000000000E+00 0.  1.
         21   -1    0    0  501  503 -0.00000000000E+00 -0.00000000000E+00 -0.23981272731E+03  0.23981272731E+03  0.00000000000E+00 0.  1.
          6    1    1    2  501    0  0.46094275165E+02 -0.42053374866E+02 -0.15440811570E+03  0.23941394014E+03  0.17200000000E+03 0.  1.
         -6    1    1    2    0  502 -0.46094275165E+02  0.42053374866E+02  0.15217896768E+03  0.23798236646E+03  0.17200000000E+03 0.  1.
</event>
<event>
 4    1  0.1222208E+000  0.1735535E+03  0.7818608E-02  0.1174192E+00
         21   -1    0    0  501  502  0.00000000000E+00  0.00000000000E+00  0.33559817728E+03  0.33559817728E+03  0.00000000000E+00 0. -1.
         21   -1    0    0  502  503 -0.00000000000E+00 -0.00000000000E+00 -0.91881478438E+02  0.91881478438E+02  0.00000000000E+00 0. -1.
          6    1    1    2  501    0  0.33537184984E+01  0.22925495720E+02  0.15439267350E+03  0.23228844873E+03  0.17200000000E+03 0. -1.
         -6    1    1    2    0  503 -0.33537184984E+01 -0.22925495720E+02  0.89324025337E+02  0.19519120698E+03  0.17200000000E+03 0. -1.
</event>
<event>
 4    1  0.1222208E+000  0.1763756E+03  0.7818608E-02  0.1171358E+00
         21   -1    0    0  503  502  0.00000000000E+00  0.00000000000E+00  0.22374013881E+03  0.22374013881E+03  0.00000000000E+00 0. -1.
         21   -1    0    0  501  503 -0.00000000000E+00 -0.00000000000E+00 -0.17750040895E+03  0.17750040895E+03  0.00000000000E+00 0.  1.
          6    1    1    2  501    0 -0.38773017666E+02  0.45819061938E+01 -0.70268851520E+02  0.18985797918E+03  0.17200000000E+03 0. -1.
         -6    1    1    2    0  502  0.38773017666E+02 -0.45819061938E+01  0.11650858138E+03  0.21138256858E+03  0.17200000000E+03 0. -1.
</event>
<event>
 4    1  0.1222208E+000  0.1806845E+03  0.7818608E-02  0.1167142E+00
         21   -1    0    0  501  502  0.00000000000E+00  0.00000000000E+00  0.20317474951E+03  0.20317474951E+03  0.00000000000E+00 0.  1.
         21   -1    0    0  502  503 -0.00000000000E+00 -0.00000000000E+00 -0.16460474991E+03  0.16460474991E+03  0.00000000000E+00 0.  1.
          6    1    1    2  501    0  0.49430769449E+02  0.24889283649E+02 -0.90965195846E+01  0.18091330542E+03  0.17200000000E+03 0. -1.
         -6    1    1    2    0  503 -0.49430769449E+02 -0.24889283649E+02  0.47666519185E+02  0.18686619400E+03  0.17200000000E+03 0. -1.
</event>
<event>
 4    1  0.1222208E+000  0.3676723E+03  0.7818608E-02  0.1055587E+00
         21   -1    0    0  501  502  0.00000000000E+00  0.00000000000E+00  0.69328960040E+03  0.69328960040E+03  0.00000000000E+00 0. -1.
         21   -1    0    0  502  503 -0.00000000000E+00 -0.00000000000E+00 -0.26127824844E+03  0.26127824844E+03  0.00000000000E+00 0.  1.
          6    1    1    2  501    0 -0.31184458470E+03  0.91388675170E+02  0.45641484685E+03  0.58608655281E+03  0.17200000000E+03 0. -1.
         -6    1    1    2    0  503  0.31184458470E+03 -0.91388675170E+02 -0.24403494899E+02  0.36848129603E+03  0.17200000000E+03 0.  1.
</event>
<event>
 4    1  0.1222208E+000  0.2690756E+03  0.7818608E-02  0.1101810E+00
         21   -1    0    0  501  502  0.00000000000E+00  0.00000000000E+00  0.17070496999E+03  0.17070496999E+03  0.00000000000E+00 0.  1.
         21   -1    0    0  502  503 -0.00000000000E+00 -0.00000000000E+00 -0.56124293356E+03  0.56124293356E+03  0.00000000000E+00 0. -1.
          6    1    1    2  501    0 -0.26637613405E+02  0.20520257510E+03 -0.14381403183E+02  0.26945961485E+03  0.17200000000E+03 0. -1.
         -6    1    1    2    0  503  0.26637613405E+02 -0.20520257510E+03 -0.37615656038E+03  0.46248828871E+03  0.17200000000E+03 0. -1.
</event>
<event>
 4    1  0.1222208E+000  0.2557723E+03  0.7818608E-02  0.1109710E+00
         21   -1    0    0  503  502  0.00000000000E+00  0.00000000000E+00  0.32660165742E+03  0.32660165742E+03  0.00000000000E+00 0.  1.
         21   -1    0    0  501  503 -0.00000000000E+00 -0.00000000000E+00 -0.20103734447E+03  0.20103734447E+03  0.00000000000E+00 0. -1.
          6    1    1    2  501    0 -0.14256212591E+03 -0.12454522911E+03  0.46843432579E+02  0.26002650060E+03  0.17200000000E+03 0. -1.
         -6    1    1    2    0  502  0.14256212591E+03  0.12454522911E+03  0.78720880372E+02  0.26761250129E+03  0.17200000000E+03 0. -1.
</event>
<event>
 4    1  0.1222208E+000  0.2178143E+03  0.7818608E-02  0.1135523E+00
         21   -1    0    0  503  502  0.00000000000E+00  0.00000000000E+00  0.46115257646E+03  0.46115257646E+03  0.00000000000E+00 0. -1.
         21   -1    0    0  501  503 -0.00000000000E+00 -0.00000000000E+00 -0.10296160610E+03  0.10296160610E+03  0.00000000000E+00 0.  1.
          6    1    1    2  501    0  0.13257017031E+03 -0.16858489889E+02  0.18706973365E+03  0.28712043464E+03  0.17200000000E+03 0.  1.
         -6    1    1    2    0  502 -0.13257017031E+03  0.16858489889E+02  0.17112123671E+03  0.27699374793E+03  0.17200000000E+03 0. -1.
</event>
<event>
 4    1  0.1222208E+000  0.2019517E+03  0.7818608E-02  0.1148103E+00
         21   -1    0    0  501  502  0.00000000000E+00  0.00000000000E+00  0.13363158955E+04  0.13363158955E+04  0.00000000000E+00 0.  1.
         21   -1    0    0  502  503 -0.00000000000E+00 -0.00000000000E+00 -0.10476085272E+03  0.10476085272E+03  0.00000000000E+00 0. -1.
          6    1    1    2  501    0 -0.64383191673E+02 -0.83995718820E+02  0.12223445881E+04  0.12389151578E+04  0.17200000000E+03 0.  1.
         -6    1    1    2    0  503  0.64383191673E+02  0.83995718820E+02  0.92104546389E+01  0.20216159038E+03  0.17200000000E+03 0. -1.
</event>
<event>
 4    1  0.1222208E+000  0.2945926E+03  0.7818608E-02  0.1087975E+00
         21   -1    0    0  501  502  0.00000000000E+00  0.00000000000E+00  0.41404799790E+03  0.41404799790E+03  0.00000000000E+00 0. -1.
         21   -1    0    0  502  503 -0.00000000000E+00 -0.00000000000E+00 -0.29592097914E+03  0.29592097914E+03  0.00000000000E+00 0. -1.
          6    1    1    2  501    0  0.23627038390E+03 -0.37109662199E+02  0.25078795232E+03  0.38688424414E+03  0.17200000000E+03 0. -1.
         -6    1    1    2    0  503 -0.23627038390E+03  0.37109662199E+02 -0.13266093356E+03  0.32308473290E+03  0.17200000000E+03 0. -1.
</event>
<event>
 4    1  0.1222208E+000  0.1725810E+03  0.7818608E-02  0.1175183E+00
         21   -1    0    0  503  502  0.00000000000E+00  0.00000000000E+00  0.24449400232E+03  0.24449400232E+03  0.00000000000E+00 0. -1.
         21   -1    0    0  501  503 -0.00000000000E+00 -0.00000000000E+00 -0.27815064951E+03  0.27815064951E+03  0.00000000000E+00 0. -1.
          6    1    1    2  501    0 -0.14078808653E+02 -0.14145585502E+01 -0.21273931421E+03  0.27393836832E+03  0.17200000000E+03 0. -1.
         -6    1    1    2    0  502  0.14078808653E+02  0.14145585502E+01  0.17908266702E+03  0.24870628351E+03  0.17200000000E+03 0. -1.
</event>
<event>
 4    1  0.1222208E+000  0.1972063E+03  0.7818608E-02  0.1152118E+00
         21   -1    0    0  503  502  0.00000000000E+00  0.00000000000E+00  0.13923224103E+03  0.13923224103E+03  0.00000000000E+00 0. -1.
         21   -1    0    0  501  503 -0.00000000000E+00 -0.00000000000E+00 -0.29550429478E+03  0.29550429478E+03  0.00000000000E+00 0. -1.
          6    1    1    2  501    0  0.89153298905E+02  0.36851357537E+02 -0.12900614048E+03  0.23565423302E+03  0.17200000000E+03 0. -1.
         -6    1    1    2    0  502 -0.89153298905E+02 -0.36851357537E+02 -0.27265913268E+02  0.19908230279E+03  0.17200000000E+03 0. -1.
</event>
<event>
 4    1  0.1222208E+000  0.1909579E+03  0.7818608E-02  0.1157600E+00
         21   -1    0    0  501  502  0.00000000000E+00  0.00000000000E+00  0.66477925092E+03  0.66477925092E+03  0.00000000000E+00 0. -1.
         21   -1    0    0  502  503 -0.00000000000E+00 -0.00000000000E+00 -0.69397334471E+02  0.69397334471E+02  0.00000000000E+00 0. -1.
          6    1    1    2  501    0 -0.51896660025E+02  0.64712114065E+02  0.46574574974E+03  0.50337264966E+03  0.17200000000E+03 0. -1.
         -6    1    1    2    0  503  0.51896660025E+02 -0.64712114065E+02  0.12963616671E+03  0.23080393573E+03  0.17200000000E+03 0. -1.
</event>
<event>
 4    1  0.1222208E+000  0.2278122E+03  0.7818608E-02  0.1128189E+00
         21   -1    0    0  503  502  0.00000000000E+00  0.00000000000E+00  0.55538835858E+02  0.55538835858E+02  0.00000000000E+00 0. -1.
         21   -1    0    0  501  503 -0.00000000000E+00 -0.00000000000E+00 -0.10435455523E+04  0.10435455523E+04  0.00000000000E+00 0. -1.
          6    1    1    2  501    0  0.45633133678E+02  0.14223936843E+03 -0.31632142047E+03  0.38981747250E+03  0.17200000000E+03 0.  1.
         -6    1    1    2    0  502 -0.45633133678E+02 -0.14223936843E+03 -0.67168529600E+03  0.70926691568E+03  0.17200000000E+03 0.  1.
</event>
<event>
 4    1  0.1222208E+000  0.2277259E+03  0.7818608E-02  0.1128251E+00
         21   -1    0    0  501  502  0.00000000000E+00  0.00000000000E+00  0.43069140577E+02  0.43069140577E+02  0.00000000000E+00 0.  1.
         21   -1    0    0  502  503 -0.00000000000E+00 -0.00000000000E+00 -0.12103904002E+04  0.12103904002E+04  0.00000000000E+00 0.  1.
          6    1    1    2  501    0  0.51414524965E+02  0.14011292676E+03 -0.62888060791E+03  0.66884221206E+03  0.17200000000E+03 0.  1.
         -6    1    1    2    0  503 -0.51414524965E+02 -0.14011292676E+03 -0.53844065168E+03  0.58461732868E+03  0.17200000000E+03 0.  1.
</event>
<event>
 4    1  0.1222208E+000  0.1901931E+03  0.7818608E-02  0.1158287E+00
         21   -1    0    0  501  502  0.00000000000E+00  0.00000000000E+00  0.18032557950E+03  0.18032557950E+03  0.00000000000E+00 0. -1.
         21   -1    0    0  502  503 -0.00000000000E+00 -0.00000000000E+00 -0.20728216519E+03  0.20728216519E+03  0.00000000000E+00 0. -1.
          6    1    1    2  501    0 -0.40430199931E+00 -0.81174266126E+02  0.21316927907E+02  0.19138400235E+03  0.17200000000E+03 0. -1.
         -6    1    1    2    0  503  0.40430199931E+00  0.81174266126E+02 -0.48273513596E+02  0.19622374234E+03  0.17200000000E+03 0. -1.
</event>
<event>
 4    1  0.1222208E+000  0.4266245E+03  0.7818608E-02  0.1034932E+00
         21   -1    0    0  501  502  0.00000000000E+00  0.00000000000E+00  0.46035016467E+03  0.46035016467E+03  0.00000000000E+00 0.  1.
         21   -1    0    0  502  503 -0.00000000000E+00 -0.00000000000E+00 -0.42650908693E+03  0.42650908693E+03  0.00000000000E+00 0. -1.
          6    1    1    2  501    0 -0.11740760636E+03 -0.37234381735E+03  0.13673692835E+03  0.44800162045E+03  0.17200000000E+03 0.  1.
         -6    1    1    2    0  503  0.11740760636E+03  0.37234381735E+03 -0.10289585061E+03  0.43885763115E+03  0.17200000000E+03 0. -1.
</event>
<event>
 4    1  0.1222208E+000  0.1778952E+03  0.7818608E-02  0.1169856E+00
         21   -1    0    0  503  502  0.00000000000E+00  0.00000000000E+00  0.91617011697E+03  0.91617011697E+03  0.00000000000E+00 0.  1.
         21   -1    0    0  501  503 -0.00000000000E+00 -0.00000000000E+00 -0.63356804314E+02  0.63356804314E+02  0.00000000000E+00 0.  1.
          6    1    1    2  501    0 -0.25280715978E+02  0.37730616749E+02  0.96117301199E+02  0.20220101293E+03  0.17200000000E+03 0.  1.
         -6    1    1    2    0  502  0.25280715978E+02 -0.37730616749E+02  0.75669601146E+03  0.77732590835E+03  0.17200000000E+03 0.  1.
</event>
<event>
 4    1  0.1222208E+000  0.1956009E+03  0.7818608E-02  0.1153504E+00
         21   -1    0    0  501  502  0.00000000000E+00  0.00000000000E+00  0.44823276692E+03  0.44823276692E+03  0.00000000000E+00 0.  1.
         21   -1    0    0  502  503 -0.00000000000E+00 -0.00000000000E+00 -0.12725278573E+03  0.12725278573E+03  0.00000000000E+00 0.  1.
          6    1    1    2  501    0 -0.67745558101E+02 -0.63923878125E+02  0.32559372335E+03  0.37983021934E+03  0.17200000000E+03 0.  1.
         -6    1    1    2    0  503  0.67745558101E+02  0.63923878125E+02 -0.46137421670E+01  0.19565533331E+03  0.17200000000E+03 0.  1.
</event>
<event>
 4    1  0.1222208E+000  0.1833506E+03  0.7818608E-02  0.1164599E+00
         21   -1    0    0  503  502  0.00000000000E+00  0.00000000000E+00  0.35293754900E+03  0.35293754900E+03  0.00000000000E+00 0.  1.
         21   -1    0    0  501  503 -0.00000000000E+00 -0.00000000000E+00 -0.10338510360E+03  0.10338510360E+03  0.00000000000E+00 0.  1.
          6    1    1    2  501    0  0.60775794652E+02  0.18431986283E+02  0.60775559501E+02  0.19316082410E+03  0.17200000000E+03 0.  1.
         -6    1    1    2    0  502 -0.60775794652E+02 -0.18431986283E+02  0.18877688590E+03  0.26316182851E+03  0.17200000000E+03 0.  1.
</event>
<event>
 4    1  0.1222208E+000  0.2072280E+03  0.7818608E-02  0.1143780E+00
         21   -1    0    0  501  502  0.00000000000E+00  0.00000000000E+00  0.20817024462E+03  0.20817024462E+03  0.00000000000E+00 0. -1.
         21   -1    0    0  502  503 -0.00000000000E+00 -0.00000000000E+00 -0.27016485968E+03  0.27016485968E+03  0.00000000000E+00 0. -1.
          6    1    1    2  501    0  0.90139282413E+02 -0.72348738382E+02  0.85295529307E+02  0.22409542052E+03  0.17200000000E+03 0. -1.
         -6    1    1    2    0  503 -0.90139282413E+02  0.72348738382E+02 -0.14729014437E+03  0.25423968378E+03  0.17200000000E+03 0. -1.
</event>
<event>
 4    1  0.1222208E+000  0.1746496E+03  0.7818608E-02  0.1173084E+00
         21   -1    0    0  501  502  0.00000000000E+00  0.00000000000E+00  0.35688044146E+03  0.35688044146E+03  0.00000000000E+00 0.  1.
         21   -1    0    0  502  503 -0.00000000000E+00 -0.00000000000E+00 -0.87787050592E+02  0.87787050592E+02  0.00000000000E+00 0.  1.
          6    1    1    2  501    0  0.10433448219E+02  0.28453956227E+02  0.17066943867E+03  0.24419365627E+03  0.17200000000E+03 0.  1.
         -6    1    1    2    0  503 -0.10433448219E+02 -0.28453956227E+02  0.98423952200E+02  0.20047383578E+03  0.17200000000E+03 0.  1.
</event>
<event>
 4    1  0.1222208E+000  0.2032241E+03  0.7818608E-02  0.1147047E+00
         21   -1    0    0  501  502  0.00000000000E+00  0.00000000000E+00  0.23693474721E+02  0.23693474721E+02  0.00000000000E+00 0.  1.
         21   -1    0    0  502  503 -0.00000000000E+00 -0.00000000000E+00 -0.17632929226E+04  0.17632929226E+04  0.00000000000E+00 0.  1.
          6    1    1    2  501    0  0.51593039863E+02  0.95153563127E+02 -0.77417881530E+03  0.80040794623E+03  0.17200000000E+03 0.  1.
         -6    1    1    2    0  503 -0.51593039863E+02 -0.95153563127E+02 -0.96542063259E+03  0.98657845109E+03  0.17200000000E+03 0.  1.
</event>
<event>
 4    1  0.1222208E+000  0.1732117E+03  0.7818608E-02  0.1174539E+00
         21   -1    0    0  503  502  0.00000000000E+00  0.00000000000E+00  0.62243046622E+03  0.62243046622E+03  0.00000000000E+00 0. -1.
         21   -1    0    0  501  503 -0.00000000000E+00 -0.00000000000E+00 -0.11094321429E+03  0.11094321429E+03  0.00000000000E+00 0. -1.
          6    1    1    2  501    0 -0.15552557139E+02  0.13281501621E+02 -0.20010513361E+02  0.17436370311E+03  0.17200000000E+03 0. -1.
         -6    1    1    2    0  502  0.15552557139E+02 -0.13281501621E+02  0.53149776529E+03  0.55900997739E+03  0.17200000000E+03 0. -1.
</event>
<event>
 4    1  0.1222208E+000  0.2549810E+03  0.7818608E-02  0.1110197E+00
         21   -1    0    0  501  502  0.00000000000E+00  0.00000000000E+00  0.15287069938E+03  0.15287069938E+03  0.00000000000E+00 0.  1.
         21   -1    0    0  502  503 -0.00000000000E+00 -0.00000000000E+00 -0.57691888473E+03  0.57691888473E+03  0.00000000000E+00 0. -1.
          6    1    1    2  501    0 -0.12996459992E+03 -0.13616362911E+03 -0.24959175997E+02  0.25619971036E+03  0.17200000000E+03 0.  1.
         -6    1    1    2    0  503  0.12996459992E+03  0.13616362911E+03 -0.39908900935E+03  0.47358987374E+03  0.17200000000E+03 0. -1.
</event>
<event>
 4    1  0.1222208E+000  0.2054064E+03  0.7818608E-02  0.1145256E+00
         21   -1    0    0  501  502  0.00000000000E+00  0.00000000000E+00  0.93584216992E+02  0.93584216992E+02  0.00000000000E+00 0.  1.
         21   -1    0    0  502  503 -0.00000000000E+00 -0.00000000000E+00 -0.57956512587E+03  0.57956512587E+03  0.00000000000E+00 0. -1.
          6    1    1    2  501    0 -0.10973694406E+02  0.11174690090E+03 -0.84370850390E+02  0.22205907373E+03  0.17200000000E+03 0. -1.
         -6    1    1    2    0  503  0.10973694406E+02 -0.11174690090E+03 -0.40161005848E+03  0.45109026913E+03  0.17200000000E+03 0. -1.
</event>
<event>
 4    1  0.1222208E+000  0.2593983E+03  0.7818608E-02  0.1107505E+00
         21   -1    0    0  503  502  0.00000000000E+00  0.00000000000E+00  0.58337860922E+03  0.58337860922E+03  0.00000000000E+00 0.  1.
         21   -1    0    0  501  503 -0.00000000000E+00 -0.00000000000E+00 -0.12090110461E+03  0.12090110461E+03  0.00000000000E+00 0.  1.
          6    1    1    2  501    0  0.12194761299E+03  0.15110353301E+03  0.15572260922E+03  0.30255087014E+03  0.17200000000E+03 0.  1.
         -6    1    1    2    0  502 -0.12194761299E+03 -0.15110353301E+03  0.30675489539E+03  0.40172884369E+03  0.17200000000E+03 0.  1.
</event>
<event>
 4    1  0.1222208E+000  0.2122041E+03  0.7818608E-02  0.1139832E+00
         21   -1    0    0  501  502  0.00000000000E+00  0.00000000000E+00  0.45700570946E+03  0.45700570946E+03  0.00000000000E+00 0.  1.
         21   -1    0    0  502  503 -0.00000000000E+00 -0.00000000000E+00 -0.18139543064E+03  0.18139543064E+03  0.00000000000E+00 0.  1.
          6    1    1    2  501    0  0.98228274336E+02 -0.76143071742E+02  0.35354327734E+03  0.41233895063E+03  0.17200000000E+03 0.  1.
         -6    1    1    2    0  503 -0.98228274336E+02  0.76143071742E+02 -0.77932998521E+02  0.22606218948E+03  0.17200000000E+03 0.  1.
</event>
<event>
 4    1  0.1222208E+000  0.1837741E+03  0.7818608E-02  0.1164200E+00
         21   -1    0    0  501  502  0.00000000000E+00  0.00000000000E+00  0.67830953696E+03  0.67830953696E+03  0.00000000000E+00 0.  1.
         21   -1    0    0  502  503 -0.00000000000E+00 -0.00000000000E+00 -0.12618110091E+03  0.12618110091E+03  0.00000000000E+00 0.  1.
          6    1    1    2  501    0 -0.42657552136E+02  0.48675051019E+02  0.58904355415E+03  0.61704557047E+03  0.17200000000E+03 0.  1.
         -6    1    1    2    0  503  0.42657552136E+02 -0.48675051019E+02 -0.36915118106E+02  0.18744506740E+03  0.17200000000E+03 0.  1.
</event>
<event>
 4    1  0.1222208E+000  0.1759234E+03  0.7818608E-02  0.1171808E+00
         21   -1    0    0  501  502  0.00000000000E+00  0.00000000000E+00  0.38989934057E+03  0.38989934057E+03  0.00000000000E+00 0. -1.
         21   -1    0    0  502  503 -0.00000000000E+00 -0.00000000000E+00 -0.13740269992E+03  0.13740269992E+03  0.00000000000E+00 0. -1.
          6    1    1    2  501    0 -0.77477464847E+00 -0.36938494605E+02  0.29758166574E+03  0.34569336187E+03  0.17200000000E+03 0. -1.
         -6    1    1    2    0  503  0.77477464847E+00  0.36938494605E+02 -0.45085025086E+02  0.18160867861E+03  0.17200000000E+03 0. -1.
</event>
<event>
 4    1  0.1222208E+000  0.1782029E+03  0.7818608E-02  0.1169554E+00
         21   -1    0    0  501  502  0.00000000000E+00  0.00000000000E+00  0.45188712451E+03  0.45188712451E+03  0.00000000000E+00 0. -1.
         21   -1    0    0  502  503 -0.00000000000E+00 -0.00000000000E+00 -0.10441462474E+03  0.10441462474E+03  0.00000000000E+00 0.  1.
          6    1    1    2  501    0  0.35772529378E+01 -0.46470304258E+02  0.33278500940E+03  0.37749456738E+03  0.17200000000E+03 0. -1.
         -6    1    1    2    0  503 -0.35772529378E+01  0.46470304258E+02  0.14687490373E+02  0.17880718187E+03  0.17200000000E+03 0.  1.
</event>
<event>
 4    1  0.1222208E+000  0.1728084E+03  0.7818608E-02  0.1174950E+00
         21   -1    0    0  501  502  0.00000000000E+00  0.00000000000E+00  0.45578008085E+03  0.45578008085E+03  0.00000000000E+00 0.  1.
         21   -1    0    0  502  503 -0.00000000000E+00 -0.00000000000E+00 -0.71701543126E+02  0.71701543126E+02  0.00000000000E+00 0.  1.
          6    1    1    2  501    0 -0.16399386343E+02 -0.31289405942E+01  0.26947832595E+03  0.32012700339E+03  0.17200000000E+03 0.  1.
         -6    1    1    2    0  503  0.16399386343E+02  0.31289405942E+01  0.11460021178E+03  0.20735462060E+03  0.17200000000E+03 0.  1.
</event>
<event>
 4    1  0.1222208E+000  0.3431010E+03  0.7818608E-02  0.1065483E+00
         21   -1    0    0  503  502  0.00000000000E+00  0.00000000000E+00  0.24484627829E+03  0.24484627829E+03  0.00000000000E+00 0.  1.
         21   -1    0    0  501  503 -0.00000000000E+00 -0.00000000000E+00 -0.49856456059E+03  0.49856456059E+03  0.00000000000E+00 0. -1.
          6    1    1    2  501    0  0.23798521932E+03  0.17747479346E+03 -0.56664132216E+02  0.34774860288E+03  0.17200000000E+03 0.  1.
         -6    1    1    2    0  502 -0.23798521932E+03 -0.17747479346E+03 -0.19705415008E+03  0.39566223599E+03  0.17200000000E+03 0. -1.
</event>
<event>
 4    1  0.1222208E+000  0.2000574E+03  0.7818608E-02  0.1149691E+00
         21   -1    0    0  501  502  0.00000000000E+00  0.00000000000E+00  0.19006896835E+04  0.19006896835E+04  0.00000000000E+00 0.  1.
         21   -1    0    0  502  503 -0.00000000000E+00 -0.00000000000E+00 -0.32155548212E+02  0.32155548212E+02  0.00000000000E+00 0.  1.
          6    1    1    2  501    0  0.10215033033E+03 -0.20665476833E+01  0.15020349113E+04  0.15152992561E+04  0.17200000000E+03 0.  1.
         -6    1    1    2    0  503 -0.10215033033E+03  0.20665476833E+01  0.36649922392E+03  0.41754597560E+03  0.17200000000E+03 0.  1.
</event>
<event>
 4    1  0.1222208E+000  0.1894844E+03  0.7818608E-02  0.1158927E+00
         21   -1    0    0  501  502  0.00000000000E+00  0.00000000000E+00  0.13101789465E+03  0.13101789465E+03  0.00000000000E+00 0.  1.
         21   -1    0    0  502  503 -0.00000000000E+00 -0.00000000000E+00 -0.50875688479E+03  0.50875688479E+03  0.00000000000E+00 0. -1.
          6    1    1    2  501    0 -0.79399784001E+02 -0.39997123480E+01  0.28407060960E+02  0.19160189068E+03  0.17200000000E+03 0.  1.
         -6    1    1    2    0  503  0.79399784001E+02  0.39997123480E+01 -0.40614605110E+03  0.44817288876E+03  0.17200000000E+03 0. -1.
</event>
<event>
 4    1  0.1222208E+000  0.2522237E+03  0.7818608E-02  0.1111907E+00
         21   -1    0    0  503  502  0.00000000000E+00  0.00000000000E+00  0.12754872056E+03  0.12754872056E+03  0.00000000000E+00 0. -1.
         21   -1    0    0  501  503 -0.00000000000E+00 -0.00000000000E+00 -0.13663802870E+04  0.13663802870E+04  0.00000000000E+00 0.  1.
          6    1    1    2  501    0 -0.17133692995E+03 -0.68384737481E+02 -0.12146361880E+04  0.12405474135E+04  0.17200000000E+03 0.  1.
         -6    1    1    2    0  502  0.17133692995E+03  0.68384737481E+02 -0.24195378449E+02  0.25338159409E+03  0.17200000000E+03 0. -1.
</event>
<event>
 4    1  0.1222208E+000  0.1845320E+03  0.7818608E-02  0.1163488E+00
         21   -1    0    0  501  502  0.00000000000E+00  0.00000000000E+00  0.58405558074E+02  0.58405558074E+02  0.00000000000E+00 0. -1.
         21   -1    0    0  502  503 -0.00000000000E+00 -0.00000000000E+00 -0.59621598233E+03  0.59621598233E+03  0.00000000000E+00 0.  1.
          6    1    1    2  501    0  0.62308320628E+02  0.24201570334E+02 -0.22022449822E+03  0.28731667624E+03  0.17200000000E+03 0. -1.
         -6    1    1    2    0  503 -0.62308320628E+02 -0.24201570334E+02 -0.31758592603E+03  0.36730486416E+03  0.17200000000E+03 0.  1.
</event>
<event>
 4    1  0.1222208E+000  0.1736349E+03  0.7818608E-02  0.1174109E+00
         21   -1    0    0  501  502  0.00000000000E+00  0.00000000000E+00  0.43067395419E+02  0.43067395419E+02  0.00000000000E+00 0. -1.
         21   -1    0    0  502  503 -0.00000000000E+00 -0.00000000000E+00 -0.70288174849E+03  0.70288174849E+03  0.00000000000E+00 0. -1.
          6    1    1    2  501    0 -0.11248358799E+02 -0.20941799176E+02 -0.30620968633E+03  0.35201343231E+03  0.17200000000E+03 0.  1.
         -6    1    1    2    0  503  0.11248358799E+02  0.20941799176E+02 -0.35360466675E+03  0.39393571160E+03  0.17200000000E+03 0.  1.
</event>
<event>
 4    1  0.1222208E+000  0.2564250E+03  0.7818608E-02  0.1109310E+00
         21   -1    0    0  501  502  0.00000000000E+00  0.00000000000E+00  0.15076985381E+04  0.15076985381E+04  0.00000000000E+00 0.  1.
         21   -1    0    0  502  503 -0.00000000000E+00 -0.00000000000E+00 -0.70033229145E+02  0.70033229145E+02  0.00000000000E+00 0.  1.
          6    1    1    2  501    0  0.18750862209E+03 -0.31785512874E+02  0.12033700667E+04  0.12303874673E+04  0.17200000000E+03 0.  1.
         -6    1    1    2    0  503 -0.18750862209E+03  0.31785512874E+02  0.23429524228E+03  0.34734430000E+03  0.17200000000E+03 0.  1.
</event>
<event>
 4    1  0.1222208E+000  0.2118848E+03  0.7818608E-02  0.1140082E+00
         21   -1    0    0  501  502  0.00000000000E+00  0.00000000000E+00  0.32546279594E+02  0.32546279594E+02  0.00000000000E+00 0. -1.
         21   -1    0    0  502  503 -0.00000000000E+00 -0.00000000000E+00 -0.23406255470E+04  0.23406255470E+04  0.00000000000E+00 0. -1.
          6    1    1    2  501    0 -0.10182561473E+03  0.70304458537E+02 -0.39364319035E+03  0.44704600884E+03  0.17200000000E+03 0. -1.
         -6    1    1    2    0  503  0.10182561473E+03 -0.70304458537E+02 -0.19144360770E+04  0.19261258178E+04  0.17200000000E+03 0. -1.
</event>
<event>
 4    1  0.1222208E+000  0.2483597E+03  0.7818608E-02  0.1114346E+00
         21   -1    0    0  501  502  0.00000000000E+00  0.00000000000E+00  0.30655394777E+03  0.30655394777E+03  0.00000000000E+00 0. -1.
         21   -1    0    0  502  503 -0.00000000000E+00 -0.00000000000E+00 -0.29799463735E+03  0.29799463735E+03  0.00000000000E+00 0. -1.
          6    1    1    2  501    0 -0.31159235005E+02 -0.17643026916E+03  0.17654353168E+03  0.30471323631E+03  0.17200000000E+03 0. -1.
         -6    1    1    2    0  503  0.31159235005E+02  0.17643026916E+03 -0.16798422127E+03  0.29983534881E+03  0.17200000000E+03 0. -1.
</event>
<event>
 4    1  0.1222208E+000  0.2288007E+03  0.7818608E-02  0.1127487E+00
         21   -1    0    0  503  502  0.00000000000E+00  0.00000000000E+00  0.73335418837E+03  0.73335418837E+03  0.00000000000E+00 0. -1.
         21   -1    0    0  501  503 -0.00000000000E+00 -0.00000000000E+00 -0.37864656299E+03  0.37864656299E+03  0.00000000000E+00 0. -1.
          6    1    1    2  501    0 -0.92835171273E+02  0.11894282343E+03 -0.32350219953E+03  0.39623659267E+03  0.17200000000E+03 0. -1.
         -6    1    1    2    0  502  0.92835171273E+02 -0.11894282343E+03  0.67820982490E+03  0.71576415869E+03  0.17200000000E+03 0. -1.
</event>
<event>
 4    1  0.1222208E+000  0.2100440E+03  0.7818608E-02  0.1141531E+00
         21   -1    0    0  503  502  0.00000000000E+00  0.00000000000E+00  0.39437730642E+02  0.39437730642E+02  0.00000000000E+00 0.  1.
         21   -1    0    0  501  503 -0.00000000000E+00 -0.00000000000E+00 -0.19184928010E+04  0.19184928010E+04  0.00000000000E+00 0.  1.
          6    1    1    2  501    0  0.77155106691E+02  0.92636768694E+02 -0.15716182894E+04  0.15855921698E+04  0.17200000000E+03 0.  1.
         -6    1    1    2    0  502 -0.77155106691E+02 -0.92636768694E+02 -0.30743678096E+03  0.37233836183E+03  0.17200000000E+03 0.  1.
</event>
<event>
 4    1  0.1222208E+000  0.1890404E+03  0.7818608E-02  0.1159330E+00
         21   -1    0    0  501  502  0.00000000000E+00  0.00000000000E+00  0.11808465891E+04  0.11808465891E+04  0.00000000000E+00 0.  1.
         21   -1    0    0  502  503 -0.00000000000E+00 -0.00000000000E+00 -0.85648433990E+02  0.85648433990E+02  0.00000000000E+00 0.  1.
          6    1    1    2  501    0  0.89093852989E+01 -0.77928878661E+02  0.10568249660E+04  0.10735992250E+04  0.17200000000E+03 0.  1.
         -6    1    1    2    0  503 -0.89093852989E+01  0.77928878661E+02  0.38373189169E+02  0.19289579810E+03  0.17200000000E+03 0.  1.
</event>
<event>
 4    1  0.1222208E+000  0.1939955E+03  0.7818608E-02  0.1154906E+00
         21   -1    0    0  503  502  0.00000000000E+00  0.00000000000E+00  0.35076595802E+03  0.35076595802E+03  0.00000000000E+00 0. -1.
         21   -1    0    0  501  503 -0.00000000000E+00 -0.00000000000E+00 -0.10754217506E+03  0.10754217506E+03  0.00000000000E+00 0. -1.
          6    1    1    2  501    0  0.22130116561E+02 -0.86951131153E+02  0.11055059381E+03  0.22328384415E+03  0.17200000000E+03 0.  1.
         -6    1    1    2    0  502 -0.22130116561E+02  0.86951131153E+02  0.13267318915E+03  0.23502428893E+03  0.17200000000E+03 0.  1.
</event>
<event>
 4    1  0.1222208E+000  0.1823811E+03  0.7818608E-02  0.1165518E+00
         21   -1    0    0  501  502  0.00000000000E+00  0.00000000000E+00  0.15861858443E+04  0.15861858443E+04  0.00000000000E+00 0.  1.
         21   -1    0    0  502  503 -0.00000000000E+00 -0.00000000000E+00 -0.12376306575E+03  0.12376306575E+03  0.00000000000E+00 0.  1.
          6    1    1    2  501    0 -0.17704618523E+02 -0.58012213301E+02  0.15103931578E+04  0.15213646380E+04  0.17200000000E+03 0.  1.
         -6    1    1    2    0  503  0.17704618523E+02  0.58012213301E+02 -0.47970379240E+02  0.18858427213E+03  0.17200000000E+03 0.  1.
</event>
<event>
 4    1  0.1222208E+000  0.1866067E+03  0.7818608E-02  0.1161558E+00
         21   -1    0    0  501  502  0.00000000000E+00  0.00000000000E+00  0.28613439033E+03  0.28613439033E+03  0.00000000000E+00 0. -1.
         21   -1    0    0  502  503 -0.00000000000E+00 -0.00000000000E+00 -0.35004360186E+03  0.35004360186E+03  0.00000000000E+00 0. -1.
          6    1    1    2  501    0 -0.62523938437E+02 -0.36452745376E+02  0.22495698094E+03  0.29228015464E+03  0.17200000000E+03 0. -1.
         -6    1    1    2    0  503  0.62523938437E+02  0.36452745376E+02 -0.28886619247E+03  0.34389783755E+03  0.17200000000E+03 0. -1.
</event>
<event>
 4    1  0.1222208E+000  0.2492923E+03  0.7818608E-02  0.1113753E+00
         21   -1    0    0  501  502  0.00000000000E+00  0.00000000000E+00  0.85031338533E+03  0.85031338533E+03  0.00000000000E+00 0.  1.
         21   -1    0    0  502  503 -0.00000000000E+00 -0.00000000000E+00 -0.16025192133E+03  0.16025192133E+03  0.00000000000E+00 0.  1.
          6    1    1    2  501    0  0.90290147366E+02 -0.15623813851E+03  0.71768335946E+03  0.75974737320E+03  0.17200000000E+03 0.  1.
         -6    1    1    2    0  503 -0.90290147366E+02  0.15623813851E+03 -0.27621895462E+02  0.25081793346E+03  0.17200000000E+03 0.  1.
</event>
<event>
 4    1  0.1222208E+000  0.1913086E+03  0.7818608E-02  0.1157286E+00
         21   -1    0    0  503  502  0.00000000000E+00  0.00000000000E+00  0.21798240617E+03  0.21798240617E+03  0.00000000000E+00 0.  1.
         21   -1    0    0  501  503 -0.00000000000E+00 -0.00000000000E+00 -0.21830098834E+03  0.21830098834E+03  0.00000000000E+00 0.  1.
          6    1    1    2  501    0 -0.81893363980E+02  0.17562640090E+02 -0.10497728178E+03  0.21821823728E+03  0.17200000000E+03 0.  1.
         -6    1    1    2    0  502  0.81893363980E+02 -0.17562640090E+02  0.10465869961E+03  0.21806515723E+03  0.17200000000E+03 0.  1.
</event>
<event>
 4    1  0.1222208E+000  0.1942782E+03  0.7818608E-02  0.1154658E+00
         21   -1    0    0  501  502  0.00000000000E+00  0.00000000000E+00  0.22124058993E+03  0.22124058993E+03  0.00000000000E+00 0. -1.
         21   -1    0    0  502  503 -0.00000000000E+00 -0.00000000000E+00 -0.18093762579E+03  0.18093762579E+03  0.00000000000E+00 0. -1.
          6    1    1    2  501    0 -0.58504643787E+02 -0.68827629983E+02  0.68212984994E+02  0.20590543294E+03  0.17200000000E+03 0. -1.
         -6    1    1    2    0  503  0.58504643787E+02  0.68827629983E+02 -0.27910020856E+02  0.19627278277E+03  0.17200000000E+03 0. -1.
</event>
<event>
 4    1  0.1222208E+000  0.1810387E+03  0.7818608E-02  0.1166802E+00
         21   -1    0    0  503  502  0.00000000000E+00  0.00000000000E+00  0.12049655408E+03  0.12049655408E+03  0.00000000000E+00 0.  1.
         21   -1    0    0  501  503 -0.00000000000E+00 -0.00000000000E+00 -0.38675265283E+03  0.38675265283E+03  0.00000000000E+00 0.  1.
          6    1    1    2  501    0 -0.38384034669E+02 -0.41444673410E+02 -0.27128004404E+03  0.32614085510E+03  0.17200000000E+03 0.  1.
         -6    1    1    2    0  502  0.38384034669E+02  0.41444673410E+02  0.50239452870E+01  0.18110835182E+03  0.17200000000E+03 0.  1.
</event>
<event>
 4    1  0.1222208E+000  0.2543957E+03  0.7818608E-02  0.1110558E+00
         21   -1    0    0  501  502  0.00000000000E+00  0.00000000000E+00  0.62571899361E+02  0.62571899361E+02  0.00000000000E+00 0.  1.
         21   -1    0    0  502  503 -0.00000000000E+00 -0.00000000000E+00 -0.12212834729E+04  0.12212834729E+04  0.00000000000E+00 0. -1.
          6    1    1    2  501    0  0.18694299840E+03  0.13619082956E+02 -0.32816880032E+03  0.41522515046E+03  0.17200000000E+03 0.  1.
         -6    1    1    2    0  503 -0.18694299840E+03 -0.13619082956E+02 -0.83054277320E+03  0.86863022178E+03  0.17200000000E+03 0. -1.
</event>
<event>
 4    1  0.1222208E+000  0.1770755E+03  0.7818608E-02  0.1170664E+00
         21   -1    0    0  503  502  0.00000000000E+00  0.00000000000E+00  0.38348207745E+03  0.38348207745E+03  0.00000000000E+00 0. -1.
         21   -1    0    0  501  503 -0.00000000000E+00 -0.00000000000E+00 -0.88939547436E+02  0.88939547436E+02  0.00000000000E+00 0. -1.
          6    1    1    2  501    0  0.96440316519E+01  0.40972303340E+02  0.80186496534E+02  0.19438521347E+03  0.17200000000E+03 0.  1.
         -6    1    1    2    0  502 -0.96440316519E+01 -0.40972303340E+02  0.21435603348E+03  0.27803641143E+03  0.17200000000E+03 0.  1.
</event>
<event>
 4    1  0.1222208E+000  0.1812124E+03  0.7818608E-02  0.1166635E+00
         21   -1    0    0  501  502  0.00000000000E+00  0.00000000000E+00  0.12506735412E+04  0.12506735412E+04  0.00000000000E+00 0.  1.
         21   -1    0    0  502  503 -0.00000000000E+00 -0.00000000000E+00 -0.72787367773E+02  0.72787367773E+02  0.00000000000E+00 0.  1.
          6    1    1    2  501    0 -0.56744391916E+02 -0.58307490144E+01  0.11180277008E+04  0.11326181455E+04  0.17200000000E+03 0.  1.
         -6    1    1    2    0  503  0.56744391916E+02  0.58307490144E+01  0.59858472643E+02  0.19084276354E+03  0.17200000000E+03 0.  1.
</event>
<event>
 4    1  0.1222208E+000  0.3438191E+03  0.7818608E-02  0.1065181E+00
         21   -1    0    0  501  502  0.00000000000E+00  0.00000000000E+00  0.11281749206E+04  0.11281749206E+04  0.00000000000E+00 0.  1.
         21   -1    0    0  502  503 -0.00000000000E+00 -0.00000000000E+00 -0.28107010960E+03  0.28107010960E+03  0.00000000000E+00 0. -1.
          6    1    1    2  501    0 -0.20534306463E+03  0.21554999760E+03  0.98158764088E+03  0.10400605138E+04  0.17200000000E+03 0.  1.
         -6    1    1    2    0  503  0.20534306463E+03 -0.21554999760E+03 -0.13448282984E+03  0.36918451644E+03  0.17200000000E+03 0. -1.
</event>
<event>
 4    1  0.1222208E+000  0.1787281E+03  0.7818608E-02  0.1169040E+00
         21   -1    0    0  501  502  0.00000000000E+00  0.00000000000E+00  0.28508981576E+03  0.28508981576E+03  0.00000000000E+00 0. -1.
         21   -1    0    0  502  503 -0.00000000000E+00 -0.00000000000E+00 -0.13039635325E+03  0.13039635325E+03  0.00000000000E+00 0. -1.
          6    1    1    2  501    0  0.36437570215E+02  0.32125236249E+02  0.15527465005E+03  0.23675714197E+03  0.17200000000E+03 0. -1.
         -6    1    1    2    0  503 -0.36437570215E+02 -0.32125236249E+02 -0.58118754537E+00  0.17872902704E+03  0.17200000000E+03 0. -1.
</event>
<event>
 4    1  0.1222208E+000  0.2185532E+03  0.7818608E-02  0.1134966E+00
         21   -1    0    0  501  502  0.00000000000E+00  0.00000000000E+00  0.96524036057E+02  0.96524036057E+02  0.00000000000E+00 0. -1.
         21   -1    0    0  502  503 -0.00000000000E+00 -0.00000000000E+00 -0.49496736980E+03  0.49496736980E+03  0.00000000000E+00 0. -1.
          6    1    1    2  501    0 -0.28690003687E+02  0.13175129038E+03 -0.19478965862E+03  0.29276019185E+03  0.17200000000E+03 0.  1.
         -6    1    1    2    0  503  0.28690003687E+02 -0.13175129038E+03 -0.20365367512E+03  0.29873121400E+03  0.17200000000E+03 0.  1.
</event>
<event>
 4    1  0.1222208E+000  0.2227909E+03  0.7818608E-02  0.1131819E+00
         21   -1    0    0  501  502  0.00000000000E+00  0.00000000000E+00  0.60784169288E+03  0.60784169288E+03  0.00000000000E+00 0. -1.
         21   -1    0    0  502  503 -0.00000000000E+00 -0.00000000000E+00 -0.92493586244E+02  0.92493586244E+02  0.00000000000E+00 0. -1.
          6    1    1    2  501    0  0.13814148471E+03  0.31124325376E+02  0.37752038941E+03  0.43835765973E+03  0.17200000000E+03 0. -1.
         -6    1    1    2    0  503 -0.13814148471E+03 -0.31124325376E+02  0.13782771723E+03  0.26197761940E+03  0.17200000000E+03 0. -1.
</event>
<event>
 4    1  0.1222208E+000  0.1771455E+03  0.7818608E-02  0.1170595E+00
         21   -1    0    0  503  502  0.00000000000E+00  0.00000000000E+00  0.34254800043E+02  0.34254800043E+02  0.00000000000E+00 0.  1.
         21   -1    0    0  501  503 -0.00000000000E+00 -0.00000000000E+00 -0.94291552342E+03  0.94291552342E+03  0.00000000000E+00 0.  1.
          6    1    1    2  501    0  0.32342176567E+02 -0.27395367786E+02 -0.53673807646E+03  0.56521525570E+03  0.17200000000E+03 0. -1.
         -6    1    1    2    0  502 -0.32342176567E+02  0.27395367786E+02 -0.37192264692E+03  0.41195506776E+03  0.17200000000E+03 0. -1.
</event>
<event>
 4    1  0.1222208E+000  0.2205778E+03  0.7818608E-02  0.1133453E+00
         21   -1    0    0  503  502  0.00000000000E+00  0.00000000000E+00  0.47896258178E+03  0.47896258178E+03  0.00000000000E+00 0. -1.
         21   -1    0    0  501  503 -0.00000000000E+00 -0.00000000000E+00 -0.13441499467E+03  0.13441499467E+03  0.00000000000E+00 0. -1.
          6    1    1    2  501    0  0.13747216239E+03  0.13114350669E+02  0.20701110346E+02  0.22154710018E+03  0.17200000000E+03 0. -1.
         -6    1    1    2    0  502 -0.13747216239E+03 -0.13114350669E+02  0.32384647676E+03  0.39183047627E+03  0.17200000000E+03 0. -1.
</event>
<event>
 4    1  0.1222208E+000  0.1779682E+03  0.7818608E-02  0.1169784E+00
         21   -1    0    0  501  502  0.00000000000E+00  0.00000000000E+00  0.21366888442E+03  0.21366888442E+03  0.00000000000E+00 0. -1.
         21   -1    0    0  502  503 -0.00000000000E+00 -0.00000000000E+00 -0.17438102841E+03  0.17438102841E+03  0.00000000000E+00 0. -1.
          6    1    1    2  501    0  0.21966348170E+02 -0.40076707714E+02  0.94777146041E+02  0.20163176923E+03  0.17200000000E+03 0. -1.
         -6    1    1    2    0  503 -0.21966348170E+02  0.40076707714E+02 -0.55489290032E+02  0.18641814359E+03  0.17200000000E+03 0. -1.
</event>
<event>
 4    1  0.1222208E+000  0.1890164E+03  0.7818608E-02  0.1159351E+00
         21   -1    0    0  503  502  0.00000000000E+00  0.00000000000E+00  0.12396348042E+03  0.12396348042E+03  0.00000000000E+00 0.  1.
         21   -1    0    0  501  503 -0.00000000000E+00 -0.00000000000E+00 -0.50213312802E+03  0.50213312802E+03  0.00000000000E+00 0.  1.
          6    1    1    2  501    0 -0.74723908072E+02  0.23654403086E+02 -0.39341542870E+03  0.43646637071E+03  0.17200000000E+03 0.  1.
         -6    1    1    2    0  502  0.74723908072E+02 -0.23654403086E+02  0.15245781097E+02  0.18963023774E+03  0.17200000000E+03 0.  1.
</event>
<event>
 4    1  0.1222208E+000  0.2682415E+03  0.7818608E-02  0.1102290E+00
         21   -1    0    0  501  502  0.00000000000E+00  0.00000000000E+00  0.54835421167E+02  0.54835421167E+02  0.00000000000E+00 0.  1.
         21   -1    0    0  502  503 -0.00000000000E+00 -0.00000000000E+00 -0.15697256119E+04  0.15697256119E+04  0.00000000000E+00 0. -1.
          6    1    1    2  501    0 -0.20280781388E+03 -0.35192471557E+02 -0.42842096238E+03  0.50546813988E+03  0.17200000000E+03 0. -1.
         -6    1    1    2    0  503  0.20280781388E+03  0.35192471557E+02 -0.10864692283E+04  0.11190928932E+04  0.17200000000E+03 0.  1.
</event>
<event>
 4    1  0.1222208E+000  0.2325662E+03  0.7818608E-02  0.1124846E+00
         21   -1    0    0  501  502  0.00000000000E+00  0.00000000000E+00  0.29964916195E+02  0.29964916195E+02  0.00000000000E+00 0.  1.
         21   -1    0    0  502  503 -0.00000000000E+00 -0.00000000000E+00 -0.18086514809E+04  0.18086514809E+04  0.00000000000E+00 0.  1.
          6    1    1    2  501    0  0.64444480135E+02 -0.14265329002E+03 -0.93057826831E+03  0.95919912721E+03  0.17200000000E+03 0.  1.
         -6    1    1    2    0  503 -0.64444480135E+02  0.14265329002E+03 -0.84810829641E+03  0.87941726990E+03  0.17200000000E+03 0.  1.
</event>
<event>
 4    1  0.1222208E+000  0.1772948E+03  0.7818608E-02  0.1170447E+00
         21   -1    0    0  503  502  0.00000000000E+00  0.00000000000E+00  0.82104836019E+02  0.82104836019E+02  0.00000000000E+00 0. -1.
         21   -1    0    0  501  503 -0.00000000000E+00 -0.00000000000E+00 -0.38546005079E+03  0.38546005079E+03  0.00000000000E+00 0. -1.
          6    1    1    2  501    0  0.18791349553E+02  0.38682425411E+02 -0.17093259070E+03  0.24627504018E+03  0.17200000000E+03 0.  1.
         -6    1    1    2    0  502 -0.18791349553E+02 -0.38682425411E+02 -0.13242262407E+03  0.22128984663E+03  0.17200000000E+03 0.  1.
</event>
<event>
 4    1  0.1222208E+000  0.2429846E+03  0.7818608E-02  0.1117820E+00
         21   -1    0    0  503  502  0.00000000000E+00  0.00000000000E+00  0.33142158130E+02  0.33142158130E+02  0.00000000000E+00 0. -1.
         21   -1    0    0  501  503 -0.00000000000E+00 -0.00000000000E+00 -0.17823685347E+04  0.17823685347E+04  0.00000000000E+00 0. -1.
          6    1    1    2  501    0  0.15020334997E+03  0.83045002200E+02 -0.85414907632E+03  0.88803837941E+03  0.17200000000E+03 0. -1.
         -6    1    1    2    0  502 -0.15020334997E+03 -0.83045002200E+02 -0.89507730027E+03  0.92747231343E+03  0.17200000000E+03 0. -1.
</event>
<event>
 4    1  0.1222208E+000  0.1877789E+03  0.7818608E-02  0.1160480E+00
         21   -1    0    0  501  502  0.00000000000E+00  0.00000000000E+00  0.44500273995E+03  0.44500273995E+03  0.00000000000E+00 0.  1.
         21   -1    0    0  502  503 -0.00000000000E+00 -0.00000000000E+00 -0.10747131328E+03  0.10747131328E+03  0.00000000000E+00 0. -1.
          6    1    1    2  501    0 -0.68846362694E+01  0.75030195436E+02  0.31035160163E+03  0.36273825974E+03  0.17200000000E+03 0.  1.
         -6    1    1    2    0  503  0.68846362694E+01 -0.75030195436E+02  0.27179825044E+02  0.18973579349E+03  0.17200000000E+03 0. -1.
</event>
<event>
 4    1  0.1222208E+000  0.2062649E+03  0.7818608E-02  0.1144558E+00
         21   -1    0    0  501  502  0.00000000000E+00  0.00000000000E+00  0.87210600203E+03  0.87210600203E+03  0.00000000000E+00 0.  1.
         21   -1    0    0  502  503 -0.00000000000E+00 -0.00000000000E+00 -0.48933973361E+02  0.48933973361E+02  0.00000000000E+00 0.  1.
          6    1    1    2  501    0  0.72771065197E+02 -0.87553265285E+02  0.43704338344E+03  0.48327230544E+03  0.17200000000E+03 0. -1.
         -6    1    1    2    0  503 -0.72771065197E+02  0.87553265285E+02  0.38612864523E+03  0.43776766996E+03  0.17200000000E+03 0. -1.
</event>
<event>
 4    1  0.1222208E+000  0.1934160E+03  0.7818608E-02  0.1155416E+00
         21   -1    0    0  503  502  0.00000000000E+00  0.00000000000E+00  0.12554837132E+03  0.12554837132E+03  0.00000000000E+00 0. -1.
         21   -1    0    0  501  503 -0.00000000000E+00 -0.00000000000E+00 -0.55993572915E+03  0.55993572915E+03  0.00000000000E+00 0.  1.
          6    1    1    2  501    0  0.20027734275E+02 -0.86166437644E+02 -0.45162723107E+03  0.49130125276E+03  0.17200000000E+03 0.  1.
         -6    1    1    2    0  502 -0.20027734275E+02  0.86166437644E+02  0.17239873245E+02  0.19418284771E+03  0.17200000000E+03 0. -1.
</event>
<event>
 4    1  0.1222208E+000  0.2615596E+03  0.7818608E-02  0.1106210E+00
         21   -1    0    0  503  502  0.00000000000E+00  0.00000000000E+00  0.11613506439E+03  0.11613506439E+03  0.00000000000E+00 0.  1.
         21   -1    0    0  501  503 -0.00000000000E+00 -0.00000000000E+00 -0.63550367313E+03  0.63550367313E+03  0.00000000000E+00 0.  1.
          6    1    1    2  501    0  0.16929973780E+03  0.10083158380E+03 -0.36125468670E+03  0.44600264369E+03  0.17200000000E+03 0.  1.
         -6    1    1    2    0  502 -0.16929973780E+03 -0.10083158380E+03 -0.15811392204E+03  0.30563609384E+03  0.17200000000E+03 0.  1.
</event>
<event>
 4    1  0.1222208E+000  0.2563634E+03  0.7818608E-02  0.1109348E+00
         21   -1    0    0  503  502  0.00000000000E+00  0.00000000000E+00  0.55473885632E+02  0.55473885632E+02  0.00000000000E+00 0.  1.
         21   -1    0    0  501  503 -0.00000000000E+00 -0.00000000000E+00 -0.15184062678E+04  0.15184062678E+04  0.00000000000E+00 0.  1.
          6    1    1    2  501    0  0.11350397922E+03  0.15249605992E+03 -0.11003613842E+04  0.11298306853E+04  0.17200000000E+03 0. -1.
         -6    1    1    2    0  502 -0.11350397922E+03 -0.15249605992E+03 -0.36257099798E+03  0.44404946815E+03  0.17200000000E+03 0. -1.
</event>
<event>
 4    1  0.1222208E+000  0.1771600E+03  0.7818608E-02  0.1170580E+00
         21   -1    0    0  503  502  0.00000000000E+00  0.00000000000E+00  0.56802434260E+02  0.56802434260E+02  0.00000000000E+00 0. -1.
         21   -1    0    0  501  503 -0.00000000000E+00 -0.00000000000E+00 -0.58567509848E+03  0.58567509848E+03  0.00000000000E+00 0. -1.
          6    1    1    2  501    0 -0.23925954000E+02 -0.35060067347E+02 -0.34084432491E+03  0.38413606108E+03  0.17200000000E+03 0.  1.
         -6    1    1    2    0  502  0.23925954000E+02  0.35060067347E+02 -0.18802833931E+03  0.25834147166E+03  0.17200000000E+03 0.  1.
</event>
<event>
 4    1  0.1222208E+000  0.1920432E+03  0.7818608E-02  0.1156631E+00
         21   -1    0    0  501  502  0.00000000000E+00  0.00000000000E+00  0.20639712578E+04  0.20639712578E+04  0.00000000000E+00 0. -1.
         21   -1    0    0  502  503 -0.00000000000E+00 -0.00000000000E+00 -0.78846206713E+02  0.78846206713E+02  0.00000000000E+00 0. -1.
          6    1    1    2  501    0  0.63282573020E+02  0.57375019416E+02  0.19347763004E+04  0.19442839066E+04  0.17200000000E+03 0. -1.
         -6    1    1    2    0  503 -0.63282573020E+02 -0.57375019416E+02  0.50348750626E+02  0.19853355785E+03  0.17200000000E+03 0. -1.
</event>
<event>
 4    1  0.1222208E+000  0.2067174E+03  0.7818608E-02  0.1144192E+00
         21   -1    0    0  503  502  0.00000000000E+00  0.00000000000E+00  0.19324401477E+03  0.19324401477E+03  0.00000000000E+00 0. -1.
         21   -1    0    0  501  503 -0.00000000000E+00 -0.00000000000E+00 -0.26984809792E+03  0.26984809792E+03  0.00000000000E+00 0. -1.
          6    1    1    2  501    0  0.71472635107E+02  0.89664605452E+02  0.60081437634E+02  0.21527159169E+03  0.17200000000E+03 0.  1.
         -6    1    1    2    0  502 -0.71472635107E+02 -0.89664605452E+02 -0.13668552078E+03  0.24782052101E+03  0.17200000000E+03 0.  1.
</event>
<event>
 4    1  0.1222208E+000  0.1724569E+03  0.7818608E-02  0.1175310E+00
         21   -1    0    0  501  502  0.00000000000E+00  0.00000000000E+00  0.39389680868E+02  0.39389680868E+02  0.00000000000E+00 0. -1.
         21   -1    0    0  502  503 -0.00000000000E+00 -0.00000000000E+00 -0.85027052052E+03  0.85027052052E+03  0.00000000000E+00 0. -1.
          6    1    1    2  501    0 -0.67731150613E+01  0.10559604337E+02 -0.25658344153E+03  0.30915439961E+03  0.17200000000E+03 0. -1.
         -6    1    1    2    0  503  0.67731150613E+01 -0.10559604337E+02 -0.55429739812E+03  0.58050580178E+03  0.17200000000E+03 0. -1.
</event>
<event>
 4    1  0.1222208E+000  0.2609426E+03  0.7818608E-02  0.1106578E+00
         21   -1    0    0  503  502  0.00000000000E+00  0.00000000000E+00  0.13431442903E+03  0.13431442903E+03  0.00000000000E+00 0. -1.
         21   -1    0    0  501  503 -0.00000000000E+00 -0.00000000000E+00 -0.73294912118E+03  0.73294912118E+03  0.00000000000E+00 0.  1.
          6    1    1    2  501    0  0.11675900556E+03 -0.15771618313E+03 -0.54010542620E+03  0.59983742065E+03  0.17200000000E+03 0.  1.
         -6    1    1    2    0  502 -0.11675900556E+03  0.15771618313E+03 -0.58529265945E+02  0.26742612956E+03  0.17200000000E+03 0.  1.
</event>
<event>
 4    1  0.1222208E+000  0.1748988E+03  0.7818608E-02  0.1172833E+00
         21   -1    0    0  501  502  0.00000000000E+00  0.00000000000E+00  0.11502662004E+04  0.11502662004E+04  0.00000000000E+00 0.  1.
         21   -1    0    0  502  503 -0.00000000000E+00 -0.00000000000E+00 -0.26699374774E+02  0.26699374774E+02  0.00000000000E+00 0.  1.
          6    1    1    2  501    0 -0.31431237138E+02 -0.42031403826E+01  0.59884350229E+03  0.62386146642E+03  0.17200000000E+03 0.  1.
         -6    1    1    2    0  503  0.31431237138E+02  0.42031403826E+01  0.52472332330E+03  0.55310410871E+03  0.17200000000E+03 0.  1.
</event>
<event>
 4    1  0.1222208E+000  0.2068124E+03  0.7818608E-02  0.1144115E+00
         21   -1    0    0  503  502  0.00000000000E+00  0.00000000000E+00  0.12376436067E+03  0.12376436067E+03  0.00000000000E+00 0.  1.
         21   -1    0    0  501  503 -0.00000000000E+00 -0.00000000000E+00 -0.83675017530E+03  0.83675017530E+03  0.00000000000E+00 0.  1.
          6    1    1    2  501    0  0.11483475408E+03  0.59175461474E+00 -0.72444296819E+03  0.75338501782E+03  0.17200000000E+03 0.  1.
         -6    1    1    2    0  502 -0.11483475408E+03 -0.59175461474E+00  0.11457153559E+02  0.20712951814E+03  0.17200000000E+03 0.  1.
</event>
<event>
 4    1  0.1222208E+000  0.1748334E+03  0.7818608E-02  0.1172899E+00
         21   -1    0    0  503  502  0.00000000000E+00  0.00000000000E+00  0.65852406574E+02  0.65852406574E+02  0.00000000000E+00 0. -1.
         21   -1    0    0  501  503 -0.00000000000E+00 -0.00000000000E+00 -0.81410728421E+03  0.81410728421E+03  0.00000000000E+00 0. -1.
          6    1    1    2  501    0 -0.15551825497E+01  0.31309657698E+02 -0.66258840577E+03  0.68526645089E+03  0.17200000000E+03 0. -1.
         -6    1    1    2    0  502  0.15551825497E+01 -0.31309657698E+02 -0.85666471867E+02  0.19469323989E+03  0.17200000000E+03 0. -1.
</event>
<event>
 4    1  0.1222208E+000  0.1736814E+03  0.7818608E-02  0.1174062E+00
         21   -1    0    0  501  502  0.00000000000E+00  0.00000000000E+00  0.59061600695E+02  0.59061600695E+02  0.00000000000E+00 0. -1.
         21   -1    0    0  502  503 -0.00000000000E+00 -0.00000000000E+00 -0.63867592028E+03  0.63867592028E+03  0.00000000000E+00 0. -1.
          6    1    1    2  501    0 -0.21436825502E+02 -0.11030659982E+02 -0.13366670345E+03  0.21916204178E+03  0.17200000000E+03 0.  1.
         -6    1    1    2    0  503  0.21436825502E+02  0.11030659982E+02 -0.44594761614E+03  0.47857547920E+03  0.17200000000E+03 0.  1.
</event>
<event>
 4    1  0.1222208E+000  0.1833761E+03  0.7818608E-02  0.1164575E+00
         21   -1    0    0  503  502  0.00000000000E+00  0.00000000000E+00  0.24639096267E+03  0.24639096267E+03  0.00000000000E+00 0.  1.
         21   -1    0    0  501  503 -0.00000000000E+00 -0.00000000000E+00 -0.15109548989E+03  0.15109548989E+03  0.00000000000E+00 0.  1.
          6    1    1    2  501    0  0.12259816490E+02  0.62389766581E+02 -0.14169931377E+02  0.18392273658E+03  0.17200000000E+03 0. -1.
         -6    1    1    2    0  502 -0.12259816490E+02 -0.62389766581E+02  0.10946540416E+03  0.21356371598E+03  0.17200000000E+03 0. -1.
</event>
<event>
 4    1  0.1222208E+000  0.2934924E+03  0.7818608E-02  0.1088540E+00
         21   -1    0    0  503  502  0.00000000000E+00  0.00000000000E+00  0.49143835428E+03  0.49143835428E+03  0.00000000000E+00 0. -1.
         21   -1    0    0  501  503 -0.00000000000E+00 -0.00000000000E+00 -0.19960342473E+03  0.19960342473E+03  0.00000000000E+00 0.  1.
          6    1    1    2  501    0 -0.21526861278E+03  0.10106054584E+03  0.25294494721E+02  0.29458041523E+03  0.17200000000E+03 0.  1.
         -6    1    1    2    0  502  0.21526861278E+03 -0.10106054584E+03  0.26654043483E+03  0.39646136378E+03  0.17200000000E+03 0. -1.
</event>
<event>
 4    1  0.1222208E+000  0.2064130E+03  0.7818608E-02  0.1144438E+00
         21   -1    0    0  503  502  0.00000000000E+00  0.00000000000E+00  0.71721049201E+02  0.71721049201E+02  0.00000000000E+00 0. -1.
         21   -1    0    0  501  503 -0.00000000000E+00 -0.00000000000E+00 -0.59441263374E+03  0.59441263374E+03  0.00000000000E+00 0.  1.
          6    1    1    2  501    0 -0.11319965296E+03  0.14427831018E+02 -0.26950341281E+03  0.33946783832E+03  0.17200000000E+03 0. -1.
         -6    1    1    2    0  502  0.11319965296E+03 -0.14427831018E+02 -0.25318817172E+03  0.32666584461E+03  0.17200000000E+03 0. -1.
</event>
<event>
 4    1  0.1222208E+000  0.2259379E+03  0.7818608E-02  0.1129532E+00
         21   -1    0    0  501  502  0.00000000000E+00  0.00000000000E+00  0.96412892964E+03  0.96412892964E+03  0.00000000000E+00 0.  1.
         21   -1    0    0  502  503 -0.00000000000E+00 -0.00000000000E+00 -0.88494093797E+02  0.88494093797E+02  0.00000000000E+00 0. -1.
          6    1    1    2  501    0  0.88240525473E+02  0.11695112614E+03  0.77138694618E+03  0.80379461119E+03  0.17200000000E+03 0. -1.
         -6    1    1    2    0  503 -0.88240525473E+02 -0.11695112614E+03  0.10424788967E+03  0.24882841225E+03  0.17200000000E+03 0. -1.
</event>
<event>
 4    1  0.1222208E+000  0.1876486E+03  0.7818608E-02  0.1160599E+00
         21   -1    0    0  503  502  0.00000000000E+00  0.00000000000E+00  0.96271446637E+02  0.96271446637E+02  0.00000000000E+00 0.  1.
         21   -1    0    0  501  503 -0.00000000000E+00 -0.00000000000E+00 -0.14022062084E+04  0.14022062084E+04  0.00000000000E+00 0.  1.
          6    1    1    2  501    0  0.91993784608E+01 -0.74453791450E+02 -0.12971192296E+04  0.13106221009E+04  0.17200000000E+03 0.  1.
         -6    1    1    2    0  502 -0.91993784608E+01  0.74453791450E+02 -0.88155322215E+01  0.18785555417E+03  0.17200000000E+03 0.  1.
</event>
<event>
 4    1  0.1222208E+000  0.2006954E+03  0.7818608E-02  0.1149154E+00
         21   -1    0    0  501  502  0.00000000000E+00  0.00000000000E+00  0.19157550342E+03  0.19157550342E+03  0.00000000000E+00 0. -1.
         21   -1    0    0  502  503 -0.00000000000E+00 -0.00000000000E+00 -0.22839995069E+03  0.22839995069E+03  0.00000000000E+00 0.  1.
          6    1    1    2  501    0 -0.17543932143E+02 -0.10191592243E+03  0.40783478868E+02  0.20479730699E+03  0.17200000000E+03 0.  1.
         -6    1    1    2    0  503  0.17543932143E+02  0.10191592243E+03 -0.77607926147E+02  0.21517814713E+03  0.17200000000E+03 0.  1.
</event>
<event>
 4    1  0.1222208E+000  0.1975420E+03  0.7818608E-02  0.1151830E+00
         21   -1    0    0  501  502  0.00000000000E+00  0.00000000000E+00  0.92567705874E+02  0.92567705874E+02  0.00000000000E+00 0. -1.
         21   -1    0    0  502  503 -0.00000000000E+00 -0.00000000000E+00 -0.64409021319E+03  0.64409021319E+03  0.00000000000E+00 0. -1.
          6    1    1    2  501    0  0.84856162180E+02  0.47310428205E+02 -0.59261713273E+02  0.20623965559E+03  0.17200000000E+03 0. -1.
         -6    1    1    2    0  503 -0.84856162180E+02 -0.47310428205E+02 -0.49226079404E+03  0.53041826347E+03  0.17200000000E+03 0. -1.
</event>
<event>
 4    1  0.1222208E+000  0.3458330E+03  0.7818608E-02  0.1064338E+00
         21   -1    0    0  503  502  0.00000000000E+00  0.00000000000E+00  0.54215675464E+03  0.54215675464E+03  0.00000000000E+00 0. -1.
         21   -1    0    0  501  503 -0.00000000000E+00 -0.00000000000E+00 -0.23019022657E+03  0.23019022657E+03  0.00000000000E+00 0. -1.
          6    1    1    2  501    0 -0.12040950840E+03 -0.27480541581E+03  0.23480115166E+03  0.41800962559E+03  0.17200000000E+03 0.  1.
         -6    1    1    2    0  502  0.12040950840E+03  0.27480541581E+03  0.77165376410E+02  0.35433735562E+03  0.17200000000E+03 0.  1.
</event>
<event>
 4    1  0.1222208E+000  0.4296192E+03  0.7818608E-02  0.1033980E+00
         21   -1    0    0  503  502  0.00000000000E+00  0.00000000000E+00  0.38519787544E+03  0.38519787544E+03  0.00000000000E+00 0. -1.
         21   -1    0    0  501  503 -0.00000000000E+00 -0.00000000000E+00 -0.48453448317E+03  0.48453448317E+03  0.00000000000E+00 0.  1.
          6    1    1    2  501    0 -0.29692449348E+03  0.25850443376E+03 -0.38829036669E+01  0.42963679317E+03  0.17200000000E+03 0.  1.
         -6    1    1    2    0  502  0.29692449348E+03 -0.25850443376E+03 -0.95453704068E+02  0.44009556544E+03  0.17200000000E+03 0. -1.
</event>
<event>
 4    1  0.1222208E+000  0.2193172E+03  0.7818608E-02  0.1134393E+00
         21   -1    0    0  501  502  0.00000000000E+00  0.00000000000E+00  0.10242875232E+03  0.10242875232E+03  0.00000000000E+00 0. -1.
         21   -1    0    0  502  503 -0.00000000000E+00 -0.00000000000E+00 -0.57058163624E+03  0.57058163624E+03  0.00000000000E+00 0. -1.
          6    1    1    2  501    0  0.85875040971E+02  0.10555339276E+03 -0.92508606947E+02  0.23802916574E+03  0.17200000000E+03 0. -1.
         -6    1    1    2    0  503 -0.85875040971E+02 -0.10555339276E+03 -0.37564427697E+03  0.43498122282E+03  0.17200000000E+03 0. -1.
</event>
<event>
 4    1  0.1222208E+000  0.2101910E+03  0.7818608E-02  0.1141415E+00
         21   -1    0    0  503  502  0.00000000000E+00  0.00000000000E+00  0.46309428556E+02  0.46309428556E+02  0.00000000000E+00 0.  1.
         21   -1    0    0  501  503 -0.00000000000E+00 -0.00000000000E+00 -0.15098960893E+04  0.15098960893E+04  0.00000000000E+00 0.  1.
          6    1    1    2  501    0  0.91086977757E+02 -0.79368755846E+02 -0.12039122931E+04  0.12221231715E+04  0.17200000000E+03 0.  1.
         -6    1    1    2    0  502 -0.91086977757E+02  0.79368755846E+02 -0.25967436770E+03  0.33408234638E+03  0.17200000000E+03 0.  1.
</event>
<event>
 4    1  0.1222208E+000  0.1812406E+03  0.7818608E-02  0.1166608E+00
         21   -1    0    0  501  502  0.00000000000E+00  0.00000000000E+00  0.28605092119E+02  0.28605092119E+02  0.00000000000E+00 0. -1.
         21   -1    0    0  502  503 -0.00000000000E+00 -0.00000000000E+00 -0.12447296371E+04  0.12447296371E+04  0.00000000000E+00 0. -1.
          6    1    1    2  501    0 -0.72481350864E+01 -0.56671189893E+02 -0.43088542833E+03  0.46745097238E+03  0.17200000000E+03 0. -1.
         -6    1    1    2    0  503  0.72481350864E+01  0.56671189893E+02 -0.78523911664E+03  0.80588375683E+03  0.17200000000E+03 0. -1.
</event>
<event>
 4    1  0.1222208E+000  0.1834971E+03  0.7818608E-02  0.1164461E+00
         21   -1    0    0  503  502  0.00000000000E+00  0.00000000000E+00  0.80969557939E+02  0.80969557939E+02  0.00000000000E+00 0. -1.
         21   -1    0    0  501  503 -0.00000000000E+00 -0.00000000000E+00 -0.50059339536E+03  0.50059339536E+03  0.00000000000E+00 0. -1.
          6    1    1    2  501    0 -0.59928917439E+02  0.22264814421E+02 -0.32945205705E+03  0.37710721950E+03  0.17200000000E+03 0. -1.
         -6    1    1    2    0  502  0.59928917439E+02 -0.22264814421E+02 -0.90171780369E+02  0.20445573379E+03  0.17200000000E+03 0. -1.
</event>
<event>
 4    1  0.1222208E+000  0.1967879E+03  0.7818608E-02  0.1152478E+00
         21   -1    0    0  501  502  0.00000000000E+00  0.00000000000E+00  0.98247282797E+03  0.98247282797E+03  0.00000000000E+00 0.  1.
         21   -1    0    0  502  503 -0.00000000000E+00 -0.00000000000E+00 -0.53323901637E+02  0.53323901637E+02  0.00000000000E+00 0.  1.
          6    1    1    2  501    0  0.73959529961E+01 -0.95324558009E+02  0.20008446069E+03  0.28064080760E+03  0.17200000000E+03 0.  1.
         -6    1    1    2    0  503 -0.73959529961E+01  0.95324558009E+02  0.72906446564E+03  0.75515592200E+03  0.17200000000E+03 0.  1.
</event>
<event>
 4    1  0.1222208E+000  0.2959025E+03  0.7818608E-02  0.1087307E+00
         21   -1    0    0  501  502  0.00000000000E+00  0.00000000000E+00  0.26247492607E+03  0.26247492607E+03  0.00000000000E+00 0. -1.
         21   -1    0    0  502  503 -0.00000000000E+00 -0.00000000000E+00 -0.36955051030E+03  0.36955051030E+03  0.00000000000E+00 0.  1.
          6    1    1    2  501    0  0.21384868704E+03  0.11064833645E+03  0.45043969909E+02  0.29931133379E+03  0.17200000000E+03 0. -1.
         -6    1    1    2    0  503 -0.21384868704E+03 -0.11064833645E+03 -0.15211955413E+03  0.33271410258E+03  0.17200000000E+03 0.  1.
</event>
<event>
 4    1  0.1222208E+000  0.1840136E+03  0.7818608E-02  0.1163974E+00
         21   -1    0    0  503  502  0.00000000000E+00  0.00000000000E+00  0.12038593741E+02  0.12038593741E+02  0.00000000000E+00 0. -1.
         21   -1    0    0  501  503 -0.00000000000E+00 -0.00000000000E+00 -0.31533481977E+04  0.31533481977E+04  0.00000000000E+00 0. -1.
          6    1    1    2  501    0 -0.19898571492E+02  0.62298212481E+02 -0.20908427462E+04  0.20989245841E+04  0.17200000000E+03 0. -1.
         -6    1    1    2    0  502  0.19898571492E+02 -0.62298212481E+02 -0.10504668578E+04  0.10664622073E+04  0.17200000000E+03 0. -1.
</event>
<event>
 4    1  0.1222208E+000  0.2106461E+03  0.7818608E-02  0.1141055E+00
         21   -1    0    0  501  502  0.00000000000E+00  0.00000000000E+00  0.13626402005E+03  0.13626402005E+03  0.00000000000E+00 0.  1.
         21   -1    0    0  502  503 -0.00000000000E+00 -0.00000000000E+00 -0.53627527407E+03  0.53627527407E+03  0.00000000000E+00 0.  1.
          6    1    1    2  501    0 -0.83720291964E+02 -0.88197006276E+02  0.10744834383E+02  0.21092001012E+03  0.17200000000E+03 0.  1.
         -6    1    1    2    0  503  0.83720291964E+02  0.88197006276E+02 -0.41075608840E+03  0.46161928400E+03  0.17200000000E+03 0.  1.
</event>
<event>
 4    1  0.1222208E+000  0.1952559E+03  0.7818608E-02  0.1153804E+00
         21   -1    0    0  503  502  0.00000000000E+00  0.00000000000E+00  0.10160108522E+03  0.10160108522E+03  0.00000000000E+00 0.  1.
         21   -1    0    0  501  503 -0.00000000000E+00 -0.00000000000E+00 -0.53708888045E+03  0.53708888045E+03  0.00000000000E+00 0.  1.
          6    1    1    2  501    0  0.10674124268E+02  0.91798314142E+02 -0.39304750803E+03  0.43887493774E+03  0.17200000000E+03 0.  1.
         -6    1    1    2    0  502 -0.10674124268E+02 -0.91798314142E+02 -0.42440287211E+02  0.19981502793E+03  0.17200000000E+03 0.  1.
</event>
<event>
 4    1  0.1222208E+000  0.2134670E+03  0.7818608E-02  0.1138850E+00
         21   -1    0    0  503  502  0.00000000000E+00  0.00000000000E+00  0.52392727985E+02  0.52392727985E+02  0.00000000000E+00 0.  1.
         21   -1    0    0  501  503 -0.00000000000E+00 -0.00000000000E+00 -0.10775895359E+04  0.10775895359E+04  0.00000000000E+00 0. -1.
          6    1    1    2  501    0 -0.12520398392E+03  0.17553221728E+02 -0.76073307170E+03  0.79011578870E+03  0.17200000000E+03 0.  1.
         -6    1    1    2    0  502  0.12520398392E+03 -0.17553221728E+02 -0.26446373624E+03  0.33986647520E+03  0.17200000000E+03 0.  1.
</event>
<event>
 4    1  0.1222208E+000  0.1809013E+03  0.7818608E-02  0.1166934E+00
         21   -1    0    0  503  502  0.00000000000E+00  0.00000000000E+00  0.16908238089E+03  0.16908238089E+03  0.00000000000E+00 0. -1.
         21   -1    0    0  501  503 -0.00000000000E+00 -0.00000000000E+00 -0.23030688213E+03  0.23030688213E+03  0.00000000000E+00 0. -1.
          6    1    1    2  501    0  0.53907412202E+02 -0.15338759554E+02 -0.11039399235E+03  0.21192479841E+03  0.17200000000E+03 0.  1.
         -6    1    1    2    0  502 -0.53907412202E+02  0.15338759554E+02  0.49169491108E+02  0.18746446461E+03  0.17200000000E+03 0.  1.
</event>
<event>
 4    1  0.1222208E+000  0.1866287E+03  0.7818608E-02  0.1161538E+00
         21   -1    0    0  501  502  0.00000000000E+00  0.00000000000E+00  0.21673178202E+03  0.21673178202E+03  0.00000000000E+00 0. -1.
         21   -1    0    0  502  503 -0.00000000000E+00 -0.00000000000E+00 -0.17552543893E+03  0.17552543893E+03  0.00000000000E+00 0.  1.
          6    1    1    2  501    0  0.72210535869E+02  0.56474644211E+01 -0.36383874279E+02  0.19014216169E+03  0.17200000000E+03 0.  1.
         -6    1    1    2    0  503 -0.72210535869E+02 -0.56474644211E+01  0.77590217369E+02  0.20211505925E+03  0.17200000000E+03 0. -1.
</event>
<event>
 4    1  0.1222208E+000  0.2847473E+03  0.7818608E-02  0.1093124E+00
         21   -1    0    0  501  502  0.00000000000E+00  0.00000000000E+00  0.96691740385E+03  0.96691740385E+03  0.00000000000E+00 0.  1.
         21   -1    0    0  502  503 -0.00000000000E+00 -0.00000000000E+00 -0.12768056885E+03  0.12768056885E+03  0.00000000000E+00 0.  1.
          6    1    1    2  501    0  0.12809728317E+02  0.22656776774E+03  0.74026386584E+03  0.79314036184E+03  0.17200000000E+03 0.  1.
         -6    1    1    2    0  503 -0.12809728317E+02 -0.22656776774E+03  0.98972969167E+02  0.30145761086E+03  0.17200000000E+03 0.  1.
</event>
<event>
 4    1  0.1222208E+000  0.1942755E+03  0.7818608E-02  0.1154661E+00
         21   -1    0    0  501  502  0.00000000000E+00  0.00000000000E+00  0.15348453148E+03  0.15348453148E+03  0.00000000000E+00 0.  1.
         21   -1    0    0  502  503 -0.00000000000E+00 -0.00000000000E+00 -0.82315925747E+03  0.82315925747E+03  0.00000000000E+00 0.  1.
          6    1    1    2  501    0  0.83490784979E+02  0.34471217937E+02  0.74090730499E+02  0.20792405438E+03  0.17200000000E+03 0.  1.
         -6    1    1    2    0  503 -0.83490784979E+02 -0.34471217937E+02 -0.74376545650E+03  0.76871973457E+03  0.17200000000E+03 0.  1.
</event>
<event>
 4    1  0.1222208E+000  0.1841519E+03  0.7818608E-02  0.1163844E+00
         21   -1    0    0  501  502  0.00000000000E+00  0.00000000000E+00  0.72085226136E+02  0.72085226136E+02  0.00000000000E+00 0. -1.
         21   -1    0    0  502  503 -0.00000000000E+00 -0.00000000000E+00 -0.48003838783E+03  0.48003838783E+03  0.00000000000E+00 0.  1.
          6    1    1    2  501    0  0.79907474371E+01  0.65299846581E+02 -0.16494456647E+03  0.24722182754E+03  0.17200000000E+03 0. -1.
         -6    1    1    2    0  503 -0.79907474371E+01 -0.65299846581E+02 -0.24300859523E+03  0.30490178642E+03  0.17200000000E+03 0.  1.
</event>
<event>
 4    1  0.1222208E+000  0.1786686E+03  0.7818608E-02  0.1169098E+00
         21   -1    0    0  501  502  0.00000000000E+00  0.00000000000E+00  0.24094517160E+02  0.24094517160E+02  0.00000000000E+00 0. -1.
         21   -1    0    0  502  503 -0.00000000000E+00 -0.00000000000E+00 -0.13623981633E+04  0.13623981633E+04  0.00000000000E+00 0. -1.
          6    1    1    2  501    0  0.43100911734E+02  0.21926690943E+02 -0.78418588189E+03  0.80428226744E+03  0.17200000000E+03 0. -1.
         -6    1    1    2    0  503 -0.43100911734E+02 -0.21926690943E+02 -0.55411776425E+03  0.58221041301E+03  0.17200000000E+03 0. -1.
</event>
<event>
 4    1  0.1222208E+000  0.2523517E+03  0.7818608E-02  0.1111828E+00
         21   -1    0    0  503  502  0.00000000000E+00  0.00000000000E+00  0.37637978048E+02  0.37637978048E+02  0.00000000000E+00 0.  1.
         21   -1    0    0  501  503 -0.00000000000E+00 -0.00000000000E+00 -0.18620722535E+04  0.18620722535E+04  0.00000000000E+00 0.  1.
          6    1    1    2  501    0 -0.18313264921E+03 -0.23660308163E+02 -0.11993258908E+04  0.12255871939E+04  0.17200000000E+03 0.  1.
         -6    1    1    2    0  502  0.18313264921E+03  0.23660308163E+02 -0.62510838463E+03  0.67412303767E+03  0.17200000000E+03 0.  1.
</event>
<event>
 4    1  0.1222208E+000  0.2251598E+03  0.7818608E-02  0.1130094E+00
         21   -1    0    0  501  502  0.00000000000E+00  0.00000000000E+00  0.11346050920E+03  0.11346050920E+03  0.00000000000E+00 0. -1.
         21   -1    0    0  502  503 -0.00000000000E+00 -0.00000000000E+00 -0.52141494804E+03  0.52141494804E+03  0.00000000000E+00 0. -1.
          6    1    1    2  501    0  0.12469425040E+03  0.74594122535E+02 -0.83914462409E+02  0.24028852699E+03  0.17200000000E+03 0. -1.
         -6    1    1    2    0  503 -0.12469425040E+03 -0.74594122535E+02 -0.32403997643E+03  0.39458693025E+03  0.17200000000E+03 0. -1.
</event>
<event>
 4    1  0.1222208E+000  0.1764187E+03  0.7818608E-02  0.1171315E+00
         21   -1    0    0  503  502  0.00000000000E+00  0.00000000000E+00  0.22485579564E+03  0.22485579564E+03  0.00000000000E+00 0. -1.
         21   -1    0    0  501  503 -0.00000000000E+00 -0.00000000000E+00 -0.20508049327E+03  0.20508049327E+03  0.00000000000E+00 0. -1.
          6    1    1    2  501    0  0.33020197038E+02  0.21194929801E+02 -0.11267563608E+03  0.20933073694E+03  0.17200000000E+03 0.  1.
         -6    1    1    2    0  502 -0.33020197038E+02 -0.21194929801E+02  0.13245093845E+03  0.22060555197E+03  0.17200000000E+03 0.  1.
</event>
<event>
 4    1  0.1222208E+000  0.2354411E+03  0.7818608E-02  0.1122868E+00
         21   -1    0    0  503  502  0.00000000000E+00  0.00000000000E+00  0.19893127225E+03  0.19893127225E+03  0.00000000000E+00 0.  1.
         21   -1    0    0  501  503 -0.00000000000E+00 -0.00000000000E+00 -0.33852864617E+03  0.33852864617E+03  0.00000000000E+00 0.  1.
          6    1    1    2  501    0  0.84812764508E+01 -0.16055085107E+03 -0.18281697658E+03  0.29808481135E+03  0.17200000000E+03 0.  1.
         -6    1    1    2    0  502 -0.84812764508E+01  0.16055085107E+03  0.43219602669E+02  0.23937510707E+03  0.17200000000E+03 0.  1.
</event>
<event>
 4    1  0.1222208E+000  0.2704400E+03  0.7818608E-02  0.1101028E+00
         21   -1    0    0  501  502  0.00000000000E+00  0.00000000000E+00  0.36826381772E+03  0.36826381772E+03  0.00000000000E+00 0.  1.
         21   -1    0    0  502  503 -0.00000000000E+00 -0.00000000000E+00 -0.27955167997E+03  0.27955167997E+03  0.00000000000E+00 0. -1.
          6    1    1    2  501    0  0.11888934672E+03  0.17152006701E+03  0.21865660817E+03  0.34777654097E+03  0.17200000000E+03 0.  1.
         -6    1    1    2    0  503 -0.11888934672E+03 -0.17152006701E+03 -0.12994447042E+03  0.30003895671E+03  0.17200000000E+03 0. -1.
</event>
<event>
 4    1  0.1222208E+000  0.2878435E+03  0.7818608E-02  0.1091480E+00
         21   -1    0    0  503  502  0.00000000000E+00  0.00000000000E+00  0.35829542860E+03  0.35829542860E+03  0.00000000000E+00 0. -1.
         21   -1    0    0  501  503 -0.00000000000E+00 -0.00000000000E+00 -0.26881648006E+03  0.26881648006E+03  0.00000000000E+00 0.  1.
          6    1    1    2  501    0  0.20297844823E+03 -0.10986175349E+03  0.16196414415E+03  0.33028206024E+03  0.17200000000E+03 0. -1.
         -6    1    1    2    0  502 -0.20297844823E+03  0.10986175349E+03 -0.72485195605E+02  0.29682984841E+03  0.17200000000E+03 0.  1.
</event>
<event>
 4    1  0.1222208E+000  0.1724844E+03  0.7818608E-02  0.1175282E+00
         21   -1    0    0  501  502  0.00000000000E+00  0.00000000000E+00  0.12652806987E+03  0.12652806987E+03  0.00000000000E+00 0.  1.
         21   -1    0    0  502  503 -0.00000000000E+00 -0.00000000000E+00 -0.24328947861E+03  0.24328947861E+03  0.00000000000E+00 0.  1.
          6    1    1    2  501    0  0.12906639142E+02 -0.53127265187E+00 -0.24522801450E+02  0.17421891796E+03  0.17200000000E+03 0. -1.
         -6    1    1    2    0  503 -0.12906639142E+02  0.53127265187E+00 -0.92238607294E+02  0.19559863052E+03  0.17200000000E+03 0. -1.
</event>
<event>
 4    1  0.1222208E+000  0.1993821E+03  0.7818608E-02  0.1150261E+00
         21   -1    0    0  501  502  0.00000000000E+00  0.00000000000E+00  0.71339014404E+03  0.71339014404E+03  0.00000000000E+00 0. -1.
         21   -1    0    0  502  503 -0.00000000000E+00 -0.00000000000E+00 -0.11573731659E+03  0.11573731659E+03  0.00000000000E+00 0. -1.
          6    1    1    2  501    0 -0.91317105881E+02 -0.42783407497E+02  0.59734885600E+03  0.62974509886E+03  0.17200000000E+03 0. -1.
         -6    1    1    2    0  503  0.91317105881E+02  0.42783407497E+02  0.30397145153E+00  0.19938236176E+03  0.17200000000E+03 0. -1.
</event>
<event>
 4    1  0.1222208E+000  0.2188724E+03  0.7818608E-02  0.1134727E+00
         21   -1    0    0  503  502  0.00000000000E+00  0.00000000000E+00  0.28214408095E+03  0.28214408095E+03  0.00000000000E+00 0.  1.
         21   -1    0    0  501  503 -0.00000000000E+00 -0.00000000000E+00 -0.16922812230E+04  0.16922812230E+04  0.00000000000E+00 0.  1.
          6    1    1    2  501    0 -0.12681502090E+03 -0.47318826111E+02 -0.16414480891E+04  0.16559761321E+04  0.17200000000E+03 0. -1.
         -6    1    1    2    0  502  0.12681502090E+03  0.47318826111E+02  0.23131094705E+03  0.31844917186E+03  0.17200000000E+03 0. -1.
</event>
<event>
 4    1  0.1222208E+000  0.2565769E+03  0.7818608E-02  0.1109218E+00
         21   -1    0    0  501  502  0.00000000000E+00  0.00000000000E+00  0.58567455793E+03  0.58567455793E+03  0.00000000000E+00 0. -1.
         21   -1    0    0  502  503 -0.00000000000E+00 -0.00000000000E+00 -0.11472367146E+03  0.11472367146E+03  0.00000000000E+00 0.  1.
          6    1    1    2  501    0  0.17136025800E+03 -0.82965990523E+02  0.18567000352E+03  0.31670971537E+03  0.17200000000E+03 0.  1.
         -6    1    1    2    0  503 -0.17136025800E+03  0.82965990523E+02  0.28528088296E+03  0.38368851401E+03  0.17200000000E+03 0.  1.
</event>
<event>
 4    1  0.1222208E+000  0.1959743E+03  0.7818608E-02  0.1153181E+00
         21   -1    0    0  503  502  0.00000000000E+00  0.00000000000E+00  0.89601848209E+03  0.89601848209E+03  0.00000000000E+00 0. -1.
         21   -1    0    0  501  503 -0.00000000000E+00 -0.00000000000E+00 -0.47811425803E+02  0.47811425803E+02  0.00000000000E+00 0. -1.
          6    1    1    2  501    0  0.90882430577E+02 -0.23713292882E+02  0.27228090026E+03  0.33547403043E+03  0.17200000000E+03 0. -1.
         -6    1    1    2    0  502 -0.90882430577E+02  0.23713292882E+02  0.57592615603E+03  0.60835587747E+03  0.17200000000E+03 0. -1.
</event>
<event>
 4    1  0.1222208E+000  0.1981713E+03  0.7818608E-02  0.1151291E+00
         21   -1    0    0  501  502  0.00000000000E+00  0.00000000000E+00  0.75148134478E+02  0.75148134478E+02  0.00000000000E+00 0.  1.
         21   -1    0    0  502  503 -0.00000000000E+00 -0.00000000000E+00 -0.60895406154E+03  0.60895406154E+03  0.00000000000E+00 0.  1.
          6    1    1    2  501    0  0.81231454336E+02  0.55581512319E+02 -0.13809020162E+03  0.24153831470E+03  0.17200000000E+03 0.  1.
         -6    1    1    2    0  503 -0.81231454336E+02 -0.55581512319E+02 -0.39571572544E+03  0.44256388131E+03  0.17200000000E+03 0.  1.
</event>
<event>
 4    1  0.1222208E+000  0.1992729E+03  0.7818608E-02  0.1150354E+00
         21   -1    0    0  501  502  0.00000000000E+00  0.00000000000E+00  0.90227371277E+02  0.90227371277E+02  0.00000000000E+00 0.  1.
         21   -1    0    0  502  503 -0.00000000000E+00 -0.00000000000E+00 -0.50726415359E+03  0.50726415359E+03  0.00000000000E+00 0.  1.
          6    1    1    2  501    0 -0.23189836234E+02 -0.97917885218E+02 -0.99817923041E+02  0.22287507378E+03  0.17200000000E+03 0.  1.
         -6    1    1    2    0  503  0.23189836234E+02  0.97917885218E+02 -0.31721885927E+03  0.37461645109E+03  0.17200000000E+03 0.  1.
</event>
<event>
 4    1  0.1222208E+000  0.1813727E+03  0.7818608E-02  0.1166481E+00
         21   -1    0    0  501  502  0.00000000000E+00  0.00000000000E+00  0.78572587483E+03  0.78572587483E+03  0.00000000000E+00 0. -1.
         21   -1    0    0  502  503 -0.00000000000E+00 -0.00000000000E+00 -0.33039716429E+03  0.33039716429E+03  0.00000000000E+00 0.  1.
          6    1    1    2  501    0  0.50068018294E+02 -0.28376756499E+02  0.74917055320E+03  0.77081292448E+03  0.17200000000E+03 0. -1.
         -6    1    1    2    0  503 -0.50068018294E+02  0.28376756499E+02 -0.29384184267E+03  0.34531011464E+03  0.17200000000E+03 0.  1.
</event>
<event>
 4    1  0.1222208E+000  0.3175197E+03  0.7818608E-02  0.1076796E+00
         21   -1    0    0  501  502  0.00000000000E+00  0.00000000000E+00  0.30987911288E+03  0.30987911288E+03  0.00000000000E+00 0. -1.
         21   -1    0    0  502  503 -0.00000000000E+00 -0.00000000000E+00 -0.50854736919E+03  0.50854736919E+03  0.00000000000E+00 0. -1.
          6    1    1    2  501    0 -0.26440824502E+03 -0.36373694105E+02  0.14627535572E+03  0.34959297097E+03  0.17200000000E+03 0. -1.
         -6    1    1    2    0  503  0.26440824502E+03  0.36373694105E+02 -0.34494361203E+03  0.46883351110E+03  0.17200000000E+03 0. -1.
</event>
<event>
 4    1  0.1222208E+000  0.1750682E+03  0.7818608E-02  0.1172663E+00
         21   -1    0    0  503  502  0.00000000000E+00  0.00000000000E+00  0.64726599037E+02  0.64726599037E+02  0.00000000000E+00 0. -1.
         21   -1    0    0  501  503 -0.00000000000E+00 -0.00000000000E+00 -0.73605929742E+03  0.73605929742E+03  0.00000000000E+00 0. -1.
          6    1    1    2  501    0 -0.28035667642E+02  0.16699177585E+02 -0.57479592077E+03  0.60086538569E+03  0.17200000000E+03 0.  1.
         -6    1    1    2    0  502  0.28035667642E+02 -0.16699177585E+02 -0.96536777618E+02  0.19992051077E+03  0.17200000000E+03 0.  1.
</event>
<event>
 4    1  0.1222208E+000  0.1756877E+03  0.7818608E-02  0.1172043E+00
         21   -1    0    0  501  502  0.00000000000E+00  0.00000000000E+00  0.13715715385E+03  0.13715715385E+03  0.00000000000E+00 0.  1.
         21   -1    0    0  502  503 -0.00000000000E+00 -0.00000000000E+00 -0.36708156995E+03  0.36708156995E+03  0.00000000000E+00 0.  1.
          6    1    1    2  501    0  0.35781710102E+02 -0.13614863219E+01  0.41867692749E+02  0.18060755277E+03  0.17200000000E+03 0.  1.
         -6    1    1    2    0  503 -0.35781710102E+02  0.13614863219E+01 -0.27179210885E+03  0.32363117102E+03  0.17200000000E+03 0.  1.
</event>
<event>
 4    1  0.1222208E+000  0.2121925E+03  0.7818608E-02  0.1139841E+00
         21   -1    0    0  501  502  0.00000000000E+00  0.00000000000E+00  0.16847826734E+03  0.16847826734E+03  0.00000000000E+00 0.  1.
         21   -1    0    0  502  503 -0.00000000000E+00 -0.00000000000E+00 -0.76821860926E+03  0.76821860926E+03  0.00000000000E+00 0.  1.
          6    1    1    2  501    0  0.96715279988E+02 -0.78024379845E+02  0.78339259161E+02  0.22619170798E+03  0.17200000000E+03 0.  1.
         -6    1    1    2    0  503 -0.96715279988E+02  0.78024379845E+02 -0.67807960108E+03  0.71050516862E+03  0.17200000000E+03 0.  1.
</event>
<event>
 4    1  0.1222208E+000  0.2027612E+03  0.7818608E-02  0.1147430E+00
         21   -1    0    0  503  502  0.00000000000E+00  0.00000000000E+00  0.18042942675E+03  0.18042942675E+03  0.00000000000E+00 0.  1.
         21   -1    0    0  501  503 -0.00000000000E+00 -0.00000000000E+00 -0.22867667030E+03  0.22867667030E+03  0.00000000000E+00 0. -1.
          6    1    1    2  501    0 -0.47615804253E+02 -0.96233158130E+02 -0.11876121941E+02  0.20310866011E+03  0.17200000000E+03 0.  1.
         -6    1    1    2    0  502  0.47615804253E+02  0.96233158130E+02 -0.36371121613E+02  0.20599743694E+03  0.17200000000E+03 0. -1.
</event>
<event>
 4    1  0.1222208E+000  0.1734589E+03  0.7818608E-02  0.1174288E+00
         21   -1    0    0  503  502  0.00000000000E+00  0.00000000000E+00  0.16382496345E+04  0.16382496345E+04  0.00000000000E+00 0. -1.
         21   -1    0    0  501  503 -0.00000000000E+00 -0.00000000000E+00 -0.18553530857E+02  0.18553530857E+02  0.00000000000E+00 0. -1.
          6    1    1    2  501    0  0.11910885637E+02  0.19029726638E+02  0.89314513499E+03  0.90983307911E+03  0.17200000000E+03 0.  1.
         -6    1    1    2    0  502 -0.11910885637E+02 -0.19029726638E+02  0.72655096869E+03  0.74697008628E+03  0.17200000000E+03 0.  1.
</event>
<event>
 4    1  0.1222208E+000  0.1806347E+03  0.7818608E-02  0.1167190E+00
         21   -1    0    0  503  502  0.00000000000E+00  0.00000000000E+00  0.84154617122E+02  0.84154617122E+02  0.00000000000E+00 0. -1.
         21   -1    0    0  501  503 -0.00000000000E+00 -0.00000000000E+00 -0.39888463747E+03  0.39888463747E+03  0.00000000000E+00 0. -1.
          6    1    1    2  501    0  0.19036728092E+02  0.51792746893E+02 -0.19776165784E+03  0.26784054764E+03  0.17200000000E+03 0. -1.
         -6    1    1    2    0  502 -0.19036728092E+02 -0.51792746893E+02 -0.11696836251E+03  0.21519870696E+03  0.17200000000E+03 0. -1.
</event>
<event>
 4    1  0.1222208E+000  0.1908636E+03  0.7818608E-02  0.1157685E+00
         21   -1    0    0  501  502  0.00000000000E+00  0.00000000000E+00  0.61345505524E+02  0.61345505524E+02  0.00000000000E+00 0. -1.
         21   -1    0    0  502  503 -0.00000000000E+00 -0.00000000000E+00 -0.59437951065E+03  0.59437951065E+03  0.00000000000E+00 0. -1.
          6    1    1    2  501    0  0.60980494893E+02  0.55913128826E+02 -0.27647153701E+03  0.33595447535E+03  0.17200000000E+03 0. -1.
         -6    1    1    2    0  503 -0.60980494893E+02 -0.55913128826E+02 -0.25656246812E+03  0.31977054082E+03  0.17200000000E+03 0. -1.
</event>
<event>
 4    1  0.1222208E+000  0.2295398E+03  0.7818608E-02  0.1126964E+00
         21   -1    0    0  503  502  0.00000000000E+00  0.00000000000E+00  0.13741542405E+03  0.13741542405E+03  0.00000000000E+00 0. -1.
         21   -1    0    0  501  503 -0.00000000000E+00 -0.00000000000E+00 -0.10684275620E+04  0.10684275620E+04  0.00000000000E+00 0.  1.
          6    1    1    2  501    0 -0.87008095883E+02 -0.12463593194E+03 -0.94826941320E+03  0.97565537168E+03  0.17200000000E+03 0.  1.
         -6    1    1    2    0  502  0.87008095883E+02  0.12463593194E+03  0.17257275205E+02  0.23018761441E+03  0.17200000000E+03 0. -1.
</event>
<event>
 4    1  0.1222208E+000  0.2386168E+03  0.7818608E-02  0.1120718E+00
         21   -1    0    0  501  502  0.00000000000E+00  0.00000000000E+00  0.44244049024E+03  0.44244049024E+03  0.00000000000E+00 0.  1.
         21   -1    0    0  502  503 -0.00000000000E+00 -0.00000000000E+00 -0.13209976665E+03  0.13209976665E+03  0.00000000000E+00 0.  1.
          6    1    1    2  501    0  0.11947013692E+03  0.11437159105E+03  0.20131884902E+03  0.31219745903E+03  0.17200000000E+03 0.  1.
         -6    1    1    2    0  503 -0.11947013692E+03 -0.11437159105E+03  0.10902187458E+03  0.26234279786E+03  0.17200000000E+03 0.  1.
</event>
<event>
 4    1  0.1222208E+000  0.1837218E+03  0.7818608E-02  0.1164249E+00
         21   -1    0    0  503  502  0.00000000000E+00  0.00000000000E+00  0.18653111964E+02  0.18653111964E+02  0.00000000000E+00 0. -1.
         21   -1    0    0  501  503 -0.00000000000E+00 -0.00000000000E+00 -0.25499012256E+04  0.25499012256E+04  0.00000000000E+00 0. -1.
          6    1    1    2  501    0  0.30189034512E+02 -0.57081739598E+02 -0.19576407141E+04  0.19662428304E+04  0.17200000000E+03 0. -1.
         -6    1    1    2    0  502 -0.30189034512E+02  0.57081739598E+02 -0.57360739959E+03  0.60231150717E+03  0.17200000000E+03 0. -1.
</event>
<event>
 4    1  0.1222208E+000  0.1731510E+03  0.7818608E-02  0.1174601E+00
         21   -1    0    0  501  502  0.00000000000E+00  0.00000000000E+00  0.15987768201E+03  0.15987768201E+03  0.00000000000E+00 0.  1.
         21   -1    0    0  502  503 -0.00000000000E+00 -0.00000000000E+00 -0.19688576134E+03  0.19688576134E+03  0.00000000000E+00 0.  1.
          6    1    1    2  501    0  0.72267509883E+01  0.18575522053E+02  0.20388632574E+02  0.17434727496E+03  0.17200000000E+03 0.  1.
         -6    1    1    2    0  503 -0.72267509883E+01 -0.18575522053E+02 -0.57396711901E+02  0.18241616838E+03  0.17200000000E+03 0.  1.
</event>
<event>
 4    1  0.1222208E+000  0.2189231E+03  0.7818608E-02  0.1134688E+00
         21   -1    0    0  503  502  0.00000000000E+00  0.00000000000E+00  0.39378811236E+02  0.39378811236E+02  0.00000000000E+00 0.  1.
         21   -1    0    0  501  503 -0.00000000000E+00 -0.00000000000E+00 -0.13680795803E+04  0.13680795803E+04  0.00000000000E+00 0. -1.
          6    1    1    2  501    0  0.13053517572E+03  0.36109490548E+02 -0.89814353107E+03  0.92443990059E+03  0.17200000000E+03 0. -1.
         -6    1    1    2    0  502 -0.13053517572E+03 -0.36109490548E+02 -0.43055723803E+03  0.48301849098E+03  0.17200000000E+03 0.  1.
</event>
<event>
 4    1  0.1222208E+000  0.1809231E+03  0.7818608E-02  0.1166913E+00
         21   -1    0    0  503  502  0.00000000000E+00  0.00000000000E+00  0.78556896128E+02  0.78556896128E+02  0.00000000000E+00 0.  1.
         21   -1    0    0  501  503 -0.00000000000E+00 -0.00000000000E+00 -0.50215665867E+03  0.50215665867E+03  0.00000000000E+00 0.  1.
          6    1    1    2  501    0  0.34231142861E+02  0.44468074959E+02 -0.33159334000E+03  0.37773975693E+03  0.17200000000E+03 0.  1.
         -6    1    1    2    0  502 -0.34231142861E+02 -0.44468074959E+02 -0.92006422538E+02  0.20297379787E+03  0.17200000000E+03 0.  1.
</event>
<event>
 4    1  0.1222208E+000  0.2808666E+03  0.7818608E-02  0.1095217E+00
         21   -1    0    0  503  502  0.00000000000E+00  0.00000000000E+00  0.10655509530E+03  0.10655509530E+03  0.00000000000E+00 0.  1.
         21   -1    0    0  501  503 -0.00000000000E+00 -0.00000000000E+00 -0.74035779909E+03  0.74035779909E+03  0.00000000000E+00 0. -1.
          6    1    1    2  501    0 -0.16616219125E+03  0.14728260936E+03 -0.31435390473E+03  0.42155001867E+03  0.17200000000E+03 0.  1.
         -6    1    1    2    0  502  0.16616219125E+03 -0.14728260936E+03 -0.31944879906E+03  0.42536287572E+03  0.17200000000E+03 0.  1.
</event>
<event>
 4    1  0.1222208E+000  0.2499080E+03  0.7818608E-02  0.1113363E+00
         21   -1    0    0  503  502  0.00000000000E+00  0.00000000000E+00  0.37131205915E+02  0.37131205915E+02  0.00000000000E+00 0. -1.
         21   -1    0    0  501  503 -0.00000000000E+00 -0.00000000000E+00 -0.18926859029E+04  0.18926859029E+04  0.00000000000E+00 0. -1.
          6    1    1    2  501    0 -0.79985753010E+02  0.16270300118E+03 -0.12497241249E+04  0.12744663101E+04  0.17200000000E+03 0. -1.
         -6    1    1    2    0  502  0.79985753010E+02 -0.16270300118E+03 -0.60583057211E+03  0.65535079872E+03  0.17200000000E+03 0. -1.
</event>
<event>
 4    1  0.1222208E+000  0.2403194E+03  0.7818608E-02  0.1119580E+00
         21   -1    0    0  503  502  0.00000000000E+00  0.00000000000E+00  0.28049499924E+03  0.28049499924E+03  0.00000000000E+00 0. -1.
         21   -1    0    0  501  503 -0.00000000000E+00 -0.00000000000E+00 -0.22108043046E+03  0.22108043046E+03  0.00000000000E+00 0. -1.
          6    1    1    2  501    0  0.15976351555E+03 -0.51430088100E+02  0.95427337762E+02  0.25857264290E+03  0.17200000000E+03 0. -1.
         -6    1    1    2    0  502 -0.15976351555E+03  0.51430088100E+02 -0.36012768981E+02  0.24300278680E+03  0.17200000000E+03 0. -1.
</event>
<event>
 4    1  0.1222208E+000  0.2399478E+03  0.7818608E-02  0.1119828E+00
         21   -1    0    0  501  502  0.00000000000E+00  0.00000000000E+00  0.12192087187E+03  0.12192087187E+03  0.00000000000E+00 0. -1.
         21   -1    0    0  502  503 -0.00000000000E+00 -0.00000000000E+00 -0.69922147595E+03  0.69922147595E+03  0.00000000000E+00 0. -1.
          6    1    1    2  501    0  0.16706262655E+03  0.90009515384E+01 -0.54721375969E+02  0.24610844623E+03  0.17200000000E+03 0. -1.
         -6    1    1    2    0  503 -0.16706262655E+03 -0.90009515384E+01 -0.52257922812E+03  0.57503390159E+03  0.17200000000E+03 0. -1.
</event>
<event>
 4    1  0.1222208E+000  0.1741818E+03  0.7818608E-02  0.1173556E+00
         21   -1    0    0  503  502  0.00000000000E+00  0.00000000000E+00  0.64174190324E+03  0.64174190324E+03  0.00000000000E+00 0.  1.
         21   -1    0    0  501  503 -0.00000000000E+00 -0.00000000000E+00 -0.10758361318E+03  0.10758361318E+03  0.00000000000E+00 0.  1.
          6    1    1    2  501    0  0.27455732992E+02  0.12103148647E+01  0.54759143620E+03  0.57462654232E+03  0.17200000000E+03 0. -1.
         -6    1    1    2    0  502 -0.27455732992E+02 -0.12103148647E+01 -0.13433146150E+02  0.17469897410E+03  0.17200000000E+03 0. -1.
</event>
<event>
 4    1  0.1222208E+000  0.1780143E+03  0.7818608E-02  0.1169739E+00
         21   -1    0    0  503  502  0.00000000000E+00  0.00000000000E+00  0.32244455975E+03  0.32244455975E+03  0.00000000000E+00 0.  1.
         21   -1    0    0  501  503 -0.00000000000E+00 -0.00000000000E+00 -0.17256603367E+03  0.17256603367E+03  0.00000000000E+00 0.  1.
          6    1    1    2  501    0  0.14410209309E+02  0.43559658833E+02 -0.87453717689E+02  0.19833620635E+03  0.17200000000E+03 0.  1.
         -6    1    1    2    0  502 -0.14410209309E+02 -0.43559658833E+02  0.23733224378E+03  0.29667438708E+03  0.17200000000E+03 0.  1.
</event>
<event>
 4    1  0.1222208E+000  0.1739958E+03  0.7818608E-02  0.1173744E+00
         21   -1    0    0  501  502  0.00000000000E+00  0.00000000000E+00  0.38235918070E+03  0.38235918070E+03  0.00000000000E+00 0. -1.
         21   -1    0    0  502  503 -0.00000000000E+00 -0.00000000000E+00 -0.80799979292E+02  0.80799979292E+02  0.00000000000E+00 0. -1.
          6    1    1    2  501    0  0.25464204073E+02  0.64895324557E+01  0.11797152990E+03  0.21021850915E+03  0.17200000000E+03 0.  1.
         -6    1    1    2    0  503 -0.25464204073E+02 -0.64895324557E+01  0.18358767150E+03  0.25294065084E+03  0.17200000000E+03 0.  1.
</event>
<event>
 4    1  0.1222208E+000  0.2879355E+03  0.7818608E-02  0.1091432E+00
         21   -1    0    0  501  502  0.00000000000E+00  0.00000000000E+00  0.51190350822E+03  0.51190350822E+03  0.00000000000E+00 0.  1.
         21   -1    0    0  502  503 -0.00000000000E+00 -0.00000000000E+00 -0.17061625807E+03  0.17061625807E+03  0.00000000000E+00 0.  1.
          6    1    1    2  501    0  0.10829517077E+03  0.20394859902E+03  0.24751948159E+03  0.37970089389E+03  0.17200000000E+03 0.  1.
         -6    1    1    2    0  503 -0.10829517077E+03 -0.20394859902E+03  0.93767768560E+02  0.30281887239E+03  0.17200000000E+03 0.  1.
</event>
<event>
 4    1  0.1222208E+000  0.1836726E+03  0.7818608E-02  0.1164295E+00
         21   -1    0    0  501  502  0.00000000000E+00  0.00000000000E+00  0.29807615692E+02  0.29807615692E+02  0.00000000000E+00 0. -1.
         21   -1    0    0  502  503 -0.00000000000E+00 -0.00000000000E+00 -0.12544980153E+04  0.12544980153E+04  0.00000000000E+00 0. -1.
          6    1    1    2  501    0 -0.64102186666E+02  0.65209641449E+01 -0.81318997117E+03  0.83367472226E+03  0.17200000000E+03 0. -1.
         -6    1    1    2    0  503  0.64102186666E+02 -0.65209641449E+01 -0.41150042846E+03  0.45063090876E+03  0.17200000000E+03 0. -1.
</event>
<event>
 4    1  0.1222208E+000  0.1730354E+03  0.7818608E-02  0.1174719E+00
         21   -1    0    0  501  502  0.00000000000E+00  0.00000000000E+00  0.19790109295E+03  0.19790109295E+03  0.00000000000E+00 0.  1.
         21   -1    0    0  502  503 -0.00000000000E+00 -0.00000000000E+00 -0.15543068549E+03  0.15543068549E+03  0.00000000000E+00 0.  1.
          6    1    1    2  501    0 -0.16581251680E+02  0.90717989247E+01  0.50056525448E+02  0.18013020619E+03  0.17200000000E+03 0.  1.
         -6    1    1    2    0  503  0.16581251680E+02 -0.90717989247E+01 -0.75861179817E+01  0.17320157225E+03  0.17200000000E+03 0.  1.
</event>
<event>
 4    1  0.1222208E+000  0.2803381E+03  0.7818608E-02  0.1095504E+00
         21   -1    0    0  501  502  0.00000000000E+00  0.00000000000E+00  0.11044477346E+03  0.11044477346E+03  0.00000000000E+00 0.  1.
         21   -1    0    0  502  503 -0.00000000000E+00 -0.00000000000E+00 -0.71234767837E+03  0.71234767837E+03  0.00000000000E+00 0.  1.
          6    1    1    2  501    0  0.13641733659E+03  0.17434380082E+03 -0.31452358132E+03  0.42132473677E+03  0.17200000000E+03 0. -1.
         -6    1    1    2    0  503 -0.13641733659E+03 -0.17434380082E+03 -0.28737932359E+03  0.40146771506E+03  0.17200000000E+03 0. -1.
</event>
<event>
 4    1  0.1222208E+000  0.2044139E+03  0.7818608E-02  0.1146068E+00
         21   -1    0    0  501  502  0.00000000000E+00  0.00000000000E+00  0.28931458265E+03  0.28931458265E+03  0.00000000000E+00 0. -1.
         21   -1    0    0  502  503 -0.00000000000E+00 -0.00000000000E+00 -0.52785620359E+03  0.52785620359E+03  0.00000000000E+00 0.  1.
          6    1    1    2  501    0 -0.91187544562E+02 -0.62336884513E+02  0.22895999567E+03  0.30693278591E+03  0.17200000000E+03 0. -1.
         -6    1    1    2    0  503  0.91187544562E+02  0.62336884513E+02 -0.46750161661E+03  0.51023800033E+03  0.17200000000E+03 0.  1.
</event>
<event>
 4    1  0.1222208E+000  0.1787514E+03  0.7818608E-02  0.1169017E+00
         21   -1    0    0  501  502  0.00000000000E+00  0.00000000000E+00  0.10460937440E+03  0.10460937440E+03  0.00000000000E+00 0. -1.
         21   -1    0    0  502  503 -0.00000000000E+00 -0.00000000000E+00 -0.33324383895E+03  0.33324383895E+03  0.00000000000E+00 0.  1.
          6    1    1    2  501    0  0.14682228889E+02  0.46395143560E+02 -0.51082499578E+02  0.18590723212E+03  0.17200000000E+03 0. -1.
         -6    1    1    2    0  503 -0.14682228889E+02 -0.46395143560E+02 -0.17755196498E+03  0.25194598123E+03  0.17200000000E+03 0.  1.
</event>
<event>
 4    1  0.1222208E+000  0.1872730E+03  0.7818608E-02  0.1160944E+00
         21   -1    0    0  501  502  0.00000000000E+00  0.00000000000E+00  0.17788439518E+04  0.17788439518E+04  0.00000000000E+00 0.  1.
         21   -1    0    0  502  503 -0.00000000000E+00 -0.00000000000E+00 -0.29631561934E+02  0.29631561934E+02  0.00000000000E+00 0.  1.
          6    1    1    2  501    0 -0.61147608717E+02 -0.41811038780E+02  0.13976886056E+04  0.14101789359E+04  0.17200000000E+03 0.  1.
         -6    1    1    2    0  503  0.61147608717E+02  0.41811038780E+02  0.35152378429E+03  0.39829657786E+03  0.17200000000E+03 0.  1.
</event>
<event>
 4    1  0.1222208E+000  0.3045837E+03  0.7818608E-02  0.1082971E+00
         21   -1    0    0  503  502  0.00000000000E+00  0.00000000000E+00  0.58215661920E+03  0.58215661920E+03  0.00000000000E+00 0. -1.
         21   -1    0    0  501  503 -0.00000000000E+00 -0.00000000000E+00 -0.16242521911E+03  0.16242521911E+03  0.00000000000E+00 0.  1.
          6    1    1    2  501    0  0.87293719449E+02 -0.23572660375E+03  0.26102669465E+03  0.40113110137E+03  0.17200000000E+03 0.  1.
         -6    1    1    2    0  502 -0.87293719449E+02  0.23572660375E+03  0.15870470545E+03  0.34345073694E+03  0.17200000000E+03 0. -1.
</event>
<event>
 4    1  0.1222208E+000  0.2298046E+03  0.7818608E-02  0.1126777E+00
         21   -1    0    0  503  502  0.00000000000E+00  0.00000000000E+00  0.50958063183E+03  0.50958063183E+03  0.00000000000E+00 0. -1.
         21   -1    0    0  501  503 -0.00000000000E+00 -0.00000000000E+00 -0.11881837980E+03  0.11881837980E+03  0.00000000000E+00 0.  1.
          6    1    1    2  501    0  0.11675753896E+03 -0.97948075615E+02  0.83061756211E+02  0.24435507723E+03  0.17200000000E+03 0.  1.
         -6    1    1    2    0  502 -0.11675753896E+03  0.97948075615E+02  0.30770049582E+03  0.38404393440E+03  0.17200000000E+03 0. -1.
</event>
<event>
 4    1  0.1222208E+000  0.3074772E+03  0.7818608E-02  0.1081561E+00
         21   -1    0    0  501  502  0.00000000000E+00  0.00000000000E+00  0.38764745865E+03  0.38764745865E+03  0.00000000000E+00 0.  1.
         21   -1    0    0  502  503 -0.00000000000E+00 -0.00000000000E+00 -0.27138086073E+03  0.27138086073E+03  0.00000000000E+00 0. -1.
          6    1    1    2  501    0  0.14949692606E+03 -0.20641920805E+03  0.16301541218E+03  0.34801759289E+03  0.17200000000E+03 0. -1.
         -6    1    1    2    0  503 -0.14949692606E+03  0.20641920805E+03 -0.46748814261E+02  0.31101072649E+03  0.17200000000E+03 0. -1.
</event>
<event>
 4    1  0.1222208E+000  0.2077575E+03  0.7818608E-02  0.1143354E+00
         21   -1    0    0  503  502  0.00000000000E+00  0.00000000000E+00  0.13337789531E+03  0.13337789531E+03  0.00000000000E+00 0.  1.
         21   -1    0    0  501  503 -0.00000000000E+00 -0.00000000000E+00 -0.33231526605E+03  0.33231526605E+03  0.00000000000E+00 0.  1.
          6    1    1    2  501    0 -0.87445633296E+01 -0.11620119624E+03 -0.61794603005E+02  0.21675275859E+03  0.17200000000E+03 0. -1.
         -6    1    1    2    0  502  0.87445633296E+01  0.11620119624E+03 -0.13714276773E+03  0.24894040278E+03  0.17200000000E+03 0. -1.
</event>
<event>
 4    1  0.1222208E+000  0.1885951E+03  0.7818608E-02  0.1159735E+00
         21   -1    0    0  503  502  0.00000000000E+00  0.00000000000E+00  0.50603620578E+02  0.50603620578E+02  0.00000000000E+00 0. -1.
         21   -1    0    0  501  503 -0.00000000000E+00 -0.00000000000E+00 -0.89651560731E+03  0.89651560731E+03  0.00000000000E+00 0. -1.
          6    1    1    2  501    0  0.52954105195E+02 -0.56391108161E+02 -0.64304193247E+03  0.67012761565E+03  0.17200000000E+03 0. -1.
         -6    1    1    2    0  502 -0.52954105195E+02  0.56391108161E+02 -0.20287005426E+03  0.27699161224E+03  0.17200000000E+03 0. -1.
</event>
<event>
 4    1  0.1222208E+000  0.2742926E+03  0.7818608E-02  0.1098848E+00
         21   -1    0    0  501  502  0.00000000000E+00  0.00000000000E+00  0.23654828795E+03  0.23654828795E+03  0.00000000000E+00 0. -1.
         21   -1    0    0  502  503 -0.00000000000E+00 -0.00000000000E+00 -0.32761689595E+03  0.32761689595E+03  0.00000000000E+00 0.  1.
          6    1    1    2  501    0  0.67478644099E+02  0.20272901249E+03  0.26453765846E+01  0.27430533705E+03  0.17200000000E+03 0. -1.
         -6    1    1    2    0  503 -0.67478644099E+02 -0.20272901249E+03 -0.93713984583E+02  0.28985984686E+03  0.17200000000E+03 0. -1.
</event>
<event>
 4    1  0.1222208E+000  0.1844398E+03  0.7818608E-02  0.1163574E+00
         21   -1    0    0  503  502  0.00000000000E+00  0.00000000000E+00  0.48507030458E+03  0.48507030458E+03  0.00000000000E+00 0. -1.
         21   -1    0    0  501  503 -0.00000000000E+00 -0.00000000000E+00 -0.76074576496E+02  0.76074576496E+02  0.00000000000E+00 0. -1.
          6    1    1    2  501    0  0.35622810854E+02 -0.56258729019E+02  0.12606789846E+03  0.22340802194E+03  0.17200000000E+03 0. -1.
         -6    1    1    2    0  502 -0.35622810854E+02  0.56258729019E+02  0.28292782963E+03  0.33773685914E+03  0.17200000000E+03 0. -1.
</event>
<event>
 4    1  0.1222208E+000  0.1898157E+03  0.7818608E-02  0.1158628E+00
         21   -1    0    0  503  502  0.00000000000E+00  0.00000000000E+00  0.21953533474E+03  0.21953533474E+03  0.00000000000E+00 0. -1.
         21   -1    0    0  501  503 -0.00000000000E+00 -0.00000000000E+00 -0.17551394491E+03  0.17551394491E+03  0.00000000000E+00 0. -1.
          6    1    1    2  501    0  0.69592908988E+02 -0.40035305942E+02 -0.28317889262E+02  0.19191639210E+03  0.17200000000E+03 0.  1.
         -6    1    1    2    0  502 -0.69592908988E+02  0.40035305942E+02  0.72339279094E+02  0.20313288755E+03  0.17200000000E+03 0.  1.
</event>
<event>
 4    1  0.1222208E+000  0.1761777E+03  0.7818608E-02  0.1171554E+00
         21   -1    0    0  503  502  0.00000000000E+00  0.00000000000E+00  0.28236190738E+03  0.28236190738E+03  0.00000000000E+00 0.  1.
         21   -1    0    0  501  503 -0.00000000000E+00 -0.00000000000E+00 -0.12250259643E+03  0.12250259643E+03  0.00000000000E+00 0.  1.
          6    1    1    2  501    0  0.26188587089E+02  0.27725920224E+02  0.15064749076E+02  0.17682057406E+03  0.17200000000E+03 0.  1.
         -6    1    1    2    0  502 -0.26188587089E+02 -0.27725920224E+02  0.14479456187E+03  0.22804392975E+03  0.17200000000E+03 0.  1.
</event>
<event>
 4    1  0.1222208E+000  0.3219400E+03  0.7818608E-02  0.1074760E+00
         21   -1    0    0  501  502  0.00000000000E+00  0.00000000000E+00  0.22824631401E+03  0.22824631401E+03  0.00000000000E+00 0. -1.
         21   -1    0    0  502  503 -0.00000000000E+00 -0.00000000000E+00 -0.45991755966E+03  0.45991755966E+03  0.00000000000E+00 0.  1.
          6    1    1    2  501    0  0.97314708850E+02 -0.25414800680E+03 -0.77118503197E+02  0.33104776914E+03  0.17200000000E+03 0.  1.
         -6    1    1    2    0  503 -0.97314708850E+02  0.25414800680E+03 -0.15455274245E+03  0.35711610453E+03  0.17200000000E+03 0.  1.
</event>
<event>
 4    1  0.1222208E+000  0.1737064E+03  0.7818608E-02  0.1174037E+00
         21   -1    0    0  503  502  0.00000000000E+00  0.00000000000E+00  0.22752890026E+03  0.22752890026E+03  0.00000000000E+00 0. -1.
         21   -1    0    0  501  503 -0.00000000000E+00 -0.00000000000E+00 -0.13703971076E+03  0.13703971076E+03  0.00000000000E+00 0. -1.
          6    1    1    2  501    0  0.14284780632E+02 -0.19643565029E+02  0.12493201096E+02  0.17415511672E+03  0.17200000000E+03 0.  1.
         -6    1    1    2    0  502 -0.14284780632E+02  0.19643565029E+02  0.77995988402E+02  0.19041349430E+03  0.17200000000E+03 0.  1.
</event>
<event>
 4    1  0.1222208E+000  0.2770235E+03  0.7818608E-02  0.1097326E+00
         21   -1    0    0  503  502  0.00000000000E+00  0.00000000000E+00  0.67305526976E+03  0.67305526976E+03  0.00000000000E+00 0.  1.
         21   -1    0    0  501  503 -0.00000000000E+00 -0.00000000000E+00 -0.12497773340E+03  0.12497773340E+03  0.00000000000E+00 0. -1.
          6    1    1    2  501    0  0.18479099651E+03 -0.11406263985E+03  0.15589034203E+03  0.31787386954E+03  0.17200000000E+03 0. -1.
         -6    1    1    2    0  502 -0.18479099651E+03  0.11406263985E+03  0.39218719433E+03  0.48015913362E+03  0.17200000000E+03 0. -1.
</event>
<event>
 4    1  0.1222208E+000  0.2628562E+03  0.7818608E-02  0.1105439E+00
         21   -1    0    0  503  502  0.00000000000E+00  0.00000000000E+00  0.17459599745E+03  0.17459599745E+03  0.00000000000E+00 0. -1.
         21   -1    0    0  501  503 -0.00000000000E+00 -0.00000000000E+00 -0.39646020397E+03  0.39646020397E+03  0.00000000000E+00 0.  1.
          6    1    1    2  501    0  0.19341065601E+03 -0.45844458052E+02 -0.98703410669E+02  0.28077706365E+03  0.17200000000E+03 0. -1.
         -6    1    1    2    0  502 -0.19341065601E+03  0.45844458052E+02 -0.12316079585E+03  0.29027913778E+03  0.17200000000E+03 0.  1.
</event>
<event>
 4    1  0.1222208E+000  0.3005266E+03  0.7818608E-02  0.1084978E+00
         21   -1    0    0  501  502  0.00000000000E+00  0.00000000000E+00  0.55539576860E+03  0.55539576860E+03  0.00000000000E+00 0.  1.
         21   -1    0    0  502  503 -0.00000000000E+00 -0.00000000000E+00 -0.40644345212E+03  0.40644345212E+03  0.00000000000E+00 0. -1.
          6    1    1    2  501    0  0.24062605338E+03 -0.53210460713E+02  0.44696537197E+03  0.53860402378E+03  0.17200000000E+03 0.  1.
         -6    1    1    2    0  503 -0.24062605338E+03  0.53210460713E+02 -0.29801305549E+03  0.42323519694E+03  0.17200000000E+03 0. -1.
</event>
<event>
 4    1  0.1222208E+000  0.2488745E+03  0.7818608E-02  0.1114018E+00
         21   -1    0    0  501  502  0.00000000000E+00  0.00000000000E+00  0.39096204637E+03  0.39096204637E+03  0.00000000000E+00 0.  1.
         21   -1    0    0  502  503 -0.00000000000E+00 -0.00000000000E+00 -0.22351662495E+03  0.22351662495E+03  0.00000000000E+00 0. -1.
          6    1    1    2  501    0  0.17547833658E+03  0.39520310632E+02  0.24952157937E+03  0.35241952292E+03  0.17200000000E+03 0.  1.
         -6    1    1    2    0  503 -0.17547833658E+03 -0.39520310632E+02 -0.82076157946E+02  0.26205914841E+03  0.17200000000E+03 0. -1.
</event>
<event>
 4    1  0.1222208E+000  0.1833105E+03  0.7818608E-02  0.1164637E+00
         21   -1    0    0  503  502  0.00000000000E+00  0.00000000000E+00  0.62466763397E+02  0.62466763397E+02  0.00000000000E+00 0.  1.
         21   -1    0    0  501  503 -0.00000000000E+00 -0.00000000000E+00 -0.53879175797E+03  0.53879175797E+03  0.00000000000E+00 0.  1.
          6    1    1    2  501    0 -0.40742701412E+02  0.48567266978E+02 -0.22613960460E+03  0.29110456525E+03  0.17200000000E+03 0. -1.
         -6    1    1    2    0  502  0.40742701412E+02 -0.48567266978E+02 -0.25018538997E+03  0.31015395612E+03  0.17200000000E+03 0. -1.
</event>
<event>
 4    1  0.1222208E+000  0.1869029E+03  0.7818608E-02  0.1161285E+00
         21   -1    0    0  501  502  0.00000000000E+00  0.00000000000E+00  0.47208882201E+03  0.47208882201E+03  0.00000000000E+00 0.  1.
         21   -1    0    0  502  503 -0.00000000000E+00 -0.00000000000E+00 -0.96825469525E+02  0.96825469525E+02  0.00000000000E+00 0.  1.
          6    1    1    2  501    0 -0.67047809940E+02  0.29211302459E+02  0.32575577519E+03  0.37556561887E+03  0.17200000000E+03 0.  1.
         -6    1    1    2    0  503  0.67047809940E+02 -0.29211302459E+02  0.49507577289E+02  0.19334867266E+03  0.17200000000E+03 0.  1.
</event>
<event>
 4    1  0.1222208E+000  0.1740926E+03  0.7818608E-02  0.1173646E+00
         21   -1    0    0  503  502  0.00000000000E+00  0.00000000000E+00  0.10934783857E+03  0.10934783857E+03  0.00000000000E+00 0. -1.
         21   -1    0    0  501  503 -0.00000000000E+00 -0.00000000000E+00 -0.34560181930E+03  0.34560181930E+03  0.00000000000E+00 0. -1.
          6    1    1    2  501    0  0.10200591113E+02  0.24903406395E+02 -0.21934689572E+03  0.28003801951E+03  0.17200000000E+03 0. -1.
         -6    1    1    2    0  502 -0.10200591113E+02 -0.24903406395E+02 -0.16907085015E+02  0.17491163836E+03  0.17200000000E+03 0. -1.
</event>
<event>
 4    1  0.1222208E+000  0.1811984E+03  0.7818608E-02  0.1166648E+00
         21   -1    0    0  503  502  0.00000000000E+00  0.00000000000E+00  0.15796717440E+04  0.15796717440E+04  0.00000000000E+00 0.  1.
         21   -1    0    0  501  503 -0.00000000000E+00 -0.00000000000E+00 -0.52532989670E+02  0.52532989670E+02  0.00000000000E+00 0.  1.
          6    1    1    2  501    0  0.50396891451E+02  0.26627152492E+02  0.12913106479E+03  0.22250322202E+03  0.17200000000E+03 0.  1.
         -6    1    1    2    0  502 -0.50396891451E+02 -0.26627152492E+02  0.13980076895E+04  0.14097015116E+04  0.17200000000E+03 0.  1.
</event>
<event>
 4    1  0.1222208E+000  0.1800529E+03  0.7818608E-02  0.1167752E+00
         21   -1    0    0  501  502  0.00000000000E+00  0.00000000000E+00  0.32741452569E+03  0.32741452569E+03  0.00000000000E+00 0. -1.
         21   -1    0    0  502  503 -0.00000000000E+00 -0.00000000000E+00 -0.10094857108E+03  0.10094857108E+03  0.00000000000E+00 0. -1.
          6    1    1    2  501    0 -0.10250544799E+02  0.52249017368E+02  0.14287331495E+03  0.22985172962E+03  0.17200000000E+03 0. -1.
         -6    1    1    2    0  503  0.10250544799E+02 -0.52249017368E+02  0.83592639661E+02  0.19851136716E+03  0.17200000000E+03 0. -1.
</event>
<event>
 4    1  0.1222208E+000  0.2153136E+03  0.7818608E-02  0.1137426E+00
         21   -1    0    0  503  502  0.00000000000E+00  0.00000000000E+00  0.14583569815E+03  0.14583569815E+03  0.00000000000E+00 0.  1.
         21   -1    0    0  501  503 -0.00000000000E+00 -0.00000000000E+00 -0.31895979604E+03  0.31895979604E+03  0.00000000000E+00 0.  1.
          6    1    1    2  501    0  0.16064478300E+02  0.12852191927E+03 -0.73113402101E+02  0.22738847983E+03  0.17200000000E+03 0. -1.
         -6    1    1    2    0  502 -0.16064478300E+02 -0.12852191927E+03 -0.10001069579E+03  0.23740701436E+03  0.17200000000E+03 0. -1.
</event>
<event>
 4    1  0.1222208E+000  0.2047668E+03  0.7818608E-02  0.1145778E+00
         21   -1    0    0  501  502  0.00000000000E+00  0.00000000000E+00  0.11584829787E+04  0.11584829787E+04  0.00000000000E+00 0.  1.
         21   -1    0    0  502  503 -0.00000000000E+00 -0.00000000000E+00 -0.65713420878E+02  0.65713420878E+02  0.00000000000E+00 0.  1.
          6    1    1    2  501    0  0.63162351139E+02 -0.91410944008E+02  0.95663834023E+03  0.97830790515E+03  0.17200000000E+03 0.  1.
         -6    1    1    2    0  503 -0.63162351139E+02  0.91410944008E+02  0.13613121759E+03  0.24588849442E+03  0.17200000000E+03 0.  1.
</event>
<event>
 4    1  0.1222208E+000  0.2762171E+03  0.7818608E-02  0.1097773E+00
         21   -1    0    0  503  502  0.00000000000E+00  0.00000000000E+00  0.15785289614E+03  0.15785289614E+03  0.00000000000E+00 0. -1.
         21   -1    0    0  501  503 -0.00000000000E+00 -0.00000000000E+00 -0.48856151396E+03  0.48856151396E+03  0.00000000000E+00 0.  1.
          6    1    1    2  501    0  0.12950193892E+03 -0.17303510926E+03 -0.19878217092E+03  0.34030905468E+03  0.17200000000E+03 0. -1.
         -6    1    1    2    0  502 -0.12950193892E+03  0.17303510926E+03 -0.13192644690E+03  0.30610535541E+03  0.17200000000E+03 0. -1.
</event>
<event>
 4    1  0.1222208E+000  0.1911974E+03  0.7818608E-02  0.1157386E+00
         21   -1    0    0  501  502  0.00000000000E+00  0.00000000000E+00  0.44562297277E+03  0.44562297277E+03  0.00000000000E+00 0.  1.
         21   -1    0    0  502  503 -0.00000000000E+00 -0.00000000000E+00 -0.10913644417E+03  0.10913644417E+03  0.00000000000E+00 0.  1.
          6    1    1    2  501    0  0.59943041141E+02  0.58131429252E+02  0.30646950199E+03  0.36122013634E+03  0.17200000000E+03 0.  1.
         -6    1    1    2    0  503 -0.59943041141E+02 -0.58131429252E+02  0.30017026613E+02  0.19353928060E+03  0.17200000000E+03 0.  1.
</event>
<event>
 4    1  0.1222208E+000  0.2711574E+03  0.7818608E-02  0.1100619E+00
         21   -1    0    0  503  502  0.00000000000E+00  0.00000000000E+00  0.81985438459E+03  0.81985438459E+03  0.00000000000E+00 0.  1.
         21   -1    0    0  501  503 -0.00000000000E+00 -0.00000000000E+00 -0.27303331616E+03  0.27303331616E+03  0.00000000000E+00 0. -1.
          6    1    1    2  501    0 -0.19750251043E+03  0.70250245593E+02 -0.17438474308E+03  0.32239165196E+03  0.17200000000E+03 0. -1.
         -6    1    1    2    0  502  0.19750251043E+03 -0.70250245593E+02  0.72120581152E+03  0.77049604879E+03  0.17200000000E+03 0.  1.
</event>
<event>
 4    1  0.1222208E+000  0.2068912E+03  0.7818608E-02  0.1144052E+00
         21   -1    0    0  501  502  0.00000000000E+00  0.00000000000E+00  0.10695847655E+03  0.10695847655E+03  0.00000000000E+00 0.  1.
         21   -1    0    0  502  503 -0.00000000000E+00 -0.00000000000E+00 -0.56076187383E+03  0.56076187383E+03  0.00000000000E+00 0.  1.
          6    1    1    2  501    0 -0.18011104608E+02 -0.11355858421E+03 -0.48250024181E+02  0.21244297299E+03  0.17200000000E+03 0. -1.
         -6    1    1    2    0  503  0.18011104608E+02  0.11355858421E+03 -0.40555337310E+03  0.45527737740E+03  0.17200000000E+03 0. -1.
</event>
<event>
 4    1  0.1222208E+000  0.1856406E+03  0.7818608E-02  0.1162453E+00
         21   -1    0    0  503  502  0.00000000000E+00  0.00000000000E+00  0.27276568660E+03  0.27276568660E+03  0.00000000000E+00 0.  1.
         21   -1    0    0  501  503 -0.00000000000E+00 -0.00000000000E+00 -0.39801706347E+03  0.39801706347E+03  0.00000000000E+00 0.  1.
          6    1    1    2  501    0 -0.31685045067E+02 -0.62245522329E+02 -0.33971764962E+03  0.38713115167E+03  0.17200000000E+03 0.  1.
         -6    1    1    2    0  502  0.31685045067E+02  0.62245522329E+02  0.21446627274E+03  0.28365159840E+03  0.17200000000E+03 0.  1.
</event>
<event>
 4    1  0.1222208E+000  0.2234043E+03  0.7818608E-02  0.1131370E+00
         21   -1    0    0  501  502  0.00000000000E+00  0.00000000000E+00  0.22933901291E+03  0.22933901291E+03  0.00000000000E+00 0. -1.
         21   -1    0    0  502  503 -0.00000000000E+00 -0.00000000000E+00 -0.25948362030E+03  0.25948362030E+03  0.00000000000E+00 0.  1.
          6    1    1    2  501    0  0.11934939860E+03  0.77982125628E+02  0.83095281075E+02  0.23835753942E+03  0.17200000000E+03 0. -1.
         -6    1    1    2    0  503 -0.11934939860E+03 -0.77982125628E+02 -0.11323988847E+03  0.25046509378E+03  0.17200000000E+03 0.  1.
</event>
<event>
 4    1  0.1222208E+000  0.1796488E+03  0.7818608E-02  0.1168143E+00
         21   -1    0    0  501  502  0.00000000000E+00  0.00000000000E+00  0.24650277103E+03  0.24650277103E+03  0.00000000000E+00 0.  1.
         21   -1    0    0  502  503 -0.00000000000E+00 -0.00000000000E+00 -0.37642059219E+03  0.37642059219E+03  0.00000000000E+00 0.  1.
          6    1    1    2  501    0 -0.17558158870E+02  0.48799634948E+02  0.18657042613E+03  0.25900234984E+03  0.17200000000E+03 0.  1.
         -6    1    1    2    0  503  0.17558158870E+02 -0.48799634948E+02 -0.31648824729E+03  0.36392101339E+03  0.17200000000E+03 0.  1.
</event>
<event>
 4    1  0.1222208E+000  0.2140733E+03  0.7818608E-02  0.1138380E+00
         21   -1    0    0  501  502  0.00000000000E+00  0.00000000000E+00  0.56377052051E+03  0.56377052051E+03  0.00000000000E+00 0. -1.
         21   -1    0    0  502  503 -0.00000000000E+00 -0.00000000000E+00 -0.93323438813E+02  0.93323438813E+02  0.00000000000E+00 0.  1.
          6    1    1    2  501    0 -0.12021497631E+03 -0.42329031919E+02  0.35321364295E+03  0.41302211205E+03  0.17200000000E+03 0. -1.
         -6    1    1    2    0  503  0.12021497631E+03  0.42329031919E+02  0.11723343874E+03  0.24407184727E+03  0.17200000000E+03 0.  1.
</event>
<event>
 4    1  0.1222208E+000  0.2665789E+03  0.7818608E-02  0.1103254E+00
         21   -1    0    0  503  502  0.00000000000E+00  0.00000000000E+00  0.75443970251E+03  0.75443970251E+03  0.00000000000E+00 0.  1.
         21   -1    0    0  501  503 -0.00000000000E+00 -0.00000000000E+00 -0.10066579848E+03  0.10066579848E+03  0.00000000000E+00 0.  1.
          6    1    1    2  501    0 -0.20009655748E+03  0.37969485207E+02  0.43528803369E+03  0.51043117695E+03  0.17200000000E+03 0.  1.
         -6    1    1    2    0  502  0.20009655748E+03 -0.37969485207E+02  0.21848587034E+03  0.34467432405E+03  0.17200000000E+03 0.  1.
</event>
<event>
 4    1  0.1222208E+000  0.1929951E+03  0.7818608E-02  0.1155787E+00
         21   -1    0    0  503  502  0.00000000000E+00  0.00000000000E+00  0.47985672702E+03  0.47985672702E+03  0.00000000000E+00 0.  1.
         21   -1    0    0  501  503 -0.00000000000E+00 -0.00000000000E+00 -0.10871903033E+03  0.10871903033E+03  0.00000000000E+00 0.  1.
          6    1    1    2  501    0  0.76669769262E+02 -0.42247399918E+02  0.28176348734E+02  0.19504102888E+03  0.17200000000E+03 0.  1.
         -6    1    1    2    0  502 -0.76669769262E+02  0.42247399918E+02  0.34296134796E+03  0.39353472847E+03  0.17200000000E+03 0.  1.
</event>
<event>
 4    1  0.1222208E+000  0.1740199E+03  0.7818608E-02  0.1173719E+00
         21   -1    0    0  503  502  0.00000000000E+00  0.00000000000E+00  0.35918267879E+03  0.35918267879E+03  0.00000000000E+00 0. -1.
         21   -1    0    0  501  503 -0.00000000000E+00 -0.00000000000E+00 -0.85645447367E+02  0.85645447367E+02  0.00000000000E+00 0. -1.
          6    1    1    2  501    0  0.26037279210E+02  0.45802452205E+01  0.10900214091E+03  0.20533968267E+03  0.17200000000E+03 0. -1.
         -6    1    1    2    0  502 -0.26037279210E+02 -0.45802452205E+01  0.16453509051E+03  0.23948844349E+03  0.17200000000E+03 0. -1.
</event>
<event>
 4    1  0.1222208E+000  0.3126307E+03  0.7818608E-02  0.1079092E+00
         21   -1    0    0  501  502  0.00000000000E+00  0.00000000000E+00  0.10451045293E+04  0.10451045293E+04  0.00000000000E+00 0.  1.
         21   -1    0    0  502  503 -0.00000000000E+00 -0.00000000000E+00 -0.11741672789E+03  0.11741672789E+03  0.00000000000E+00 0.  1.
          6    1    1    2  501    0 -0.54867353948E+02 -0.25523226085E+03  0.72607080288E+03  0.79051675777E+03  0.17200000000E+03 0.  1.
         -6    1    1    2    0  503  0.54867353948E+02  0.25523226085E+03  0.20161699856E+03  0.37200449946E+03  0.17200000000E+03 0.  1.
</event>
<event>
 4    1  0.1222208E+000  0.2085734E+03  0.7818608E-02  0.1142701E+00
         21   -1    0    0  501  502  0.00000000000E+00  0.00000000000E+00  0.27094028158E+03  0.27094028158E+03  0.00000000000E+00 0. -1.
         21   -1    0    0  502  503 -0.00000000000E+00 -0.00000000000E+00 -0.31755433978E+03  0.31755433978E+03  0.00000000000E+00 0. -1.
          6    1    1    2  501    0 -0.16132905961E+01  0.11796723699E+03  0.18358411414E+03  0.27785967443E+03  0.17200000000E+03 0. -1.
         -6    1    1    2    0  503  0.16132905961E+01 -0.11796723699E+03 -0.23019817234E+03  0.31063494693E+03  0.17200000000E+03 0. -1.
</event>
<event>
 4    1  0.1222208E+000  0.1822290E+03  0.7818608E-02  0.1165663E+00
         21   -1    0    0  503  502  0.00000000000E+00  0.00000000000E+00  0.24230433918E+03  0.24230433918E+03  0.00000000000E+00 0. -1.
         21   -1    0    0  501  503 -0.00000000000E+00 -0.00000000000E+00 -0.36016322629E+03  0.36016322629E+03  0.00000000000E+00 0. -1.
          6    1    1    2  501    0 -0.44924450874E+02  0.40064774362E+02 -0.29602222171E+03  0.34761551774E+03  0.17200000000E+03 0. -1.
         -6    1    1    2    0  502  0.44924450874E+02 -0.40064774362E+02  0.17816333460E+03  0.25485204772E+03  0.17200000000E+03 0. -1.
</event>
<event>
 4    1  0.1222208E+000  0.2746804E+03  0.7818608E-02  0.1098630E+00
         21   -1    0    0  503  502  0.00000000000E+00  0.00000000000E+00  0.99779160466E+03  0.99779160466E+03  0.00000000000E+00 0. -1.
         21   -1    0    0  501  503 -0.00000000000E+00 -0.00000000000E+00 -0.13972869354E+03  0.13972869354E+03  0.00000000000E+00 0. -1.
          6    1    1    2  501    0  0.14035759922E+03  0.16175620129E+03  0.43768453251E+02  0.27814564856E+03  0.17200000000E+03 0. -1.
         -6    1    1    2    0  502 -0.14035759922E+03 -0.16175620129E+03  0.81429445787E+03  0.85937464964E+03  0.17200000000E+03 0. -1.
</event>
<event>
 4    1  0.1222208E+000  0.2640196E+03  0.7818608E-02  0.1104752E+00
         21   -1    0    0  501  502  0.00000000000E+00  0.00000000000E+00  0.50800199160E+03  0.50800199160E+03  0.00000000000E+00 0. -1.
         21   -1    0    0  502  503 -0.00000000000E+00 -0.00000000000E+00 -0.14767889669E+03  0.14767889669E+03  0.00000000000E+00 0.  1.
          6    1    1    2  501    0 -0.74027180266E+01  0.20016877170E+03  0.26742161526E+03  0.37579337102E+03  0.17200000000E+03 0. -1.
         -6    1    1    2    0  503  0.74027180266E+01 -0.20016877170E+03  0.92901479651E+02  0.27988751726E+03  0.17200000000E+03 0. -1.
</event>
<event>
 4    1  0.1222208E+000  0.1849008E+03  0.7818608E-02  0.1163143E+00
         21   -1    0    0  503  502  0.00000000000E+00  0.00000000000E+00  0.26219924715E+03  0.26219924715E+03  0.00000000000E+00 0. -1.
         21   -1    0    0  501  503 -0.00000000000E+00 -0.00000000000E+00 -0.13072220006E+03  0.13072220006E+03  0.00000000000E+00 0. -1.
          6    1    1    2  501    0 -0.63609420891E+02  0.23625532199E+02  0.75632953533E+02  0.19977153916E+03  0.17200000000E+03 0. -1.
         -6    1    1    2    0  502  0.63609420891E+02 -0.23625532199E+02  0.55844093558E+02  0.19314990806E+03  0.17200000000E+03 0. -1.
</event>
<event>
 4    1  0.1222208E+000  0.1890565E+03  0.7818608E-02  0.1159315E+00
         21   -1    0    0  503  502  0.00000000000E+00  0.00000000000E+00  0.82904009624E+03  0.82904009624E+03  0.00000000000E+00 0.  1.
         21   -1    0    0  501  503 -0.00000000000E+00 -0.00000000000E+00 -0.91928752177E+02  0.91928752177E+02  0.00000000000E+00 0.  1.
          6    1    1    2  501    0 -0.59802074811E+02 -0.50813952085E+02  0.32996143238E+02  0.19191428125E+03  0.17200000000E+03 0.  1.
         -6    1    1    2    0  502  0.59802074811E+02  0.50813952085E+02  0.70411520083E+03  0.72905456717E+03  0.17200000000E+03 0.  1.
</event>
<event>
 4    1  0.1222208E+000  0.2001079E+03  0.7818608E-02  0.1149648E+00
         21   -1    0    0  503  502  0.00000000000E+00  0.00000000000E+00  0.18742718389E+03  0.18742718389E+03  0.00000000000E+00 0. -1.
         21   -1    0    0  501  503 -0.00000000000E+00 -0.00000000000E+00 -0.37043714980E+03  0.37043714980E+03  0.00000000000E+00 0.  1.
          6    1    1    2  501    0 -0.54940311258E+02  0.86259747231E+02 -0.27297348996E+03  0.33846374697E+03  0.17200000000E+03 0.  1.
         -6    1    1    2    0  502  0.54940311258E+02 -0.86259747231E+02  0.89963524049E+02  0.21940058672E+03  0.17200000000E+03 0. -1.
</event>
<event>
 4    1  0.1222208E+000  0.2122359E+03  0.7818608E-02  0.1139808E+00
         21   -1    0    0  501  502  0.00000000000E+00  0.00000000000E+00  0.12663437501E+03  0.12663437501E+03  0.00000000000E+00 0. -1.
         21   -1    0    0  502  503 -0.00000000000E+00 -0.00000000000E+00 -0.47295069373E+03  0.47295069373E+03  0.00000000000E+00 0. -1.
          6    1    1    2  501    0 -0.11701954671E+03  0.42029874829E+02 -0.23890020724E+02  0.21357625753E+03  0.17200000000E+03 0. -1.
         -6    1    1    2    0  503  0.11701954671E+03 -0.42029874829E+02 -0.32242629800E+03  0.38600881121E+03  0.17200000000E+03 0. -1.
</event>
<event>
 4    1  0.1222208E+000  0.1977230E+03  0.7818608E-02  0.1151674E+00
         21   -1    0    0  503  502  0.00000000000E+00  0.00000000000E+00  0.22238815409E+04  0.22238815409E+04  0.00000000000E+00 0. -1.
         21   -1    0    0  501  503 -0.00000000000E+00 -0.00000000000E+00 -0.66029949767E+02  0.66029949767E+02  0.00000000000E+00 0. -1.
          6    1    1    2  501    0 -0.95289813261E+02  0.20741996077E+02  0.98154329348E+02  0.22074567104E+03  0.17200000000E+03 0. -1.
         -6    1    1    2    0  502  0.95289813261E+02 -0.20741996077E+02  0.20596972618E+04  0.20691658196E+04  0.17200000000E+03 0. -1.
</event>
<event>
 4    1  0.1222208E+000  0.1877499E+03  0.7818608E-02  0.1160507E+00
         21   -1    0    0  503  502  0.00000000000E+00  0.00000000000E+00  0.30377861382E+03  0.30377861382E+03  0.00000000000E+00 0.  1.
         21   -1    0    0  501  503 -0.00000000000E+00 -0.00000000000E+00 -0.45474754859E+03  0.45474754859E+03  0.00000000000E+00 0.  1.
          6    1    1    2  501    0 -0.74855559767E+02  0.79169350486E+01 -0.40280160694E+03  0.44440878394E+03  0.17200000000E+03 0.  1.
         -6    1    1    2    0  502  0.74855559767E+02 -0.79169350486E+01  0.25183267217E+03  0.31411737847E+03  0.17200000000E+03 0.  1.
</event>
<event>
 4    1  0.1222208E+000  0.2085954E+03  0.7818608E-02  0.1142683E+00
         21   -1    0    0  503  502  0.00000000000E+00  0.00000000000E+00  0.49195087040E+02  0.49195087040E+02  0.00000000000E+00 0.  1.
         21   -1    0    0  501  503 -0.00000000000E+00 -0.00000000000E+00 -0.88592425191E+03  0.88592425191E+03  0.00000000000E+00 0.  1.
          6    1    1    2  501    0  0.47599131705E+00  0.11801611938E+03 -0.39948113989E+03  0.45066308050E+03  0.17200000000E+03 0.  1.
         -6    1    1    2    0  502 -0.47599131705E+00 -0.11801611938E+03 -0.43724802499E+03  0.48445625845E+03  0.17200000000E+03 0.  1.
</event>
<event>
 4    1  0.1222208E+000  0.1802617E+03  0.7818608E-02  0.1167550E+00
         21   -1    0    0  501  502  0.00000000000E+00  0.00000000000E+00  0.58705721291E+03  0.58705721291E+03  0.00000000000E+00 0.  1.
         21   -1    0    0  502  503 -0.00000000000E+00 -0.00000000000E+00 -0.55409849085E+02  0.55409849085E+02  0.00000000000E+00 0.  1.
          6    1    1    2  501    0  0.43966709132E+02 -0.31260287102E+02  0.27628138304E+03  0.32988737423E+03  0.17200000000E+03 0.  1.
         -6    1    1    2    0  503 -0.43966709132E+02  0.31260287102E+02  0.25536598078E+03  0.31257968777E+03  0.17200000000E+03 0.  1.
</event>
<event>
 4    1  0.1222208E+000  0.2047025E+03  0.7818608E-02  0.1145831E+00
         21   -1    0    0  501  502  0.00000000000E+00  0.00000000000E+00  0.25361956018E+03  0.25361956018E+03  0.00000000000E+00 0.  1.
         21   -1    0    0  502  503 -0.00000000000E+00 -0.00000000000E+00 -0.19383380374E+03  0.19383380374E+03  0.00000000000E+00 0. -1.
          6    1    1    2  501    0  0.56188395863E+02 -0.95718245526E+02  0.11585121194E+03  0.23521186548E+03  0.17200000000E+03 0.  1.
         -6    1    1    2    0  503 -0.56188395863E+02  0.95718245526E+02 -0.56065455502E+02  0.21224149843E+03  0.17200000000E+03 0.  1.
</event>
<event>
 4    1  0.1222208E+000  0.1728033E+03  0.7818608E-02  0.1174956E+00
         21   -1    0    0  503  502  0.00000000000E+00  0.00000000000E+00  0.21581200918E+03  0.21581200918E+03  0.00000000000E+00 0. -1.
         21   -1    0    0  501  503 -0.00000000000E+00 -0.00000000000E+00 -0.15778931936E+03  0.15778931936E+03  0.00000000000E+00 0. -1.
          6    1    1    2  501    0 -0.12294926151E+02  0.11216200650E+02 -0.36528480832E+02  0.17662190770E+03  0.17200000000E+03 0.  1.
         -6    1    1    2    0  502  0.12294926151E+02 -0.11216200650E+02  0.94551170647E+02  0.19697942085E+03  0.17200000000E+03 0.  1.
</event>
<event>
 4    1  0.1222208E+000  0.2968972E+03  0.7818608E-02  0.1086802E+00
         21   -1    0    0  503  502  0.00000000000E+00  0.00000000000E+00  0.11625390663E+03  0.11625390663E+03  0.00000000000E+00 0.  1.
         21   -1    0    0  501  503 -0.00000000000E+00 -0.00000000000E+00 -0.17507560707E+04  0.17507560707E+04  0.00000000000E+00 0.  1.
          6    1    1    2  501    0  0.23126078260E+03 -0.71290920831E+02 -0.15201184513E+04  0.15488408734E+04  0.17200000000E+03 0.  1.
         -6    1    1    2    0  502 -0.23126078260E+03  0.71290920831E+02 -0.11438371272E+03  0.31816910393E+03  0.17200000000E+03 0.  1.
</event>
<event>
 4    1  0.1222208E+000  0.1951873E+03  0.7818608E-02  0.1153864E+00
         21   -1    0    0  503  502  0.00000000000E+00  0.00000000000E+00  0.23210953512E+03  0.23210953512E+03  0.00000000000E+00 0.  1.
         21   -1    0    0  501  503 -0.00000000000E+00 -0.00000000000E+00 -0.23632460542E+03  0.23632460542E+03  0.00000000000E+00 0.  1.
          6    1    1    2  501    0  0.46991807565E+02  0.79409511894E+02 -0.13155424418E+03  0.23538185937E+03  0.17200000000E+03 0.  1.
         -6    1    1    2    0  502 -0.46991807565E+02 -0.79409511894E+02  0.12733917388E+03  0.23305228118E+03  0.17200000000E+03 0.  1.
</event>
<event>
 4    1  0.1222208E+000  0.1888374E+03  0.7818608E-02  0.1159514E+00
         21   -1    0    0  503  502  0.00000000000E+00  0.00000000000E+00  0.18530118954E+03  0.18530118954E+03  0.00000000000E+00 0.  1.
         21   -1    0    0  501  503 -0.00000000000E+00 -0.00000000000E+00 -0.19306130150E+03  0.19306130150E+03  0.00000000000E+00 0.  1.
          6    1    1    2  501    0 -0.14102997105E+01  0.77933104612E+02  0.68427910236E+01  0.18896132284E+03  0.17200000000E+03 0.  1.
         -6    1    1    2    0  502  0.14102997105E+01 -0.77933104612E+02 -0.14602902987E+02  0.18940116820E+03  0.17200000000E+03 0.  1.
</event>
<event>
 4    1  0.1222208E+000  0.1721761E+03  0.7818608E-02  0.1175597E+00
         21   -1    0    0  501  502  0.00000000000E+00  0.00000000000E+00  0.59871487550E+02  0.59871487550E+02  0.00000000000E+00 0. -1.
         21   -1    0    0  502  503 -0.00000000000E+00 -0.00000000000E+00 -0.64140985580E+03  0.64140985580E+03  0.00000000000E+00 0. -1.
          6    1    1    2  501    0 -0.77178525109E+01  0.10190157718E+01 -0.12332272213E+03  0.21178549864E+03  0.17200000000E+03 0. -1.
         -6    1    1    2    0  503  0.77178525109E+01 -0.10190157718E+01 -0.45821564611E+03  0.48949584471E+03  0.17200000000E+03 0. -1.
</event>
<event>
 4    1  0.1222208E+000  0.2873113E+03  0.7818608E-02  0.1091761E+00
         21   -1    0    0  501  502  0.00000000000E+00  0.00000000000E+00  0.14113590646E+03  0.14113590646E+03  0.00000000000E+00 0. -1.
         21   -1    0    0  502  503 -0.00000000000E+00 -0.00000000000E+00 -0.77559809638E+03  0.77559809638E+03  0.00000000000E+00 0.  1.
          6    1    1    2  501    0  0.12351387932E+03 -0.19418567533E+03 -0.89936332167E+02  0.30105863005E+03  0.17200000000E+03 0.  1.
         -6    1    1    2    0  503 -0.12351387932E+03  0.19418567533E+03 -0.54452585775E+03  0.61567537278E+03  0.17200000000E+03 0. -1.
</event>
<event>
 4    1  0.1222208E+000  0.2592250E+03  0.7818608E-02  0.1107610E+00
         21   -1    0    0  501  502  0.00000000000E+00  0.00000000000E+00  0.31097897123E+03  0.31097897123E+03  0.00000000000E+00 0.  1.
         21   -1    0    0  502  503 -0.00000000000E+00 -0.00000000000E+00 -0.21929927542E+03  0.21929927542E+03  0.00000000000E+00 0.  1.
          6    1    1    2  501    0  0.48135703440E+02 -0.18787376551E+03  0.77943945349E+02  0.27068959406E+03  0.17200000000E+03 0. -1.
         -6    1    1    2    0  503 -0.48135703440E+02  0.18787376551E+03  0.13735750455E+02  0.25958865259E+03  0.17200000000E+03 0. -1.
</event>
<event>
 4    1  0.1222208E+000  0.1764748E+03  0.7818608E-02  0.1171259E+00
         21   -1    0    0  501  502  0.00000000000E+00  0.00000000000E+00  0.36256152258E+02  0.36256152258E+02  0.00000000000E+00 0. -1.
         21   -1    0    0  502  503 -0.00000000000E+00 -0.00000000000E+00 -0.86049858309E+03  0.86049858309E+03  0.00000000000E+00 0. -1.
          6    1    1    2  501    0  0.14306913648E+02 -0.36805664850E+02 -0.43095117980E+03  0.46568472609E+03  0.17200000000E+03 0.  1.
         -6    1    1    2    0  503 -0.14306913648E+02  0.36805664850E+02 -0.39329125103E+03  0.43107000925E+03  0.17200000000E+03 0.  1.
</event>
<event>
 4    1  0.1222208E+000  0.1929081E+03  0.7818608E-02  0.1155864E+00
         21   -1    0    0  503  502  0.00000000000E+00  0.00000000000E+00  0.12162387764E+03  0.12162387764E+03  0.00000000000E+00 0.  1.
         21   -1    0    0  501  503 -0.00000000000E+00 -0.00000000000E+00 -0.34809512201E+03  0.34809512201E+03  0.00000000000E+00 0.  1.
          6    1    1    2  501    0 -0.13041326625E+01 -0.87337403139E+02 -0.19493495706E+03  0.27425017818E+03  0.17200000000E+03 0.  1.
         -6    1    1    2    0  502  0.13041326625E+01  0.87337403139E+02 -0.31536287304E+02  0.19546882147E+03  0.17200000000E+03 0.  1.
</event>
<event>
 4    1  0.1222208E+000  0.1972757E+03  0.7818608E-02  0.1152058E+00
         21   -1    0    0  501  502  0.00000000000E+00  0.00000000000E+00  0.24753379837E+03  0.24753379837E+03  0.00000000000E+00 0.  1.
         21   -1    0    0  502  503 -0.00000000000E+00 -0.00000000000E+00 -0.15885908226E+03  0.15885908226E+03  0.00000000000E+00 0. -1.
          6    1    1    2  501    0  0.65985293400E+02 -0.70566702972E+02  0.23708891987E+02  0.19869531971E+03  0.17200000000E+03 0. -1.
         -6    1    1    2    0  503 -0.65985293400E+02  0.70566702972E+02  0.64965824122E+02  0.20769756093E+03  0.17200000000E+03 0.  1.
</event>
<event>
 4    1  0.1222208E+000  0.2388812E+03  0.7818608E-02  0.1120540E+00
         21   -1    0    0  503  502  0.00000000000E+00  0.00000000000E+00  0.53160384054E+02  0.53160384054E+02  0.00000000000E+00 0.  1.
         21   -1    0    0  501  503 -0.00000000000E+00 -0.00000000000E+00 -0.11275491615E+04  0.11275491615E+04  0.00000000000E+00 0.  1.
          6    1    1    2  501    0 -0.16395038933E+03  0.24505217384E+02 -0.40786436141E+03  0.47267068150E+03  0.17200000000E+03 0.  1.
         -6    1    1    2    0  502  0.16395038933E+03 -0.24505217384E+02 -0.66652441607E+03  0.70803886409E+03  0.17200000000E+03 0.  1.
</event>
<event>
 4    1  0.1222208E+000  0.1911341E+03  0.7818608E-02  0.1157442E+00
         21   -1    0    0  501  502  0.00000000000E+00  0.00000000000E+00  0.91867852426E+02  0.91867852426E+02  0.00000000000E+00 0.  1.
         21   -1    0    0  502  503 -0.00000000000E+00 -0.00000000000E+00 -0.47511499793E+03  0.47511499793E+03  0.00000000000E+00 0. -1.
          6    1    1    2  501    0  0.57672145538E+02  0.60184358474E+02 -0.30608610578E+03  0.36086138270E+03  0.17200000000E+03 0. -1.
         -6    1    1    2    0  503 -0.57672145538E+02 -0.60184358474E+02 -0.77161039725E+02  0.20612146765E+03  0.17200000000E+03 0.  1.
</event>
<event>
 4    1  0.1222208E+000  0.1832244E+03  0.7818608E-02  0.1164718E+00
         21   -1    0    0  503  502  0.00000000000E+00  0.00000000000E+00  0.12265201017E+03  0.12265201017E+03  0.00000000000E+00 0.  1.
         21   -1    0    0  501  503 -0.00000000000E+00 -0.00000000000E+00 -0.29123303133E+03  0.29123303133E+03  0.00000000000E+00 0.  1.
          6    1    1    2  501    0  0.61969238659E+02 -0.12124273330E+02 -0.13505074833E+03  0.22761785775E+03  0.17200000000E+03 0.  1.
         -6    1    1    2    0  502 -0.61969238659E+02  0.12124273330E+02 -0.33530272840E+02  0.18626718375E+03  0.17200000000E+03 0.  1.
</event>
<event>
 4    1  0.1222208E+000  0.2202142E+03  0.7818608E-02  0.1133723E+00
         21   -1    0    0  501  502  0.00000000000E+00  0.00000000000E+00  0.16540449408E+03  0.16540449408E+03  0.00000000000E+00 0.  1.
         21   -1    0    0  502  503 -0.00000000000E+00 -0.00000000000E+00 -0.47970364399E+03  0.47970364399E+03  0.00000000000E+00 0.  1.
          6    1    1    2  501    0 -0.61422860334E+02 -0.12303461296E+03  0.43980013190E+02  0.22456296515E+03  0.17200000000E+03 0.  1.
         -6    1    1    2    0  503  0.61422860334E+02  0.12303461296E+03 -0.35827916309E+03  0.42054517292E+03  0.17200000000E+03 0.  1.
</event>
<event>
 4    1  0.1222208E+000  0.2285200E+03  0.7818608E-02  0.1127686E+00
         21   -1    0    0  503  502  0.00000000000E+00  0.00000000000E+00  0.10900484591E+03  0.10900484591E+03  0.00000000000E+00 0.  1.
         21   -1    0    0  501  503 -0.00000000000E+00 -0.00000000000E+00 -0.92614927325E+03  0.92614927325E+03  0.00000000000E+00 0. -1.
          6    1    1    2  501    0 -0.12223375417E+03  0.87728449154E+02 -0.48967876646E+02  0.23370756169E+03  0.17200000000E+03 0.  1.
         -6    1    1    2    0  502  0.12223375417E+03 -0.87728449154E+02 -0.76817655070E+03  0.80144655747E+03  0.17200000000E+03 0. -1.
</event>
<event>
 4    1  0.1222208E+000  0.1739989E+03  0.7818608E-02  0.1173741E+00
         21   -1    0    0  503  502  0.00000000000E+00  0.00000000000E+00  0.19950800667E+04  0.19950800667E+04  0.00000000000E+00 0.  1.
         21   -1    0    0  501  503 -0.00000000000E+00 -0.00000000000E+00 -0.20041078759E+02  0.20041078759E+02  0.00000000000E+00 0.  1.
          6    1    1    2  501    0 -0.11379246161E+02 -0.23709330996E+02  0.49104844306E+03  0.52096467543E+03  0.17200000000E+03 0.  1.
         -6    1    1    2    0  502  0.11379246161E+02  0.23709330996E+02  0.14839905449E+04  0.14941564700E+04  0.17200000000E+03 0.  1.
</event>
<event>
 4    1  0.1222208E+000  0.1807686E+03  0.7818608E-02  0.1167061E+00
         21   -1    0    0  501  502  0.00000000000E+00  0.00000000000E+00  0.42661881788E+03  0.42661881788E+03  0.00000000000E+00 0. -1.
         21   -1    0    0  502  503 -0.00000000000E+00 -0.00000000000E+00 -0.24819040410E+03  0.24819040410E+03  0.00000000000E+00 0. -1.
          6    1    1    2  501    0  0.21382899080E+02 -0.51342423030E+02  0.36976412521E+03  0.41158569104E+03  0.17200000000E+03 0. -1.
         -6    1    1    2    0  503 -0.21382899080E+02  0.51342423030E+02 -0.19133571143E+03  0.26322353095E+03  0.17200000000E+03 0. -1.
</event>
<event>
 4    1  0.1222208E+000  0.2154959E+03  0.7818608E-02  0.1137286E+00
         21   -1    0    0  501  502  0.00000000000E+00  0.00000000000E+00  0.28774218355E+03  0.28774218355E+03  0.00000000000E+00 0.  1.
         21   -1    0    0  502  503 -0.00000000000E+00 -0.00000000000E+00 -0.29697706312E+03  0.29697706312E+03  0.00000000000E+00 0. -1.
          6    1    1    2  501    0  0.67112571241E+02 -0.11113237510E+03 -0.20216252524E+03  0.29547959088E+03  0.17200000000E+03 0. -1.
         -6    1    1    2    0  503 -0.67112571241E+02  0.11113237510E+03  0.19292764567E+03  0.28923965579E+03  0.17200000000E+03 0.  1.
</event>
<event>
 4    1  0.1222208E+000  0.2181153E+03  0.7818608E-02  0.1135296E+00
         21   -1    0    0  503  502  0.00000000000E+00  0.00000000000E+00  0.25655164386E+03  0.25655164386E+03  0.00000000000E+00 0.  1.
         21   -1    0    0  501  503 -0.00000000000E+00 -0.00000000000E+00 -0.19894389825E+03  0.19894389825E+03  0.00000000000E+00 0.  1.
          6    1    1    2  501    0 -0.10774528553E+03  0.79882529976E+02  0.88145643166E+02  0.23525288427E+03  0.17200000000E+03 0. -1.
         -6    1    1    2    0  502  0.10774528553E+03 -0.79882529976E+02 -0.30537897557E+02  0.22024265785E+03  0.17200000000E+03 0. -1.
</event>
<event>
 4    1  0.1222208E+000  0.1817148E+03  0.7818608E-02  0.1166154E+00
         21   -1    0    0  503  502  0.00000000000E+00  0.00000000000E+00  0.57940746311E+03  0.57940746311E+03  0.00000000000E+00 0. -1.
         21   -1    0    0  501  503 -0.00000000000E+00 -0.00000000000E+00 -0.57193256443E+02  0.57193256443E+02  0.00000000000E+00 0. -1.
          6    1    1    2  501    0 -0.48673203737E+02 -0.32667634437E+02  0.24211768946E+03  0.30272302630E+03  0.17200000000E+03 0. -1.
         -6    1    1    2    0  502  0.48673203737E+02  0.32667634437E+02  0.28009651720E+03  0.33387769325E+03  0.17200000000E+03 0. -1.
</event>
<event>
 4    1  0.1222208E+000  0.1884529E+03  0.7818608E-02  0.1159864E+00
         21   -1    0    0  503  502  0.00000000000E+00  0.00000000000E+00  0.84743692355E+02  0.84743692355E+02  0.00000000000E+00 0.  1.
         21   -1    0    0  501  503 -0.00000000000E+00 -0.00000000000E+00 -0.78902512393E+03  0.78902512393E+03  0.00000000000E+00 0.  1.
          6    1    1    2  501    0 -0.29982865953E+02 -0.70933348434E+02 -0.65129065120E+03  0.67800739267E+03  0.17200000000E+03 0. -1.
         -6    1    1    2    0  502  0.29982865953E+02  0.70933348434E+02 -0.52990780371E+02  0.19576142361E+03  0.17200000000E+03 0. -1.
</event>
<event>
 4    1  0.1222208E+000  0.2542092E+03  0.7818608E-02  0.1110673E+00
         21   -1    0    0  503  502  0.00000000000E+00  0.00000000000E+00  0.41739587189E+03  0.41739587189E+03  0.00000000000E+00 0.  1.
         21   -1    0    0  501  503 -0.00000000000E+00 -0.00000000000E+00 -0.15855285180E+03  0.15855285180E+03  0.00000000000E+00 0. -1.
          6    1    1    2  501    0 -0.18696831139E+03  0.90084589900E+01  0.85250473804E+02  0.26812300364E+03  0.17200000000E+03 0. -1.
         -6    1    1    2    0  502  0.18696831139E+03 -0.90084589900E+01  0.17359254628E+03  0.30782572005E+03  0.17200000000E+03 0. -1.
</event>
<event>
 4    1  0.1222208E+000  0.2805031E+03  0.7818608E-02  0.1095414E+00
         21   -1    0    0  501  502  0.00000000000E+00  0.00000000000E+00  0.21896143642E+03  0.21896143642E+03  0.00000000000E+00 0. -1.
         21   -1    0    0  502  503 -0.00000000000E+00 -0.00000000000E+00 -0.36096266347E+03  0.36096266347E+03  0.00000000000E+00 0.  1.
          6    1    1    2  501    0 -0.10828935111E+03  0.19331685140E+03 -0.51569924995E+02  0.28520421765E+03  0.17200000000E+03 0.  1.
         -6    1    1    2    0  503  0.10828935111E+03 -0.19331685140E+03 -0.90431302046E+02  0.29471988224E+03  0.17200000000E+03 0.  1.
</event>
<event>
 4    1  0.1222208E+000  0.2589388E+03  0.7818608E-02  0.1107783E+00
         21   -1    0    0  501  502  0.00000000000E+00  0.00000000000E+00  0.40343777236E+03  0.40343777236E+03  0.00000000000E+00 0.  1.
         21   -1    0    0  502  503 -0.00000000000E+00 -0.00000000000E+00 -0.17081509258E+03  0.17081509258E+03  0.00000000000E+00 0.  1.
          6    1    1    2  501    0  0.88937652508E+02 -0.17191682810E+03  0.69089825689E+02  0.26799758550E+03  0.17200000000E+03 0.  1.
         -6    1    1    2    0  503 -0.88937652508E+02  0.17191682810E+03  0.16353285409E+03  0.30625527944E+03  0.17200000000E+03 0.  1.
</event>
<event>
 4    1  0.1222208E+000  0.2422500E+03  0.7818608E-02  0.1118303E+00
         21   -1    0    0  503  502  0.00000000000E+00  0.00000000000E+00  0.46905897030E+03  0.46905897030E+03  0.00000000000E+00 0. -1.
         21   -1    0    0  501  503 -0.00000000000E+00 -0.00000000000E+00 -0.12520639110E+03  0.12520639110E+03  0.00000000000E+00 0. -1.
          6    1    1    2  501    0 -0.61221276189E+02  0.15922638311E+03  0.18006805972E+03  0.30184365468E+03  0.17200000000E+03 0. -1.
         -6    1    1    2    0  502  0.61221276189E+02 -0.15922638311E+03  0.16378451948E+03  0.29242170672E+03  0.17200000000E+03 0. -1.
</event>
<event>
 4    1  0.1222208E+000  0.2566871E+03  0.7818608E-02  0.1109150E+00
         21   -1    0    0  503  502  0.00000000000E+00  0.00000000000E+00  0.13811070418E+03  0.13811070418E+03  0.00000000000E+00 0. -1.
         21   -1    0    0  501  503 -0.00000000000E+00 -0.00000000000E+00 -0.47707048680E+03  0.47707048680E+03  0.00000000000E+00 0.  1.
          6    1    1    2  501    0  0.19015851905E+03 -0.12001046329E+02 -0.16887668204E+03  0.30725823214E+03  0.17200000000E+03 0. -1.
         -6    1    1    2    0  502 -0.19015851905E+03  0.12001046329E+02 -0.17008310058E+03  0.30792295884E+03  0.17200000000E+03 0.  1.
</event>
<event>
 4    1  0.1222208E+000  0.2053824E+03  0.7818608E-02  0.1145276E+00
         21   -1    0    0  503  502  0.00000000000E+00  0.00000000000E+00  0.30833983349E+03  0.30833983349E+03  0.00000000000E+00 0.  1.
         21   -1    0    0  501  503 -0.00000000000E+00 -0.00000000000E+00 -0.17171477493E+03  0.17171477493E+03  0.00000000000E+00 0.  1.
          6    1    1    2  501    0 -0.10450468963E+03 -0.40947461412E+02 -0.39915699332E+02  0.20922520834E+03  0.17200000000E+03 0. -1.
         -6    1    1    2    0  502  0.10450468963E+03  0.40947461412E+02  0.17654075789E+03  0.27082940008E+03  0.17200000000E+03 0. -1.
</event>
<event>
 4    1  0.1222208E+000  0.1862183E+03  0.7818608E-02  0.1161917E+00
         21   -1    0    0  503  502  0.00000000000E+00  0.00000000000E+00  0.22706919472E+03  0.22706919472E+03  0.00000000000E+00 0.  1.
         21   -1    0    0  501  503 -0.00000000000E+00 -0.00000000000E+00 -0.15644520576E+03  0.15644520576E+03  0.00000000000E+00 0. -1.
          6    1    1    2  501    0  0.48387586884E+02 -0.52458593058E+02  0.57089201600E+01  0.18630580860E+03  0.17200000000E+03 0. -1.
         -6    1    1    2    0  502 -0.48387586884E+02  0.52458593058E+02  0.64915068801E+02  0.19720859187E+03  0.17200000000E+03 0. -1.
</event>
<event>
 4    1  0.1222208E+000  0.1941639E+03  0.7818608E-02  0.1154758E+00
         21   -1    0    0  503  502  0.00000000000E+00  0.00000000000E+00  0.74440019368E+03  0.74440019368E+03  0.00000000000E+00 0.  1.
         21   -1    0    0  501  503 -0.00000000000E+00 -0.00000000000E+00 -0.11315552262E+03  0.11315552262E+03  0.00000000000E+00 0.  1.
          6    1    1    2  501    0  0.89088836576E+02 -0.13372073539E+02 -0.30713361189E+01  0.19418822379E+03  0.17200000000E+03 0.  1.
         -6    1    1    2    0  502 -0.89088836576E+02  0.13372073539E+02  0.63431600718E+03  0.66336749251E+03  0.17200000000E+03 0.  1.
</event>
<event>
 4    1  0.1222208E+000  0.2121207E+03  0.7818608E-02  0.1139898E+00
         21   -1    0    0  501  502  0.00000000000E+00  0.00000000000E+00  0.10634661915E+04  0.10634661915E+04  0.00000000000E+00 0. -1.
         21   -1    0    0  502  503 -0.00000000000E+00 -0.00000000000E+00 -0.53549076345E+02  0.53549076345E+02  0.00000000000E+00 0. -1.
          6    1    1    2  501    0  0.12342729758E+03  0.13299916143E+02  0.76082874422E+03  0.78984527826E+03  0.17200000000E+03 0. -1.
         -6    1    1    2    0  503 -0.12342729758E+03 -0.13299916143E+02  0.24908837098E+03  0.32716998963E+03  0.17200000000E+03 0. -1.
</event>
<event>
 4    1  0.1222208E+000  0.2787018E+03  0.7818608E-02  0.1096400E+00
         21   -1    0    0  501  502  0.00000000000E+00  0.00000000000E+00  0.16027637143E+03  0.16027637143E+03  0.00000000000E+00 0. -1.
         21   -1    0    0  502  503 -0.00000000000E+00 -0.00000000000E+00 -0.49641953281E+03  0.49641953281E+03  0.00000000000E+00 0.  1.
          6    1    1    2  501    0  0.21501360181E+03 -0.43125709314E+02 -0.11746985622E+03  0.30244642978E+03  0.17200000000E+03 0. -1.
         -6    1    1    2    0  503 -0.21501360181E+03  0.43125709314E+02 -0.21867330517E+03  0.35424947446E+03  0.17200000000E+03 0.  1.
</event>
<event>
 4    1  0.1222208E+000  0.2211700E+03  0.7818608E-02  0.1133014E+00
         21   -1    0    0  503  502  0.00000000000E+00  0.00000000000E+00  0.45590922726E+02  0.45590922726E+02  0.00000000000E+00 0. -1.
         21   -1    0    0  501  503 -0.00000000000E+00 -0.00000000000E+00 -0.12730729753E+04  0.12730729753E+04  0.00000000000E+00 0. -1.
          6    1    1    2  501    0 -0.75982242615E+02  0.11644251693E+03 -0.87516215930E+03  0.90267655670E+03  0.17200000000E+03 0. -1.
         -6    1    1    2    0  502  0.75982242615E+02 -0.11644251693E+03 -0.35231989323E+03  0.41598734128E+03  0.17200000000E+03 0. -1.
</event>
<event>
 4    1  0.1222208E+000  0.2731360E+03  0.7818608E-02  0.1099498E+00
         21   -1    0    0  503  502  0.00000000000E+00  0.00000000000E+00  0.46541539898E+03  0.46541539898E+03  0.00000000000E+00 0. -1.
         21   -1    0    0  501  503 -0.00000000000E+00 -0.00000000000E+00 -0.16950456104E+03  0.16950456104E+03  0.00000000000E+00 0.  1.
          6    1    1    2  501    0 -0.20848677451E+03  0.39401996188E+02  0.22195743257E+03  0.35194936329E+03  0.17200000000E+03 0. -1.
         -6    1    1    2    0  502  0.20848677451E+03 -0.39401996188E+02  0.73953405365E+02  0.28297059673E+03  0.17200000000E+03 0.  1.
</event>
<event>
 4    1  0.1222208E+000  0.2136948E+03  0.7818608E-02  0.1138673E+00
         21   -1    0    0  501  502  0.00000000000E+00  0.00000000000E+00  0.44587426791E+03  0.44587426791E+03  0.00000000000E+00 0.  1.
         21   -1    0    0  502  503 -0.00000000000E+00 -0.00000000000E+00 -0.10399983317E+03  0.10399983317E+03  0.00000000000E+00 0.  1.
          6    1    1    2  501    0 -0.72237419409E+02 -0.10422674432E+03  0.20484704186E+03  0.29601988033E+03  0.17200000000E+03 0.  1.
         -6    1    1    2    0  503  0.72237419409E+02  0.10422674432E+03  0.13702739287E+03  0.25385422075E+03  0.17200000000E+03 0.  1.
</event>
<event>
 4    1  0.1222208E+000  0.2815586E+03  0.7818608E-02  0.1094841E+00
         21   -1    0    0  503  502  0.00000000000E+00  0.00000000000E+00  0.52369502410E+03  0.52369502410E+03  0.00000000000E+00 0. -1.
         21   -1    0    0  501  503 -0.00000000000E+00 -0.00000000000E+00 -0.17332952597E+03  0.17332952597E+03  0.00000000000E+00 0.  1.
          6    1    1    2  501    0 -0.22268255539E+03  0.10185798795E+02  0.51152920034E+02  0.28616759460E+03  0.17200000000E+03 0.  1.
         -6    1    1    2    0  502  0.22268255539E+03 -0.10185798795E+02  0.29921257809E+03  0.41085695547E+03  0.17200000000E+03 0. -1.
</event>
<event>
 4    1  0.1222208E+000  0.2185010E+03  0.7818608E-02  0.1135006E+00
         21   -1    0    0  503  502  0.00000000000E+00  0.00000000000E+00  0.50579760528E+02  0.50579760528E+02  0.00000000000E+00 0. -1.
         21   -1    0    0  501  503 -0.00000000000E+00 -0.00000000000E+00 -0.27147851892E+04  0.27147851892E+04  0.00000000000E+00 0. -1.
          6    1    1    2  501    0  0.21548578594E+02 -0.13302015942E+03 -0.24488342766E+04  0.24585629986E+04  0.17200000000E+03 0. -1.
         -6    1    1    2    0  502 -0.21548578594E+02  0.13302015942E+03 -0.21537115211E+03  0.30680195113E+03  0.17200000000E+03 0. -1.
</event>
<event>
 4    1  0.1222208E+000  0.1761861E+03  0.7818608E-02  0.1171546E+00
         21   -1    0    0  503  502  0.00000000000E+00  0.00000000000E+00  0.10180886156E+04  0.10180886156E+04  0.00000000000E+00 0.  1.
         21   -1    0    0  501  503 -0.00000000000E+00 -0.00000000000E+00 -0.72057893835E+02  0.72057893835E+02  0.00000000000E+00 0.  1.
          6    1    1    2  501    0  0.33474362938E+02 -0.18357475162E+02  0.59022301691E+02  0.18580947760E+03  0.17200000000E+03 0.  1.
         -6    1    1    2    0  502 -0.33474362938E+02  0.18357475162E+02  0.88700842008E+03  0.90433703184E+03  0.17200000000E+03 0.  1.
</event>
<event>
 4    1  0.1222208E+000  0.2005379E+03  0.7818608E-02  0.1149286E+00
         21   -1    0    0  501  502  0.00000000000E+00  0.00000000000E+00  0.87719764997E+03  0.87719764997E+03  0.00000000000E+00 0. -1.
         21   -1    0    0  502  503 -0.00000000000E+00 -0.00000000000E+00 -0.56031210128E+02  0.56031210128E+02  0.00000000000E+00 0. -1.
          6    1    1    2  501    0 -0.93845102730E+02  0.42714531190E+02  0.60953232461E+03  0.64167366256E+03  0.17200000000E+03 0.  1.
         -6    1    1    2    0  503  0.93845102730E+02 -0.42714531190E+02  0.21163411524E+03  0.29155519754E+03  0.17200000000E+03 0.  1.
</event>
<event>
 4    1  0.1222208E+000  0.1796382E+03  0.7818608E-02  0.1168154E+00
         21   -1    0    0  503  502  0.00000000000E+00  0.00000000000E+00  0.52204589672E+02  0.52204589672E+02  0.00000000000E+00 0.  1.
         21   -1    0    0  501  503 -0.00000000000E+00 -0.00000000000E+00 -0.18630016550E+04  0.18630016550E+04  0.00000000000E+00 0.  1.
          6    1    1    2  501    0 -0.12760052183E+02 -0.50230235630E+02 -0.16881771887E+04  0.16977079007E+04  0.17200000000E+03 0.  1.
         -6    1    1    2    0  502  0.12760052183E+02  0.50230235630E+02 -0.12261987661E+03  0.21749834400E+03  0.17200000000E+03 0.  1.
</event>
<event>
 4    1  0.1222208E+000  0.1975114E+03  0.7818608E-02  0.1151856E+00
         21   -1    0    0  501  502  0.00000000000E+00  0.00000000000E+00  0.43427913568E+03  0.43427913568E+03  0.00000000000E+00 0. -1.
         21   -1    0    0  502  503 -0.00000000000E+00 -0.00000000000E+00 -0.15141712607E+03  0.15141712607E+03  0.00000000000E+00 0. -1.
          6    1    1    2  501    0  0.95414347738E+02  0.17967989858E+02  0.32819982617E+03  0.38304813315E+03  0.17200000000E+03 0. -1.
         -6    1    1    2    0  503 -0.95414347738E+02 -0.17967989858E+02 -0.45337816554E+02  0.20264812860E+03  0.17200000000E+03 0. -1.
</event>
<event>
 4    1  0.1222208E+000  0.1913922E+03  0.7818608E-02  0.1157212E+00
         21   -1    0    0  501  502  0.00000000000E+00  0.00000000000E+00  0.27865044439E+03  0.27865044439E+03  0.00000000000E+00 0.  1.
         21   -1    0    0  502  503 -0.00000000000E+00 -0.00000000000E+00 -0.13428785139E+03  0.13428785139E+03  0.00000000000E+00 0.  1.
          6    1    1    2  501    0 -0.62808743011E+02  0.55696016878E+02  0.10215056212E+03  0.21694635705E+03  0.17200000000E+03 0.  1.
         -6    1    1    2    0  503  0.62808743011E+02 -0.55696016878E+02  0.42212030873E+02  0.19599193872E+03  0.17200000000E+03 0.  1.
</event>
<event>
 4    1  0.1222208E+000  0.1806530E+03  0.7818608E-02  0.1167173E+00
         21   -1    0    0  503  502  0.00000000000E+00  0.00000000000E+00  0.32124961033E+02  0.32124961033E+02  0.00000000000E+00 0. -1.
         21   -1    0    0  501  503 -0.00000000000E+00 -0.00000000000E+00 -0.10296224524E+04  0.10296224524E+04  0.00000000000E+00 0.  1.
          6    1    1    2  501    0 -0.28468194527E+02  0.47340113483E+02 -0.56005123784E+03  0.58846657802E+03  0.17200000000E+03 0. -1.
         -6    1    1    2    0  502  0.28468194527E+02 -0.47340113483E+02 -0.43744625356E+03  0.47328083545E+03  0.17200000000E+03 0.  1.
</event>
<event>
 4    1  0.1222208E+000  0.1822612E+03  0.7818608E-02  0.1165632E+00
         21   -1    0    0  503  502  0.00000000000E+00  0.00000000000E+00  0.17333619093E+03  0.17333619093E+03  0.00000000000E+00 0. -1.
         21   -1    0    0  501  503 -0.00000000000E+00 -0.00000000000E+00 -0.43356086384E+03  0.43356086384E+03  0.00000000000E+00 0. -1.
          6    1    1    2  501    0  0.52974266764E+02  0.28790377267E+02 -0.35678096869E+03  0.40063926215E+03  0.17200000000E+03 0. -1.
         -6    1    1    2    0  502 -0.52974266764E+02 -0.28790377267E+02  0.96556295772E+02  0.20625779262E+03  0.17200000000E+03 0. -1.
</event>
<event>
 4    1  0.1222208E+000  0.2617840E+03  0.7818608E-02  0.1106076E+00
         21   -1    0    0  501  502  0.00000000000E+00  0.00000000000E+00  0.38319876381E+03  0.38319876381E+03  0.00000000000E+00 0. -1.
         21   -1    0    0  502  503 -0.00000000000E+00 -0.00000000000E+00 -0.18408127872E+03  0.18408127872E+03  0.00000000000E+00 0.  1.
          6    1    1    2  501    0 -0.17610859946E+03 -0.89065345578E+02  0.14742436813E+03  0.30044104064E+03  0.17200000000E+03 0. -1.
         -6    1    1    2    0  503  0.17610859946E+03  0.89065345578E+02  0.51693116962E+02  0.26683900189E+03  0.17200000000E+03 0.  1.
</event>
<event>
 4    1  0.1222208E+000  0.1883101E+03  0.7818608E-02  0.1159994E+00
         21   -1    0    0  503  502  0.00000000000E+00  0.00000000000E+00  0.76257903300E+03  0.76257903300E+03  0.00000000000E+00 0. -1.
         21   -1    0    0  501  503 -0.00000000000E+00 -0.00000000000E+00 -0.59406558837E+02  0.59406558837E+02  0.00000000000E+00 0. -1.
          6    1    1    2  501    0 -0.10290890186E+02  0.75965756260E+02  0.16002608303E+03  0.24712152030E+03  0.17200000000E+03 0. -1.
         -6    1    1    2    0  502  0.10290890186E+02 -0.75965756260E+02  0.54314639113E+03  0.57486407153E+03  0.17200000000E+03 0. -1.
</event>
<event>
 4    1  0.1222208E+000  0.2066404E+03  0.7818608E-02  0.1144254E+00
         21   -1    0    0  501  502  0.00000000000E+00  0.00000000000E+00  0.12601183847E+03  0.12601183847E+03  0.00000000000E+00 0. -1.
         21   -1    0    0  502  503 -0.00000000000E+00 -0.00000000000E+00 -0.76007579694E+03  0.76007579694E+03  0.00000000000E+00 0. -1.
          6    1    1    2  501    0 -0.11435002549E+03 -0.63508605866E+01  0.12783476342E+02  0.20703545355E+03  0.17200000000E+03 0. -1.
         -6    1    1    2    0  503  0.11435002549E+03  0.63508605866E+01 -0.64684743481E+03  0.67905218186E+03  0.17200000000E+03 0. -1.
</event>
<event>
 4    1  0.1222208E+000  0.1866023E+03  0.7818608E-02  0.1161562E+00
         21   -1    0    0  501  502  0.00000000000E+00  0.00000000000E+00  0.11330252106E+04  0.11330252106E+04  0.00000000000E+00 0.  1.
         21   -1    0    0  502  503 -0.00000000000E+00 -0.00000000000E+00 -0.62099199433E+02  0.62099199433E+02  0.00000000000E+00 0.  1.
          6    1    1    2  501    0  0.53766723624E+02  0.48431082080E+02  0.96015704244E+03  0.97812165728E+03  0.17200000000E+03 0.  1.
         -6    1    1    2    0  503 -0.53766723624E+02 -0.48431082080E+02  0.11076896877E+03  0.21700275280E+03  0.17200000000E+03 0.  1.
</event>
<event>
 4    1  0.1222208E+000  0.2631402E+03  0.7818608E-02  0.1105271E+00
         21   -1    0    0  501  502  0.00000000000E+00  0.00000000000E+00  0.38800376860E+02  0.38800376860E+02  0.00000000000E+00 0. -1.
         21   -1    0    0  502  503 -0.00000000000E+00 -0.00000000000E+00 -0.18319334271E+04  0.18319334271E+04  0.00000000000E+00 0.  1.
          6    1    1    2  501    0 -0.65802500295E+02 -0.18795959548E+03 -0.74619855352E+03  0.79123641211E+03  0.17200000000E+03 0.  1.
         -6    1    1    2    0  503  0.65802500295E+02  0.18795959548E+03 -0.10469344967E+04  0.10794973918E+04  0.17200000000E+03 0.  1.
</event>
<event>
 4    1  0.1222208E+000  0.1804039E+03  0.7818608E-02  0.1167413E+00
         21   -1    0    0  501  502  0.00000000000E+00  0.00000000000E+00  0.36972691365E+03  0.36972691365E+03  0.00000000000E+00 0.  1.
         21   -1    0    0  502  503 -0.00000000000E+00 -0.00000000000E+00 -0.88622836699E+02  0.88622836699E+02  0.00000000000E+00 0.  1.
          6    1    1    2  501    0 -0.18515002633E+01  0.54388784112E+02  0.12174436241E+03  0.21764020233E+03  0.17200000000E+03 0.  1.
         -6    1    1    2    0  503  0.18515002633E+01 -0.54388784112E+02  0.15935971454E+03  0.24070954802E+03  0.17200000000E+03 0.  1.
</event>
<event>
 4    1  0.1222208E+000  0.1823685E+03  0.7818608E-02  0.1165530E+00
         21   -1    0    0  501  502  0.00000000000E+00  0.00000000000E+00  0.89704226702E+03  0.89704226702E+03  0.00000000000E+00 0.  1.
         21   -1    0    0  502  503 -0.00000000000E+00 -0.00000000000E+00 -0.72652368984E+02  0.72652368984E+02  0.00000000000E+00 0.  1.
          6    1    1    2  501    0  0.10173614305E+02 -0.59755781544E+02  0.75147959465E+03  0.77329156017E+03  0.17200000000E+03 0.  1.
         -6    1    1    2    0  503 -0.10173614305E+02  0.59755781544E+02  0.72910303382E+02  0.19640307583E+03  0.17200000000E+03 0.  1.
</event>
<event>
 4    1  0.1222208E+000  0.1761186E+03  0.7818608E-02  0.1171613E+00
         21   -1    0    0  503  502  0.00000000000E+00  0.00000000000E+00  0.12582124557E+03  0.12582124557E+03  0.00000000000E+00 0. -1.
         21   -1    0    0  501  503 -0.00000000000E+00 -0.00000000000E+00 -0.45685234558E+03  0.45685234558E+03  0.00000000000E+00 0.  1.
          6    1    1    2  501    0  0.38700292217E+01 -0.37666938680E+02 -0.36319330514E+03  0.40364235691E+03  0.17200000000E+03 0.  1.
         -6    1    1    2    0  502 -0.38700292217E+01  0.37666938680E+02  0.32162205130E+02  0.17903123424E+03  0.17200000000E+03 0. -1.
</event>
<event>
 4    1  0.1222208E+000  0.1823355E+03  0.7818608E-02  0.1165562E+00
         21   -1    0    0  503  502  0.00000000000E+00  0.00000000000E+00  0.34583431139E+02  0.34583431139E+02  0.00000000000E+00 0.  1.
         21   -1    0    0  501  503 -0.00000000000E+00 -0.00000000000E+00 -0.96161485622E+03  0.96161485622E+03  0.00000000000E+00 0.  1.
          6    1    1    2  501    0  0.21427063253E+02 -0.56595989704E+02 -0.47202957304E+03  0.50602187988E+03  0.17200000000E+03 0.  1.
         -6    1    1    2    0  502 -0.21427063253E+02  0.56595989704E+02 -0.45500185204E+03  0.49017640748E+03  0.17200000000E+03 0.  1.
</event>
<event>
 4    1  0.1222208E+000  0.2715190E+03  0.7818608E-02  0.1100413E+00
         21   -1    0    0  501  502  0.00000000000E+00  0.00000000000E+00  0.57676182386E+03  0.57676182386E+03  0.00000000000E+00 0.  1.
         21   -1    0    0  502  503 -0.00000000000E+00 -0.00000000000E+00 -0.15398021469E+03  0.15398021469E+03  0.00000000000E+00 0. -1.
          6    1    1    2  501    0  0.73648816773E+02  0.19675976927E+03  0.36198558854E+03  0.45249985782E+03  0.17200000000E+03 0.  1.
         -6    1    1    2    0  503 -0.73648816773E+02 -0.19675976927E+03  0.60796020625E+02  0.27824218073E+03  0.17200000000E+03 0. -1.
</event>
<event>
 4    1  0.1222208E+000  0.2404821E+03  0.7818608E-02  0.1119472E+00
         21   -1    0    0  503  502  0.00000000000E+00  0.00000000000E+00  0.44215328606E+02  0.44215328606E+02  0.00000000000E+00 0. -1.
         21   -1    0    0  501  503 -0.00000000000E+00 -0.00000000000E+00 -0.13225911321E+04  0.13225911321E+04  0.00000000000E+00 0. -1.
          6    1    1    2  501    0  0.38245326792E+02 -0.16366109296E+03 -0.71107947277E+03  0.75064350724E+03  0.17200000000E+03 0. -1.
         -6    1    1    2    0  502 -0.38245326792E+02  0.16366109296E+03 -0.56729633073E+03  0.61616295347E+03  0.17200000000E+03 0. -1.
</event>
<event>
 4    1  0.1222208E+000  0.1784701E+03  0.7818608E-02  0.1169292E+00
         21   -1    0    0  501  502  0.00000000000E+00  0.00000000000E+00  0.14749499550E+03  0.14749499550E+03  0.00000000000E+00 0.  1.
         21   -1    0    0  502  503 -0.00000000000E+00 -0.00000000000E+00 -0.29505221547E+03  0.29505221547E+03  0.00000000000E+00 0.  1.
          6    1    1    2  501    0  0.47585192449E+02  0.18008404531E+01  0.40792093225E+02  0.18307263159E+03  0.17200000000E+03 0.  1.
         -6    1    1    2    0  503 -0.47585192449E+02 -0.18008404531E+01 -0.18834931320E+03  0.25947457939E+03  0.17200000000E+03 0.  1.
</event>
<event>
 4    1  0.1222208E+000  0.1774602E+03  0.7818608E-02  0.1170284E+00
         21   -1    0    0  501  502  0.00000000000E+00  0.00000000000E+00  0.16481633679E+03  0.16481633679E+03  0.00000000000E+00 0. -1.
         21   -1    0    0  502  503 -0.00000000000E+00 -0.00000000000E+00 -0.19255533645E+03  0.19255533645E+03  0.00000000000E+00 0. -1.
          6    1    1    2  501    0  0.20342509363E+02 -0.38656166393E+02 -0.29542028419E+02  0.17990232998E+03  0.17200000000E+03 0.  1.
         -6    1    1    2    0  503 -0.20342509363E+02  0.38656166393E+02  0.18030287580E+01  0.17746934327E+03  0.17200000000E+03 0.  1.
</event>
<event>
 4    1  0.1222208E+000  0.1723800E+03  0.7818608E-02  0.1175388E+00
         21   -1    0    0  501  502  0.00000000000E+00  0.00000000000E+00  0.53523861127E+03  0.53523861127E+03  0.00000000000E+00 0.  1.
         21   -1    0    0  502  503 -0.00000000000E+00 -0.00000000000E+00 -0.57619669599E+02  0.57619669599E+02  0.00000000000E+00 0.  1.
          6    1    1    2  501    0 -0.10763013487E+02  0.38767333574E+01  0.29543539869E+03  0.34204816374E+03  0.17200000000E+03 0.  1.
         -6    1    1    2    0  503  0.10763013487E+02 -0.38767333574E+01  0.18218354299E+03  0.25081011713E+03  0.17200000000E+03 0.  1.
</event>
<event>
 4    1  0.1222208E+000  0.1955930E+03  0.7818608E-02  0.1153511E+00
         21   -1    0    0  501  502  0.00000000000E+00  0.00000000000E+00  0.48392641238E+03  0.48392641238E+03  0.00000000000E+00 0.  1.
         21   -1    0    0  502  503 -0.00000000000E+00 -0.00000000000E+00 -0.18387669975E+03  0.18387669975E+03  0.00000000000E+00 0.  1.
          6    1    1    2  501    0  0.92310945197E+02 -0.12301298801E+02  0.40212983320E+03  0.44717450208E+03  0.17200000000E+03 0.  1.
         -6    1    1    2    0  503 -0.92310945197E+02  0.12301298801E+02 -0.10208012057E+03  0.22062861005E+03  0.17200000000E+03 0.  1.
</event>
<event>
 4    1  0.1222208E+000  0.1929707E+03  0.7818608E-02  0.1155809E+00
         21   -1    0    0  501  502  0.00000000000E+00  0.00000000000E+00  0.29424092140E+03  0.29424092140E+03  0.00000000000E+00 0.  1.
         21   -1    0    0  502  503 -0.00000000000E+00 -0.00000000000E+00 -0.21449093694E+03  0.21449093694E+03  0.00000000000E+00 0.  1.
          6    1    1    2  501    0 -0.46942617860E+02  0.73824750470E+02  0.20274356865E+03  0.27989758445E+03  0.17200000000E+03 0.  1.
         -6    1    1    2    0  503  0.46942617860E+02 -0.73824750470E+02 -0.12299358419E+03  0.22883427389E+03  0.17200000000E+03 0.  1.
</event>
<event>
 4    1  0.1222208E+000  0.1888483E+03  0.7818608E-02  0.1159504E+00
         21   -1    0    0  501  502  0.00000000000E+00  0.00000000000E+00  0.34311986313E+02  0.34311986313E+02  0.00000000000E+00 0.  1.
         21   -1    0    0  502  503 -0.00000000000E+00 -0.00000000000E+00 -0.10474927149E+04  0.10474927149E+04  0.00000000000E+00 0.  1.
          6    1    1    2  501    0  0.35455990590E+02  0.69444683651E+02 -0.45903091250E+03  0.49635981907E+03  0.17200000000E+03 0. -1.
         -6    1    1    2    0  503 -0.35455990590E+02 -0.69444683651E+02 -0.55414981604E+03  0.58544488210E+03  0.17200000000E+03 0. -1.
</event>
<event>
 4    1  0.1222208E+000  0.1860723E+03  0.7818608E-02  0.1162052E+00
         21   -1    0    0  501  502  0.00000000000E+00  0.00000000000E+00  0.16196986901E+03  0.16196986901E+03  0.00000000000E+00 0. -1.
         21   -1    0    0  502  503 -0.00000000000E+00 -0.00000000000E+00 -0.21942853427E+03  0.21942853427E+03  0.00000000000E+00 0. -1.
          6    1    1    2  501    0  0.17524724363E+02  0.68788045421E+02  0.19173058344E+01  0.18608220554E+03  0.17200000000E+03 0. -1.
         -6    1    1    2    0  503 -0.17524724363E+02 -0.68788045421E+02 -0.59375971096E+02  0.19531619774E+03  0.17200000000E+03 0. -1.
</event>
<event>
 4    1  0.1222208E+000  0.1744175E+03  0.7818608E-02  0.1173318E+00
         21   -1    0    0  503  502  0.00000000000E+00  0.00000000000E+00  0.90063478949E+02  0.90063478949E+02  0.00000000000E+00 0.  1.
         21   -1    0    0  501  503 -0.00000000000E+00 -0.00000000000E+00 -0.36887863188E+03  0.36887863188E+03  0.00000000000E+00 0.  1.
          6    1    1    2  501    0 -0.18872359114E+02 -0.21938368663E+02 -0.20603776890E+03  0.26995003273E+03  0.17200000000E+03 0.  1.
         -6    1    1    2    0  502  0.18872359114E+02  0.21938368663E+02 -0.72777384036E+02  0.18899207810E+03  0.17200000000E+03 0.  1.
</event>
<event>
 4    1  0.1222208E+000  0.1867241E+03  0.7818608E-02  0.1161450E+00
         21   -1    0    0  501  502  0.00000000000E+00  0.00000000000E+00  0.67672253128E+02  0.67672253128E+02  0.00000000000E+00 0. -1.
         21   -1    0    0  502  503 -0.00000000000E+00 -0.00000000000E+00 -0.53371546889E+03  0.53371546889E+03  0.00000000000E+00 0. -1.
          6    1    1    2  501    0  0.21597859575E+02  0.69393263387E+02 -0.17704094635E+03  0.25731185209E+03  0.17200000000E+03 0.  1.
         -6    1    1    2    0  503 -0.21597859575E+02 -0.69393263387E+02 -0.28900226940E+03  0.34407586992E+03  0.17200000000E+03 0.  1.
</event>
<event>
 4    1  0.1222208E+000  0.2506303E+03  0.7818608E-02  0.1112907E+00
         21   -1    0    0  503  502  0.00000000000E+00  0.00000000000E+00  0.12032974256E+03  0.12032974256E+03  0.00000000000E+00 0. -1.
         21   -1    0    0  501  503 -0.00000000000E+00 -0.00000000000E+00 -0.54859586600E+03  0.54859586600E+03  0.00000000000E+00 0. -1.
          6    1    1    2  501    0  0.80117349036E+01  0.18211904368E+03 -0.28773635390E+03  0.38158582694E+03  0.17200000000E+03 0. -1.
         -6    1    1    2    0  502 -0.80117349036E+01 -0.18211904368E+03 -0.14052976955E+03  0.28733978161E+03  0.17200000000E+03 0. -1.
</event>
<event>
 4    1  0.1222208E+000  0.1824654E+03  0.7818608E-02  0.1165438E+00
         21   -1    0    0  501  502  0.00000000000E+00  0.00000000000E+00  0.89864839296E+03  0.89864839296E+03  0.00000000000E+00 0. -1.
         21   -1    0    0  502  503 -0.00000000000E+00 -0.00000000000E+00 -0.54035688623E+02  0.54035688623E+02  0.00000000000E+00 0. -1.
          6    1    1    2  501    0 -0.60573062866E+02  0.63664177099E+01  0.68938463749E+03  0.71312327520E+03  0.17200000000E+03 0. -1.
         -6    1    1    2    0  503  0.60573062866E+02 -0.63664177099E+01  0.15522806684E+03  0.23956080638E+03  0.17200000000E+03 0. -1.
</event>
<event>
 4    1  0.1222208E+000  0.1975662E+03  0.7818608E-02  0.1151809E+00
         21   -1    0    0  501  502  0.00000000000E+00  0.00000000000E+00  0.31069128744E+02  0.31069128744E+02  0.00000000000E+00 0.  1.
         21   -1    0    0  502  503 -0.00000000000E+00 -0.00000000000E+00 -0.16414554867E+04  0.16414554867E+04  0.00000000000E+00 0. -1.
          6    1    1    2  501    0 -0.71955425412E+02  0.65351529010E+02 -0.40011270505E+03  0.44623153444E+03  0.17200000000E+03 0.  1.
         -6    1    1    2    0  503  0.71955425412E+02 -0.65351529010E+02 -0.12102736530E+04  0.12262930811E+04  0.17200000000E+03 0. -1.
</event>
<event>
 4    1  0.1222208E+000  0.2629169E+03  0.7818608E-02  0.1105403E+00
         21   -1    0    0  503  502  0.00000000000E+00  0.00000000000E+00  0.26480226371E+03  0.26480226371E+03  0.00000000000E+00 0.  1.
         21   -1    0    0  501  503 -0.00000000000E+00 -0.00000000000E+00 -0.51804524250E+03  0.51804524250E+03  0.00000000000E+00 0. -1.
          6    1    1    2  501    0  0.19861774171E+03 -0.96062960712E+01 -0.40231729452E+03  0.48060846197E+03  0.17200000000E+03 0. -1.
         -6    1    1    2    0  502 -0.19861774171E+03  0.96062960712E+01  0.14907431573E+03  0.30223904423E+03  0.17200000000E+03 0.  1.
</event>
<event>
 4    1  0.1222208E+000  0.2596470E+03  0.7818608E-02  0.1107356E+00
         21   -1    0    0  503  502  0.00000000000E+00  0.00000000000E+00  0.11971483269E+03  0.11971483269E+03  0.00000000000E+00 0. -1.
         21   -1    0    0  501  503 -0.00000000000E+00 -0.00000000000E+00 -0.62500000381E+03  0.62500000381E+03  0.00000000000E+00 0. -1.
          6    1    1    2  501    0 -0.19115640183E+03  0.35941456544E+02 -0.36978516573E+03  0.45183805402E+03  0.17200000000E+03 0.  1.
         -6    1    1    2    0  502  0.19115640183E+03 -0.35941456544E+02 -0.13550000539E+03  0.29287678249E+03  0.17200000000E+03 0.  1.
</event>
<event>
 4    1  0.1222208E+000  0.1784644E+03  0.7818608E-02  0.1169298E+00
         21   -1    0    0  503  502  0.00000000000E+00  0.00000000000E+00  0.10909646681E+03  0.10909646681E+03  0.00000000000E+00 0.  1.
         21   -1    0    0  501  503 -0.00000000000E+00 -0.00000000000E+00 -0.31422324442E+03  0.31422324442E+03  0.00000000000E+00 0.  1.
          6    1    1    2  501    0 -0.47251957866E+02  0.57262694760E+01 -0.15892924795E+03  0.23897289290E+03  0.17200000000E+03 0. -1.
         -6    1    1    2    0  502  0.47251957866E+02 -0.57262694760E+01 -0.46197529653E+02  0.18434681834E+03  0.17200000000E+03 0. -1.
</event>
<event>
 4    1  0.1222208E+000  0.2103784E+03  0.7818608E-02  0.1141267E+00
         21   -1    0    0  503  502  0.00000000000E+00  0.00000000000E+00  0.13145633527E+04  0.13145633527E+04  0.00000000000E+00 0.  1.
         21   -1    0    0  501  503 -0.00000000000E+00 -0.00000000000E+00 -0.52773139286E+02  0.52773139286E+02  0.00000000000E+00 0.  1.
          6    1    1    2  501    0  0.16328366601E+01 -0.12112962365E+03  0.21954542108E+03  0.30407111635E+03  0.17200000000E+03 0.  1.
         -6    1    1    2    0  502 -0.16328366601E+01  0.12112962365E+03  0.10422447923E+04  0.10632653756E+04  0.17200000000E+03 0.  1.
</event>
<event>
 4    1  0.1222208E+000  0.1744919E+03  0.7818608E-02  0.1173243E+00
         21   -1    0    0  501  502  0.00000000000E+00  0.00000000000E+00  0.97668375518E+02  0.97668375518E+02  0.00000000000E+00 0. -1.
         21   -1    0    0  502  503 -0.00000000000E+00 -0.00000000000E+00 -0.33127925706E+03  0.33127925706E+03  0.00000000000E+00 0. -1.
          6    1    1    2  501    0 -0.11963110484E+02  0.26838692028E+02 -0.64722205850E+02  0.18610855792E+03  0.17200000000E+03 0.  1.
         -6    1    1    2    0  503  0.11963110484E+02 -0.26838692028E+02 -0.16888867570E+03  0.24283907466E+03  0.17200000000E+03 0.  1.
</event>
<event>
 4    1  0.1222208E+000  0.1896864E+03  0.7818608E-02  0.1158745E+00
         21   -1    0    0  501  502  0.00000000000E+00  0.00000000000E+00  0.14849729465E+03  0.14849729465E+03  0.00000000000E+00 0. -1.
         21   -1    0    0  502  503 -0.00000000000E+00 -0.00000000000E+00 -0.27523580030E+03  0.27523580030E+03  0.00000000000E+00 0. -1.
          6    1    1    2  501    0  0.73257877696E+02 -0.32096672805E+02 -0.13665899851E+03  0.23378749950E+03  0.17200000000E+03 0. -1.
         -6    1    1    2    0  503 -0.73257877696E+02  0.32096672805E+02  0.99204928572E+01  0.18994559544E+03  0.17200000000E+03 0. -1.
</event>
<event>
 4    1  0.1222208E+000  0.1913729E+03  0.7818608E-02  0.1157229E+00
         21   -1    0    0  503  502  0.00000000000E+00  0.00000000000E+00  0.94783231663E+03  0.94783231663E+03  0.00000000000E+00 0.  1.
         21   -1    0    0  501  503 -0.00000000000E+00 -0.00000000000E+00 -0.49996473176E+02  0.49996473176E+02  0.00000000000E+00 0.  1.
          6    1    1    2  501    0  0.74076969466E+02 -0.39397668347E+02  0.21112903945E+03  0.28495446123E+03  0.17200000000E+03 0.  1.
         -6    1    1    2    0  502 -0.74076969466E+02  0.39397668347E+02  0.68670680400E+03  0.71287432857E+03  0.17200000000E+03 0.  1.
</event>
<event>
 4    1  0.1222208E+000  0.1770953E+03  0.7818608E-02  0.1170644E+00
         21   -1    0    0  503  502  0.00000000000E+00  0.00000000000E+00  0.63121241633E+03  0.63121241633E+03  0.00000000000E+00 0. -1.
         21   -1    0    0  501  503 -0.00000000000E+00 -0.00000000000E+00 -0.54786143945E+02  0.54786143945E+02  0.00000000000E+00 0. -1.
          6    1    1    2  501    0 -0.28885391751E+02  0.30730719384E+02  0.18356601632E+03  0.25506709964E+03  0.17200000000E+03 0. -1.
         -6    1    1    2    0  502  0.28885391751E+02 -0.30730719384E+02  0.39286025606E+03  0.43093146063E+03  0.17200000000E+03 0. -1.
</event>
<event>
 4    1  0.1222208E+000  0.1877004E+03  0.7818608E-02  0.1160552E+00
         21   -1    0    0  501  502  0.00000000000E+00  0.00000000000E+00  0.16321517490E+03  0.16321517490E+03  0.00000000000E+00 0. -1.
         21   -1    0    0  502  503 -0.00000000000E+00 -0.00000000000E+00 -0.21779654865E+03  0.21779654865E+03  0.00000000000E+00 0. -1.
          6    1    1    2  501    0 -0.40518730605E+01  0.75040126525E+02 -0.45259820005E+02  0.19308000821E+03  0.17200000000E+03 0.  1.
         -6    1    1    2    0  503  0.40518730605E+01 -0.75040126525E+02 -0.93215537492E+01  0.18793171533E+03  0.17200000000E+03 0.  1.
</event>
<event>
 4    1  0.1222208E+000  0.1780539E+03  0.7818608E-02  0.1169700E+00
         21   -1    0    0  501  502  0.00000000000E+00  0.00000000000E+00  0.41380781922E+03  0.41380781922E+03  0.00000000000E+00 0. -1.
         21   -1    0    0  502  503 -0.00000000000E+00 -0.00000000000E+00 -0.86563880627E+02  0.86563880627E+02  0.00000000000E+00 0. -1.
          6    1    1    2  501    0 -0.30523744875E+02 -0.34459983815E+02  0.24844586855E+03  0.30566082361E+03  0.17200000000E+03 0. -1.
         -6    1    1    2    0  503  0.30523744875E+02  0.34459983815E+02  0.78798070044E+02  0.19471087625E+03  0.17200000000E+03 0. -1.
</event>
<event>
 4    1  0.1222208E+000  0.1844081E+03  0.7818608E-02  0.1163604E+00
         21   -1    0    0  501  502  0.00000000000E+00  0.00000000000E+00  0.34219018018E+03  0.34219018018E+03  0.00000000000E+00 0.  1.
         21   -1    0    0  502  503 -0.00000000000E+00 -0.00000000000E+00 -0.27376938879E+03  0.27376938879E+03  0.00000000000E+00 0.  1.
          6    1    1    2  501    0 -0.65680352065E+02  0.10412523301E+02  0.28001596968E+03  0.33528386863E+03  0.17200000000E+03 0.  1.
         -6    1    1    2    0  503  0.65680352065E+02 -0.10412523301E+02 -0.21159517829E+03  0.28067570034E+03  0.17200000000E+03 0.  1.
</event>
<event>
 4    1  0.1222208E+000  0.2577457E+03  0.7818608E-02  0.1108505E+00
         21   -1    0    0  501  502  0.00000000000E+00  0.00000000000E+00  0.58906777911E+02  0.58906777911E+02  0.00000000000E+00 0.  1.
         21   -1    0    0  502  503 -0.00000000000E+00 -0.00000000000E+00 -0.13575910636E+04  0.13575910636E+04  0.00000000000E+00 0.  1.
          6    1    1    2  501    0  0.14388657092E+03 -0.12706487382E+03 -0.35793252499E+03  0.44107654653E+03  0.17200000000E+03 0.  1.
         -6    1    1    2    0  503 -0.14388657092E+03  0.12706487382E+03 -0.94075176071E+03  0.97542129500E+03  0.17200000000E+03 0.  1.
</event>
<event>
 4    1  0.1222208E+000  0.1779202E+03  0.7818608E-02  0.1169831E+00
         21   -1    0    0  501  502  0.00000000000E+00  0.00000000000E+00  0.44059384811E+03  0.44059384811E+03  0.00000000000E+00 0. -1.
         21   -1    0    0  502  503 -0.00000000000E+00 -0.00000000000E+00 -0.88336188776E+02  0.88336188776E+02  0.00000000000E+00 0. -1.
          6    1    1    2  501    0  0.39406150212E+02 -0.22776233767E+02  0.29038796157E+03  0.34055949513E+03  0.17200000000E+03 0. -1.
         -6    1    1    2    0  503 -0.39406150212E+02  0.22776233767E+02  0.61869697760E+02  0.18837054175E+03  0.17200000000E+03 0. -1.
</event>
<event>
 4    1  0.1222208E+000  0.2339188E+03  0.7818608E-02  0.1123912E+00
         21   -1    0    0  501  502  0.00000000000E+00  0.00000000000E+00  0.46641464895E+03  0.46641464895E+03  0.00000000000E+00 0.  1.
         21   -1    0    0  502  503 -0.00000000000E+00 -0.00000000000E+00 -0.12033382225E+03  0.12033382225E+03  0.00000000000E+00 0. -1.
          6    1    1    2  501    0  0.87695926714E+02  0.13207350724E+03  0.21949853937E+03  0.32077655098E+03  0.17200000000E+03 0.  1.
         -6    1    1    2    0  503 -0.87695926714E+02 -0.13207350724E+03  0.12658228733E+03  0.26597192021E+03  0.17200000000E+03 0. -1.
</event>
<event>
 4    1  0.1222208E+000  0.3440673E+03  0.7818608E-02  0.1065077E+00
         21   -1    0    0  501  502  0.00000000000E+00  0.00000000000E+00  0.59268831437E+03  0.59268831437E+03  0.00000000000E+00 0. -1.
         21   -1    0    0  502  503 -0.00000000000E+00 -0.00000000000E+00 -0.24542344953E+03  0.24542344953E+03  0.00000000000E+00 0.  1.
          6    1    1    2  501    0  0.15150928910E+03 -0.25659941357E+03  0.35443446298E+03  0.49396974835E+03  0.17200000000E+03 0. -1.
         -6    1    1    2    0  503 -0.15150928910E+03  0.25659941357E+03 -0.71695981413E+01  0.34414201555E+03  0.17200000000E+03 0. -1.
</event>
<event>
 4    1  0.1222208E+000  0.2993291E+03  0.7818608E-02  0.1085576E+00
         21   -1    0    0  503  502  0.00000000000E+00  0.00000000000E+00  0.76468633846E+02  0.76468633846E+02  0.00000000000E+00 0.  1.
         21   -1    0    0  501  503 -0.00000000000E+00 -0.00000000000E+00 -0.19172279064E+04  0.19172279064E+04  0.00000000000E+00 0. -1.
          6    1    1    2  501    0  0.23594947814E+03 -0.65891905096E+02 -0.15420006114E+04  0.15707844489E+04  0.17200000000E+03 0. -1.
         -6    1    1    2    0  502 -0.23594947814E+03  0.65891905096E+02 -0.29875866120E+03  0.42291209138E+03  0.17200000000E+03 0.  1.
</event>
<event>
 4    1  0.1222208E+000  0.1834928E+03  0.7818608E-02  0.1164465E+00
         21   -1    0    0  501  502  0.00000000000E+00  0.00000000000E+00  0.64457575293E+03  0.64457575293E+03  0.00000000000E+00 0. -1.
         21   -1    0    0  502  503 -0.00000000000E+00 -0.00000000000E+00 -0.60266643367E+02  0.60266643367E+02  0.00000000000E+00 0. -1.
          6    1    1    2  501    0  0.60279327163E+02  0.21260730246E+02  0.42080677293E+03  0.45907293111E+03  0.17200000000E+03 0. -1.
         -6    1    1    2    0  503 -0.60279327163E+02 -0.21260730246E+02  0.16350233663E+03  0.24576946519E+03  0.17200000000E+03 0. -1.
</event>
<event>
 4    1  0.1222208E+000  0.1782314E+03  0.7818608E-02  0.1169526E+00
         21   -1    0    0  501  502  0.00000000000E+00  0.00000000000E+00  0.40348081746E+03  0.40348081746E+03  0.00000000000E+00 0.  1.
         21   -1    0    0  502  503 -0.00000000000E+00 -0.00000000000E+00 -0.12248004220E+03  0.12248004220E+03  0.00000000000E+00 0.  1.
          6    1    1    2  501    0  0.31733247125E+02  0.34284578511E+02  0.29767241325E+03  0.34695143306E+03  0.17200000000E+03 0.  1.
         -6    1    1    2    0  503 -0.31733247125E+02 -0.34284578511E+02 -0.16671637984E+02  0.17900942659E+03  0.17200000000E+03 0.  1.
</event>
<event>
 4    1  0.1222208E+000  0.2186296E+03  0.7818608E-02  0.1134909E+00
         21   -1    0    0  503  502  0.00000000000E+00  0.00000000000E+00  0.26484124643E+03  0.26484124643E+03  0.00000000000E+00 0.  1.
         21   -1    0    0  501  503 -0.00000000000E+00 -0.00000000000E+00 -0.29237000214E+03  0.29237000214E+03  0.00000000000E+00 0.  1.
          6    1    1    2  501    0  0.75047154619E+02 -0.11217323963E+03  0.15858767293E+03  0.27009065350E+03  0.17200000000E+03 0.  1.
         -6    1    1    2    0  502 -0.75047154619E+02  0.11217323963E+03 -0.18611642864E+03  0.28712059507E+03  0.17200000000E+03 0.  1.
</event>
<event>
 4    1  0.1222208E+000  0.2151917E+03  0.7818608E-02  0.1137519E+00
         21   -1    0    0  501  502  0.00000000000E+00  0.00000000000E+00  0.24117584910E+04  0.24117584910E+04  0.00000000000E+00 0.  1.
         21   -1    0    0  502  503 -0.00000000000E+00 -0.00000000000E+00 -0.19202324948E+02  0.19202324948E+02  0.00000000000E+00 0.  1.
          6    1    1    2  501    0 -0.10708103533E+02 -0.12887512842E+03  0.11851124531E+04  0.12044911742E+04  0.17200000000E+03 0.  1.
         -6    1    1    2    0  503  0.10708103533E+02  0.12887512842E+03  0.12074437129E+04  0.12264696417E+04  0.17200000000E+03 0.  1.
</event>
<event>
 4    1  0.1222208E+000  0.1854244E+03  0.7818608E-02  0.1162654E+00
         21   -1    0    0  501  502  0.00000000000E+00  0.00000000000E+00  0.34007101928E+03  0.34007101928E+03  0.00000000000E+00 0. -1.
         21   -1    0    0  502  503 -0.00000000000E+00 -0.00000000000E+00 -0.14725083500E+03  0.14725083500E+03  0.00000000000E+00 0. -1.
          6    1    1    2  501    0 -0.29357398371E+02  0.62740244388E+02 -0.39995679354E+02  0.18968882274E+03  0.17200000000E+03 0. -1.
         -6    1    1    2    0  503  0.29357398371E+02 -0.62740244388E+02  0.23281586364E+03  0.29763303154E+03  0.17200000000E+03 0. -1.
</event>
<event>
 4    1  0.1222208E+000  0.1770390E+03  0.7818608E-02  0.1170700E+00
         21   -1    0    0  501  502  0.00000000000E+00  0.00000000000E+00  0.12304507486E+03  0.12304507486E+03  0.00000000000E+00 0. -1.
         21   -1    0    0  502  503 -0.00000000000E+00 -0.00000000000E+00 -0.46072320908E+03  0.46072320908E+03  0.00000000000E+00 0. -1.
          6    1    1    2  501    0 -0.90152963292E+01  0.40957777577E+02  0.26334419441E+02  0.17898691784E+03  0.17200000000E+03 0.  1.
         -6    1    1    2    0  503  0.90152963292E+01 -0.40957777577E+02 -0.36401255367E+03  0.40478136610E+03  0.17200000000E+03 0.  1.
</event>
<event>
 4    1  0.1222208E+000  0.1787194E+03  0.7818608E-02  0.1169048E+00
         21   -1    0    0  503  502  0.00000000000E+00  0.00000000000E+00  0.17302999404E+02  0.17302999404E+02  0.00000000000E+00 0.  1.
         21   -1    0    0  501  503 -0.00000000000E+00 -0.00000000000E+00 -0.18519122406E+04  0.18519122406E+04  0.00000000000E+00 0.  1.
          6    1    1    2  501    0  0.48477876781E+02  0.25508502769E+01 -0.86431024562E+03  0.88259436439E+03  0.17200000000E+03 0.  1.
         -6    1    1    2    0  502 -0.48477876781E+02 -0.25508502769E+01 -0.97029899555E+03  0.98662087559E+03  0.17200000000E+03 0.  1.
</event>
<event>
 4    1  0.1222208E+000  0.2238928E+03  0.7818608E-02  0.1131014E+00
         21   -1    0    0  503  502  0.00000000000E+00  0.00000000000E+00  0.20334571833E+03  0.20334571833E+03  0.00000000000E+00 0. -1.
         21   -1    0    0  501  503 -0.00000000000E+00 -0.00000000000E+00 -0.26341862174E+03  0.26341862174E+03  0.00000000000E+00 0. -1.
          6    1    1    2  501    0 -0.40945235754E+02 -0.13735894620E+03  0.29081618933E+02  0.22577363219E+03  0.17200000000E+03 0.  1.
         -6    1    1    2    0  502  0.40945235754E+02  0.13735894620E+03 -0.89154522339E+02  0.24099070788E+03  0.17200000000E+03 0.  1.
</event>
<event>
 4    1  0.1222208E+000  0.2693828E+03  0.7818608E-02  0.1101633E+00
         21   -1    0    0  501  502  0.00000000000E+00  0.00000000000E+00  0.17503852925E+03  0.17503852925E+03  0.00000000000E+00 0.  1.
         21   -1    0    0  502  503 -0.00000000000E+00 -0.00000000000E+00 -0.41535600908E+03  0.41535600908E+03  0.00000000000E+00 0.  1.
          6    1    1    2  501    0  0.20537412899E+03  0.28364919432E+02 -0.10738172840E+03  0.28999644327E+03  0.17200000000E+03 0. -1.
         -6    1    1    2    0  503 -0.20537412899E+03 -0.28364919432E+02 -0.13293575143E+03  0.30039809507E+03  0.17200000000E+03 0. -1.
</event>
<event>
 4    1  0.1222208E+000  0.1849691E+03  0.7818608E-02  0.1163079E+00
         21   -1    0    0  503  502  0.00000000000E+00  0.00000000000E+00  0.77688885814E+03  0.77688885814E+03  0.00000000000E+00 0. -1.
         21   -1    0    0  501  503 -0.00000000000E+00 -0.00000000000E+00 -0.47070292752E+02  0.47070292752E+02  0.00000000000E+00 0.  1.
          6    1    1    2  501    0  0.40582047323E+02 -0.54613817191E+02  0.46945376841E+03  0.50457944099E+03  0.17200000000E+03 0. -1.
         -6    1    1    2    0  502 -0.40582047323E+02  0.54613817191E+02  0.26036479698E+03  0.31937970991E+03  0.17200000000E+03 0.  1.
</event>
<event>
 4    1  0.1222208E+000  0.2426386E+03  0.7818608E-02  0.1118047E+00
         21   -1    0    0  503  502  0.00000000000E+00  0.00000000000E+00  0.15549560557E+03  0.15549560557E+03  0.00000000000E+00 0. -1.
         21   -1    0    0  501  503 -0.00000000000E+00 -0.00000000000E+00 -0.40123480426E+03  0.40123480426E+03  0.00000000000E+00 0. -1.
          6    1    1    2  501    0  0.63381491802E+00  0.17114050976E+03 -0.18895853557E+03  0.30753667093E+03  0.17200000000E+03 0. -1.
         -6    1    1    2    0  502 -0.63381491802E+00 -0.17114050976E+03 -0.56780663115E+02  0.24919373890E+03  0.17200000000E+03 0. -1.
</event>
<event>
 4    1  0.1222208E+000  0.1877104E+03  0.7818608E-02  0.1160543E+00
         21   -1    0    0  503  502  0.00000000000E+00  0.00000000000E+00  0.97165680712E+02  0.97165680712E+02  0.00000000000E+00 0.  1.
         21   -1    0    0  501  503 -0.00000000000E+00 -0.00000000000E+00 -0.44355105371E+03  0.44355105371E+03  0.00000000000E+00 0. -1.
          6    1    1    2  501    0  0.74768386270E+02  0.78022393378E+01 -0.28867058980E+03  0.34433398894E+03  0.17200000000E+03 0. -1.
         -6    1    1    2    0  502 -0.74768386270E+02 -0.78022393378E+01 -0.57714783201E+02  0.19638274548E+03  0.17200000000E+03 0.  1.
</event>
<event>
 4    1  0.1222208E+000  0.2225914E+03  0.7818608E-02  0.1131966E+00
         21   -1    0    0  503  502  0.00000000000E+00  0.00000000000E+00  0.42437039641E+02  0.42437039641E+02  0.00000000000E+00 0.  1.
         21   -1    0    0  501  503 -0.00000000000E+00 -0.00000000000E+00 -0.12414664030E+04  0.12414664030E+04  0.00000000000E+00 0.  1.
          6    1    1    2  501    0  0.27190956421E+02 -0.13864916623E+03 -0.75616626839E+03  0.78824765452E+03  0.17200000000E+03 0.  1.
         -6    1    1    2    0  502 -0.27190956421E+02  0.13864916623E+03 -0.44286309494E+03  0.49565578809E+03  0.17200000000E+03 0.  1.
</event>
<event>
 4    1  0.1222208E+000  0.1864576E+03  0.7818608E-02  0.1161696E+00
         21   -1    0    0  503  502  0.00000000000E+00  0.00000000000E+00  0.48743414749E+03  0.48743414749E+03  0.00000000000E+00 0.  1.
         21   -1    0    0  501  503 -0.00000000000E+00 -0.00000000000E+00 -0.74315669992E+02  0.74315669992E+02  0.00000000000E+00 0.  1.
          6    1    1    2  501    0 -0.56583113393E+02 -0.44506195664E+02  0.15021808097E+03  0.23944085287E+03  0.17200000000E+03 0.  1.
         -6    1    1    2    0  502  0.56583113393E+02  0.44506195664E+02  0.26290039653E+03  0.32230896461E+03  0.17200000000E+03 0.  1.
</event>
<event>
 4    1  0.1222208E+000  0.1889246E+03  0.7818608E-02  0.1159435E+00
         21   -1    0    0  501  502  0.00000000000E+00  0.00000000000E+00  0.66203041937E+03  0.66203041937E+03  0.00000000000E+00 0.  1.
         21   -1    0    0  502  503 -0.00000000000E+00 -0.00000000000E+00 -0.56968781299E+02  0.56968781299E+02  0.00000000000E+00 0.  1.
          6    1    1    2  501    0 -0.53481957307E+02  0.56992710371E+02  0.38578260289E+03  0.42955873345E+03  0.17200000000E+03 0. -1.
         -6    1    1    2    0  503  0.53481957307E+02 -0.56992710371E+02  0.21927903518E+03  0.28944046722E+03  0.17200000000E+03 0. -1.
</event>
<event>
 4    1  0.1222208E+000  0.1969260E+03  0.7818608E-02  0.1152359E+00
         21   -1    0    0  503  502  0.00000000000E+00  0.00000000000E+00  0.67658980465E+02  0.67658980465E+02  0.00000000000E+00 0. -1.
         21   -1    0    0  501  503 -0.00000000000E+00 -0.00000000000E+00 -0.11050433698E+04  0.11050433698E+04  0.00000000000E+00 0. -1.
          6    1    1    2  501    0 -0.71736522447E+02  0.63637511424E+02 -0.92548539736E+03  0.94620456681E+03  0.17200000000E+03 0. -1.
         -6    1    1    2    0  502  0.71736522447E+02 -0.63637511424E+02 -0.11189899200E+03  0.22649778348E+03  0.17200000000E+03 0. -1.
</event>
<event>
 4    1  0.1222208E+000  0.2375037E+03  0.7818608E-02  0.1121467E+00
         21   -1    0    0  503  502  0.00000000000E+00  0.00000000000E+00  0.93785272312E+03  0.93785272312E+03  0.00000000000E+00 0. -1.
         21   -1    0    0  501  503 -0.00000000000E+00 -0.00000000000E+00 -0.11001241668E+03  0.11001241668E+03  0.00000000000E+00 0. -1.
          6    1    1    2  501    0 -0.13249527654E+03 -0.96275801996E+02  0.61176741649E+02  0.24525623758E+03  0.17200000000E+03 0. -1.
         -6    1    1    2    0  502  0.13249527654E+03  0.96275801996E+02  0.76666356479E+03  0.80260890222E+03  0.17200000000E+03 0. -1.
</event>
<event>
 4    1  0.1222208E+000  0.1865601E+03  0.7818608E-02  0.1161601E+00
         21   -1    0    0  501  502  0.00000000000E+00  0.00000000000E+00  0.75411078984E+03  0.75411078984E+03  0.00000000000E+00 0. -1.
         21   -1    0    0  502  503 -0.00000000000E+00 -0.00000000000E+00 -0.52066708320E+02  0.52066708320E+02  0.00000000000E+00 0. -1.
          6    1    1    2  501    0 -0.67413264372E+02  0.26002540724E+02  0.48686607812E+03  0.52138590158E+03  0.17200000000E+03 0. -1.
         -6    1    1    2    0  503  0.67413264372E+02 -0.26002540724E+02  0.21517800340E+03  0.28479159658E+03  0.17200000000E+03 0. -1.
</event>
<event>
 4    1  0.1222208E+000  0.1970294E+03  0.7818608E-02  0.1152270E+00
         21   -1    0    0  503  502  0.00000000000E+00  0.00000000000E+00  0.54411500385E+02  0.54411500385E+02  0.00000000000E+00 0.  1.
         21   -1    0    0  501  503 -0.00000000000E+00 -0.00000000000E+00 -0.71602164653E+03  0.71602164653E+03  0.00000000000E+00 0.  1.
          6    1    1    2  501    0 -0.73468040641E+02 -0.61959822569E+02 -0.30777593177E+03  0.36544027800E+03  0.17200000000E+03 0. -1.
         -6    1    1    2    0  502  0.73468040641E+02  0.61959822569E+02 -0.35383421438E+03  0.40499286892E+03  0.17200000000E+03 0. -1.
</event>
<event>
 4    1  0.1222208E+000  0.3621206E+03  0.7818608E-02  0.1057747E+00
         21   -1    0    0  503  502  0.00000000000E+00  0.00000000000E+00  0.10093711878E+04  0.10093711878E+04  0.00000000000E+00 0. -1.
         21   -1    0    0  501  503 -0.00000000000E+00 -0.00000000000E+00 -0.16362256569E+03  0.16362256569E+03  0.00000000000E+00 0.  1.
          6    1    1    2  501    0 -0.19191430738E+03 -0.25439385891E+03  0.15667007993E+03  0.39455905866E+03  0.17200000000E+03 0. -1.
         -6    1    1    2    0  502  0.19191430738E+03  0.25439385891E+03  0.68907854218E+03  0.77843469483E+03  0.17200000000E+03 0.  1.
</event>
<event>
 4    1  0.1222208E+000  0.1769336E+03  0.7818608E-02  0.1170804E+00
         21   -1    0    0  503  502  0.00000000000E+00  0.00000000000E+00  0.35947712184E+03  0.35947712184E+03  0.00000000000E+00 0.  1.
         21   -1    0    0  501  503 -0.00000000000E+00 -0.00000000000E+00 -0.26559068815E+03  0.26559068815E+03  0.00000000000E+00 0.  1.
          6    1    1    2  501    0 -0.36884002770E+02 -0.19001561250E+02 -0.20927813119E+03  0.27404894670E+03  0.17200000000E+03 0. -1.
         -6    1    1    2    0  502  0.36884002770E+02  0.19001561250E+02  0.30316456488E+03  0.35101886330E+03  0.17200000000E+03 0. -1.
</event>
<event>
 4    1  0.1222208E+000  0.1793527E+03  0.7818608E-02  0.1168431E+00
         21   -1    0    0  501  502  0.00000000000E+00  0.00000000000E+00  0.12641319337E+03  0.12641319337E+03  0.00000000000E+00 0.  1.
         21   -1    0    0  502  503 -0.00000000000E+00 -0.00000000000E+00 -0.30755104874E+03  0.30755104874E+03  0.00000000000E+00 0.  1.
          6    1    1    2  501    0  0.18394698105E+02  0.47381813550E+02 -0.41881167566E+00  0.17935321736E+03  0.17200000000E+03 0.  1.
         -6    1    1    2    0  503 -0.18394698105E+02 -0.47381813550E+02 -0.18071904370E+03  0.25461102476E+03  0.17200000000E+03 0.  1.
</event>
<event>
 4    1  0.1222208E+000  0.1768487E+03  0.7818608E-02  0.1170888E+00
         21   -1    0    0  503  502  0.00000000000E+00  0.00000000000E+00  0.51717560970E+03  0.51717560970E+03  0.00000000000E+00 0.  1.
         21   -1    0    0  501  503 -0.00000000000E+00 -0.00000000000E+00 -0.60594874577E+02  0.60594874577E+02  0.00000000000E+00 0.  1.
          6    1    1    2  501    0  0.41001102472E+02  0.32226700331E+01  0.21536702690E+03  0.27867262564E+03  0.17200000000E+03 0.  1.
         -6    1    1    2    0  502 -0.41001102472E+02 -0.32226700331E+01  0.24121370823E+03  0.29909785864E+03  0.17200000000E+03 0.  1.
</event>
<event>
 4    1  0.1222208E+000  0.2263738E+03  0.7818608E-02  0.1129218E+00
         21   -1    0    0  501  502  0.00000000000E+00  0.00000000000E+00  0.32432992144E+03  0.32432992144E+03  0.00000000000E+00 0.  1.
         21   -1    0    0  502  503 -0.00000000000E+00 -0.00000000000E+00 -0.15932209763E+03  0.15932209763E+03  0.00000000000E+00 0.  1.
          6    1    1    2  501    0  0.13896412723E+03  0.48477633700E+02  0.10450777220E+03  0.24933307858E+03  0.17200000000E+03 0.  1.
         -6    1    1    2    0  503 -0.13896412723E+03 -0.48477633700E+02  0.60500051613E+02  0.23431894049E+03  0.17200000000E+03 0.  1.
</event>
<event>
 4    1  0.1222208E+000  0.1740087E+03  0.7818608E-02  0.1173731E+00
         21   -1    0    0  501  502  0.00000000000E+00  0.00000000000E+00  0.44093953859E+03  0.44093953859E+03  0.00000000000E+00 0. -1.
         21   -1    0    0  502  503 -0.00000000000E+00 -0.00000000000E+00 -0.15103711331E+03  0.15103711331E+03  0.00000000000E+00 0. -1.
          6    1    1    2  501    0 -0.20054967089E+01  0.26287229834E+02  0.36353166831E+03  0.40303140614E+03  0.17200000000E+03 0. -1.
         -6    1    1    2    0  503  0.20054967089E+01 -0.26287229834E+02 -0.73629243027E+02  0.18894524577E+03  0.17200000000E+03 0. -1.
</event>
<event>
 4    1  0.1222208E+000  0.2363889E+03  0.7818608E-02  0.1122222E+00
         21   -1    0    0  503  502  0.00000000000E+00  0.00000000000E+00  0.28439000710E+03  0.28439000710E+03  0.00000000000E+00 0.  1.
         21   -1    0    0  501  503 -0.00000000000E+00 -0.00000000000E+00 -0.23933218754E+03  0.23933218754E+03  0.00000000000E+00 0.  1.
          6    1    1    2  501    0  0.45417355081E+02  0.15566942686E+03 -0.88262930997E+02  0.25232925235E+03  0.17200000000E+03 0. -1.
         -6    1    1    2    0  502 -0.45417355081E+02 -0.15566942686E+03  0.13332075056E+03  0.27139294230E+03  0.17200000000E+03 0. -1.
</event>
<event>
 4    1  0.1222208E+000  0.1740143E+03  0.7818608E-02  0.1173725E+00
         21   -1    0    0  503  502  0.00000000000E+00  0.00000000000E+00  0.86883559061E+02  0.86883559061E+02  0.00000000000E+00 0. -1.
         21   -1    0    0  501  503 -0.00000000000E+00 -0.00000000000E+00 -0.35078018304E+03  0.35078018304E+03  0.00000000000E+00 0. -1.
          6    1    1    2  501    0  0.26388456476E+02 -0.78088767415E+00 -0.11439616745E+03  0.20824851392E+03  0.17200000000E+03 0. -1.
         -6    1    1    2    0  502 -0.26388456476E+02  0.78088767415E+00 -0.14950045653E+03  0.22941522818E+03  0.17200000000E+03 0. -1.
</event>
<event>
 4    1  0.1222208E+000  0.2949784E+03  0.7818608E-02  0.1087778E+00
         21   -1    0    0  503  502  0.00000000000E+00  0.00000000000E+00  0.57606845896E+03  0.57606845896E+03  0.00000000000E+00 0.  1.
         21   -1    0    0  501  503 -0.00000000000E+00 -0.00000000000E+00 -0.15451297104E+03  0.15451297104E+03  0.00000000000E+00 0. -1.
          6    1    1    2  501    0  0.16004059971E+03  0.17836836552E+03  0.26550367171E+03  0.39686832459E+03  0.17200000000E+03 0.  1.
         -6    1    1    2    0  502 -0.16004059971E+03 -0.17836836552E+03  0.15605181621E+03  0.33371310540E+03  0.17200000000E+03 0.  1.
</event>
<event>
 4    1  0.1222208E+000  0.2896304E+03  0.7818608E-02  0.1090542E+00
         21   -1    0    0  501  502  0.00000000000E+00  0.00000000000E+00  0.36351187184E+03  0.36351187184E+03  0.00000000000E+00 0. -1.
         21   -1    0    0  502  503 -0.00000000000E+00 -0.00000000000E+00 -0.25108044993E+03  0.25108044993E+03  0.00000000000E+00 0.  1.
          6    1    1    2  501    0 -0.16696752953E+03  0.16255333297E+03  0.14362671668E+03  0.32328683196E+03  0.17200000000E+03 0. -1.
         -6    1    1    2    0  503  0.16696752953E+03 -0.16255333297E+03 -0.31195294767E+02  0.29130548981E+03  0.17200000000E+03 0.  1.
</event>
<event>
 4    1  0.1222208E+000  0.1905899E+03  0.7818608E-02  0.1157930E+00
         21   -1    0    0  501  502  0.00000000000E+00  0.00000000000E+00  0.12462654881E+03  0.12462654881E+03  0.00000000000E+00 0. -1.
         21   -1    0    0  502  503 -0.00000000000E+00 -0.00000000000E+00 -0.31161746524E+03  0.31161746524E+03  0.00000000000E+00 0. -1.
          6    1    1    2  501    0 -0.70753993345E+02  0.41645833657E+02 -0.14896226195E+03  0.24189720651E+03  0.17200000000E+03 0. -1.
         -6    1    1    2    0  503  0.70753993345E+02 -0.41645833657E+02 -0.38028654481E+02  0.19434680753E+03  0.17200000000E+03 0. -1.
</event>
<event>
 4    1  0.1222208E+000  0.2140314E+03  0.7818608E-02  0.1138413E+00
         21   -1    0    0  503  502  0.00000000000E+00  0.00000000000E+00  0.55376353226E+03  0.55376353226E+03  0.00000000000E+00 0. -1.
         21   -1    0    0  501  503 -0.00000000000E+00 -0.00000000000E+00 -0.10240142485E+03  0.10240142485E+03  0.00000000000E+00 0. -1.
          6    1    1    2  501    0 -0.58334649300E+02  0.11323656963E+03  0.81862203829E+02  0.22915250910E+03  0.17200000000E+03 0.  1.
         -6    1    1    2    0  502  0.58334649300E+02 -0.11323656963E+03  0.36949990358E+03  0.42701244801E+03  0.17200000000E+03 0.  1.
</event>
<event>
 4    1  0.1222208E+000  0.2467538E+03  0.7818608E-02  0.1115374E+00
         21   -1    0    0  501  502  0.00000000000E+00  0.00000000000E+00  0.32072593412E+03  0.32072593412E+03  0.00000000000E+00 0.  1.
         21   -1    0    0  502  503 -0.00000000000E+00 -0.00000000000E+00 -0.19694967020E+03  0.19694967020E+03  0.00000000000E+00 0. -1.
          6    1    1    2  501    0  0.17529212503E+03 -0.24002561490E+02  0.11105751129E+03  0.27059420332E+03  0.17200000000E+03 0.  1.
         -6    1    1    2    0  503 -0.17529212503E+03  0.24002561490E+02  0.12718752635E+02  0.24708140101E+03  0.17200000000E+03 0. -1.
</event>
<event>
 4    1  0.1222208E+000  0.1755862E+03  0.7818608E-02  0.1172144E+00
         21   -1    0    0  501  502  0.00000000000E+00  0.00000000000E+00  0.13859096081E+03  0.13859096081E+03  0.00000000000E+00 0. -1.
         21   -1    0    0  502  503 -0.00000000000E+00 -0.00000000000E+00 -0.25291554927E+03  0.25291554927E+03  0.00000000000E+00 0. -1.
          6    1    1    2  501    0  0.33849397117E+02 -0.10035757507E+02  0.10770181452E+02  0.17591615879E+03  0.17200000000E+03 0. -1.
         -6    1    1    2    0  503 -0.33849397117E+02  0.10035757507E+02 -0.12509476991E+03  0.21559035130E+03  0.17200000000E+03 0. -1.
</event>
<event>
 4    1  0.1222208E+000  0.1990523E+03  0.7818608E-02  0.1150541E+00
         21   -1    0    0  501  502  0.00000000000E+00  0.00000000000E+00  0.26028764960E+03  0.26028764960E+03  0.00000000000E+00 0. -1.
         21   -1    0    0  502  503 -0.00000000000E+00 -0.00000000000E+00 -0.19218769702E+03  0.19218769702E+03  0.00000000000E+00 0. -1.
          6    1    1    2  501    0 -0.88133893327E+02 -0.47646793182E+02  0.13721671560E+03  0.24176481773E+03  0.17200000000E+03 0. -1.
         -6    1    1    2    0  503  0.88133893327E+02  0.47646793182E+02 -0.69116763026E+02  0.21071052889E+03  0.17200000000E+03 0. -1.
</event>
<event>
 4    1  0.1222208E+000  0.1921788E+03  0.7818608E-02  0.1156511E+00
         21   -1    0    0  501  502  0.00000000000E+00  0.00000000000E+00  0.53520783824E+02  0.53520783824E+02  0.00000000000E+00 0.  1.
         21   -1    0    0  502  503 -0.00000000000E+00 -0.00000000000E+00 -0.21413275271E+04  0.21413275271E+04  0.00000000000E+00 0. -1.
          6    1    1    2  501    0 -0.81346630088E+02 -0.27045054589E+02 -0.19473578290E+04  0.19568176265E+04  0.17200000000E+03 0. -1.
         -6    1    1    2    0  503  0.81346630088E+02  0.27045054589E+02 -0.14044891426E+03  0.23803068441E+03  0.17200000000E+03 0.  1.
</event>
<event>
 4    1  0.1222208E+000  0.2317831E+03  0.7818608E-02  0.1125391E+00
         21   -1    0    0  501  502  0.00000000000E+00  0.00000000000E+00  0.96750764504E+02  0.96750764504E+02  0.00000000000E+00 0. -1.
         21   -1    0    0  502  503 -0.00000000000E+00 -0.00000000000E+00 -0.55613139846E+03  0.55613139846E+03  0.00000000000E+00 0. -1.
          6    1    1    2  501    0  0.14744268143E+03  0.48990389428E+02 -0.24249104257E+03  0.33544792187E+03  0.17200000000E+03 0.  1.
         -6    1    1    2    0  503 -0.14744268143E+03 -0.48990389428E+02 -0.21688959139E+03  0.31743424109E+03  0.17200000000E+03 0.  1.
</event>
<event>
 4    1  0.1222208E+000  0.1730389E+03  0.7818608E-02  0.1174715E+00
         21   -1    0    0  503  502  0.00000000000E+00  0.00000000000E+00  0.34394008701E+03  0.34394008701E+03  0.00000000000E+00 0. -1.
         21   -1    0    0  501  503 -0.00000000000E+00 -0.00000000000E+00 -0.14271050765E+03  0.14271050765E+03  0.00000000000E+00 0. -1.
          6    1    1    2  501    0 -0.17808613601E+02  0.64265505216E+01 -0.51336689750E+02  0.18049349845E+03  0.17200000000E+03 0. -1.
         -6    1    1    2    0  502  0.17808613601E+02 -0.64265505216E+01  0.25256626911E+03  0.30615709621E+03  0.17200000000E+03 0. -1.
</event>
<event>
 4    1  0.1222208E+000  0.1978745E+03  0.7818608E-02  0.1151545E+00
         21   -1    0    0  501  502  0.00000000000E+00  0.00000000000E+00  0.32548969995E+03  0.32548969995E+03  0.00000000000E+00 0. -1.
         21   -1    0    0  502  503 -0.00000000000E+00 -0.00000000000E+00 -0.12676851713E+03  0.12676851713E+03  0.00000000000E+00 0. -1.
          6    1    1    2  501    0 -0.75769992335E+02 -0.61880841777E+02  0.15046608771E+03  0.24858474183E+03  0.17200000000E+03 0.  1.
         -6    1    1    2    0  503  0.75769992335E+02  0.61880841777E+02  0.48255095114E+02  0.20367347525E+03  0.17200000000E+03 0.  1.
</event>
<event>
 4    1  0.1222208E+000  0.1786398E+03  0.7818608E-02  0.1169126E+00
         21   -1    0    0  501  502  0.00000000000E+00  0.00000000000E+00  0.81542982200E+02  0.81542982200E+02  0.00000000000E+00 0.  1.
         21   -1    0    0  502  503 -0.00000000000E+00 -0.00000000000E+00 -0.40611704551E+03  0.40611704551E+03  0.00000000000E+00 0.  1.
          6    1    1    2  501    0 -0.15707993760E+02 -0.45622770987E+02 -0.11579822017E+03  0.21288824790E+03  0.17200000000E+03 0.  1.
         -6    1    1    2    0  503  0.15707993760E+02  0.45622770987E+02 -0.20877584314E+03  0.27477177981E+03  0.17200000000E+03 0.  1.
</event>
<event>
 4    1  0.1222208E+000  0.1811194E+03  0.7818608E-02  0.1166724E+00
         21   -1    0    0  503  502  0.00000000000E+00  0.00000000000E+00  0.69508345725E+02  0.69508345725E+02  0.00000000000E+00 0. -1.
         21   -1    0    0  501  503 -0.00000000000E+00 -0.00000000000E+00 -0.23303601221E+04  0.23303601221E+04  0.00000000000E+00 0. -1.
          6    1    1    2  501    0  0.46307767260E+01 -0.56558025882E+02 -0.22019872784E+04  0.22094235059E+04  0.17200000000E+03 0. -1.
         -6    1    1    2    0  502 -0.46307767260E+01  0.56558025882E+02 -0.58864497979E+02  0.19044496188E+03  0.17200000000E+03 0. -1.
</event>
<event>
 4    1  0.1222208E+000  0.2143160E+03  0.7818608E-02  0.1138193E+00
         21   -1    0    0  503  502  0.00000000000E+00  0.00000000000E+00  0.59493709528E+03  0.59493709528E+03  0.00000000000E+00 0. -1.
         21   -1    0    0  501  503 -0.00000000000E+00 -0.00000000000E+00 -0.12671623077E+03  0.12671623077E+03  0.00000000000E+00 0. -1.
          6    1    1    2  501    0 -0.76344327730E+02 -0.10256169946E+03  0.85619226733E+01  0.21448698117E+03  0.17200000000E+03 0. -1.
         -6    1    1    2    0  502  0.76344327730E+02  0.10256169946E+03  0.45965894183E+03  0.50716634488E+03  0.17200000000E+03 0. -1.
</event>
<event>
 4    1  0.1222208E+000  0.1944525E+03  0.7818608E-02  0.1154506E+00
         21   -1    0    0  503  502  0.00000000000E+00  0.00000000000E+00  0.99772962758E+03  0.99772962758E+03  0.00000000000E+00 0.  1.
         21   -1    0    0  501  503 -0.00000000000E+00 -0.00000000000E+00 -0.52911070625E+02  0.52911070625E+02  0.00000000000E+00 0.  1.
          6    1    1    2  501    0  0.17924186407E+02 -0.88918479099E+02  0.19258306494E+03  0.27367866063E+03  0.17200000000E+03 0.  1.
         -6    1    1    2    0  502 -0.17924186407E+02  0.88918479099E+02  0.75223549201E+03  0.77696203757E+03  0.17200000000E+03 0.  1.
</event>
<event>
 4    1  0.1222208E+000  0.2913875E+03  0.7818608E-02  0.1089627E+00
         21   -1    0    0  503  502  0.00000000000E+00  0.00000000000E+00  0.19253892574E+03  0.19253892574E+03  0.00000000000E+00 0. -1.
         21   -1    0    0  501  503 -0.00000000000E+00 -0.00000000000E+00 -0.86181421676E+03  0.86181421676E+03  0.00000000000E+00 0.  1.
          6    1    1    2  501    0  0.21217821007E+03 -0.10150410054E+03 -0.70302311512E+03  0.76101785501E+03  0.17200000000E+03 0.  1.
         -6    1    1    2    0  502 -0.21217821007E+03  0.10150410054E+03  0.33747824098E+02  0.29333528749E+03  0.17200000000E+03 0. -1.
</event>
<event>
 4    1  0.1222208E+000  0.2813079E+03  0.7818608E-02  0.1094977E+00
         21   -1    0    0  501  502  0.00000000000E+00  0.00000000000E+00  0.32798804043E+03  0.32798804043E+03  0.00000000000E+00 0. -1.
         21   -1    0    0  502  503 -0.00000000000E+00 -0.00000000000E+00 -0.28271160984E+03  0.28271160984E+03  0.00000000000E+00 0. -1.
          6    1    1    2  501    0  0.68069819270E+02 -0.21193548508E+03 -0.94267720909E+02  0.29668258010E+03  0.17200000000E+03 0. -1.
         -6    1    1    2    0  503 -0.68069819270E+02  0.21193548508E+03  0.13954415150E+03  0.31401707016E+03  0.17200000000E+03 0. -1.
</event>
<event>
 4    1  0.1222208E+000  0.1747470E+03  0.7818608E-02  0.1172986E+00
         21   -1    0    0  503  502  0.00000000000E+00  0.00000000000E+00  0.20255700851E+03  0.20255700851E+03  0.00000000000E+00 0.  1.
         21   -1    0    0  501  503 -0.00000000000E+00 -0.00000000000E+00 -0.37443740356E+03  0.37443740356E+03  0.00000000000E+00 0.  1.
          6    1    1    2  501    0  0.10849111728E+02  0.28892806173E+02 -0.30892118498E+03  0.35492083062E+03  0.17200000000E+03 0.  1.
         -6    1    1    2    0  502 -0.10849111728E+02 -0.28892806173E+02  0.13704078994E+03  0.22207358145E+03  0.17200000000E+03 0.  1.
</event>
<event>
 4    1  0.1222208E+000  0.1863514E+03  0.7818608E-02  0.1161794E+00
         21   -1    0    0  503  502  0.00000000000E+00  0.00000000000E+00  0.66406525989E+03  0.66406525989E+03  0.00000000000E+00 0.  1.
         21   -1    0    0  501  503 -0.00000000000E+00 -0.00000000000E+00 -0.94754322099E+02  0.94754322099E+02  0.00000000000E+00 0.  1.
          6    1    1    2  501    0 -0.34169769718E+02  0.63049656615E+02  0.53863522003E+03  0.56996029039E+03  0.17200000000E+03 0.  1.
         -6    1    1    2    0  502  0.34169769718E+02 -0.63049656615E+02  0.30675717754E+02  0.18885929159E+03  0.17200000000E+03 0.  1.
</event>
<event>
 4    1  0.1222208E+000  0.1964104E+03  0.7818608E-02  0.1152803E+00
         21   -1    0    0  503  502  0.00000000000E+00  0.00000000000E+00  0.32816448358E+03  0.32816448358E+03  0.00000000000E+00 0. -1.
         21   -1    0    0  501  503 -0.00000000000E+00 -0.00000000000E+00 -0.33399126879E+03  0.33399126879E+03  0.00000000000E+00 0. -1.
          6    1    1    2  501    0  0.65218129329E+02 -0.68844957479E+02 -0.26943269788E+03  0.33342317144E+03  0.17200000000E+03 0. -1.
         -6    1    1    2    0  502 -0.65218129329E+02  0.68844957479E+02  0.26360591267E+03  0.32873258092E+03  0.17200000000E+03 0. -1.
</event>
<event>
 4    1  0.1222208E+000  0.2207830E+03  0.7818608E-02  0.1133301E+00
         21   -1    0    0  503  502  0.00000000000E+00  0.00000000000E+00  0.18146032609E+04  0.18146032609E+04  0.00000000000E+00 0.  1.
         21   -1    0    0  501  503 -0.00000000000E+00 -0.00000000000E+00 -0.35253125902E+02  0.35253125902E+02  0.00000000000E+00 0.  1.
          6    1    1    2  501    0 -0.13341807193E+02 -0.13777920455E+03  0.43844125788E+03  0.49089291056E+03  0.17200000000E+03 0.  1.
         -6    1    1    2    0  502  0.13341807193E+02  0.13777920455E+03  0.13409088771E+04  0.13589634762E+04  0.17200000000E+03 0.  1.
</event>
<event>
 4    1  0.1222208E+000  0.2088707E+03  0.7818608E-02  0.1142463E+00
         21   -1    0    0  503  502  0.00000000000E+00  0.00000000000E+00  0.80727778270E+02  0.80727778270E+02  0.00000000000E+00 0. -1.
         21   -1    0    0  501  503 -0.00000000000E+00 -0.00000000000E+00 -0.58116234681E+03  0.58116234681E+03  0.00000000000E+00 0. -1.
          6    1    1    2  501    0  0.10737381460E+02 -0.11801554313E+03 -0.16259256549E+03  0.26469473386E+03  0.17200000000E+03 0. -1.
         -6    1    1    2    0  502 -0.10737381460E+02  0.11801554313E+03 -0.33784200305E+03  0.39719539122E+03  0.17200000000E+03 0. -1.
</event>
<event>
 4    1  0.1222208E+000  0.2048575E+03  0.7818608E-02  0.1145704E+00
         21   -1    0    0  501  502  0.00000000000E+00  0.00000000000E+00  0.19326187321E+03  0.19326187321E+03  0.00000000000E+00 0. -1.
         21   -1    0    0  502  503 -0.00000000000E+00 -0.00000000000E+00 -0.23151262891E+03  0.23151262891E+03  0.00000000000E+00 0.  1.
          6    1    1    2  501    0 -0.11071185886E+03 -0.11201481242E+02  0.33777076299E+02  0.20762340850E+03  0.17200000000E+03 0.  1.
         -6    1    1    2    0  503  0.11071185886E+03  0.11201481242E+02 -0.72027831997E+02  0.21715109361E+03  0.17200000000E+03 0.  1.
</event>
<event>
 4    1  0.1222208E+000  0.1935430E+03  0.7818608E-02  0.1155304E+00
         21   -1    0    0  501  502  0.00000000000E+00  0.00000000000E+00  0.17980860903E+03  0.17980860903E+03  0.00000000000E+00 0. -1.
         21   -1    0    0  502  503 -0.00000000000E+00 -0.00000000000E+00 -0.21194729158E+03  0.21194729158E+03  0.00000000000E+00 0. -1.
          6    1    1    2  501    0  0.63974163610E+02  0.61499554837E+02  0.95328119480E+01  0.19377761315E+03  0.17200000000E+03 0.  1.
         -6    1    1    2    0  503 -0.63974163610E+02 -0.61499554837E+02 -0.41671494496E+02  0.19797828747E+03  0.17200000000E+03 0.  1.
</event>
<event>
 4    1  0.1222208E+000  0.2932492E+03  0.7818608E-02  0.1088665E+00
         21   -1    0    0  501  502  0.00000000000E+00  0.00000000000E+00  0.79753514466E+03  0.79753514466E+03  0.00000000000E+00 0.  1.
         21   -1    0    0  502  503 -0.00000000000E+00 -0.00000000000E+00 -0.10891051942E+03  0.10891051942E+03  0.00000000000E+00 0.  1.
          6    1    1    2  501    0 -0.16726881121E+03  0.16861857750E+03  0.29908699450E+03  0.41886526493E+03  0.17200000000E+03 0. -1.
         -6    1    1    2    0  503  0.16726881121E+03 -0.16861857750E+03  0.38953763073E+03  0.48758039915E+03  0.17200000000E+03 0. -1.
</event>
<event>
 4    1  0.1222208E+000  0.2472723E+03  0.7818608E-02  0.1115041E+00
         21   -1    0    0  501  502  0.00000000000E+00  0.00000000000E+00  0.82324636627E+03  0.82324636627E+03  0.00000000000E+00 0.  1.
         21   -1    0    0  502  503 -0.00000000000E+00 -0.00000000000E+00 -0.13162350264E+03  0.13162350264E+03  0.00000000000E+00 0. -1.
          6    1    1    2  501    0  0.17447918492E+03  0.33415773118E+02  0.66096513997E+03  0.70570426959E+03  0.17200000000E+03 0. -1.
         -6    1    1    2    0  503 -0.17447918492E+03 -0.33415773118E+02  0.30657723661E+02  0.24916559932E+03  0.17200000000E+03 0.  1.
</event>
<event>
 4    1  0.1222208E+000  0.2001366E+03  0.7818608E-02  0.1149624E+00
         21   -1    0    0  501  502  0.00000000000E+00  0.00000000000E+00  0.23309592695E+03  0.23309592695E+03  0.00000000000E+00 0.  1.
         21   -1    0    0  502  503 -0.00000000000E+00 -0.00000000000E+00 -0.17596088351E+03  0.17596088351E+03  0.00000000000E+00 0.  1.
          6    1    1    2  501    0  0.51911969282E+02  0.88180576381E+02  0.59876017649E+02  0.20890142196E+03  0.17200000000E+03 0. -1.
         -6    1    1    2    0  503 -0.51911969282E+02 -0.88180576381E+02 -0.27409742111E+01  0.20015538850E+03  0.17200000000E+03 0. -1.
</event>
<event>
 4    1  0.1222208E+000  0.3730476E+03  0.7818608E-02  0.1053534E+00
         21   -1    0    0  501  502  0.00000000000E+00  0.00000000000E+00  0.15505066010E+04  0.15505066010E+04  0.00000000000E+00 0.  1.
         21   -1    0    0  502  503 -0.00000000000E+00 -0.00000000000E+00 -0.13956343551E+03  0.13956343551E+03  0.00000000000E+00 0.  1.
          6    1    1    2  501    0  0.30376393759E+03 -0.13155989157E+03  0.12102998483E+04  0.12664873697E+04  0.17200000000E+03 0.  1.
         -6    1    1    2    0  503 -0.30376393759E+03  0.13155989157E+03  0.20064331712E+03  0.42358266673E+03  0.17200000000E+03 0.  1.
</event>
<event>
 4    1  0.1222208E+000  0.1744278E+03  0.7818608E-02  0.1173307E+00
         21   -1    0    0  501  502  0.00000000000E+00  0.00000000000E+00  0.16829486997E+03  0.16829486997E+03  0.00000000000E+00 0. -1.
         21   -1    0    0  502  503 -0.00000000000E+00 -0.00000000000E+00 -0.18180204023E+03  0.18180204023E+03  0.00000000000E+00 0. -1.
          6    1    1    2  501    0 -0.28924312068E+02  0.21052365273E+01 -0.19851609364E+02  0.17555379302E+03  0.17200000000E+03 0. -1.
         -6    1    1    2    0  503  0.28924312068E+02 -0.21052365273E+01  0.63444391056E+01  0.17454311719E+03  0.17200000000E+03 0. -1.
</event>
<event>
 4    1  0.1222208E+000  0.3796962E+03  0.7818608E-02  0.1051046E+00
         21   -1    0    0  501  502  0.00000000000E+00  0.00000000000E+00  0.85816897333E+02  0.85816897333E+02  0.00000000000E+00 0. -1.
         21   -1    0    0  502  503 -0.00000000000E+00 -0.00000000000E+00 -0.20072588709E+04  0.20072588709E+04  0.00000000000E+00 0. -1.
          6    1    1    2  501    0 -0.33202530018E+03 -0.65912062363E+02 -0.53812670125E+03  0.65859664934E+03  0.17200000000E+03 0. -1.
         -6    1    1    2    0  503  0.33202530018E+03  0.65912062363E+02 -0.13833152723E+04  0.14344791189E+04  0.17200000000E+03 0. -1.
</event>
<event>
 4    1  0.1222208E+000  0.2465629E+03  0.7818608E-02  0.1115496E+00
         21   -1    0    0  503  502  0.00000000000E+00  0.00000000000E+00  0.73505416123E+03  0.73505416123E+03  0.00000000000E+00 0.  1.
         21   -1    0    0  501  503 -0.00000000000E+00 -0.00000000000E+00 -0.13277588966E+03  0.13277588966E+03  0.00000000000E+00 0. -1.
          6    1    1    2  501    0 -0.14145205594E+03 -0.10583275598E+03  0.56760045970E+03  0.61884047881E+03  0.17200000000E+03 0.  1.
         -6    1    1    2    0  502  0.14145205594E+03  0.10583275598E+03  0.34677811866E+02  0.24898957208E+03  0.17200000000E+03 0. -1.
</event>
<event>
 4    1  0.1222208E+000  0.2048325E+03  0.7818608E-02  0.1145725E+00
         21   -1    0    0  501  502  0.00000000000E+00  0.00000000000E+00  0.18284663995E+03  0.18284663995E+03  0.00000000000E+00 0.  1.
         21   -1    0    0  502  503 -0.00000000000E+00 -0.00000000000E+00 -0.29443375913E+03  0.29443375913E+03  0.00000000000E+00 0. -1.
          6    1    1    2  501    0 -0.12919509714E+02  0.11047814225E+03  0.56308222700E+02  0.21243104667E+03  0.17200000000E+03 0.  1.
         -6    1    1    2    0  503  0.12919509714E+02 -0.11047814225E+03 -0.16789534188E+03  0.26484935241E+03  0.17200000000E+03 0. -1.
</event>
<event>
 4    1  0.1222208E+000  0.2295577E+03  0.7818608E-02  0.1126951E+00
         21   -1    0    0  503  502  0.00000000000E+00  0.00000000000E+00  0.17875004396E+03  0.17875004396E+03  0.00000000000E+00 0. -1.
         21   -1    0    0  501  503 -0.00000000000E+00 -0.00000000000E+00 -0.60104553870E+03  0.60104553870E+03  0.00000000000E+00 0. -1.
          6    1    1    2  501    0 -0.66805684031E+02 -0.13656403611E+03 -0.48945666501E+03  0.54061498527E+03  0.17200000000E+03 0.  1.
         -6    1    1    2    0  502  0.66805684031E+02  0.13656403611E+03  0.67161170274E+02  0.23918059739E+03  0.17200000000E+03 0.  1.
</event>
<event>
 4    1  0.1222208E+000  0.1738749E+03  0.7818608E-02  0.1173866E+00
         21   -1    0    0  503  502  0.00000000000E+00  0.00000000000E+00  0.71451499271E+02  0.71451499271E+02  0.00000000000E+00 0. -1.
         21   -1    0    0  501  503 -0.00000000000E+00 -0.00000000000E+00 -0.42387041152E+03  0.42387041152E+03  0.00000000000E+00 0. -1.
          6    1    1    2  501    0 -0.14670402894E+01 -0.25422746240E+02 -0.18663876387E+03  0.25508135253E+03  0.17200000000E+03 0. -1.
         -6    1    1    2    0  502  0.14670402894E+01  0.25422746240E+02 -0.16578014839E+03  0.24024055826E+03  0.17200000000E+03 0. -1.
</event>
<event>
 4    1  0.1222208E+000  0.1727388E+03  0.7818608E-02  0.1175021E+00
         21   -1    0    0  501  502  0.00000000000E+00  0.00000000000E+00  0.39082153032E+02  0.39082153032E+02  0.00000000000E+00 0.  1.
         21   -1    0    0  502  503 -0.00000000000E+00 -0.00000000000E+00 -0.76950354569E+03  0.76950354569E+03  0.00000000000E+00 0.  1.
          6    1    1    2  501    0 -0.15637495494E+02 -0.31877790911E+01 -0.32945994281E+03  0.37199804719E+03  0.17200000000E+03 0. -1.
         -6    1    1    2    0  503  0.15637495494E+02  0.31877790911E+01 -0.40096144986E+03  0.43658765153E+03  0.17200000000E+03 0. -1.
</event>
<event>
 4    1  0.1222208E+000  0.2741046E+03  0.7818608E-02  0.1098953E+00
         21   -1    0    0  501  502  0.00000000000E+00  0.00000000000E+00  0.88651882900E+02  0.88651882900E+02  0.00000000000E+00 0.  1.
         21   -1    0    0  502  503 -0.00000000000E+00 -0.00000000000E+00 -0.14247441179E+04  0.14247441179E+04  0.00000000000E+00 0. -1.
          6    1    1    2  501    0  0.72790605620E+02  0.20062618307E+03 -0.18639759792E+03  0.33147760424E+03  0.17200000000E+03 0. -1.
         -6    1    1    2    0  503 -0.72790605620E+02 -0.20062618307E+03 -0.11496946371E+04  0.11819183966E+04  0.17200000000E+03 0. -1.
</event>
<event>
 4    1  0.1222208E+000  0.1887619E+03  0.7818608E-02  0.1159583E+00
         21   -1    0    0  501  502  0.00000000000E+00  0.00000000000E+00  0.18452556694E+03  0.18452556694E+03  0.00000000000E+00 0.  1.
         21   -1    0    0  502  503 -0.00000000000E+00 -0.00000000000E+00 -0.19807542980E+03  0.19807542980E+03  0.00000000000E+00 0.  1.
          6    1    1    2  501    0 -0.75486914757E+02 -0.18675305660E+02  0.23558114057E+02  0.19022624971E+03  0.17200000000E+03 0.  1.
         -6    1    1    2    0  503  0.75486914757E+02  0.18675305660E+02 -0.37107976917E+02  0.19237474702E+03  0.17200000000E+03 0.  1.
</event>
<event>
 4    1  0.1222208E+000  0.2006236E+03  0.7818608E-02  0.1149214E+00
         21   -1    0    0  501  502  0.00000000000E+00  0.00000000000E+00  0.62565516351E+03  0.62565516351E+03  0.00000000000E+00 0. -1.
         21   -1    0    0  502  503 -0.00000000000E+00 -0.00000000000E+00 -0.16895768473E+03  0.16895768473E+03  0.00000000000E+00 0. -1.
          6    1    1    2  501    0 -0.19391765370E+01 -0.10325732987E+03  0.54099637125E+03  0.57699818915E+03  0.17200000000E+03 0. -1.
         -6    1    1    2    0  503  0.19391765370E+01  0.10325732987E+03 -0.84298892473E+02  0.21761465909E+03  0.17200000000E+03 0. -1.
</event>
<event>
 4    1  0.1222208E+000  0.2389454E+03  0.7818608E-02  0.1120497E+00
         21   -1    0    0  503  502  0.00000000000E+00  0.00000000000E+00  0.23259275065E+03  0.23259275065E+03  0.00000000000E+00 0. -1.
         21   -1    0    0  501  503 -0.00000000000E+00 -0.00000000000E+00 -0.26021281062E+03  0.26021281062E+03  0.00000000000E+00 0. -1.
          6    1    1    2  501    0  0.15990665448E+03  0.44054167484E+02 -0.72457364154E+02  0.24968976238E+03  0.17200000000E+03 0. -1.
         -6    1    1    2    0  502 -0.15990665448E+03 -0.44054167484E+02  0.44837304185E+02  0.24311579888E+03  0.17200000000E+03 0. -1.
</event>
<event>
 4    1  0.1222208E+000  0.2612861E+03  0.7818608E-02  0.1106373E+00
         21   -1    0    0  503  502  0.00000000000E+00  0.00000000000E+00  0.75759859765E+03  0.75759859765E+03  0.00000000000E+00 0. -1.
         21   -1    0    0  501  503 -0.00000000000E+00 -0.00000000000E+00 -0.11734781176E+03  0.11734781176E+03  0.00000000000E+00 0.  1.
          6    1    1    2  501    0  0.19277395527E+03 -0.39046586158E+02  0.10937609483E+03  0.28325529799E+03  0.17200000000E+03 0. -1.
         -6    1    1    2    0  502 -0.19277395527E+03  0.39046586158E+02  0.53087469106E+03  0.59169111142E+03  0.17200000000E+03 0. -1.
</event>
<event>
 4    1  0.1222208E+000  0.1746680E+03  0.7818608E-02  0.1173065E+00
         21   -1    0    0  501  502  0.00000000000E+00  0.00000000000E+00  0.49370281802E+02  0.49370281802E+02  0.00000000000E+00 0. -1.
         21   -1    0    0  502  503 -0.00000000000E+00 -0.00000000000E+00 -0.99068687917E+03  0.99068687917E+03  0.00000000000E+00 0. -1.
          6    1    1    2  501    0 -0.65962244501E-01  0.30412112585E+02 -0.15168533551E+03  0.23133815499E+03  0.17200000000E+03 0. -1.
         -6    1    1    2    0  503  0.65962244501E-01 -0.30412112585E+02 -0.78963126186E+03  0.80871900599E+03  0.17200000000E+03 0. -1.
</event>
<event>
 4    1  0.1222208E+000  0.1981667E+03  0.7818608E-02  0.1151295E+00
         21   -1    0    0  501  502  0.00000000000E+00  0.00000000000E+00  0.12999443748E+04  0.12999443748E+04  0.00000000000E+00 0. -1.
         21   -1    0    0  502  503 -0.00000000000E+00 -0.00000000000E+00 -0.10083399591E+03  0.10083399591E+03  0.00000000000E+00 0. -1.
          6    1    1    2  501    0  0.98379722403E+02 -0.27348143700E+01  0.11857137215E+04  0.12021593398E+04  0.17200000000E+03 0. -1.
         -6    1    1    2    0  503 -0.98379722403E+02  0.27348143700E+01  0.13396657369E+02  0.19861903086E+03  0.17200000000E+03 0. -1.
</event>
<event>
 4    1  0.1222208E+000  0.2267054E+03  0.7818608E-02  0.1128980E+00
         21   -1    0    0  503  502  0.00000000000E+00  0.00000000000E+00  0.26588398960E+03  0.26588398960E+03  0.00000000000E+00 0.  1.
         21   -1    0    0  501  503 -0.00000000000E+00 -0.00000000000E+00 -0.20968803443E+03  0.20968803443E+03  0.00000000000E+00 0.  1.
          6    1    1    2  501    0  0.14312199422E+03  0.36433671044E+02 -0.38378160599E+02  0.22993086097E+03  0.17200000000E+03 0. -1.
         -6    1    1    2    0  502 -0.14312199422E+03 -0.36433671044E+02  0.94574115772E+02  0.24564116306E+03  0.17200000000E+03 0. -1.
</event>
<event>
 4    1  0.1222208E+000  0.2324259E+03  0.7818608E-02  0.1124944E+00
         21   -1    0    0  503  502  0.00000000000E+00  0.00000000000E+00  0.22621163770E+03  0.22621163770E+03  0.00000000000E+00 0.  1.
         21   -1    0    0  501  503 -0.00000000000E+00 -0.00000000000E+00 -0.26117650100E+03  0.26117650100E+03  0.00000000000E+00 0.  1.
          6    1    1    2  501    0  0.14627585441E+03  0.55146709478E+02 -0.88795486348E+02  0.24881001496E+03  0.17200000000E+03 0.  1.
         -6    1    1    2    0  502 -0.14627585441E+03 -0.55146709478E+02  0.53830623048E+02  0.23857812374E+03  0.17200000000E+03 0.  1.
</event>
<event>
 4    1  0.1222208E+000  0.1778024E+03  0.7818608E-02  0.1169947E+00
         21   -1    0    0  501  502  0.00000000000E+00  0.00000000000E+00  0.45262567755E+03  0.45262567755E+03  0.00000000000E+00 0. -1.
         21   -1    0    0  502  503 -0.00000000000E+00 -0.00000000000E+00 -0.89244114086E+02  0.89244114086E+02  0.00000000000E+00 0. -1.
          6    1    1    2  501    0 -0.17280419472E+02 -0.41606428371E+02  0.30800854790E+03  0.35564444795E+03  0.17200000000E+03 0. -1.
         -6    1    1    2    0  503  0.17280419472E+02  0.41606428371E+02  0.55373015569E+02  0.18622534369E+03  0.17200000000E+03 0. -1.
</event>
<event>
 4    1  0.1222208E+000  0.6102032E+03  0.7818608E-02  0.9884461E-01
         21   -1    0    0  501  502  0.00000000000E+00  0.00000000000E+00  0.11218932026E+04  0.11218932026E+04  0.00000000000E+00 0. -1.
         21   -1    0    0  502  503 -0.00000000000E+00 -0.00000000000E+00 -0.48966755375E+03  0.48966755375E+03  0.00000000000E+00 0.  1.
          6    1    1    2  501    0 -0.38306314453E+03 -0.44274892319E+03 -0.14127556974E+03  0.62634396963E+03  0.17200000000E+03 0.  1.
         -6    1    1    2    0  503  0.38306314453E+03  0.44274892319E+03  0.77350121858E+03  0.98521678672E+03  0.17200000000E+03 0. -1.
</event>
<event>
 4    1  0.1222208E+000  0.2076778E+03  0.7818608E-02  0.1143418E+00
         21   -1    0    0  503  502  0.00000000000E+00  0.00000000000E+00  0.28540011072E+04  0.28540011072E+04  0.00000000000E+00 0.  1.
         21   -1    0    0  501  503 -0.00000000000E+00 -0.00000000000E+00 -0.72814319070E+02  0.72814319070E+02  0.00000000000E+00 0.  1.
          6    1    1    2  501    0 -0.41551246617E+02 -0.10871778764E+03  0.87867481847E+02  0.22550112596E+03  0.17200000000E+03 0.  1.
         -6    1    1    2    0  502  0.41551246617E+02  0.10871778764E+03  0.26933193063E+04  0.27013143003E+04  0.17200000000E+03 0.  1.
</event>
<event>
 4    1  0.1222208E+000  0.2033157E+03  0.7818608E-02  0.1146971E+00
         21   -1    0    0  501  502  0.00000000000E+00  0.00000000000E+00  0.16037153373E+04  0.16037153373E+04  0.00000000000E+00 0. -1.
         21   -1    0    0  502  503 -0.00000000000E+00 -0.00000000000E+00 -0.68246032965E+02  0.68246032965E+02  0.00000000000E+00 0.  1.
          6    1    1    2  501    0 -0.84117600516E+02 -0.68392328041E+02  0.14272108245E+04  0.14416199287E+04  0.17200000000E+03 0. -1.
         -6    1    1    2    0  503  0.84117600516E+02  0.68392328041E+02  0.10825847986E+03  0.23034144159E+03  0.17200000000E+03 0.  1.
</event>
<event>
 4    1  0.1222208E+000  0.1936249E+03  0.7818608E-02  0.1155232E+00
         21   -1    0    0  501  502  0.00000000000E+00  0.00000000000E+00  0.17582385741E+04  0.17582385741E+04  0.00000000000E+00 0.  1.
         21   -1    0    0  502  503 -0.00000000000E+00 -0.00000000000E+00 -0.21485257928E+02  0.21485257928E+02  0.00000000000E+00 0. -1.
          6    1    1    2  501    0  0.71097629062E+02 -0.53401522026E+02  0.79100123002E+03  0.81435467783E+03  0.17200000000E+03 0. -1.
         -6    1    1    2    0  503 -0.71097629062E+02  0.53401522026E+02  0.94575208619E+03  0.96536915424E+03  0.17200000000E+03 0.  1.
</event>
<event>
 4    1  0.1222208E+000  0.1899891E+03  0.7818608E-02  0.1158471E+00
         21   -1    0    0  501  502  0.00000000000E+00  0.00000000000E+00  0.61889170778E+02  0.61889170778E+02  0.00000000000E+00 0. -1.
         21   -1    0    0  502  503 -0.00000000000E+00 -0.00000000000E+00 -0.67994517316E+03  0.67994517316E+03  0.00000000000E+00 0. -1.
          6    1    1    2  501    0 -0.61966258059E+02  0.51691691827E+02 -0.44891555035E+03  0.48746386480E+03  0.17200000000E+03 0. -1.
         -6    1    1    2    0  503  0.61966258059E+02 -0.51691691827E+02 -0.16914045203E+03  0.25437047913E+03  0.17200000000E+03 0. -1.
</event>
<event>
 4    1  0.1222208E+000  0.1875368E+03  0.7818608E-02  0.1160702E+00
         21   -1    0    0  501  502  0.00000000000E+00  0.00000000000E+00  0.64769233105E+02  0.64769233105E+02  0.00000000000E+00 0. -1.
         21   -1    0    0  502  503 -0.00000000000E+00 -0.00000000000E+00 -0.56234376876E+03  0.56234376876E+03  0.00000000000E+00 0. -1.
          6    1    1    2  501    0 -0.50520760827E+02  0.55078977402E+02 -0.19064055288E+03  0.26742075729E+03  0.17200000000E+03 0. -1.
         -6    1    1    2    0  503  0.50520760827E+02 -0.55078977402E+02 -0.30693398278E+03  0.35969224458E+03  0.17200000000E+03 0. -1.
</event>
<event>
 4    1  0.1222208E+000  0.1915931E+03  0.7818608E-02  0.1157032E+00
         21   -1    0    0  503  502  0.00000000000E+00  0.00000000000E+00  0.71116106565E+02  0.71116106565E+02  0.00000000000E+00 0. -1.
         21   -1    0    0  501  503 -0.00000000000E+00 -0.00000000000E+00 -0.10353331990E+04  0.10353331990E+04  0.00000000000E+00 0.  1.
          6    1    1    2  501    0  0.39039346352E+02 -0.74831991226E+02 -0.87386306257E+03  0.89461977935E+03  0.17200000000E+03 0.  1.
         -6    1    1    2    0  502 -0.39039346352E+02  0.74831991226E+02 -0.90354029905E+02  0.21182952626E+03  0.17200000000E+03 0. -1.
</event>
<event>
 4    1  0.1222208E+000  0.1842133E+03  0.7818608E-02  0.1163787E+00
         21   -1    0    0  503  502  0.00000000000E+00  0.00000000000E+00  0.50215148540E+02  0.50215148540E+02  0.00000000000E+00 0.  1.
         21   -1    0    0  501  503 -0.00000000000E+00 -0.00000000000E+00 -0.69490032448E+03  0.69490032448E+03  0.00000000000E+00 0.  1.
          6    1    1    2  501    0 -0.64391910946E+02  0.14290108282E+02 -0.26054805811E+03  0.31909217473E+03  0.17200000000E+03 0. -1.
         -6    1    1    2    0  502  0.64391910946E+02 -0.14290108282E+02 -0.38413711783E+03  0.42602329828E+03  0.17200000000E+03 0. -1.
</event>
<event>
 4    1  0.1222208E+000  0.2133634E+03  0.7818608E-02  0.1138930E+00
         21   -1    0    0  503  502  0.00000000000E+00  0.00000000000E+00  0.13846404989E+03  0.13846404989E+03  0.00000000000E+00 0.  1.
         21   -1    0    0  501  503 -0.00000000000E+00 -0.00000000000E+00 -0.92064881343E+03  0.92064881343E+03  0.00000000000E+00 0. -1.
          6    1    1    2  501    0  0.12601140470E+03 -0.78132367956E+01 -0.81569116357E+03  0.84313462454E+03  0.17200000000E+03 0. -1.
         -6    1    1    2    0  502 -0.12601140470E+03  0.78132367956E+01  0.33506400017E+02  0.21597823878E+03  0.17200000000E+03 0.  1.
</event>
<event>
 4    1  0.1222208E+000  0.1733155E+03  0.7818608E-02  0.1174434E+00
         21   -1    0    0  501  502  0.00000000000E+00  0.00000000000E+00  0.83656494581E+02  0.83656494581E+02  0.00000000000E+00 0. -1.
         21   -1    0    0  502  503 -0.00000000000E+00 -0.00000000000E+00 -0.42229622055E+03  0.42229622055E+03  0.00000000000E+00 0. -1.
          6    1    1    2  501    0 -0.10829033298E+02 -0.18357765142E+02 -0.71431581305E+02  0.18745865227E+03  0.17200000000E+03 0. -1.
         -6    1    1    2    0  503  0.10829033298E+02  0.18357765142E+02 -0.26720814467E+03  0.31849406287E+03  0.17200000000E+03 0. -1.
</event>
<event>
 4    1  0.1222208E+000  0.2217857E+03  0.7818608E-02  0.1132559E+00
         21   -1    0    0  501  502  0.00000000000E+00  0.00000000000E+00  0.16132336925E+03  0.16132336925E+03  0.00000000000E+00 0.  1.
         21   -1    0    0  502  503 -0.00000000000E+00 -0.00000000000E+00 -0.51905043801E+03  0.51905043801E+03  0.00000000000E+00 0.  1.
          6    1    1    2  501    0 -0.53779895672E+02 -0.12927727106E+03  0.39642545850E+02  0.22530073554E+03  0.17200000000E+03 0.  1.
         -6    1    1    2    0  503  0.53779895672E+02  0.12927727106E+03 -0.39736961461E+03  0.45507307172E+03  0.17200000000E+03 0.  1.
</event>
<event>
 4    1  0.1222208E+000  0.1844715E+03  0.7818608E-02  0.1163544E+00
         21   -1    0    0  501  502  0.00000000000E+00  0.00000000000E+00  0.20053281721E+03  0.20053281721E+03  0.00000000000E+00 0.  1.
         21   -1    0    0  502  503 -0.00000000000E+00 -0.00000000000E+00 -0.22583463182E+03  0.22583463182E+03  0.00000000000E+00 0.  1.
          6    1    1    2  501    0 -0.16692740467E+02 -0.64552842804E+02  0.93637954089E+02  0.20687625176E+03  0.17200000000E+03 0.  1.
         -6    1    1    2    0  503  0.16692740467E+02  0.64552842804E+02 -0.11893976870E+03  0.21949119726E+03  0.17200000000E+03 0.  1.
</event>
<event>
 4    1  0.1222208E+000  0.1806357E+03  0.7818608E-02  0.1167189E+00
         21   -1    0    0  501  502  0.00000000000E+00  0.00000000000E+00  0.19522207374E+03  0.19522207374E+03  0.00000000000E+00 0.  1.
         21   -1    0    0  502  503 -0.00000000000E+00 -0.00000000000E+00 -0.18259943058E+03  0.18259943058E+03  0.00000000000E+00 0.  1.
          6    1    1    2  501    0  0.53757375850E+02 -0.12466445381E+02 -0.48657254127E+02  0.18707430635E+03  0.17200000000E+03 0.  1.
         -6    1    1    2    0  503 -0.53757375850E+02  0.12466445381E+02  0.61279897292E+02  0.19074719796E+03  0.17200000000E+03 0.  1.
</event>
<event>
 4    1  0.1222208E+000  0.1807581E+03  0.7818608E-02  0.1167071E+00
         21   -1    0    0  503  502  0.00000000000E+00  0.00000000000E+00  0.22482098722E+03  0.22482098722E+03  0.00000000000E+00 0. -1.
         21   -1    0    0  501  503 -0.00000000000E+00 -0.00000000000E+00 -0.17070586642E+03  0.17070586642E+03  0.00000000000E+00 0. -1.
          6    1    1    2  501    0  0.55383407071E+02  0.47081793729E+01 -0.49189394251E+02  0.18733148491E+03  0.17200000000E+03 0.  1.
         -6    1    1    2    0  502 -0.55383407071E+02 -0.47081793729E+01  0.10330451505E+03  0.20819536873E+03  0.17200000000E+03 0.  1.
</event>
<event>
 4    1  0.1222208E+000  0.1885815E+03  0.7818608E-02  0.1159747E+00
         21   -1    0    0  501  502  0.00000000000E+00  0.00000000000E+00  0.79386032028E+03  0.79386032028E+03  0.00000000000E+00 0. -1.
         21   -1    0    0  502  503 -0.00000000000E+00 -0.00000000000E+00 -0.10270909039E+03  0.10270909039E+03  0.00000000000E+00 0. -1.
          6    1    1    2  501    0 -0.76905864439E+02 -0.80299599612E+01  0.68218952844E+03  0.70777506664E+03  0.17200000000E+03 0. -1.
         -6    1    1    2    0  503  0.76905864439E+02  0.80299599612E+01  0.89617014475E+01  0.18879434402E+03  0.17200000000E+03 0. -1.
</event>
<event>
 4    1  0.1222208E+000  0.2331949E+03  0.7818608E-02  0.1124411E+00
         21   -1    0    0  503  502  0.00000000000E+00  0.00000000000E+00  0.13467628269E+03  0.13467628269E+03  0.00000000000E+00 0.  1.
         21   -1    0    0  501  503 -0.00000000000E+00 -0.00000000000E+00 -0.10054906559E+04  0.10054906559E+04  0.00000000000E+00 0.  1.
          6    1    1    2  501    0  0.15590077723E+03  0.22153940163E+02 -0.87641124194E+03  0.90690490924E+03  0.17200000000E+03 0.  1.
         -6    1    1    2    0  502 -0.15590077723E+03 -0.22153940163E+02  0.55968687020E+01  0.23326202937E+03  0.17200000000E+03 0.  1.
</event>
<event>
 4    1  0.1222208E+000  0.1780393E+03  0.7818608E-02  0.1169714E+00
         21   -1    0    0  501  502  0.00000000000E+00  0.00000000000E+00  0.24659184073E+03  0.24659184073E+03  0.00000000000E+00 0. -1.
         21   -1    0    0  502  503 -0.00000000000E+00 -0.00000000000E+00 -0.17801955178E+03  0.17801955178E+03  0.00000000000E+00 0. -1.
          6    1    1    2  501    0 -0.41807590185E+02  0.19133828974E+02  0.14620976693E+03  0.23038071524E+03  0.17200000000E+03 0. -1.
         -6    1    1    2    0  503  0.41807590185E+02 -0.19133828974E+02 -0.77637477976E+02  0.19423067728E+03  0.17200000000E+03 0. -1.
</event>
