<event>
 4    1  0.5718861E+000  0.2044397E+03  0.7818608E-02  0.1146046E+00
         21   -1    0    0  503  502  0.00000000000E+00  0.00000000000E+00  0.76717739702E+02  0.76717739702E+02  0.00000000000E+00 0. -1.
         21   -1    0    0  501  503 -0.00000000000E+00 -0.00000000000E+00 -0.73805188774E+03  0.73805188774E+03  0.00000000000E+00 0. -1.
          6    1    1    2  501    0  0.21284533716E+01  0.11048559748E+03 -0.53912892298E+03  0.57658962283E+03  0.17200000000E+03 0.  1.
         -6    1    1    2    0  502 -0.21284533716E+01 -0.11048559748E+03 -0.12220522505E+03  0.23818000461E+03  0.17200000000E+03 0.  1.
</event>
<event>
 4    1  0.5718861E+000  0.2193163E+03  0.7818608E-02  0.1134394E+00
         21   -1    0    0  503  502  0.00000000000E+00  0.00000000000E+00  0.13893121318E+03  0.13893121318E+03  0.00000000000E+00 0.  1.
         21   -1    0    0  501  503 -0.00000000000E+00 -0.00000000000E+00 -0.34653021222E+03  0.34653021222E+03  0.00000000000E+00 0. -1.
          6    1    1    2  501    0 -0.61389072931E+02 -0.12143727672E+03 -0.96442102367E+02  0.23958445184E+03  0.17200000000E+03 0.  1.
         -6    1    1    2    0  502  0.61389072931E+02  0.12143727672E+03 -0.11115689667E+03  0.24587697357E+03  0.17200000000E+03 0. -1.
</event>
<event>
 4    1  0.5718861E+000  0.1958232E+03  0.7818608E-02  0.1153312E+00
         21   -1    0    0  503  502  0.00000000000E+00  0.00000000000E+00  0.10659053277E+03  0.10659053277E+03  0.00000000000E+00 0.  1.
         21   -1    0    0  501  503 -0.00000000000E+00 -0.00000000000E+00 -0.42482362162E+03  0.42482362162E+03  0.00000000000E+00 0.  1.
          6    1    1    2  501    0  0.67295445628E+02 -0.65069695546E+02 -0.26310288500E+03  0.32797846023E+03  0.17200000000E+03 0.  1.
         -6    1    1    2    0  502 -0.67295445628E+02  0.65069695546E+02 -0.55130203862E+02  0.20343569416E+03  0.17200000000E+03 0.  1.
</event>
<event>
 4    1  0.5718861E+000  0.2220186E+03  0.7818608E-02  0.1132387E+00
         21   -1    0    0  503  502  0.00000000000E+00  0.00000000000E+00  0.42590052238E+02  0.42590052238E+02  0.00000000000E+00 0. -1.
         21   -1    0    0  501  503 -0.00000000000E+00 -0.00000000000E+00 -0.11825885359E+04  0.11825885359E+04  0.00000000000E+00 0.  1.
          6    1    1    2  501    0 -0.13300411127E+03 -0.44924166283E+02 -0.65946312956E+03  0.69583323691E+03  0.17200000000E+03 0. -1.
         -6    1    1    2    0  502  0.13300411127E+03  0.44924166283E+02 -0.48053535413E+03  0.52934535126E+03  0.17200000000E+03 0.  1.
</event>
<event>
 4    1  0.5718861E+000  0.2484451E+03  0.7818608E-02  0.1114291E+00
         21   -1    0    0  501  502  0.00000000000E+00  0.00000000000E+00  0.26303178066E+03  0.26303178066E+03  0.00000000000E+00 0.  1.
         21   -1    0    0  502  503 -0.00000000000E+00 -0.00000000000E+00 -0.13462870707E+04  0.13462870707E+04  0.00000000000E+00 0.  1.
          6    1    1    2  501    0  0.14726948108E+03  0.10223832263E+03  0.18954743959E+03  0.31249513041E+03  0.17200000000E+03 0.  1.
         -6    1    1    2    0  503 -0.14726948108E+03 -0.10223832263E+03 -0.12728027296E+04  0.12968237209E+04  0.17200000000E+03 0.  1.
</event>
<event>
 4    1  0.5718861E+000  0.1901962E+03  0.7818608E-02  0.1158284E+00
         21   -1    0    0  503  502  0.00000000000E+00  0.00000000000E+00  0.14628544719E+03  0.14628544719E+03  0.00000000000E+00 0.  1.
         21   -1    0    0  501  503 -0.00000000000E+00 -0.00000000000E+00 -0.25749148573E+03  0.25749148573E+03  0.00000000000E+00 0.  1.
          6    1    1    2  501    0  0.33161924720E+02 -0.74100540406E+02 -0.95792191029E+02  0.21295714875E+03  0.17200000000E+03 0.  1.
         -6    1    1    2    0  502 -0.33161924720E+02  0.74100540406E+02 -0.15413847510E+02  0.19081978418E+03  0.17200000000E+03 0.  1.
</event>
<event>
 4    1  0.5718861E+000  0.1972784E+03  0.7818608E-02  0.1152056E+00
         21   -1    0    0  503  502  0.00000000000E+00  0.00000000000E+00  0.10497415690E+04  0.10497415690E+04  0.00000000000E+00 0. -1.
         21   -1    0    0  501  503 -0.00000000000E+00 -0.00000000000E+00 -0.37904787850E+02  0.37904787850E+02  0.00000000000E+00 0.  1.
          6    1    1    2  501    0 -0.83953307625E+02 -0.47818340709E+02  0.58640028103E+03  0.61869543490E+03  0.17200000000E+03 0.  1.
         -6    1    1    2    0  502  0.83953307625E+02  0.47818340709E+02  0.42543650014E+03  0.46895092198E+03  0.17200000000E+03 0. -1.
</event>
<event>
 4    1  0.5718861E+000  0.1952175E+03  0.7818608E-02  0.1153838E+00
         21   -1    0    0  501  502  0.00000000000E+00  0.00000000000E+00  0.64587641348E+03  0.64587641348E+03  0.00000000000E+00 0. -1.
         21   -1    0    0  502  503 -0.00000000000E+00 -0.00000000000E+00 -0.64363824704E+02  0.64363824704E+02  0.00000000000E+00 0. -1.
          6    1    1    2  501    0  0.42021251404E+02  0.82219628582E+02  0.39322575658E+03  0.43901748089E+03  0.17200000000E+03 0. -1.
         -6    1    1    2    0  503 -0.42021251404E+02 -0.82219628582E+02  0.18828683220E+03  0.27122275729E+03  0.17200000000E+03 0. -1.
</event>
<event>
 4    1  0.5718861E+000  0.1841078E+03  0.7818608E-02  0.1163886E+00
         21   -1    0    0  503  502  0.00000000000E+00  0.00000000000E+00  0.92560766600E+02  0.92560766600E+02  0.00000000000E+00 0. -1.
         21   -1    0    0  501  503 -0.00000000000E+00 -0.00000000000E+00 -0.37662945210E+03  0.37662945210E+03  0.00000000000E+00 0. -1.
          6    1    1    2  501    0  0.53270719252E+02 -0.38391469048E+02 -0.10299430989E+03  0.21095853217E+03  0.17200000000E+03 0.  1.
         -6    1    1    2    0  502 -0.53270719252E+02  0.38391469048E+02 -0.18107437561E+03  0.25823168653E+03  0.17200000000E+03 0.  1.
</event>
<event>
 4    1  0.5718861E+000  0.2014103E+03  0.7818608E-02  0.1148555E+00
         21   -1    0    0  501  502  0.00000000000E+00  0.00000000000E+00  0.33769411921E+03  0.33769411921E+03  0.00000000000E+00 0.  1.
         21   -1    0    0  502  503 -0.00000000000E+00 -0.00000000000E+00 -0.43085074582E+03  0.43085074582E+03  0.00000000000E+00 0.  1.
          6    1    1    2  501    0 -0.99448227086E+02  0.33047967863E+02  0.27975631323E+03  0.34471685894E+03  0.17200000000E+03 0.  1.
         -6    1    1    2    0  503  0.99448227086E+02 -0.33047967863E+02 -0.37291293984E+03  0.42382800609E+03  0.17200000000E+03 0.  1.
</event>
<event>
 4    1  0.5718861E+000  0.1921670E+03  0.7818608E-02  0.1156521E+00
         21   -1    0    0  501  502  0.00000000000E+00  0.00000000000E+00  0.68300771110E+02  0.68300771110E+02  0.00000000000E+00 0.  1.
         21   -1    0    0  502  503 -0.00000000000E+00 -0.00000000000E+00 -0.82548994634E+03  0.82548994634E+03  0.00000000000E+00 0.  1.
          6    1    1    2  501    0  0.84653229598E+02  0.13341144996E+02 -0.11609090451E+03  0.22451114347E+03  0.17200000000E+03 0.  1.
         -6    1    1    2    0  503 -0.84653229598E+02 -0.13341144996E+02 -0.64109827072E+03  0.66927957399E+03  0.17200000000E+03 0.  1.
</event>
<event>
 4    1  0.5718861E+000  0.1815378E+03  0.7818608E-02  0.1166323E+00
         21   -1    0    0  501  502  0.00000000000E+00  0.00000000000E+00  0.92149077194E+02  0.92149077194E+02  0.00000000000E+00 0.  1.
         21   -1    0    0  502  503 -0.00000000000E+00 -0.00000000000E+00 -0.36275675499E+03  0.36275675499E+03  0.00000000000E+00 0.  1.
          6    1    1    2  501    0 -0.56904315254E+02  0.11569791097E+02 -0.10828360044E+03  0.21137951482E+03  0.17200000000E+03 0.  1.
         -6    1    1    2    0  503  0.56904315254E+02 -0.11569791097E+02 -0.16232407736E+03  0.24352631737E+03  0.17200000000E+03 0.  1.
</event>
<event>
 4    1  0.5718861E+000  0.1850609E+03  0.7818608E-02  0.1162993E+00
         21   -1    0    0  501  502  0.00000000000E+00  0.00000000000E+00  0.67444963337E+03  0.67444963337E+03  0.00000000000E+00 0. -1.
         21   -1    0    0  502  503 -0.00000000000E+00 -0.00000000000E+00 -0.60315851444E+02  0.60315851444E+02  0.00000000000E+00 0. -1.
          6    1    1    2  501    0 -0.43649626527E+02 -0.52519118239E+02  0.45315560905E+03  0.48948703118E+03  0.17200000000E+03 0. -1.
         -6    1    1    2    0  503  0.43649626527E+02  0.52519118239E+02  0.16097817288E+03  0.24527845364E+03  0.17200000000E+03 0. -1.
</event>
<event>
 4    1  0.5718861E+000  0.1950725E+03  0.7818608E-02  0.1153964E+00
         21   -1    0    0  503  502  0.00000000000E+00  0.00000000000E+00  0.42042593151E+03  0.42042593151E+03  0.00000000000E+00 0.  1.
         21   -1    0    0  501  503 -0.00000000000E+00 -0.00000000000E+00 -0.51107920094E+03  0.51107920094E+03  0.00000000000E+00 0. -1.
          6    1    1    2  501    0 -0.49269016182E+02  0.77729184396E+02  0.37717584093E+03  0.42463499272E+03  0.17200000000E+03 0.  1.
         -6    1    1    2    0  502  0.49269016182E+02 -0.77729184396E+02 -0.46782911035E+03  0.50687013973E+03  0.17200000000E+03 0. -1.
</event>
<event>
 4    1  0.5718861E+000  0.2351841E+03  0.7818608E-02  0.1123043E+00
         21   -1    0    0  503  502  0.00000000000E+00  0.00000000000E+00  0.11793856445E+03  0.11793856445E+03  0.00000000000E+00 0.  1.
         21   -1    0    0  501  503 -0.00000000000E+00 -0.00000000000E+00 -0.49508213268E+03  0.49508213268E+03  0.00000000000E+00 0.  1.
          6    1    1    2  501    0  0.16036591530E+03 -0.32159452545E+01 -0.25894254185E+03  0.34980395806E+03  0.17200000000E+03 0.  1.
         -6    1    1    2    0  502 -0.16036591530E+03  0.32159452545E+01 -0.11820102638E+03  0.26321673908E+03  0.17200000000E+03 0.  1.
</event>
<event>
 4    1  0.5718861E+000  0.2153741E+03  0.7818608E-02  0.1137380E+00
         21   -1    0    0  501  502  0.00000000000E+00  0.00000000000E+00  0.10681299908E+03  0.10681299908E+03  0.00000000000E+00 0. -1.
         21   -1    0    0  502  503 -0.00000000000E+00 -0.00000000000E+00 -0.90489279302E+03  0.90489279302E+03  0.00000000000E+00 0. -1.
          6    1    1    2  501    0  0.12952911122E+03  0.49224436639E+01 -0.34234977846E+02  0.21807809338E+03  0.17200000000E+03 0. -1.
         -6    1    1    2    0  503 -0.12952911122E+03 -0.49224436639E+01 -0.76384481609E+03  0.79362769872E+03  0.17200000000E+03 0. -1.
</event>
<event>
 4    1  0.5718861E+000  0.2000663E+03  0.7818608E-02  0.1149683E+00
         21   -1    0    0  503  502  0.00000000000E+00  0.00000000000E+00  0.92806269402E+03  0.92806269402E+03  0.00000000000E+00 0.  1.
         21   -1    0    0  501  503 -0.00000000000E+00 -0.00000000000E+00 -0.43919777293E+02  0.43919777293E+02  0.00000000000E+00 0. -1.
          6    1    1    2  501    0 -0.98211934540E+02 -0.28229999893E+02  0.37686425619E+03  0.42667690888E+03  0.17200000000E+03 0. -1.
         -6    1    1    2    0  502  0.98211934540E+02  0.28229999893E+02  0.50727866054E+03  0.54530556243E+03  0.17200000000E+03 0.  1.
</event>
<event>
 4    1  0.5718861E+000  0.1821786E+03  0.7818608E-02  0.1165711E+00
         21   -1    0    0  501  502  0.00000000000E+00  0.00000000000E+00  0.14205981630E+03  0.14205981630E+03  0.00000000000E+00 0. -1.
         21   -1    0    0  502  503 -0.00000000000E+00 -0.00000000000E+00 -0.24006439478E+03  0.24006439478E+03  0.00000000000E+00 0. -1.
          6    1    1    2  501    0  0.42927137007E+02  0.41979838848E+02 -0.17715794587E+02  0.18303796147E+03  0.17200000000E+03 0. -1.
         -6    1    1    2    0  503 -0.42927137007E+02 -0.41979838848E+02 -0.80288783892E+02  0.19908624960E+03  0.17200000000E+03 0. -1.
</event>
<event>
 4    1  0.5718861E+000  0.1877232E+03  0.7818608E-02  0.1160531E+00
         21   -1    0    0  503  502  0.00000000000E+00  0.00000000000E+00  0.10698287487E+03  0.10698287487E+03  0.00000000000E+00 0. -1.
         21   -1    0    0  501  503 -0.00000000000E+00 -0.00000000000E+00 -0.39510185875E+03  0.39510185875E+03  0.00000000000E+00 0. -1.
          6    1    1    2  501    0 -0.18240869942E+02  0.72960843765E+02 -0.24643257662E+03  0.30978868424E+03  0.17200000000E+03 0. -1.
         -6    1    1    2    0  502  0.18240869942E+02 -0.72960843765E+02 -0.41686407252E+02  0.19229604938E+03  0.17200000000E+03 0. -1.
</event>
<event>
 4    1  0.5718861E+000  0.1896768E+03  0.7818608E-02  0.1158753E+00
         21   -1    0    0  503  502  0.00000000000E+00  0.00000000000E+00  0.33646257585E+03  0.33646257585E+03  0.00000000000E+00 0.  1.
         21   -1    0    0  501  503 -0.00000000000E+00 -0.00000000000E+00 -0.11649020622E+03  0.11649020622E+03  0.00000000000E+00 0.  1.
          6    1    1    2  501    0  0.38394770040E+02  0.70136402039E+02  0.45099276345E+02  0.19496465830E+03  0.17200000000E+03 0.  1.
         -6    1    1    2    0  502 -0.38394770040E+02 -0.70136402039E+02  0.17487309328E+03  0.25798812378E+03  0.17200000000E+03 0.  1.
</event>
<event>
 4    1  0.5718861E+000  0.3155256E+03  0.7818608E-02  0.1077727E+00
         21   -1    0    0  501  502  0.00000000000E+00  0.00000000000E+00  0.12525749577E+03  0.12525749577E+03  0.00000000000E+00 0. -1.
         21   -1    0    0  502  503 -0.00000000000E+00 -0.00000000000E+00 -0.87427654474E+03  0.87427654474E+03  0.00000000000E+00 0. -1.
          6    1    1    2  501    0  0.17892006132E+03 -0.19483327973E+03 -0.22384022685E+03  0.38686023624E+03  0.17200000000E+03 0. -1.
         -6    1    1    2    0  503 -0.17892006132E+03  0.19483327973E+03 -0.52517882212E+03  0.61267380426E+03  0.17200000000E+03 0. -1.
</event>
<event>
 4    1  0.5718861E+000  0.2337787E+03  0.7818608E-02  0.1124008E+00
         21   -1    0    0  501  502  0.00000000000E+00  0.00000000000E+00  0.40534002408E+03  0.40534002408E+03  0.00000000000E+00 0.  1.
         21   -1    0    0  502  503 -0.00000000000E+00 -0.00000000000E+00 -0.14226051812E+03  0.14226051812E+03  0.00000000000E+00 0. -1.
          6    1    1    2  501    0 -0.59775096327E+02 -0.14661316293E+03  0.19410975520E+03  0.30386029479E+03  0.17200000000E+03 0.  1.
         -6    1    1    2    0  503  0.59775096327E+02  0.14661316293E+03  0.68969750762E+02  0.24374024741E+03  0.17200000000E+03 0. -1.
</event>
<event>
 4    1  0.5718861E+000  0.2022015E+03  0.7818608E-02  0.1147895E+00
         21   -1    0    0  501  502  0.00000000000E+00  0.00000000000E+00  0.77114310158E+02  0.77114310158E+02  0.00000000000E+00 0.  1.
         21   -1    0    0  502  503 -0.00000000000E+00 -0.00000000000E+00 -0.62539332074E+03  0.62539332074E+03  0.00000000000E+00 0.  1.
          6    1    1    2  501    0  0.80038609564E+02 -0.69966218171E+02 -0.13709420968E+03  0.24429546257E+03  0.17200000000E+03 0.  1.
         -6    1    1    2    0  503 -0.80038609564E+02  0.69966218171E+02 -0.41118480091E+03  0.45821216833E+03  0.17200000000E+03 0.  1.
</event>
<event>
 4    1  0.5718861E+000  0.2064053E+03  0.7818608E-02  0.1144445E+00
         21   -1    0    0  503  502  0.00000000000E+00  0.00000000000E+00  0.30948238551E+02  0.30948238551E+02  0.00000000000E+00 0.  1.
         21   -1    0    0  501  503 -0.00000000000E+00 -0.00000000000E+00 -0.21613616088E+04  0.21613616088E+04  0.00000000000E+00 0.  1.
          6    1    1    2  501    0  0.15815450038E+02  0.11300014376E+03 -0.40469767831E+03  0.45429436688E+03  0.17200000000E+03 0. -1.
         -6    1    1    2    0  502 -0.15815450038E+02 -0.11300014376E+03 -0.17257156919E+04  0.17380154804E+04  0.17200000000E+03 0. -1.
</event>
<event>
 4    1  0.5718861E+000  0.1805238E+03  0.7818608E-02  0.1167297E+00
         21   -1    0    0  503  502  0.00000000000E+00  0.00000000000E+00  0.91662296477E+02  0.91662296477E+02  0.00000000000E+00 0.  1.
         21   -1    0    0  501  503 -0.00000000000E+00 -0.00000000000E+00 -0.11927872295E+04  0.11927872295E+04  0.00000000000E+00 0.  1.
          6    1    1    2  501    0  0.17567129799E+01  0.54788223962E+02 -0.10886273089E+04  0.11034936580E+04  0.17200000000E+03 0.  1.
         -6    1    1    2    0  502 -0.17567129799E+01 -0.54788223962E+02 -0.12497624040E+02  0.18095586791E+03  0.17200000000E+03 0.  1.
</event>
<event>
 4    1  0.5718861E+000  0.1794589E+03  0.7818608E-02  0.1168328E+00
         21   -1    0    0  503  502  0.00000000000E+00  0.00000000000E+00  0.45292939293E+02  0.45292939293E+02  0.00000000000E+00 0. -1.
         21   -1    0    0  501  503 -0.00000000000E+00 -0.00000000000E+00 -0.73645637074E+03  0.73645637074E+03  0.00000000000E+00 0. -1.
          6    1    1    2  501    0  0.44994398594E+02  0.24433543323E+02 -0.41818309171E+03  0.45506328366E+03  0.17200000000E+03 0. -1.
         -6    1    1    2    0  502 -0.44994398594E+02 -0.24433543323E+02 -0.27298033974E+03  0.32668602637E+03  0.17200000000E+03 0. -1.
</event>
<event>
 4    1  0.5718861E+000  0.1933055E+03  0.7818608E-02  0.1155513E+00
         21   -1    0    0  503  502  0.00000000000E+00  0.00000000000E+00  0.13913150221E+03  0.13913150221E+03  0.00000000000E+00 0. -1.
         21   -1    0    0  501  503 -0.00000000000E+00 -0.00000000000E+00 -0.39528688469E+03  0.39528688469E+03  0.00000000000E+00 0.  1.
          6    1    1    2  501    0  0.74473757808E+02 -0.47293626502E+02 -0.27936640243E+03  0.33972432135E+03  0.17200000000E+03 0.  1.
         -6    1    1    2    0  502 -0.74473757808E+02  0.47293626502E+02  0.23211019953E+02  0.19469406554E+03  0.17200000000E+03 0. -1.
</event>
<event>
 4    1  0.5718861E+000  0.2192074E+03  0.7818608E-02  0.1134475E+00
         21   -1    0    0  501  502  0.00000000000E+00  0.00000000000E+00  0.31509930019E+03  0.31509930019E+03  0.00000000000E+00 0.  1.
         21   -1    0    0  502  503 -0.00000000000E+00 -0.00000000000E+00 -0.16445546850E+03  0.16445546850E+03  0.00000000000E+00 0.  1.
          6    1    1    2  501    0 -0.11281258193E+03 -0.75770736607E+02  0.13997826353E+03  0.26008805707E+03  0.17200000000E+03 0.  1.
         -6    1    1    2    0  503  0.11281258193E+03  0.75770736607E+02  0.10665568163E+02  0.21946671162E+03  0.17200000000E+03 0.  1.
</event>
<event>
 4    1  0.5718861E+000  0.2082837E+03  0.7818608E-02  0.1142932E+00
         21   -1    0    0  503  502  0.00000000000E+00  0.00000000000E+00  0.93011559953E+02  0.93011559953E+02  0.00000000000E+00 0. -1.
         21   -1    0    0  501  503 -0.00000000000E+00 -0.00000000000E+00 -0.46875505207E+03  0.46875505207E+03  0.00000000000E+00 0. -1.
          6    1    1    2  501    0  0.11287236547E+03 -0.32525963060E+02 -0.16803166081E+03  0.26761305684E+03  0.17200000000E+03 0. -1.
         -6    1    1    2    0  502 -0.11287236547E+03  0.32525963060E+02 -0.20771183131E+03  0.29415355518E+03  0.17200000000E+03 0. -1.
</event>
<event>
 4    1  0.5718861E+000  0.1919118E+03  0.7818608E-02  0.1156748E+00
         21   -1    0    0  501  502  0.00000000000E+00  0.00000000000E+00  0.44367218205E+03  0.44367218205E+03  0.00000000000E+00 0. -1.
         21   -1    0    0  502  503 -0.00000000000E+00 -0.00000000000E+00 -0.25046708407E+03  0.25046708407E+03  0.00000000000E+00 0. -1.
          6    1    1    2  501    0  0.53182019052E+00 -0.85122604397E+02  0.38038816646E+03  0.42605785734E+03  0.17200000000E+03 0. -1.
         -6    1    1    2    0  503 -0.53182019052E+00  0.85122604397E+02 -0.18718306848E+03  0.26808140879E+03  0.17200000000E+03 0. -1.
</event>
<event>
 4    1  0.5718861E+000  0.2090665E+03  0.7818608E-02  0.1142307E+00
         21   -1    0    0  503  502  0.00000000000E+00  0.00000000000E+00  0.20693759664E+02  0.20693759664E+02  0.00000000000E+00 0. -1.
         21   -1    0    0  501  503 -0.00000000000E+00 -0.00000000000E+00 -0.28895793200E+04  0.28895793200E+04  0.00000000000E+00 0.  1.
          6    1    1    2  501    0 -0.91856956683E+01  0.11849223430E+03 -0.21892058746E+04  0.21991660120E+04  0.17200000000E+03 0.  1.
         -6    1    1    2    0  502  0.91856956683E+01 -0.11849223430E+03 -0.67967968572E+03  0.71110706773E+03  0.17200000000E+03 0. -1.
</event>
<event>
 4    1  0.5718861E+000  0.2012851E+03  0.7818608E-02  0.1148659E+00
         21   -1    0    0  501  502  0.00000000000E+00  0.00000000000E+00  0.14019918815E+03  0.14019918815E+03  0.00000000000E+00 0.  1.
         21   -1    0    0  502  503 -0.00000000000E+00 -0.00000000000E+00 -0.43057416220E+03  0.43057416220E+03  0.00000000000E+00 0.  1.
          6    1    1    2  501    0 -0.10396851937E+02  0.10403653117E+03  0.18464837274E+02  0.20213026632E+03  0.17200000000E+03 0.  1.
         -6    1    1    2    0  503  0.10396851937E+02 -0.10403653117E+03 -0.30883981132E+03  0.36864308403E+03  0.17200000000E+03 0.  1.
</event>
<event>
 4    1  0.5718861E+000  0.2100614E+03  0.7818608E-02  0.1141517E+00
         21   -1    0    0  503  502  0.00000000000E+00  0.00000000000E+00  0.38898349709E+03  0.38898349709E+03  0.00000000000E+00 0.  1.
         21   -1    0    0  501  503 -0.00000000000E+00 -0.00000000000E+00 -0.12213422024E+03  0.12213422024E+03  0.00000000000E+00 0.  1.
          6    1    1    2  501    0  0.83370048694E+02  0.87127681273E+02  0.65234897660E+02  0.21995769988E+03  0.17200000000E+03 0.  1.
         -6    1    1    2    0  502 -0.83370048694E+02 -0.87127681273E+02  0.20161437920E+03  0.29116001745E+03  0.17200000000E+03 0.  1.
</event>
<event>
 4    1  0.5718861E+000  0.3692701E+03  0.7818608E-02  0.1054972E+00
         21   -1    0    0  503  502  0.00000000000E+00  0.00000000000E+00  0.39166453746E+03  0.39166453746E+03  0.00000000000E+00 0. -1.
         21   -1    0    0  501  503 -0.00000000000E+00 -0.00000000000E+00 -0.66554870864E+03  0.66554870864E+03  0.00000000000E+00 0.  1.
          6    1    1    2  501    0 -0.22963058334E+03 -0.23247844908E+03 -0.50198255884E+03  0.62317487391E+03  0.17200000000E+03 0.  1.
         -6    1    1    2    0  502  0.22963058334E+03  0.23247844908E+03  0.22809838765E+03  0.43403837220E+03  0.17200000000E+03 0. -1.
</event>
<event>
 4    1  0.5718861E+000  0.2377601E+03  0.7818608E-02  0.1121294E+00
         21   -1    0    0  503  502  0.00000000000E+00  0.00000000000E+00  0.52067073993E+03  0.52067073993E+03  0.00000000000E+00 0.  1.
         21   -1    0    0  501  503 -0.00000000000E+00 -0.00000000000E+00 -0.11768653729E+03  0.11768653729E+03  0.00000000000E+00 0. -1.
          6    1    1    2  501    0 -0.15998261920E+03 -0.36761758211E+02  0.11266285829E+03  0.26310223289E+03  0.17200000000E+03 0. -1.
         -6    1    1    2    0  502  0.15998261920E+03  0.36761758211E+02  0.29032134435E+03  0.37525504434E+03  0.17200000000E+03 0. -1.
</event>
<event>
 4    1  0.5718861E+000  0.1841612E+03  0.7818608E-02  0.1163836E+00
         21   -1    0    0  501  502  0.00000000000E+00  0.00000000000E+00  0.61882255004E+03  0.61882255004E+03  0.00000000000E+00 0. -1.
         21   -1    0    0  502  503 -0.00000000000E+00 -0.00000000000E+00 -0.57812440639E+02  0.57812440639E+02  0.00000000000E+00 0. -1.
          6    1    1    2  501    0 -0.64277250069E+02 -0.14134051626E+02  0.20335737093E+03  0.27435297812E+03  0.17200000000E+03 0. -1.
         -6    1    1    2    0  503  0.64277250069E+02  0.14134051626E+02  0.35765273847E+03  0.40228201256E+03  0.17200000000E+03 0. -1.
</event>
<event>
 4    1  0.5718861E+000  0.3759588E+03  0.7818608E-02  0.1052438E+00
         21   -1    0    0  503  502  0.00000000000E+00  0.00000000000E+00  0.57905303131E+03  0.57905303131E+03  0.00000000000E+00 0.  1.
         21   -1    0    0  501  503 -0.00000000000E+00 -0.00000000000E+00 -0.38029273998E+03  0.38029273998E+03  0.00000000000E+00 0. -1.
          6    1    1    2  501    0 -0.11918914089E+03  0.31233789818E+03 -0.18767687486E+03  0.42019950417E+03  0.17200000000E+03 0. -1.
         -6    1    1    2    0  502  0.11918914089E+03 -0.31233789818E+03  0.38643716619E+03  0.53914626713E+03  0.17200000000E+03 0.  1.
</event>
<event>
 4    1  0.5718861E+000  0.2118338E+03  0.7818608E-02  0.1140122E+00
         21   -1    0    0  501  502  0.00000000000E+00  0.00000000000E+00  0.43729832102E+03  0.43729832102E+03  0.00000000000E+00 0. -1.
         21   -1    0    0  502  503 -0.00000000000E+00 -0.00000000000E+00 -0.10344215822E+03  0.10344215822E+03  0.00000000000E+00 0. -1.
          6    1    1    2  501    0 -0.47914275687E+02 -0.11399025330E+03  0.19109889302E+03  0.28529343241E+03  0.17200000000E+03 0. -1.
         -6    1    1    2    0  503  0.47914275687E+02  0.11399025330E+03  0.14275726978E+03  0.25544704683E+03  0.17200000000E+03 0. -1.
</event>
<event>
 4    1  0.5718861E+000  0.1807404E+03  0.7818608E-02  0.1167088E+00
         21   -1    0    0  501  502  0.00000000000E+00  0.00000000000E+00  0.96821331829E+03  0.96821331829E+03  0.00000000000E+00 0.  1.
         21   -1    0    0  502  503 -0.00000000000E+00 -0.00000000000E+00 -0.60310402904E+02  0.60310402904E+02  0.00000000000E+00 0. -1.
          6    1    1    2  501    0 -0.30917176781E+02 -0.46121820559E+02  0.79529433424E+03  0.81557352350E+03  0.17200000000E+03 0.  1.
         -6    1    1    2    0  503  0.30917176781E+02  0.46121820559E+02  0.11260858114E+03  0.21295019770E+03  0.17200000000E+03 0. -1.
</event>
<event>
 4    1  0.5718861E+000  0.1720027E+03  0.7818608E-02  0.1175775E+00
         21   -1    0    0  503  502  0.00000000000E+00  0.00000000000E+00  0.63621468478E+03  0.63621468478E+03  0.00000000000E+00 0.  1.
         21   -1    0    0  501  503 -0.00000000000E+00 -0.00000000000E+00 -0.75962252346E+02  0.75962252346E+02  0.00000000000E+00 0.  1.
          6    1    1    2  501    0  0.41699735992E+00 -0.87237400865E+00  0.58367378982E+02  0.18163613587E+03  0.17200000000E+03 0.  1.
         -6    1    1    2    0  502 -0.41699735992E+00  0.87237400865E+00  0.50188505345E+03  0.53054080126E+03  0.17200000000E+03 0.  1.
</event>
<event>
 4    1  0.5718861E+000  0.2228921E+03  0.7818608E-02  0.1131745E+00
         21   -1    0    0  501  502  0.00000000000E+00  0.00000000000E+00  0.17618916097E+03  0.17618916097E+03  0.00000000000E+00 0. -1.
         21   -1    0    0  502  503 -0.00000000000E+00 -0.00000000000E+00 -0.28843102461E+03  0.28843102461E+03  0.00000000000E+00 0.  1.
          6    1    1    2  501    0  0.61659978823E+02  0.12765164032E+03 -0.21364262171E+02  0.22391365738E+03  0.17200000000E+03 0.  1.
         -6    1    1    2    0  503 -0.61659978823E+02 -0.12765164032E+03 -0.90877601474E+02  0.24070652819E+03  0.17200000000E+03 0.  1.
</event>
<event>
 4    1  0.5718861E+000  0.4155741E+03  0.7818608E-02  0.1038516E+00
         21   -1    0    0  501  502  0.00000000000E+00  0.00000000000E+00  0.70870524604E+03  0.70870524604E+03  0.00000000000E+00 0. -1.
         21   -1    0    0  502  503 -0.00000000000E+00 -0.00000000000E+00 -0.27641355673E+03  0.27641355673E+03  0.00000000000E+00 0.  1.
          6    1    1    2  501    0  0.17535954444E+03  0.33521162788E+03  0.38563164295E+03  0.56693347876E+03  0.17200000000E+03 0. -1.
         -6    1    1    2    0  503 -0.17535954444E+03 -0.33521162788E+03  0.46660046358E+02  0.41818532401E+03  0.17200000000E+03 0.  1.
</event>
<event>
 4    1  0.5718861E+000  0.1791725E+03  0.7818608E-02  0.1168606E+00
         21   -1    0    0  503  502  0.00000000000E+00  0.00000000000E+00  0.26423864762E+03  0.26423864762E+03  0.00000000000E+00 0. -1.
         21   -1    0    0  501  503 -0.00000000000E+00 -0.00000000000E+00 -0.47273036131E+03  0.47273036131E+03  0.00000000000E+00 0.  1.
          6    1    1    2  501    0  0.45343569203E+02 -0.21511686562E+02 -0.42187011447E+03  0.45834177795E+03  0.17200000000E+03 0.  1.
         -6    1    1    2    0  502 -0.45343569203E+02  0.21511686562E+02  0.21337840078E+03  0.27862723099E+03  0.17200000000E+03 0. -1.
</event>
<event>
 4    1  0.5718861E+000  0.2047821E+03  0.7818608E-02  0.1145766E+00
         21   -1    0    0  501  502  0.00000000000E+00  0.00000000000E+00  0.13593296146E+03  0.13593296146E+03  0.00000000000E+00 0.  1.
         21   -1    0    0  502  503 -0.00000000000E+00 -0.00000000000E+00 -0.31319288872E+03  0.31319288872E+03  0.00000000000E+00 0.  1.
          6    1    1    2  501    0 -0.11060998762E+03  0.10822775184E+02 -0.61149645681E+02  0.21371705826E+03  0.17200000000E+03 0.  1.
         -6    1    1    2    0  503  0.11060998762E+03 -0.10822775184E+02 -0.11611028158E+03  0.23540879192E+03  0.17200000000E+03 0.  1.
</event>
<event>
 4    1  0.5718861E+000  0.2205468E+03  0.7818608E-02  0.1133476E+00
         21   -1    0    0  501  502  0.00000000000E+00  0.00000000000E+00  0.39238483051E+03  0.39238483051E+03  0.00000000000E+00 0. -1.
         21   -1    0    0  502  503 -0.00000000000E+00 -0.00000000000E+00 -0.13544250823E+03  0.13544250823E+03  0.00000000000E+00 0. -1.
          6    1    1    2  501    0 -0.13019860030E+03  0.45882718143E+02  0.51635901649E+02  0.22651085114E+03  0.17200000000E+03 0. -1.
         -6    1    1    2    0  503  0.13019860030E+03 -0.45882718143E+02  0.20530642064E+03  0.30131648760E+03  0.17200000000E+03 0. -1.
</event>
<event>
 4    1  0.5718861E+000  0.1761942E+03  0.7818608E-02  0.1171538E+00
         21   -1    0    0  503  502  0.00000000000E+00  0.00000000000E+00  0.90939015407E+02  0.90939015407E+02  0.00000000000E+00 0. -1.
         21   -1    0    0  501  503 -0.00000000000E+00 -0.00000000000E+00 -0.54921389197E+03  0.54921389197E+03  0.00000000000E+00 0. -1.
          6    1    1    2  501    0 -0.22353888027E+02  0.30995228529E+02 -0.42603724852E+03  0.46103377059E+03  0.17200000000E+03 0. -1.
         -6    1    1    2    0  502  0.22353888027E+02 -0.30995228529E+02 -0.32237628048E+02  0.17911913679E+03  0.17200000000E+03 0. -1.
</event>
<event>
 4    1  0.5718861E+000  0.2110274E+03  0.7818608E-02  0.1140755E+00
         21   -1    0    0  503  502  0.00000000000E+00  0.00000000000E+00  0.54672031619E+02  0.54672031619E+02  0.00000000000E+00 0. -1.
         21   -1    0    0  501  503 -0.00000000000E+00 -0.00000000000E+00 -0.81463895966E+03  0.81463895966E+03  0.00000000000E+00 0.  1.
          6    1    1    2  501    0 -0.91853007657E+02  0.80694414642E+02 -0.38477101225E+03  0.43884085434E+03  0.17200000000E+03 0.  1.
         -6    1    1    2    0  502  0.91853007657E+02 -0.80694414642E+02 -0.37519591580E+03  0.43047013694E+03  0.17200000000E+03 0. -1.
</event>
<event>
 4    1  0.5718861E+000  0.1790727E+03  0.7818608E-02  0.1168704E+00
         21   -1    0    0  503  502  0.00000000000E+00  0.00000000000E+00  0.42090499932E+03  0.42090499932E+03  0.00000000000E+00 0.  1.
         21   -1    0    0  501  503 -0.00000000000E+00 -0.00000000000E+00 -0.12433609988E+03  0.12433609988E+03  0.00000000000E+00 0.  1.
          6    1    1    2  501    0  0.65038542644E+01 -0.49403741235E+02 -0.21367547824E+02  0.18034301170E+03  0.17200000000E+03 0.  1.
         -6    1    1    2    0  502 -0.65038542644E+01  0.49403741235E+02  0.31793644726E+03  0.36489808750E+03  0.17200000000E+03 0.  1.
</event>
<event>
 4    1  0.5718861E+000  0.1772732E+03  0.7818608E-02  0.1170468E+00
         21   -1    0    0  503  502  0.00000000000E+00  0.00000000000E+00  0.26753598594E+02  0.26753598594E+02  0.00000000000E+00 0.  1.
         21   -1    0    0  501  503 -0.00000000000E+00 -0.00000000000E+00 -0.11765571065E+04  0.11765571065E+04  0.00000000000E+00 0. -1.
          6    1    1    2  501    0 -0.15819577770E+02 -0.39894186457E+02 -0.59919814237E+03  0.62487136194E+03  0.17200000000E+03 0. -1.
         -6    1    1    2    0  502  0.15819577770E+02  0.39894186457E+02 -0.55060536558E+03  0.57843934320E+03  0.17200000000E+03 0. -1.
</event>
<event>
 4    1  0.5718861E+000  0.1759595E+03  0.7818608E-02  0.1171772E+00
         21   -1    0    0  503  502  0.00000000000E+00  0.00000000000E+00  0.70879715538E+02  0.70879715538E+02  0.00000000000E+00 0. -1.
         21   -1    0    0  501  503 -0.00000000000E+00 -0.00000000000E+00 -0.49266400125E+03  0.49266400125E+03  0.00000000000E+00 0. -1.
          6    1    1    2  501    0 -0.32977165241E+02  0.17037095890E+02 -0.30575717250E+03  0.35277358830E+03  0.17200000000E+03 0.  1.
         -6    1    1    2    0  502  0.32977165241E+02 -0.17037095890E+02 -0.11602711321E+03  0.21077012849E+03  0.17200000000E+03 0.  1.
</event>
<event>
 4    1  0.5718861E+000  0.2092175E+03  0.7818608E-02  0.1142187E+00
         21   -1    0    0  501  502  0.00000000000E+00  0.00000000000E+00  0.10467369101E+03  0.10467369101E+03  0.00000000000E+00 0. -1.
         21   -1    0    0  502  503 -0.00000000000E+00 -0.00000000000E+00 -0.76820511759E+03  0.76820511759E+03  0.00000000000E+00 0. -1.
          6    1    1    2  501    0  0.11579015906E+03 -0.27939513484E+02 -0.37162331574E+02  0.21249239101E+03  0.17200000000E+03 0. -1.
         -6    1    1    2    0  503 -0.11579015906E+03  0.27939513484E+02 -0.62636909501E+03  0.66038641758E+03  0.17200000000E+03 0. -1.
</event>
<event>
 4    1  0.5718861E+000  0.1724766E+03  0.7818608E-02  0.1175290E+00
         21   -1    0    0  501  502  0.00000000000E+00  0.00000000000E+00  0.12509007635E+03  0.12509007635E+03  0.00000000000E+00 0. -1.
         21   -1    0    0  502  503 -0.00000000000E+00 -0.00000000000E+00 -0.30845873381E+03  0.30845873381E+03  0.00000000000E+00 0. -1.
          6    1    1    2  501    0 -0.12668587802E+02 -0.19164438259E+01  0.12056449114E+02  0.17289743734E+03  0.17200000000E+03 0. -1.
         -6    1    1    2    0  503  0.12668587802E+02  0.19164438259E+01 -0.19542510657E+03  0.26065137282E+03  0.17200000000E+03 0. -1.
</event>
<event>
 4    1  0.5718861E+000  0.1787293E+03  0.7818608E-02  0.1169039E+00
         21   -1    0    0  501  502  0.00000000000E+00  0.00000000000E+00  0.36194996263E+03  0.36194996263E+03  0.00000000000E+00 0. -1.
         21   -1    0    0  502  503 -0.00000000000E+00 -0.00000000000E+00 -0.94684986616E+02  0.94684986616E+02  0.00000000000E+00 0. -1.
          6    1    1    2  501    0 -0.22142703062E+02  0.43241733635E+02  0.19312742793E+03  0.26313941219E+03  0.17200000000E+03 0. -1.
         -6    1    1    2    0  503  0.22142703062E+02 -0.43241733635E+02  0.74137548087E+02  0.19349553706E+03  0.17200000000E+03 0. -1.
</event>
<event>
 4    1  0.5718861E+000  0.1756839E+03  0.7818608E-02  0.1172047E+00
         21   -1    0    0  501  502  0.00000000000E+00  0.00000000000E+00  0.15260906222E+03  0.15260906222E+03  0.00000000000E+00 0.  1.
         21   -1    0    0  502  503 -0.00000000000E+00 -0.00000000000E+00 -0.48296270886E+03  0.48296270886E+03  0.00000000000E+00 0.  1.
          6    1    1    2  501    0  0.33601661933E+02 -0.12318873768E+02  0.77099318682E+02  0.19185705949E+03  0.17200000000E+03 0.  1.
         -6    1    1    2    0  503 -0.33601661933E+02  0.12318873768E+02 -0.40745296531E+03  0.44371471159E+03  0.17200000000E+03 0.  1.
</event>
<event>
 4    1  0.5718861E+000  0.1760690E+03  0.7818608E-02  0.1171663E+00
         21   -1    0    0  501  502  0.00000000000E+00  0.00000000000E+00  0.64529840475E+02  0.64529840475E+02  0.00000000000E+00 0. -1.
         21   -1    0    0  502  503 -0.00000000000E+00 -0.00000000000E+00 -0.90318559498E+03  0.90318559498E+03  0.00000000000E+00 0. -1.
          6    1    1    2  501    0  0.33059017545E+02 -0.17983155592E+02 -0.88282131312E+02  0.19696199439E+03  0.17200000000E+03 0. -1.
         -6    1    1    2    0  503 -0.33059017545E+02  0.17983155592E+02 -0.75037362319E+03  0.77075344106E+03  0.17200000000E+03 0. -1.
</event>
<event>
 4    1  0.5718861E+000  0.1801347E+03  0.7818608E-02  0.1167673E+00
         21   -1    0    0  501  502  0.00000000000E+00  0.00000000000E+00  0.73130996393E+02  0.73130996393E+02  0.00000000000E+00 0.  1.
         21   -1    0    0  502  503 -0.00000000000E+00 -0.00000000000E+00 -0.46762589132E+03  0.46762589132E+03  0.00000000000E+00 0.  1.
          6    1    1    2  501    0  0.38179429372E+02 -0.37508015942E+02 -0.13609413416E+03  0.22576566046E+03  0.17200000000E+03 0.  1.
         -6    1    1    2    0  503 -0.38179429372E+02  0.37508015942E+02 -0.25840076076E+03  0.31499122726E+03  0.17200000000E+03 0.  1.
</event>
<event>
 4    1  0.5718861E+000  0.2508938E+03  0.7818608E-02  0.1112741E+00
         21   -1    0    0  503  502  0.00000000000E+00  0.00000000000E+00  0.20751658482E+03  0.20751658482E+03  0.00000000000E+00 0.  1.
         21   -1    0    0  501  503 -0.00000000000E+00 -0.00000000000E+00 -0.61161484454E+03  0.61161484454E+03  0.00000000000E+00 0.  1.
          6    1    1    2  501    0 -0.20525826704E+02 -0.18150037000E+03 -0.49282270918E+03  0.55301167850E+03  0.17200000000E+03 0.  1.
         -6    1    1    2    0  502  0.20525826704E+02  0.18150037000E+03  0.88724449458E+02  0.26611975087E+03  0.17200000000E+03 0.  1.
</event>
<event>
 4    1  0.5718861E+000  0.1932831E+03  0.7818608E-02  0.1155533E+00
         21   -1    0    0  501  502  0.00000000000E+00  0.00000000000E+00  0.62929008203E+02  0.62929008203E+02  0.00000000000E+00 0.  1.
         21   -1    0    0  502  503 -0.00000000000E+00 -0.00000000000E+00 -0.75420177298E+03  0.75420177298E+03  0.00000000000E+00 0. -1.
          6    1    1    2  501    0 -0.81006848746E+02 -0.34817514831E+02 -0.53413720475E+03  0.56803250117E+03  0.17200000000E+03 0. -1.
         -6    1    1    2    0  503  0.81006848746E+02  0.34817514831E+02 -0.15713556003E+03  0.24909828002E+03  0.17200000000E+03 0.  1.
</event>
<event>
 4    1  0.5718861E+000  0.2132156E+03  0.7818608E-02  0.1139045E+00
         21   -1    0    0  501  502  0.00000000000E+00  0.00000000000E+00  0.26991647644E+03  0.26991647644E+03  0.00000000000E+00 0. -1.
         21   -1    0    0  502  503 -0.00000000000E+00 -0.00000000000E+00 -0.36578638207E+03  0.36578638207E+03  0.00000000000E+00 0. -1.
          6    1    1    2  501    0 -0.98862851067E+02  0.78121749650E+02  0.18554022908E+03  0.28264119958E+03  0.17200000000E+03 0. -1.
         -6    1    1    2    0  503  0.98862851067E+02 -0.78121749650E+02 -0.28141013471E+03  0.35306165893E+03  0.17200000000E+03 0. -1.
</event>
<event>
 4    1  0.5718861E+000  0.1792232E+03  0.7818608E-02  0.1168557E+00
         21   -1    0    0  501  502  0.00000000000E+00  0.00000000000E+00  0.91291037048E+02  0.91291037048E+02  0.00000000000E+00 0. -1.
         21   -1    0    0  502  503 -0.00000000000E+00 -0.00000000000E+00 -0.37383904503E+03  0.37383904503E+03  0.00000000000E+00 0. -1.
          6    1    1    2  501    0  0.26823248735E+02  0.42631848370E+02 -0.84873550818E+02  0.19830401105E+03  0.17200000000E+03 0. -1.
         -6    1    1    2    0  503 -0.26823248735E+02 -0.42631848370E+02 -0.19767445717E+03  0.26682607103E+03  0.17200000000E+03 0. -1.
</event>
<event>
 4    1  0.5718861E+000  0.2142377E+03  0.7818608E-02  0.1138253E+00
         21   -1    0    0  501  502  0.00000000000E+00  0.00000000000E+00  0.50917312945E+02  0.50917312945E+02  0.00000000000E+00 0. -1.
         21   -1    0    0  502  503 -0.00000000000E+00 -0.00000000000E+00 -0.94013503754E+03  0.94013503754E+03  0.00000000000E+00 0. -1.
          6    1    1    2  501    0 -0.11758175463E+03 -0.49882957827E+02 -0.34404939364E+03  0.40529959754E+03  0.17200000000E+03 0. -1.
         -6    1    1    2    0  503  0.11758175463E+03  0.49882957827E+02 -0.54516833096E+03  0.58575275295E+03  0.17200000000E+03 0. -1.
</event>
<event>
 4    1  0.5718861E+000  0.2314294E+03  0.7818608E-02  0.1125638E+00
         21   -1    0    0  501  502  0.00000000000E+00  0.00000000000E+00  0.31194735462E+03  0.31194735462E+03  0.00000000000E+00 0. -1.
         21   -1    0    0  502  503 -0.00000000000E+00 -0.00000000000E+00 -0.19136061658E+03  0.19136061658E+03  0.00000000000E+00 0.  1.
          6    1    1    2  501    0 -0.25725686352E+02 -0.15268843172E+03  0.14096847801E+03  0.27098280372E+03  0.17200000000E+03 0.  1.
         -6    1    1    2    0  503  0.25725686352E+02  0.15268843172E+03 -0.20381739967E+02  0.23232516748E+03  0.17200000000E+03 0.  1.
</event>
<event>
 4    1  0.5718861E+000  0.2307812E+03  0.7818608E-02  0.1126091E+00
         21   -1    0    0  503  502  0.00000000000E+00  0.00000000000E+00  0.11248212633E+03  0.11248212633E+03  0.00000000000E+00 0. -1.
         21   -1    0    0  501  503 -0.00000000000E+00 -0.00000000000E+00 -0.75553502528E+03  0.75553502528E+03  0.00000000000E+00 0. -1.
          6    1    1    2  501    0 -0.15364548623E+03  0.83069866629E+01 -0.58669675967E+03  0.63045462110E+03  0.17200000000E+03 0. -1.
         -6    1    1    2    0  502  0.15364548623E+03 -0.83069866629E+01 -0.56356139289E+02  0.23756253051E+03  0.17200000000E+03 0. -1.
</event>
<event>
 4    1  0.5718861E+000  0.2179896E+03  0.7818608E-02  0.1135391E+00
         21   -1    0    0  503  502  0.00000000000E+00  0.00000000000E+00  0.29622215551E+03  0.29622215551E+03  0.00000000000E+00 0.  1.
         21   -1    0    0  501  503 -0.00000000000E+00 -0.00000000000E+00 -0.23816143570E+03  0.23816143570E+03  0.00000000000E+00 0.  1.
          6    1    1    2  501    0  0.23871132305E+02  0.13177872295E+03 -0.12362721131E+03  0.25060556689E+03  0.17200000000E+03 0.  1.
         -6    1    1    2    0  502 -0.23871132305E+02 -0.13177872295E+03  0.18168793111E+03  0.28377802433E+03  0.17200000000E+03 0.  1.
</event>
<event>
 4    1  0.5718861E+000  0.1975140E+03  0.7818608E-02  0.1151854E+00
         21   -1    0    0  503  502  0.00000000000E+00  0.00000000000E+00  0.31897395804E+04  0.31897395804E+04  0.00000000000E+00 0. -1.
         21   -1    0    0  501  503 -0.00000000000E+00 -0.00000000000E+00 -0.12235790390E+02  0.12235790390E+02  0.00000000000E+00 0. -1.
          6    1    1    2  501    0  0.60269711905E+02  0.76127259560E+02  0.15551552859E+04  0.15676478435E+04  0.17200000000E+03 0. -1.
         -6    1    1    2    0  502 -0.60269711905E+02 -0.76127259560E+02  0.16223485041E+04  0.16343275273E+04  0.17200000000E+03 0. -1.
</event>
<event>
 4    1  0.5718861E+000  0.1900075E+03  0.7818608E-02  0.1158455E+00
         21   -1    0    0  503  502  0.00000000000E+00  0.00000000000E+00  0.21461986382E+03  0.21461986382E+03  0.00000000000E+00 0. -1.
         21   -1    0    0  501  503 -0.00000000000E+00 -0.00000000000E+00 -0.17511832382E+03  0.17511832382E+03  0.00000000000E+00 0. -1.
          6    1    1    2  501    0 -0.45888960941E+02 -0.66430757229E+02  0.58434106900E+02  0.19878980631E+03  0.17200000000E+03 0. -1.
         -6    1    1    2    0  502  0.45888960941E+02  0.66430757229E+02 -0.18932566905E+02  0.19094838133E+03  0.17200000000E+03 0. -1.
</event>
<event>
 4    1  0.5718861E+000  0.1763641E+03  0.7818608E-02  0.1171369E+00
         21   -1    0    0  503  502  0.00000000000E+00  0.00000000000E+00  0.14498329377E+03  0.14498329377E+03  0.00000000000E+00 0.  1.
         21   -1    0    0  501  503 -0.00000000000E+00 -0.00000000000E+00 -0.46746675598E+03  0.46746675598E+03  0.00000000000E+00 0.  1.
          6    1    1    2  501    0 -0.72346515980E+01 -0.38313833022E+02 -0.38649194995E+03  0.42482975103E+03  0.17200000000E+03 0.  1.
         -6    1    1    2    0  502  0.72346515980E+01  0.38313833022E+02  0.64008487743E+02  0.18762029871E+03  0.17200000000E+03 0.  1.
</event>
<event>
 4    1  0.5718861E+000  0.1850313E+03  0.7818608E-02  0.1163021E+00
         21   -1    0    0  501  502  0.00000000000E+00  0.00000000000E+00  0.38465033581E+03  0.38465033581E+03  0.00000000000E+00 0. -1.
         21   -1    0    0  502  503 -0.00000000000E+00 -0.00000000000E+00 -0.90056200483E+02  0.90056200483E+02  0.00000000000E+00 0. -1.
          6    1    1    2  501    0 -0.58139827380E+02 -0.35669695204E+02  0.17291657322E+03  0.25325226155E+03  0.17200000000E+03 0. -1.
         -6    1    1    2    0  503  0.58139827380E+02  0.35669695204E+02  0.12167756211E+03  0.22145427475E+03  0.17200000000E+03 0. -1.
</event>
<event>
 4    1  0.5718861E+000  0.2401209E+03  0.7818608E-02  0.1119712E+00
         21   -1    0    0  501  502  0.00000000000E+00  0.00000000000E+00  0.11973789937E+03  0.11973789937E+03  0.00000000000E+00 0.  1.
         21   -1    0    0  502  503 -0.00000000000E+00 -0.00000000000E+00 -0.10645591086E+04  0.10645591086E+04  0.00000000000E+00 0.  1.
          6    1    1    2  501    0  0.11126571931E+03  0.12527561659E+03 -0.34193985033E+02  0.24254333431E+03  0.17200000000E+03 0.  1.
         -6    1    1    2    0  503 -0.11126571931E+03 -0.12527561659E+03 -0.91062722420E+03  0.94175367366E+03  0.17200000000E+03 0.  1.
</event>
<event>
 4    1  0.5718861E+000  0.1827132E+03  0.7818608E-02  0.1165203E+00
         21   -1    0    0  501  502  0.00000000000E+00  0.00000000000E+00  0.19217540825E+03  0.19217540825E+03  0.00000000000E+00 0.  1.
         21   -1    0    0  502  503 -0.00000000000E+00 -0.00000000000E+00 -0.22713370870E+03  0.22713370870E+03  0.00000000000E+00 0. -1.
          6    1    1    2  501    0 -0.41861021720E+02 -0.45252323261E+02  0.84193102491E+02  0.20117802168E+03  0.17200000000E+03 0.  1.
         -6    1    1    2    0  503  0.41861021720E+02  0.45252323261E+02 -0.11915140295E+03  0.21813109527E+03  0.17200000000E+03 0. -1.
</event>
<event>
 4    1  0.5718861E+000  0.2369328E+03  0.7818608E-02  0.1121853E+00
         21   -1    0    0  501  502  0.00000000000E+00  0.00000000000E+00  0.84042554243E+03  0.84042554243E+03  0.00000000000E+00 0.  1.
         21   -1    0    0  502  503 -0.00000000000E+00 -0.00000000000E+00 -0.68876257748E+02  0.68876257748E+02  0.00000000000E+00 0.  1.
          6    1    1    2  501    0 -0.78734882859E+02  0.14266736279E+03  0.46478612758E+03  0.52169272813E+03  0.17200000000E+03 0.  1.
         -6    1    1    2    0  503  0.78734882859E+02 -0.14266736279E+03  0.30676315710E+03  0.38760907205E+03  0.17200000000E+03 0.  1.
</event>
<event>
 4    1  0.5718861E+000  0.2501832E+03  0.7818608E-02  0.1113189E+00
         21   -1    0    0  503  502  0.00000000000E+00  0.00000000000E+00  0.12912977356E+03  0.12912977356E+03  0.00000000000E+00 0. -1.
         21   -1    0    0  501  503 -0.00000000000E+00 -0.00000000000E+00 -0.48735547460E+03  0.48735547460E+03  0.00000000000E+00 0.  1.
          6    1    1    2  501    0 -0.16721422875E+03  0.71042653822E+02 -0.15644135701E+03  0.29506872952E+03  0.17200000000E+03 0.  1.
         -6    1    1    2    0  502  0.16721422875E+03 -0.71042653822E+02 -0.20178434403E+03  0.32141651864E+03  0.17200000000E+03 0.  1.
</event>
<event>
 4    1  0.5718861E+000  0.2794553E+03  0.7818608E-02  0.1095987E+00
         21   -1    0    0  503  502  0.00000000000E+00  0.00000000000E+00  0.66574041108E+03  0.66574041108E+03  0.00000000000E+00 0. -1.
         21   -1    0    0  501  503 -0.00000000000E+00 -0.00000000000E+00 -0.13804430838E+03  0.13804430838E+03  0.00000000000E+00 0. -1.
          6    1    1    2  501    0  0.15250924357E+03 -0.15890945884E+03  0.10807651896E+03  0.29962613276E+03  0.17200000000E+03 0. -1.
         -6    1    1    2    0  502 -0.15250924357E+03  0.15890945884E+03  0.41961958374E+03  0.50415858670E+03  0.17200000000E+03 0. -1.
</event>
<event>
 4    1  0.5718861E+000  0.1755900E+03  0.7818608E-02  0.1172141E+00
         21   -1    0    0  501  502  0.00000000000E+00  0.00000000000E+00  0.80033068233E+02  0.80033068233E+02  0.00000000000E+00 0.  1.
         21   -1    0    0  502  503 -0.00000000000E+00 -0.00000000000E+00 -0.42406391869E+03  0.42406391869E+03  0.00000000000E+00 0.  1.
          6    1    1    2  501    0 -0.27289124380E+02 -0.22431031647E+02 -0.95750554460E+02  0.20000004042E+03  0.17200000000E+03 0. -1.
         -6    1    1    2    0  503  0.27289124380E+02  0.22431031647E+02 -0.24828029600E+03  0.30409694650E+03  0.17200000000E+03 0. -1.
</event>
<event>
 4    1  0.5718861E+000  0.1794036E+03  0.7818608E-02  0.1168382E+00
         21   -1    0    0  503  502  0.00000000000E+00  0.00000000000E+00  0.78849241824E+03  0.78849241824E+03  0.00000000000E+00 0. -1.
         21   -1    0    0  501  503 -0.00000000000E+00 -0.00000000000E+00 -0.42328731488E+02  0.42328731488E+02  0.00000000000E+00 0. -1.
          6    1    1    2  501    0  0.42681351151E+02 -0.27927378473E+02  0.29463421363E+03  0.34495645529E+03  0.17200000000E+03 0. -1.
         -6    1    1    2    0  502 -0.42681351151E+02  0.27927378473E+02  0.45152947312E+03  0.48586469444E+03  0.17200000000E+03 0. -1.
</event>
<event>
 4    1  0.5718861E+000  0.1961829E+03  0.7818608E-02  0.1153000E+00
         21   -1    0    0  503  502  0.00000000000E+00  0.00000000000E+00  0.62331553405E+03  0.62331553405E+03  0.00000000000E+00 0. -1.
         21   -1    0    0  501  503 -0.00000000000E+00 -0.00000000000E+00 -0.62016981497E+02  0.62016981497E+02  0.00000000000E+00 0. -1.
          6    1    1    2  501    0 -0.53209287282E+01  0.94209428446E+02  0.25803108249E+03  0.32414158669E+03  0.17200000000E+03 0. -1.
         -6    1    1    2    0  502  0.53209287282E+01 -0.94209428446E+02  0.30326747006E+03  0.36119092886E+03  0.17200000000E+03 0. -1.
</event>
<event>
 4    1  0.5718861E+000  0.1760221E+03  0.7818608E-02  0.1171709E+00
         21   -1    0    0  501  502  0.00000000000E+00  0.00000000000E+00  0.12716206924E+03  0.12716206924E+03  0.00000000000E+00 0.  1.
         21   -1    0    0  502  503 -0.00000000000E+00 -0.00000000000E+00 -0.38902285091E+03  0.38902285091E+03  0.00000000000E+00 0.  1.
          6    1    1    2  501    0  0.94590883070E+01 -0.36198200178E+02  0.26838238745E+02  0.17805638182E+03  0.17200000000E+03 0.  1.
         -6    1    1    2    0  503 -0.94590883070E+01  0.36198200178E+02 -0.28869902041E+03  0.33812853833E+03  0.17200000000E+03 0.  1.
</event>
<event>
 4    1  0.5718861E+000  0.2172140E+03  0.7818608E-02  0.1135977E+00
         21   -1    0    0  501  502  0.00000000000E+00  0.00000000000E+00  0.26800589801E+03  0.26800589801E+03  0.00000000000E+00 0. -1.
         21   -1    0    0  502  503 -0.00000000000E+00 -0.00000000000E+00 -0.18076642423E+03  0.18076642423E+03  0.00000000000E+00 0. -1.
          6    1    1    2  501    0  0.12150847368E+03 -0.53231613996E+02  0.79871880422E+02  0.23143342712E+03  0.17200000000E+03 0. -1.
         -6    1    1    2    0  503 -0.12150847368E+03  0.53231613996E+02  0.73675933548E+01  0.21733889513E+03  0.17200000000E+03 0. -1.
</event>
<event>
 4    1  0.5718861E+000  0.2605499E+03  0.7818608E-02  0.1106813E+00
         21   -1    0    0  501  502  0.00000000000E+00  0.00000000000E+00  0.60194539339E+02  0.60194539339E+02  0.00000000000E+00 0.  1.
         21   -1    0    0  502  503 -0.00000000000E+00 -0.00000000000E+00 -0.11443175972E+04  0.11443175972E+04  0.00000000000E+00 0. -1.
          6    1    1    2  501    0  0.10061946599E+03  0.16786297241E+03 -0.46966267413E+03  0.53709336425E+03  0.17200000000E+03 0. -1.
         -6    1    1    2    0  503 -0.10061946599E+03 -0.16786297241E+03 -0.61446038376E+03  0.66741877233E+03  0.17200000000E+03 0. -1.
</event>
<event>
 4    1  0.5718861E+000  0.1869375E+03  0.7818608E-02  0.1161253E+00
         21   -1    0    0  503  502  0.00000000000E+00  0.00000000000E+00  0.16119264844E+03  0.16119264844E+03  0.00000000000E+00 0. -1.
         21   -1    0    0  501  503 -0.00000000000E+00 -0.00000000000E+00 -0.36211564883E+03  0.36211564883E+03  0.00000000000E+00 0.  1.
          6    1    1    2  501    0  0.69224117416E+02  0.23867167152E+02 -0.26621737943E+03  0.32529573193E+03  0.17200000000E+03 0.  1.
         -6    1    1    2    0  502 -0.69224117416E+02 -0.23867167152E+02  0.65294379039E+02  0.19801256534E+03  0.17200000000E+03 0. -1.
</event>
<event>
 4    1  0.5718861E+000  0.1772208E+03  0.7818608E-02  0.1170520E+00
         21   -1    0    0  503  502  0.00000000000E+00  0.00000000000E+00  0.71547753591E+03  0.71547753591E+03  0.00000000000E+00 0. -1.
         21   -1    0    0  501  503 -0.00000000000E+00 -0.00000000000E+00 -0.70587379058E+02  0.70587379058E+02  0.00000000000E+00 0. -1.
          6    1    1    2  501    0 -0.72026689135E+01 -0.42087232379E+02  0.80763560477E+02  0.19475617133E+03  0.17200000000E+03 0. -1.
         -6    1    1    2    0  502  0.72026689135E+01  0.42087232379E+02  0.56412659637E+03  0.59130874364E+03  0.17200000000E+03 0. -1.
</event>
<event>
 4    1  0.5718861E+000  0.2338623E+03  0.7818608E-02  0.1123950E+00
         21   -1    0    0  503  502  0.00000000000E+00  0.00000000000E+00  0.25896133780E+03  0.25896133780E+03  0.00000000000E+00 0.  1.
         21   -1    0    0  501  503 -0.00000000000E+00 -0.00000000000E+00 -0.30482321775E+03  0.30482321775E+03  0.00000000000E+00 0. -1.
          6    1    1    2  501    0 -0.12926880369E+03  0.91635896219E+02 -0.17915954435E+03  0.29460092229E+03  0.17200000000E+03 0. -1.
         -6    1    1    2    0  502  0.12926880369E+03 -0.91635896219E+02  0.13329766439E+03  0.26918363326E+03  0.17200000000E+03 0.  1.
</event>
<event>
 4    1  0.5718861E+000  0.2092343E+03  0.7818608E-02  0.1142174E+00
         21   -1    0    0  503  502  0.00000000000E+00  0.00000000000E+00  0.14573543069E+03  0.14573543069E+03  0.00000000000E+00 0.  1.
         21   -1    0    0  501  503 -0.00000000000E+00 -0.00000000000E+00 -0.73064666791E+03  0.73064666791E+03  0.00000000000E+00 0.  1.
          6    1    1    2  501    0 -0.41458427621E+02 -0.11169687417E+03 -0.62871028124E+03  0.66261271544E+03  0.17200000000E+03 0.  1.
         -6    1    1    2    0  502  0.41458427621E+02  0.11169687417E+03  0.43799044028E+02  0.21376938316E+03  0.17200000000E+03 0.  1.
</event>
<event>
 4    1  0.5718861E+000  0.1933612E+03  0.7818608E-02  0.1155464E+00
         21   -1    0    0  501  502  0.00000000000E+00  0.00000000000E+00  0.14114347601E+03  0.14114347601E+03  0.00000000000E+00 0. -1.
         21   -1    0    0  502  503 -0.00000000000E+00 -0.00000000000E+00 -0.28932884496E+03  0.28932884496E+03  0.00000000000E+00 0. -1.
          6    1    1    2  501    0 -0.83417080885E+02 -0.29088486851E+02 -0.11547577472E+02  0.19370569428E+03  0.17200000000E+03 0. -1.
         -6    1    1    2    0  503  0.83417080885E+02  0.29088486851E+02 -0.13663779148E+03  0.23676662668E+03  0.17200000000E+03 0. -1.
</event>
<event>
 4    1  0.5718861E+000  0.1811587E+03  0.7818608E-02  0.1166686E+00
         21   -1    0    0  501  502  0.00000000000E+00  0.00000000000E+00  0.47575240336E+03  0.47575240336E+03  0.00000000000E+00 0.  1.
         21   -1    0    0  502  503 -0.00000000000E+00 -0.00000000000E+00 -0.68985920195E+02  0.68985920195E+02  0.00000000000E+00 0.  1.
          6    1    1    2  501    0  0.46551808811E+02 -0.32671200077E+02  0.20536591439E+03  0.27384966133E+03  0.17200000000E+03 0. -1.
         -6    1    1    2    0  503 -0.46551808811E+02  0.32671200077E+02  0.20140056877E+03  0.27088866222E+03  0.17200000000E+03 0. -1.
</event>
<event>
 4    1  0.5718861E+000  0.2250927E+03  0.7818608E-02  0.1130142E+00
         21   -1    0    0  501  502  0.00000000000E+00  0.00000000000E+00  0.88612707347E+02  0.88612707347E+02  0.00000000000E+00 0.  1.
         21   -1    0    0  502  503 -0.00000000000E+00 -0.00000000000E+00 -0.72711577177E+03  0.72711577177E+03  0.00000000000E+00 0. -1.
          6    1    1    2  501    0 -0.74462791814E+01 -0.14500780972E+03 -0.13073314427E+03  0.26030341328E+03  0.17200000000E+03 0.  1.
         -6    1    1    2    0  503  0.74462791814E+01  0.14500780972E+03 -0.50776992015E+03  0.55542506584E+03  0.17200000000E+03 0. -1.
</event>
<event>
 4    1  0.5718861E+000  0.1828242E+03  0.7818608E-02  0.1165097E+00
         21   -1    0    0  501  502  0.00000000000E+00  0.00000000000E+00  0.55215089692E+02  0.55215089692E+02  0.00000000000E+00 0.  1.
         21   -1    0    0  502  503 -0.00000000000E+00 -0.00000000000E+00 -0.17896287509E+04  0.17896287509E+04  0.00000000000E+00 0.  1.
          6    1    1    2  501    0 -0.47166099466E+02  0.40200199964E+02 -0.11683883209E+03  0.21697006637E+03  0.17200000000E+03 0.  1.
         -6    1    1    2    0  503  0.47166099466E+02 -0.40200199964E+02 -0.16175748291E+04  0.16278737742E+04  0.17200000000E+03 0.  1.
</event>
<event>
 4    1  0.5718861E+000  0.2615889E+03  0.7818608E-02  0.1106192E+00
         21   -1    0    0  501  502  0.00000000000E+00  0.00000000000E+00  0.56025258448E+03  0.56025258448E+03  0.00000000000E+00 0. -1.
         21   -1    0    0  502  503 -0.00000000000E+00 -0.00000000000E+00 -0.31742627619E+03  0.31742627619E+03  0.00000000000E+00 0. -1.
          6    1    1    2  501    0 -0.44096046900E+01 -0.19704135246E+03  0.46562125147E+03  0.53407105240E+03  0.17200000000E+03 0. -1.
         -6    1    1    2    0  503  0.44096046900E+01  0.19704135246E+03 -0.22279494318E+03  0.34360780826E+03  0.17200000000E+03 0. -1.
</event>
<event>
 4    1  0.5718861E+000  0.2066221E+03  0.7818608E-02  0.1144269E+00
         21   -1    0    0  503  502  0.00000000000E+00  0.00000000000E+00  0.12215902718E+04  0.12215902718E+04  0.00000000000E+00 0. -1.
         21   -1    0    0  501  503 -0.00000000000E+00 -0.00000000000E+00 -0.40033512275E+02  0.40033512275E+02  0.00000000000E+00 0. -1.
          6    1    1    2  501    0 -0.10615878543E+03  0.42883819312E+02  0.36595816733E+03  0.42025955066E+03  0.17200000000E+03 0. -1.
         -6    1    1    2    0  502  0.10615878543E+03 -0.42883819312E+02  0.81559859221E+03  0.84136423343E+03  0.17200000000E+03 0. -1.
</event>
<event>
 4    1  0.5718861E+000  0.2006131E+03  0.7818608E-02  0.1149223E+00
         21   -1    0    0  503  502  0.00000000000E+00  0.00000000000E+00  0.56408249545E+03  0.56408249545E+03  0.00000000000E+00 0.  1.
         21   -1    0    0  501  503 -0.00000000000E+00 -0.00000000000E+00 -0.71984335621E+02  0.71984335621E+02  0.00000000000E+00 0. -1.
          6    1    1    2  501    0  0.93167527008E+02 -0.44513450296E+02  0.21612555471E+03  0.29488284240E+03  0.17200000000E+03 0. -1.
         -6    1    1    2    0  502 -0.93167527008E+02  0.44513450296E+02  0.27597260512E+03  0.34118398867E+03  0.17200000000E+03 0.  1.
</event>
<event>
 4    1  0.5718861E+000  0.1932557E+03  0.7818608E-02  0.1155557E+00
         21   -1    0    0  503  502  0.00000000000E+00  0.00000000000E+00  0.65999833487E+02  0.65999833487E+02  0.00000000000E+00 0.  1.
         21   -1    0    0  501  503 -0.00000000000E+00 -0.00000000000E+00 -0.12360827635E+04  0.12360827635E+04  0.00000000000E+00 0. -1.
          6    1    1    2  501    0 -0.80294626595E+02 -0.36284386405E+02 -0.10644313456E+04  0.10818326457E+04  0.17200000000E+03 0. -1.
         -6    1    1    2    0  502  0.80294626595E+02  0.36284386405E+02 -0.10565158438E+03  0.22024995128E+03  0.17200000000E+03 0.  1.
</event>
<event>
 4    1  0.5718861E+000  0.1925002E+03  0.7818608E-02  0.1156225E+00
         21   -1    0    0  503  502  0.00000000000E+00  0.00000000000E+00  0.12269260373E+04  0.12269260373E+04  0.00000000000E+00 0. -1.
         21   -1    0    0  501  503 -0.00000000000E+00 -0.00000000000E+00 -0.76910900460E+02  0.76910900460E+02  0.00000000000E+00 0. -1.
          6    1    1    2  501    0 -0.77067789078E+02 -0.39151969490E+02  0.66969210149E+02  0.20381657424E+03  0.17200000000E+03 0. -1.
         -6    1    1    2    0  502  0.77067789078E+02  0.39151969490E+02  0.10830459267E+04  0.11000203635E+04  0.17200000000E+03 0. -1.
</event>
<event>
 4    1  0.5718861E+000  0.2305539E+03  0.7818608E-02  0.1126250E+00
         21   -1    0    0  503  502  0.00000000000E+00  0.00000000000E+00  0.13947068989E+03  0.13947068989E+03  0.00000000000E+00 0.  1.
         21   -1    0    0  501  503 -0.00000000000E+00 -0.00000000000E+00 -0.57786643543E+03  0.57786643543E+03  0.00000000000E+00 0. -1.
          6    1    1    2  501    0  0.44819392573E+01  0.15346344227E+03 -0.42848024305E+03  0.48657007160E+03  0.17200000000E+03 0. -1.
         -6    1    1    2    0  502 -0.44819392573E+01 -0.15346344227E+03 -0.99155024824E+01  0.23076705372E+03  0.17200000000E+03 0.  1.
</event>
<event>
 4    1  0.5718861E+000  0.2341038E+03  0.7818608E-02  0.1123784E+00
         21   -1    0    0  503  502  0.00000000000E+00  0.00000000000E+00  0.94218789954E+02  0.94218789954E+02  0.00000000000E+00 0.  1.
         21   -1    0    0  501  503 -0.00000000000E+00 -0.00000000000E+00 -0.69261595513E+03  0.69261595513E+03  0.00000000000E+00 0. -1.
          6    1    1    2  501    0  0.14532604420E+03 -0.64038596152E+02 -0.14174389282E+03  0.27367121162E+03  0.17200000000E+03 0. -1.
         -6    1    1    2    0  502 -0.14532604420E+03  0.64038596152E+02 -0.45665327236E+03  0.51316353346E+03  0.17200000000E+03 0. -1.
</event>
<event>
 4    1  0.5718861E+000  0.1919831E+03  0.7818608E-02  0.1156685E+00
         21   -1    0    0  503  502  0.00000000000E+00  0.00000000000E+00  0.28561763945E+03  0.28561763945E+03  0.00000000000E+00 0.  1.
         21   -1    0    0  501  503 -0.00000000000E+00 -0.00000000000E+00 -0.16995038230E+03  0.16995038230E+03  0.00000000000E+00 0.  1.
          6    1    1    2  501    0 -0.24843973044E+02  0.81586151167E+02 -0.53917646716E+02  0.19941072109E+03  0.17200000000E+03 0.  1.
         -6    1    1    2    0  502  0.24843973044E+02 -0.81586151167E+02  0.16958490386E+03  0.25615730065E+03  0.17200000000E+03 0.  1.
</event>
<event>
 4    1  0.5718861E+000  0.2598194E+03  0.7818608E-02  0.1107252E+00
         21   -1    0    0  501  502  0.00000000000E+00  0.00000000000E+00  0.30967709676E+02  0.30967709676E+02  0.00000000000E+00 0. -1.
         21   -1    0    0  502  503 -0.00000000000E+00 -0.00000000000E+00 -0.24139960065E+04  0.24139960065E+04  0.00000000000E+00 0. -1.
          6    1    1    2  501    0 -0.14912293357E+03 -0.12523760230E+03 -0.15722144773E+04  0.15935383487E+04  0.17200000000E+03 0. -1.
         -6    1    1    2    0  503  0.14912293357E+03  0.12523760230E+03 -0.81081381959E+03  0.85142536748E+03  0.17200000000E+03 0. -1.
</event>
<event>
 4    1  0.5718861E+000  0.1919342E+03  0.7818608E-02  0.1156728E+00
         21   -1    0    0  501  502  0.00000000000E+00  0.00000000000E+00  0.17185658449E+03  0.17185658449E+03  0.00000000000E+00 0. -1.
         21   -1    0    0  502  503 -0.00000000000E+00 -0.00000000000E+00 -0.26731650674E+03  0.26731650674E+03  0.00000000000E+00 0. -1.
          6    1    1    2  501    0 -0.81828742517E+02 -0.23638994170E+02  0.50007896960E+02  0.19834196456E+03  0.17200000000E+03 0. -1.
         -6    1    1    2    0  503  0.81828742517E+02  0.23638994170E+02 -0.14546781921E+03  0.24083112667E+03  0.17200000000E+03 0. -1.
</event>
<event>
 4    1  0.5718861E+000  0.1726455E+03  0.7818608E-02  0.1175117E+00
         21   -1    0    0  501  502  0.00000000000E+00  0.00000000000E+00  0.28285372050E+03  0.28285372050E+03  0.00000000000E+00 0. -1.
         21   -1    0    0  502  503 -0.00000000000E+00 -0.00000000000E+00 -0.39387028473E+03  0.39387028473E+03  0.00000000000E+00 0. -1.
          6    1    1    2  501    0 -0.63943203714E+01  0.13474857003E+02  0.23407424018E+03  0.29085599361E+03  0.17200000000E+03 0. -1.
         -6    1    1    2    0  503  0.63943203714E+01 -0.13474857003E+02 -0.34509080440E+03  0.38586801161E+03  0.17200000000E+03 0. -1.
</event>
<event>
 4    1  0.5718861E+000  0.2378558E+03  0.7818608E-02  0.1121230E+00
         21   -1    0    0  501  502  0.00000000000E+00  0.00000000000E+00  0.52215952609E+03  0.52215952609E+03  0.00000000000E+00 0. -1.
         21   -1    0    0  502  503 -0.00000000000E+00 -0.00000000000E+00 -0.49749274246E+03  0.49749274246E+03  0.00000000000E+00 0.  1.
          6    1    1    2  501    0 -0.54278987379E+02 -0.15506506447E+03  0.46323712427E+03  0.52073411257E+03  0.17200000000E+03 0. -1.
         -6    1    1    2    0  503  0.54278987379E+02  0.15506506447E+03 -0.43857034064E+03  0.49891815599E+03  0.17200000000E+03 0.  1.
</event>
<event>
 4    1  0.5718861E+000  0.2326046E+03  0.7818608E-02  0.1124820E+00
         21   -1    0    0  501  502  0.00000000000E+00  0.00000000000E+00  0.52989365906E+03  0.52989365906E+03  0.00000000000E+00 0. -1.
         21   -1    0    0  502  503 -0.00000000000E+00 -0.00000000000E+00 -0.10217325816E+03  0.10217325816E+03  0.00000000000E+00 0.  1.
          6    1    1    2  501    0  0.69820439963E+02  0.14016420203E+03  0.22201678944E+03  0.32155303164E+03  0.17200000000E+03 0.  1.
         -6    1    1    2    0  503 -0.69820439963E+02 -0.14016420203E+03  0.20570361147E+03  0.31051388558E+03  0.17200000000E+03 0. -1.
</event>
<event>
 4    1  0.5718861E+000  0.2543551E+03  0.7818608E-02  0.1110583E+00
         21   -1    0    0  501  502  0.00000000000E+00  0.00000000000E+00  0.17411690445E+03  0.17411690445E+03  0.00000000000E+00 0. -1.
         21   -1    0    0  502  503 -0.00000000000E+00 -0.00000000000E+00 -0.39265029200E+03  0.39265029200E+03  0.00000000000E+00 0. -1.
          6    1    1    2  501    0 -0.13178186914E+03  0.13321430647E+03 -0.43604360275E+02  0.25806559770E+03  0.17200000000E+03 0. -1.
         -6    1    1    2    0  503  0.13178186914E+03 -0.13321430647E+03 -0.17492902728E+03  0.30870159874E+03  0.17200000000E+03 0. -1.
</event>
<event>
 4    1  0.5718861E+000  0.1730322E+03  0.7818608E-02  0.1174722E+00
         21   -1    0    0  503  502  0.00000000000E+00  0.00000000000E+00  0.12365419744E+04  0.12365419744E+04  0.00000000000E+00 0. -1.
         21   -1    0    0  501  503 -0.00000000000E+00 -0.00000000000E+00 -0.25570179679E+02  0.25570179679E+02  0.00000000000E+00 0. -1.
          6    1    1    2  501    0  0.12038974403E+02  0.14532814080E+02  0.46008996956E+03  0.49155154325E+03  0.17200000000E+03 0.  1.
         -6    1    1    2    0  502 -0.12038974403E+02 -0.14532814080E+02  0.75088182513E+03  0.77056061079E+03  0.17200000000E+03 0.  1.
</event>
<event>
 4    1  0.5718861E+000  0.1817178E+03  0.7818608E-02  0.1166151E+00
         21   -1    0    0  503  502  0.00000000000E+00  0.00000000000E+00  0.38641721828E+03  0.38641721828E+03  0.00000000000E+00 0.  1.
         21   -1    0    0  501  503 -0.00000000000E+00 -0.00000000000E+00 -0.16176105446E+03  0.16176105446E+03  0.00000000000E+00 0.  1.
          6    1    1    2  501    0  0.34857903654E+02 -0.47141172980E+02 -0.75921381046E+02  0.19694014252E+03  0.17200000000E+03 0.  1.
         -6    1    1    2    0  502 -0.34857903654E+02  0.47141172980E+02  0.30057754487E+03  0.35123813021E+03  0.17200000000E+03 0.  1.
</event>
<event>
 4    1  0.5718861E+000  0.1732391E+03  0.7818608E-02  0.1174511E+00
         21   -1    0    0  503  502  0.00000000000E+00  0.00000000000E+00  0.54833408530E+02  0.54833408530E+02  0.00000000000E+00 0.  1.
         21   -1    0    0  501  503 -0.00000000000E+00 -0.00000000000E+00 -0.57385571933E+03  0.57385571933E+03  0.00000000000E+00 0.  1.
          6    1    1    2  501    0 -0.20611343511E+02  0.17249403057E+01 -0.19192417378E+03  0.25854727107E+03  0.17200000000E+03 0.  1.
         -6    1    1    2    0  502  0.20611343511E+02 -0.17249403057E+01 -0.32709813702E+03  0.37014185678E+03  0.17200000000E+03 0.  1.
</event>
<event>
 4    1  0.5718861E+000  0.1950992E+03  0.7818608E-02  0.1153941E+00
         21   -1    0    0  501  502  0.00000000000E+00  0.00000000000E+00  0.44941096485E+03  0.44941096485E+03  0.00000000000E+00 0.  1.
         21   -1    0    0  502  503 -0.00000000000E+00 -0.00000000000E+00 -0.16270292185E+03  0.16270292185E+03  0.00000000000E+00 0.  1.
          6    1    1    2  501    0  0.88832417754E+02  0.24259181644E+02  0.35527242948E+03  0.40531741325E+03  0.17200000000E+03 0.  1.
         -6    1    1    2    0  503 -0.88832417754E+02 -0.24259181644E+02 -0.68564386482E+02  0.20679647345E+03  0.17200000000E+03 0.  1.
</event>
<event>
 4    1  0.5718861E+000  0.1986205E+03  0.7818608E-02  0.1150908E+00
         21   -1    0    0  503  502  0.00000000000E+00  0.00000000000E+00  0.94572789430E+02  0.94572789430E+02  0.00000000000E+00 0. -1.
         21   -1    0    0  501  503 -0.00000000000E+00 -0.00000000000E+00 -0.45126271784E+03  0.45126271784E+03  0.00000000000E+00 0. -1.
          6    1    1    2  501    0  0.48534506883E+02  0.86663196189E+02 -0.10329717742E+03  0.22387589150E+03  0.17200000000E+03 0.  1.
         -6    1    1    2    0  502 -0.48534506883E+02 -0.86663196189E+02 -0.25339275098E+03  0.32195961576E+03  0.17200000000E+03 0.  1.
</event>
<event>
 4    1  0.5718861E+000  0.1729850E+03  0.7818608E-02  0.1174770E+00
         21   -1    0    0  503  502  0.00000000000E+00  0.00000000000E+00  0.31498903790E+03  0.31498903790E+03  0.00000000000E+00 0.  1.
         21   -1    0    0  501  503 -0.00000000000E+00 -0.00000000000E+00 -0.11267224047E+03  0.11267224047E+03  0.00000000000E+00 0.  1.
          6    1    1    2  501    0 -0.10821630599E+02 -0.14922740947E+02  0.16472008259E+02  0.17376743925E+03  0.17200000000E+03 0. -1.
         -6    1    1    2    0  502  0.10821630599E+02  0.14922740947E+02  0.18584478917E+03  0.25389383913E+03  0.17200000000E+03 0. -1.
</event>
<event>
 4    1  0.5718861E+000  0.1909124E+03  0.7818608E-02  0.1157641E+00
         21   -1    0    0  503  502  0.00000000000E+00  0.00000000000E+00  0.95976461010E+02  0.95976461010E+02  0.00000000000E+00 0. -1.
         21   -1    0    0  501  503 -0.00000000000E+00 -0.00000000000E+00 -0.41898485476E+03  0.41898485476E+03  0.00000000000E+00 0. -1.
          6    1    1    2  501    0  0.32218564200E+02  0.76324944130E+02 -0.82717252410E+02  0.20806171397E+03  0.17200000000E+03 0.  1.
         -6    1    1    2    0  502 -0.32218564200E+02 -0.76324944130E+02 -0.24029114134E+03  0.30689960180E+03  0.17200000000E+03 0.  1.
</event>
<event>
 4    1  0.5718861E+000  0.2200167E+03  0.7818608E-02  0.1133871E+00
         21   -1    0    0  501  502  0.00000000000E+00  0.00000000000E+00  0.14698939338E+04  0.14698939338E+04  0.00000000000E+00 0.  1.
         21   -1    0    0  502  503 -0.00000000000E+00 -0.00000000000E+00 -0.34984154911E+02  0.34984154911E+02  0.00000000000E+00 0. -1.
          6    1    1    2  501    0 -0.12133459272E+03  0.64041146179E+02  0.89966931621E+03  0.92618153206E+03  0.17200000000E+03 0.  1.
         -6    1    1    2    0  503  0.12133459272E+03 -0.64041146179E+02  0.53524046271E+03  0.57869655668E+03  0.17200000000E+03 0. -1.
</event>
<event>
 4    1  0.5718861E+000  0.1857152E+03  0.7818608E-02  0.1162384E+00
         21   -1    0    0  501  502  0.00000000000E+00  0.00000000000E+00  0.12489865350E+03  0.12489865350E+03  0.00000000000E+00 0.  1.
         21   -1    0    0  502  503 -0.00000000000E+00 -0.00000000000E+00 -0.37499716598E+03  0.37499716598E+03  0.00000000000E+00 0.  1.
          6    1    1    2  501    0 -0.20771651214E+02 -0.66893041762E+02  0.32808573047E+01  0.18574419117E+03  0.17200000000E+03 0.  1.
         -6    1    1    2    0  503  0.20771651214E+02  0.66893041762E+02 -0.25337936978E+03  0.31415162830E+03  0.17200000000E+03 0.  1.
</event>
<event>
 4    1  0.5718861E+000  0.2131404E+03  0.7818608E-02  0.1139103E+00
         21   -1    0    0  503  502  0.00000000000E+00  0.00000000000E+00  0.16187640927E+03  0.16187640927E+03  0.00000000000E+00 0. -1.
         21   -1    0    0  501  503 -0.00000000000E+00 -0.00000000000E+00 -0.44892942917E+03  0.44892942917E+03  0.00000000000E+00 0. -1.
          6    1    1    2  501    0 -0.37830229689E+02 -0.12005714382E+03 -0.33051452510E+03  0.39327941132E+03  0.17200000000E+03 0. -1.
         -6    1    1    2    0  502  0.37830229689E+02  0.12005714382E+03  0.43461505209E+02  0.21752642712E+03  0.17200000000E+03 0. -1.
</event>
<event>
 4    1  0.5718861E+000  0.2430856E+03  0.7818608E-02  0.1117754E+00
         21   -1    0    0  501  502  0.00000000000E+00  0.00000000000E+00  0.73653495920E+03  0.73653495920E+03  0.00000000000E+00 0. -1.
         21   -1    0    0  502  503 -0.00000000000E+00 -0.00000000000E+00 -0.11666683055E+03  0.11666683055E+03  0.00000000000E+00 0.  1.
          6    1    1    2  501    0  0.14893765357E+03 -0.85581352535E+02  0.54834784956E+03  0.59981326816E+03  0.17200000000E+03 0. -1.
         -6    1    1    2    0  503 -0.14893765357E+03  0.85581352535E+02  0.71520279092E+02  0.25338852159E+03  0.17200000000E+03 0.  1.
</event>
<event>
 4    1  0.5718861E+000  0.1998414E+03  0.7818608E-02  0.1149873E+00
         21   -1    0    0  501  502  0.00000000000E+00  0.00000000000E+00  0.16696777419E+03  0.16696777419E+03  0.00000000000E+00 0.  1.
         21   -1    0    0  502  503 -0.00000000000E+00 -0.00000000000E+00 -0.26308254247E+03  0.26308254247E+03  0.00000000000E+00 0.  1.
          6    1    1    2  501    0 -0.22145660126E+02 -0.99308298593E+02  0.16746214984E+02  0.20054177657E+03  0.17200000000E+03 0.  1.
         -6    1    1    2    0  503  0.22145660126E+02  0.99308298593E+02 -0.11286098327E+03  0.22950854009E+03  0.17200000000E+03 0.  1.
</event>
<event>
 4    1  0.5718861E+000  0.1880416E+03  0.7818608E-02  0.1160240E+00
         21   -1    0    0  501  502  0.00000000000E+00  0.00000000000E+00  0.30438445048E+03  0.30438445048E+03  0.00000000000E+00 0.  1.
         21   -1    0    0  502  503 -0.00000000000E+00 -0.00000000000E+00 -0.16039161141E+03  0.16039161141E+03  0.00000000000E+00 0.  1.
          6    1    1    2  501    0  0.65371046749E+02 -0.38758927369E+02  0.19402223579E+03  0.27019299803E+03  0.17200000000E+03 0.  1.
         -6    1    1    2    0  503 -0.65371046749E+02  0.38758927369E+02 -0.50029396725E+02  0.19458306386E+03  0.17200000000E+03 0.  1.
</event>
<event>
 4    1  0.5718861E+000  0.2552590E+03  0.7818608E-02  0.1110026E+00
         21   -1    0    0  503  502  0.00000000000E+00  0.00000000000E+00  0.54451466097E+03  0.54451466097E+03  0.00000000000E+00 0.  1.
         21   -1    0    0  501  503 -0.00000000000E+00 -0.00000000000E+00 -0.13078042318E+03  0.13078042318E+03  0.00000000000E+00 0. -1.
          6    1    1    2  501    0 -0.12769029723E+03 -0.13881046210E+03  0.10841302054E+03  0.27732749489E+03  0.17200000000E+03 0.  1.
         -6    1    1    2    0  502  0.12769029723E+03  0.13881046210E+03  0.30532121725E+03  0.39796758926E+03  0.17200000000E+03 0.  1.
</event>
<event>
 4    1  0.5718861E+000  0.1802846E+03  0.7818608E-02  0.1167528E+00
         21   -1    0    0  501  502  0.00000000000E+00  0.00000000000E+00  0.13265532028E+03  0.13265532028E+03  0.00000000000E+00 0. -1.
         21   -1    0    0  502  503 -0.00000000000E+00 -0.00000000000E+00 -0.35473990768E+03  0.35473990768E+03  0.00000000000E+00 0. -1.
          6    1    1    2  501    0  0.18187892858E+02 -0.50869759164E+02  0.24491949683E+02  0.18194061516E+03  0.17200000000E+03 0. -1.
         -6    1    1    2    0  503 -0.18187892858E+02  0.50869759164E+02 -0.24657653708E+03  0.30545461280E+03  0.17200000000E+03 0. -1.
</event>
<event>
 4    1  0.5718861E+000  0.1871499E+03  0.7818608E-02  0.1161057E+00
         21   -1    0    0  501  502  0.00000000000E+00  0.00000000000E+00  0.41682380973E+03  0.41682380973E+03  0.00000000000E+00 0. -1.
         21   -1    0    0  502  503 -0.00000000000E+00 -0.00000000000E+00 -0.85219024659E+02  0.85219024659E+02  0.00000000000E+00 0.  1.
          6    1    1    2  501    0 -0.37153083433E+02  0.63723782761E+02  0.19547221396E+03  0.27061865887E+03  0.17200000000E+03 0.  1.
         -6    1    1    2    0  503  0.37153083433E+02 -0.63723782761E+02  0.13613257112E+03  0.23142417552E+03  0.17200000000E+03 0. -1.
</event>
<event>
 4    1  0.5718861E+000  0.2134964E+03  0.7818608E-02  0.1138827E+00
         21   -1    0    0  503  502  0.00000000000E+00  0.00000000000E+00  0.33849295150E+03  0.33849295150E+03  0.00000000000E+00 0.  1.
         21   -1    0    0  501  503 -0.00000000000E+00 -0.00000000000E+00 -0.13729140140E+03  0.13729140140E+03  0.00000000000E+00 0.  1.
          6    1    1    2  501    0  0.67502585133E+02  0.10695844791E+03  0.67652296901E+02  0.22395879500E+03  0.17200000000E+03 0.  1.
         -6    1    1    2    0  502 -0.67502585133E+02 -0.10695844791E+03  0.13354925320E+03  0.25182555790E+03  0.17200000000E+03 0.  1.
</event>
<event>
 4    1  0.5718861E+000  0.2211546E+03  0.7818608E-02  0.1133025E+00
         21   -1    0    0  501  502  0.00000000000E+00  0.00000000000E+00  0.24051076346E+03  0.24051076346E+03  0.00000000000E+00 0. -1.
         21   -1    0    0  502  503 -0.00000000000E+00 -0.00000000000E+00 -0.20473486490E+03  0.20473486490E+03  0.00000000000E+00 0. -1.
          6    1    1    2  501    0  0.12990381301E+03 -0.49501088786E+02  0.36156362489E+02  0.22409069810E+03  0.17200000000E+03 0. -1.
         -6    1    1    2    0  503 -0.12990381301E+03  0.49501088786E+02 -0.38046392468E+00  0.22115493026E+03  0.17200000000E+03 0. -1.
</event>
<event>
 4    1  0.5718861E+000  0.1891698E+03  0.7818608E-02  0.1159212E+00
         21   -1    0    0  503  502  0.00000000000E+00  0.00000000000E+00  0.20219690104E+03  0.20219690104E+03  0.00000000000E+00 0.  1.
         21   -1    0    0  501  503 -0.00000000000E+00 -0.00000000000E+00 -0.41938033029E+03  0.41938033029E+03  0.00000000000E+00 0.  1.
          6    1    1    2  501    0 -0.63292238546E+02 -0.46853969749E+02  0.12768772358E+03  0.22823092844E+03  0.17200000000E+03 0.  1.
         -6    1    1    2    0  502  0.63292238546E+02  0.46853969749E+02 -0.34487115284E+03  0.39334630290E+03  0.17200000000E+03 0.  1.
</event>
<event>
 4    1  0.5718861E+000  0.1849941E+03  0.7818608E-02  0.1163055E+00
         21   -1    0    0  501  502  0.00000000000E+00  0.00000000000E+00  0.17351055472E+03  0.17351055472E+03  0.00000000000E+00 0. -1.
         21   -1    0    0  502  503 -0.00000000000E+00 -0.00000000000E+00 -0.59323996739E+03  0.59323996739E+03  0.00000000000E+00 0. -1.
          6    1    1    2  501    0 -0.44056100386E+02  0.51940968325E+02  0.10336127496E+03  0.21191120153E+03  0.17200000000E+03 0. -1.
         -6    1    1    2    0  503  0.44056100386E+02 -0.51940968325E+02 -0.52309068764E+03  0.55483932058E+03  0.17200000000E+03 0. -1.
</event>
<event>
 4    1  0.5718861E+000  0.4234732E+03  0.7818608E-02  0.1035942E+00
         21   -1    0    0  501  502  0.00000000000E+00  0.00000000000E+00  0.54732296142E+03  0.54732296142E+03  0.00000000000E+00 0.  1.
         21   -1    0    0  502  503 -0.00000000000E+00 -0.00000000000E+00 -0.33800064012E+03  0.33800064012E+03  0.00000000000E+00 0.  1.
          6    1    1    2  501    0 -0.37879306413E+03 -0.79128784656E+02  0.27192106482E+02  0.42434533183E+03  0.17200000000E+03 0.  1.
         -6    1    1    2    0  503  0.37879306413E+03  0.79128784656E+02  0.18213021483E+03  0.46097826971E+03  0.17200000000E+03 0.  1.
</event>
<event>
 4    1  0.5718861E+000  0.2684800E+03  0.7818608E-02  0.1102153E+00
         21   -1    0    0  503  502  0.00000000000E+00  0.00000000000E+00  0.80022347584E+03  0.80022347584E+03  0.00000000000E+00 0.  1.
         21   -1    0    0  501  503 -0.00000000000E+00 -0.00000000000E+00 -0.90625831221E+02  0.90625831221E+02  0.00000000000E+00 0. -1.
          6    1    1    2  501    0 -0.20611930087E+03 -0.35097534566E+01  0.32012601633E+03  0.41780635573E+03  0.17200000000E+03 0. -1.
         -6    1    1    2    0  502  0.20611930087E+03  0.35097534566E+01  0.38947162828E+03  0.47304295132E+03  0.17200000000E+03 0.  1.
</event>
<event>
 4    1  0.5718861E+000  0.1912406E+03  0.7818608E-02  0.1157347E+00
         21   -1    0    0  503  502  0.00000000000E+00  0.00000000000E+00  0.13849126370E+04  0.13849126370E+04  0.00000000000E+00 0.  1.
         21   -1    0    0  501  503 -0.00000000000E+00 -0.00000000000E+00 -0.26506621699E+02  0.26506621699E+02  0.00000000000E+00 0.  1.
          6    1    1    2  501    0 -0.61376242402E+02  0.56762067376E+02  0.72221731135E+03  0.74710830556E+03  0.17200000000E+03 0.  1.
         -6    1    1    2    0  502  0.61376242402E+02 -0.56762067376E+02  0.63618870396E+03  0.66431095314E+03  0.17200000000E+03 0.  1.
</event>
<event>
 4    1  0.5718861E+000  0.1737610E+03  0.7818608E-02  0.1173982E+00
         21   -1    0    0  501  502  0.00000000000E+00  0.00000000000E+00  0.18058992216E+03  0.18058992216E+03  0.00000000000E+00 0. -1.
         21   -1    0    0  502  503 -0.00000000000E+00 -0.00000000000E+00 -0.17144042542E+03  0.17144042542E+03  0.00000000000E+00 0. -1.
          6    1    1    2  501    0 -0.20624394564E+02  0.13546426895E+02  0.32288654333E+02  0.17673547615E+03  0.17200000000E+03 0.  1.
         -6    1    1    2    0  503  0.20624394564E+02 -0.13546426895E+02 -0.23139157594E+02  0.17529487142E+03  0.17200000000E+03 0.  1.
</event>
<event>
 4    1  0.5718861E+000  0.1826493E+03  0.7818608E-02  0.1165263E+00
         21   -1    0    0  501  502  0.00000000000E+00  0.00000000000E+00  0.85202578904E+02  0.85202578904E+02  0.00000000000E+00 0. -1.
         21   -1    0    0  502  503 -0.00000000000E+00 -0.00000000000E+00 -0.73096852883E+03  0.73096852883E+03  0.00000000000E+00 0. -1.
          6    1    1    2  501    0 -0.38096847056E+02  0.48222349893E+02 -0.44801572603E+02  0.18806367457E+03  0.17200000000E+03 0. -1.
         -6    1    1    2    0  503  0.38096847056E+02 -0.48222349893E+02 -0.60096437732E+03  0.62810743316E+03  0.17200000000E+03 0. -1.
</event>
<event>
 4    1  0.5718861E+000  0.1786793E+03  0.7818608E-02  0.1169087E+00
         21   -1    0    0  503  502  0.00000000000E+00  0.00000000000E+00  0.17158056925E+02  0.17158056925E+02  0.00000000000E+00 0. -1.
         21   -1    0    0  501  503 -0.00000000000E+00 -0.00000000000E+00 -0.20013122497E+04  0.20013122497E+04  0.00000000000E+00 0.  1.
          6    1    1    2  501    0 -0.18917805697E+02  0.44546799688E+02 -0.12595742337E+04  0.12721845585E+04  0.17200000000E+03 0. -1.
         -6    1    1    2    0  502  0.18917805697E+02 -0.44546799688E+02 -0.72457995916E+03  0.74628574819E+03  0.17200000000E+03 0. -1.
</event>
<event>
 4    1  0.5718861E+000  0.2153200E+03  0.7818608E-02  0.1137421E+00
         21   -1    0    0  503  502  0.00000000000E+00  0.00000000000E+00  0.30992003901E+03  0.30992003901E+03  0.00000000000E+00 0.  1.
         21   -1    0    0  501  503 -0.00000000000E+00 -0.00000000000E+00 -0.27670612902E+03  0.27670612902E+03  0.00000000000E+00 0. -1.
          6    1    1    2  501    0  0.12463881332E+03  0.35268287462E+02 -0.18219138127E+03  0.28205741489E+03  0.17200000000E+03 0. -1.
         -6    1    1    2    0  502 -0.12463881332E+03 -0.35268287462E+02  0.21540529126E+03  0.30456875314E+03  0.17200000000E+03 0.  1.
</event>
<event>
 4    1  0.5718861E+000  0.1930368E+03  0.7818608E-02  0.1155751E+00
         21   -1    0    0  503  502  0.00000000000E+00  0.00000000000E+00  0.61205007602E+02  0.61205007602E+02  0.00000000000E+00 0.  1.
         21   -1    0    0  501  503 -0.00000000000E+00 -0.00000000000E+00 -0.95492426930E+03  0.95492426930E+03  0.00000000000E+00 0.  1.
          6    1    1    2  501    0  0.82490090958E+02  0.29573224495E+02 -0.75272781998E+03  0.77708581359E+03  0.17200000000E+03 0.  1.
         -6    1    1    2    0  502 -0.82490090958E+02 -0.29573224495E+02 -0.14099144172E+03  0.23904346331E+03  0.17200000000E+03 0.  1.
</event>
<event>
 4    1  0.5718861E+000  0.2809676E+03  0.7818608E-02  0.1095162E+00
         21   -1    0    0  501  502  0.00000000000E+00  0.00000000000E+00  0.29865622022E+03  0.29865622022E+03  0.00000000000E+00 0. -1.
         21   -1    0    0  502  503 -0.00000000000E+00 -0.00000000000E+00 -0.73753664043E+03  0.73753664043E+03  0.00000000000E+00 0.  1.
          6    1    1    2  501    0 -0.22209979549E+03  0.55215361428E+01  0.19555753724E+03  0.34232376033E+03  0.17200000000E+03 0. -1.
         -6    1    1    2    0  503  0.22209979549E+03 -0.55215361428E+01 -0.63443795745E+03  0.69386910031E+03  0.17200000000E+03 0.  1.
</event>
<event>
 4    1  0.5718861E+000  0.2791804E+03  0.7818608E-02  0.1096137E+00
         21   -1    0    0  503  502  0.00000000000E+00  0.00000000000E+00  0.82250550207E+03  0.82250550207E+03  0.00000000000E+00 0. -1.
         21   -1    0    0  501  503 -0.00000000000E+00 -0.00000000000E+00 -0.14534932808E+03  0.14534932808E+03  0.00000000000E+00 0. -1.
          6    1    1    2  501    0 -0.54419947624E+02 -0.21306380115E+03  0.53083771670E+02  0.28418233737E+03  0.17200000000E+03 0. -1.
         -6    1    1    2    0  502  0.54419947624E+02  0.21306380115E+03  0.62407240232E+03  0.68367249279E+03  0.17200000000E+03 0. -1.
</event>
<event>
 4    1  0.5718861E+000  0.2491549E+03  0.7818608E-02  0.1113840E+00
         21   -1    0    0  501  502  0.00000000000E+00  0.00000000000E+00  0.30847482095E+03  0.30847482095E+03  0.00000000000E+00 0.  1.
         21   -1    0    0  502  503 -0.00000000000E+00 -0.00000000000E+00 -0.30084129293E+03  0.30084129293E+03  0.00000000000E+00 0.  1.
          6    1    1    2  501    0  0.25759043420E+02 -0.17841148304E+03  0.17911251772E+03  0.30685416667E+03  0.17200000000E+03 0.  1.
         -6    1    1    2    0  503 -0.25759043420E+02  0.17841148304E+03 -0.17147898970E+03  0.30246194721E+03  0.17200000000E+03 0.  1.
</event>
<event>
 4    1  0.5718861E+000  0.2016974E+03  0.7818608E-02  0.1148315E+00
         21   -1    0    0  501  502  0.00000000000E+00  0.00000000000E+00  0.94552940927E+02  0.94552940927E+02  0.00000000000E+00 0. -1.
         21   -1    0    0  502  503 -0.00000000000E+00 -0.00000000000E+00 -0.88355012527E+03  0.88355012527E+03  0.00000000000E+00 0. -1.
          6    1    1    2  501    0  0.22482844166E+02 -0.10291924272E+03 -0.44207020131E+02  0.20648513126E+03  0.17200000000E+03 0. -1.
         -6    1    1    2    0  503 -0.22482844166E+02  0.10291924272E+03 -0.74479016422E+03  0.77161793494E+03  0.17200000000E+03 0. -1.
</event>
<event>
 4    1  0.5718861E+000  0.2801188E+03  0.7818608E-02  0.1095624E+00
         21   -1    0    0  503  502  0.00000000000E+00  0.00000000000E+00  0.53729505479E+03  0.53729505479E+03  0.00000000000E+00 0. -1.
         21   -1    0    0  501  503 -0.00000000000E+00 -0.00000000000E+00 -0.14800828350E+03  0.14800828350E+03  0.00000000000E+00 0.  1.
          6    1    1    2  501    0 -0.21882520169E+03 -0.31592049787E+02  0.15512833372E+03  0.32020513179E+03  0.17200000000E+03 0.  1.
         -6    1    1    2    0  502  0.21882520169E+03  0.31592049787E+02  0.23415843757E+03  0.36509820650E+03  0.17200000000E+03 0.  1.
</event>
<event>
 4    1  0.5718861E+000  0.1993321E+03  0.7818608E-02  0.1150304E+00
         21   -1    0    0  503  502  0.00000000000E+00  0.00000000000E+00  0.56445116877E+02  0.56445116877E+02  0.00000000000E+00 0.  1.
         21   -1    0    0  501  503 -0.00000000000E+00 -0.00000000000E+00 -0.70597023971E+03  0.70597023971E+03  0.00000000000E+00 0.  1.
          6    1    1    2  501    0 -0.96969475270E+02 -0.27316505943E+02 -0.30425689965E+03  0.36373827351E+03  0.17200000000E+03 0. -1.
         -6    1    1    2    0  502  0.96969475270E+02  0.27316505943E+02 -0.34526822317E+03  0.39867708307E+03  0.17200000000E+03 0. -1.
</event>
<event>
 4    1  0.5718861E+000  0.2758181E+03  0.7818608E-02  0.1097995E+00
         21   -1    0    0  503  502  0.00000000000E+00  0.00000000000E+00  0.20910641635E+03  0.20910641635E+03  0.00000000000E+00 0. -1.
         21   -1    0    0  501  503 -0.00000000000E+00 -0.00000000000E+00 -0.36381815712E+03  0.36381815712E+03  0.00000000000E+00 0. -1.
          6    1    1    2  501    0  0.35987505839E+02  0.21259469600E+03 -0.78447960598E+02  0.28675719323E+03  0.17200000000E+03 0. -1.
         -6    1    1    2    0  502 -0.35987505839E+02 -0.21259469600E+03 -0.76263780173E+02  0.28616738024E+03  0.17200000000E+03 0. -1.
</event>
<event>
 4    1  0.5718861E+000  0.2629310E+03  0.7818608E-02  0.1105395E+00
         21   -1    0    0  503  502  0.00000000000E+00  0.00000000000E+00  0.78410503531E+02  0.78410503531E+02  0.00000000000E+00 0. -1.
         21   -1    0    0  501  503 -0.00000000000E+00 -0.00000000000E+00 -0.99519143968E+03  0.99519143968E+03  0.00000000000E+00 0.  1.
          6    1    1    2  501    0  0.60331101228E+02  0.18949628949E+03 -0.63968587490E+03  0.69161456322E+03  0.17200000000E+03 0. -1.
         -6    1    1    2    0  502 -0.60331101228E+02 -0.18949628949E+03 -0.27709506125E+03  0.38198737999E+03  0.17200000000E+03 0. -1.
</event>
<event>
 4    1  0.5718861E+000  0.1775174E+03  0.7818608E-02  0.1170228E+00
         21   -1    0    0  501  502  0.00000000000E+00  0.00000000000E+00  0.67938683952E+03  0.67938683952E+03  0.00000000000E+00 0.  1.
         21   -1    0    0  502  503 -0.00000000000E+00 -0.00000000000E+00 -0.49358735053E+02  0.49358735053E+02  0.00000000000E+00 0.  1.
          6    1    1    2  501    0 -0.27043138888E+02  0.34599012246E+02  0.40447131196E+03  0.44171197087E+03  0.17200000000E+03 0.  1.
         -6    1    1    2    0  503  0.27043138888E+02 -0.34599012246E+02  0.22555679250E+03  0.28703360370E+03  0.17200000000E+03 0.  1.
</event>
<event>
 4    1  0.5718861E+000  0.1754859E+03  0.7818608E-02  0.1172245E+00
         21   -1    0    0  503  502  0.00000000000E+00  0.00000000000E+00  0.35413308593E+03  0.35413308593E+03  0.00000000000E+00 0.  1.
         21   -1    0    0  501  503 -0.00000000000E+00 -0.00000000000E+00 -0.13071237290E+03  0.13071237290E+03  0.00000000000E+00 0.  1.
          6    1    1    2  501    0 -0.31780641275E+02 -0.14187458547E+02 -0.28544360121E+02  0.17779222040E+03  0.17200000000E+03 0.  1.
         -6    1    1    2    0  502  0.31780641275E+02  0.14187458547E+02  0.25196507315E+03  0.30705323843E+03  0.17200000000E+03 0.  1.
</event>
<event>
 4    1  0.5718861E+000  0.2136609E+03  0.7818608E-02  0.1138699E+00
         21   -1    0    0  501  502  0.00000000000E+00  0.00000000000E+00  0.16139052424E+03  0.16139052424E+03  0.00000000000E+00 0. -1.
         21   -1    0    0  502  503 -0.00000000000E+00 -0.00000000000E+00 -0.43658842394E+03  0.43658842394E+03  0.00000000000E+00 0.  1.
          6    1    1    2  501    0  0.12663919414E+02  0.12612140466E+03  0.39818508939E+02  0.21733958963E+03  0.17200000000E+03 0. -1.
         -6    1    1    2    0  503 -0.12663919414E+02 -0.12612140466E+03 -0.31501640863E+03  0.38063935855E+03  0.17200000000E+03 0.  1.
</event>
<event>
 4    1  0.5718861E+000  0.2023923E+03  0.7818608E-02  0.1147736E+00
         21   -1    0    0  501  502  0.00000000000E+00  0.00000000000E+00  0.13872057033E+03  0.13872057033E+03  0.00000000000E+00 0. -1.
         21   -1    0    0  502  503 -0.00000000000E+00 -0.00000000000E+00 -0.29916564809E+03  0.29916564809E+03  0.00000000000E+00 0. -1.
          6    1    1    2  501    0 -0.17736020935E+02 -0.10518598357E+03 -0.55299328844E+02  0.20981104201E+03  0.17200000000E+03 0. -1.
         -6    1    1    2    0  503  0.17736020935E+02  0.10518598357E+03 -0.10514574892E+03  0.22807517641E+03  0.17200000000E+03 0. -1.
</event>
<event>
 4    1  0.5718861E+000  0.4022190E+03  0.7818608E-02  0.1043014E+00
         21   -1    0    0  503  502  0.00000000000E+00  0.00000000000E+00  0.13873787126E+04  0.13873787126E+04  0.00000000000E+00 0. -1.
         21   -1    0    0  501  503 -0.00000000000E+00 -0.00000000000E+00 -0.20514281663E+03  0.20514281663E+03  0.00000000000E+00 0.  1.
          6    1    1    2  501    0 -0.28820226210E+03  0.22166542342E+03  0.68019945077E+02  0.40792991647E+03  0.17200000000E+03 0.  1.
         -6    1    1    2    0  502  0.28820226210E+03 -0.22166542342E+03  0.11142159509E+04  0.11845916128E+04  0.17200000000E+03 0. -1.
</event>
<event>
 4    1  0.5718861E+000  0.4489404E+03  0.7818608E-02  0.1028038E+00
         21   -1    0    0  503  502  0.00000000000E+00  0.00000000000E+00  0.70122071542E+03  0.70122071542E+03  0.00000000000E+00 0. -1.
         21   -1    0    0  501  503 -0.00000000000E+00 -0.00000000000E+00 -0.28792557187E+03  0.28792557187E+03  0.00000000000E+00 0. -1.
          6    1    1    2  501    0  0.41283418886E+03  0.39133736236E+02  0.18600103643E+03  0.48594639864E+03  0.17200000000E+03 0. -1.
         -6    1    1    2    0  502 -0.41283418886E+03 -0.39133736236E+02  0.22729410711E+03  0.50319988864E+03  0.17200000000E+03 0. -1.
</event>
<event>
 4    1  0.5718861E+000  0.1889751E+03  0.7818608E-02  0.1159389E+00
         21   -1    0    0  501  502  0.00000000000E+00  0.00000000000E+00  0.27314504097E+03  0.27314504097E+03  0.00000000000E+00 0.  1.
         21   -1    0    0  502  503 -0.00000000000E+00 -0.00000000000E+00 -0.34522347392E+03  0.34522347392E+03  0.00000000000E+00 0.  1.
          6    1    1    2  501    0 -0.77022123397E+02 -0.13970563773E+02  0.20766435959E+03  0.28077761732E+03  0.17200000000E+03 0.  1.
         -6    1    1    2    0  503  0.77022123397E+02  0.13970563773E+02 -0.27974279254E+03  0.33759089757E+03  0.17200000000E+03 0.  1.
</event>
<event>
 4    1  0.5718861E+000  0.2112155E+03  0.7818608E-02  0.1140607E+00
         21   -1    0    0  503  502  0.00000000000E+00  0.00000000000E+00  0.17679773003E+04  0.17679773003E+04  0.00000000000E+00 0. -1.
         21   -1    0    0  501  503 -0.00000000000E+00 -0.00000000000E+00 -0.28489066212E+02  0.28489066212E+02  0.00000000000E+00 0.  1.
          6    1    1    2  501    0  0.65453120330E+02 -0.10365262006E+03  0.56609378210E+03  0.60421365984E+03  0.17200000000E+03 0.  1.
         -6    1    1    2    0  502 -0.65453120330E+02  0.10365262006E+03  0.11733944520E+04  0.11922527066E+04  0.17200000000E+03 0. -1.
</event>
<event>
 4    1  0.5718861E+000  0.3553036E+03  0.7818608E-02  0.1060459E+00
         21   -1    0    0  501  502  0.00000000000E+00  0.00000000000E+00  0.27163408182E+03  0.27163408182E+03  0.00000000000E+00 0. -1.
         21   -1    0    0  502  503 -0.00000000000E+00 -0.00000000000E+00 -0.67539834420E+03  0.67539834420E+03  0.00000000000E+00 0.  1.
          6    1    1    2  501    0  0.13687600695E+03 -0.27914442696E+03  0.62564943591E+02  0.36077004387E+03  0.17200000000E+03 0. -1.
         -6    1    1    2    0  503 -0.13687600695E+03  0.27914442696E+03 -0.46632920598E+03  0.58626238216E+03  0.17200000000E+03 0.  1.
</event>
<event>
 4    1  0.5718861E+000  0.2366587E+03  0.7818608E-02  0.1122039E+00
         21   -1    0    0  501  502  0.00000000000E+00  0.00000000000E+00  0.22330311492E+03  0.22330311492E+03  0.00000000000E+00 0. -1.
         21   -1    0    0  502  503 -0.00000000000E+00 -0.00000000000E+00 -0.28928490896E+03  0.28928490896E+03  0.00000000000E+00 0. -1.
          6    1    1    2  501    0 -0.83587091481E+02  0.13941500302E+03 -0.12645544575E+03  0.26832503552E+03  0.17200000000E+03 0. -1.
         -6    1    1    2    0  503  0.83587091481E+02 -0.13941500302E+03  0.60473651721E+02  0.24426298836E+03  0.17200000000E+03 0. -1.
</event>
<event>
 4    1  0.5718861E+000  0.2435167E+03  0.7818608E-02  0.1117472E+00
         21   -1    0    0  501  502  0.00000000000E+00  0.00000000000E+00  0.24447571764E+03  0.24447571764E+03  0.00000000000E+00 0. -1.
         21   -1    0    0  502  503 -0.00000000000E+00 -0.00000000000E+00 -0.24659349638E+03  0.24659349638E+03  0.00000000000E+00 0. -1.
          6    1    1    2  501    0 -0.11766221664E+03 -0.12598403008E+03 -0.32455820174E+02  0.24567000901E+03  0.17200000000E+03 0. -1.
         -6    1    1    2    0  503  0.11766221664E+03  0.12598403008E+03  0.30338041437E+02  0.24539920501E+03  0.17200000000E+03 0. -1.
</event>
<event>
 4    1  0.5718861E+000  0.1891830E+03  0.7818608E-02  0.1159200E+00
         21   -1    0    0  501  502  0.00000000000E+00  0.00000000000E+00  0.21466778603E+03  0.21466778603E+03  0.00000000000E+00 0. -1.
         21   -1    0    0  502  503 -0.00000000000E+00 -0.00000000000E+00 -0.23903083665E+03  0.23903083665E+03  0.00000000000E+00 0.  1.
          6    1    1    2  501    0  0.37040887831E+01 -0.78692416870E+02  0.11258582521E+03  0.22014946011E+03  0.17200000000E+03 0. -1.
         -6    1    1    2    0  503 -0.37040887831E+01  0.78692416870E+02 -0.13694887584E+03  0.23354916258E+03  0.17200000000E+03 0.  1.
</event>
<event>
 4    1  0.5718861E+000  0.3754236E+03  0.7818608E-02  0.1052638E+00
         21   -1    0    0  501  502  0.00000000000E+00  0.00000000000E+00  0.15636305185E+04  0.15636305185E+04  0.00000000000E+00 0.  1.
         21   -1    0    0  502  503 -0.00000000000E+00 -0.00000000000E+00 -0.10858474587E+03  0.10858474587E+03  0.00000000000E+00 0. -1.
          6    1    1    2  501    0  0.17220419150E+03  0.28584022188E+03  0.10721383307E+04  0.11359680965E+04  0.17200000000E+03 0. -1.
         -6    1    1    2    0  503 -0.17220419150E+03 -0.28584022188E+03  0.38290744199E+03  0.53624716796E+03  0.17200000000E+03 0.  1.
</event>
<event>
 4    1  0.5718861E+000  0.2124671E+03  0.7818608E-02  0.1139627E+00
         21   -1    0    0  501  502  0.00000000000E+00  0.00000000000E+00  0.10903685508E+03  0.10903685508E+03  0.00000000000E+00 0.  1.
         21   -1    0    0  502  503 -0.00000000000E+00 -0.00000000000E+00 -0.47019157000E+03  0.47019157000E+03  0.00000000000E+00 0. -1.
          6    1    1    2  501    0 -0.10363445365E+03 -0.69413007531E+02 -0.80466237190E+02  0.22719392801E+03  0.17200000000E+03 0. -1.
         -6    1    1    2    0  503  0.10363445365E+03  0.69413007531E+02 -0.28068847773E+03  0.35203449707E+03  0.17200000000E+03 0.  1.
</event>
<event>
 4    1  0.5718861E+000  0.1945252E+03  0.7818608E-02  0.1154442E+00
         21   -1    0    0  503  502  0.00000000000E+00  0.00000000000E+00  0.31324434185E+03  0.31324434185E+03  0.00000000000E+00 0.  1.
         21   -1    0    0  501  503 -0.00000000000E+00 -0.00000000000E+00 -0.18099146609E+03  0.18099146609E+03  0.00000000000E+00 0.  1.
          6    1    1    2  501    0 -0.26481809866E+02  0.86918248827E+02 -0.76382097250E+02  0.20898395396E+03  0.17200000000E+03 0.  1.
         -6    1    1    2    0  502  0.26481809866E+02 -0.86918248827E+02  0.20863497301E+03  0.28525185398E+03  0.17200000000E+03 0.  1.
</event>
<event>
 4    1  0.5718861E+000  0.1829831E+03  0.7818608E-02  0.1164947E+00
         21   -1    0    0  501  502  0.00000000000E+00  0.00000000000E+00  0.10912973175E+03  0.10912973175E+03  0.00000000000E+00 0. -1.
         21   -1    0    0  502  503 -0.00000000000E+00 -0.00000000000E+00 -0.31308348389E+03  0.31308348389E+03  0.00000000000E+00 0. -1.
          6    1    1    2  501    0  0.57063866307E+02 -0.25348505363E+02 -0.72109865253E+02  0.19667908946E+03  0.17200000000E+03 0. -1.
         -6    1    1    2    0  503 -0.57063866307E+02  0.25348505363E+02 -0.13184388689E+03  0.22553412618E+03  0.17200000000E+03 0. -1.
</event>
<event>
 4    1  0.5718861E+000  0.2078671E+03  0.7818608E-02  0.1143266E+00
         21   -1    0    0  501  502  0.00000000000E+00  0.00000000000E+00  0.17731082184E+04  0.17731082184E+04  0.00000000000E+00 0.  1.
         21   -1    0    0  502  503 -0.00000000000E+00 -0.00000000000E+00 -0.55456238361E+02  0.55456238361E+02  0.00000000000E+00 0. -1.
          6    1    1    2  501    0  0.11478175607E+03 -0.21210066080E+02  0.15433627255E+04  0.15572980514E+04  0.17200000000E+03 0.  1.
         -6    1    1    2    0  503 -0.11478175607E+03  0.21210066080E+02  0.17428925454E+03  0.27126640536E+03  0.17200000000E+03 0. -1.
</event>
<event>
 4    1  0.5718861E+000  0.1972122E+03  0.7818608E-02  0.1152113E+00
         21   -1    0    0  503  502  0.00000000000E+00  0.00000000000E+00  0.11979298581E+04  0.11979298581E+04  0.00000000000E+00 0.  1.
         21   -1    0    0  501  503 -0.00000000000E+00 -0.00000000000E+00 -0.65454392530E+02  0.65454392530E+02  0.00000000000E+00 0.  1.
          6    1    1    2  501    0 -0.96476442136E+02  0.97812121021E+00  0.11778883515E+03  0.22971040528E+03  0.17200000000E+03 0.  1.
         -6    1    1    2    0  502  0.96476442136E+02 -0.97812121021E+00  0.10146866304E+04  0.10336738453E+04  0.17200000000E+03 0.  1.
</event>
<event>
 4    1  0.5718861E+000  0.1973264E+03  0.7818608E-02  0.1152015E+00
         21   -1    0    0  501  502  0.00000000000E+00  0.00000000000E+00  0.66194459608E+03  0.66194459608E+03  0.00000000000E+00 0. -1.
         21   -1    0    0  502  503 -0.00000000000E+00 -0.00000000000E+00 -0.15959674465E+03  0.15959674465E+03  0.00000000000E+00 0.  1.
          6    1    1    2  501    0  0.46077686950E+02 -0.85032661843E+02  0.57758182140E+03  0.61035929355E+03  0.17200000000E+03 0. -1.
         -6    1    1    2    0  503 -0.46077686950E+02  0.85032661843E+02 -0.75233969967E+02  0.21118204718E+03  0.17200000000E+03 0.  1.
</event>
<event>
 4    1  0.5718861E+000  0.2266134E+03  0.7818608E-02  0.1129046E+00
         21   -1    0    0  501  502  0.00000000000E+00  0.00000000000E+00  0.20658874572E+03  0.20658874572E+03  0.00000000000E+00 0.  1.
         21   -1    0    0  502  503 -0.00000000000E+00 -0.00000000000E+00 -0.30914007566E+03  0.30914007566E+03  0.00000000000E+00 0. -1.
          6    1    1    2  501    0 -0.89534657930E+02 -0.11727390686E+03  0.62857151884E+02  0.23516939798E+03  0.17200000000E+03 0.  1.
         -6    1    1    2    0  503  0.89534657930E+02  0.11727390686E+03 -0.16540848182E+03  0.28055942340E+03  0.17200000000E+03 0. -1.
</event>
<event>
 4    1  0.5718861E+000  0.2077793E+03  0.7818608E-02  0.1143337E+00
         21   -1    0    0  503  502  0.00000000000E+00  0.00000000000E+00  0.51140258451E+03  0.51140258451E+03  0.00000000000E+00 0.  1.
         21   -1    0    0  501  503 -0.00000000000E+00 -0.00000000000E+00 -0.88226570732E+02  0.88226570732E+02  0.00000000000E+00 0.  1.
          6    1    1    2  501    0 -0.85400871177E+02 -0.79340485571E+02  0.27387005846E+03  0.34376886184E+03  0.17200000000E+03 0.  1.
         -6    1    1    2    0  502  0.85400871177E+02  0.79340485571E+02  0.14930595532E+03  0.25586029341E+03  0.17200000000E+03 0.  1.
</event>
<event>
 4    1  0.5718861E+000  0.2027104E+03  0.7818608E-02  0.1147472E+00
         21   -1    0    0  503  502  0.00000000000E+00  0.00000000000E+00  0.32818611879E+02  0.32818611879E+02  0.00000000000E+00 0.  1.
         21   -1    0    0  501  503 -0.00000000000E+00 -0.00000000000E+00 -0.14342977991E+04  0.14342977991E+04  0.00000000000E+00 0.  1.
          6    1    1    2  501    0 -0.40216092237E+01  0.10719771839E+03 -0.43927647620E+03  0.48379266914E+03  0.17200000000E+03 0.  1.
         -6    1    1    2    0  502  0.40216092237E+01 -0.10719771839E+03 -0.96220271106E+03  0.98332374188E+03  0.17200000000E+03 0.  1.
</event>
<event>
 4    1  0.5718861E+000  0.2865052E+03  0.7818608E-02  0.1092188E+00
         21   -1    0    0  503  502  0.00000000000E+00  0.00000000000E+00  0.16165474434E+04  0.16165474434E+04  0.00000000000E+00 0.  1.
         21   -1    0    0  501  503 -0.00000000000E+00 -0.00000000000E+00 -0.10831683082E+03  0.10831683082E+03  0.00000000000E+00 0.  1.
          6    1    1    2  501    0 -0.10468992462E+03 -0.20381671795E+03  0.12554040651E+03  0.31280285884E+03  0.17200000000E+03 0.  1.
         -6    1    1    2    0  502  0.10468992462E+03  0.20381671795E+03  0.13826902061E+04  0.14120614154E+04  0.17200000000E+03 0.  1.
</event>
<event>
 4    1  0.5718861E+000  0.1955089E+03  0.7818608E-02  0.1153584E+00
         21   -1    0    0  503  502  0.00000000000E+00  0.00000000000E+00  0.17723132458E+03  0.17723132458E+03  0.00000000000E+00 0. -1.
         21   -1    0    0  501  503 -0.00000000000E+00 -0.00000000000E+00 -0.30512207527E+03  0.30512207527E+03  0.00000000000E+00 0. -1.
          6    1    1    2  501    0 -0.10627428928E+02 -0.92340533664E+02 -0.19452953623E+03  0.27579966800E+03  0.17200000000E+03 0. -1.
         -6    1    1    2    0  502  0.10627428928E+02  0.92340533664E+02  0.66638785543E+02  0.20655373185E+03  0.17200000000E+03 0. -1.
</event>
<event>
 4    1  0.5718861E+000  0.1771602E+03  0.7818608E-02  0.1170580E+00
         21   -1    0    0  501  502  0.00000000000E+00  0.00000000000E+00  0.19468980855E+03  0.19468980855E+03  0.00000000000E+00 0. -1.
         21   -1    0    0  502  503 -0.00000000000E+00 -0.00000000000E+00 -0.17391824179E+03  0.17391824179E+03  0.00000000000E+00 0. -1.
          6    1    1    2  501    0  0.40657607334E+02  0.12194246117E+02  0.60207975757E+02  0.18711157371E+03  0.17200000000E+03 0. -1.
         -6    1    1    2    0  503 -0.40657607334E+02 -0.12194246117E+02 -0.39436409005E+02  0.18149647663E+03  0.17200000000E+03 0. -1.
</event>
<event>
 4    1  0.5718861E+000  0.2651986E+03  0.7818608E-02  0.1104059E+00
         21   -1    0    0  503  502  0.00000000000E+00  0.00000000000E+00  0.41186793020E+03  0.41186793020E+03  0.00000000000E+00 0.  1.
         21   -1    0    0  501  503 -0.00000000000E+00 -0.00000000000E+00 -0.25930116252E+03  0.25930116252E+03  0.00000000000E+00 0. -1.
          6    1    1    2  501    0  0.20148149880E+03 -0.12309174759E+02 -0.11981493272E+03  0.29100846765E+03  0.17200000000E+03 0. -1.
         -6    1    1    2    0  502 -0.20148149880E+03  0.12309174759E+02  0.27238170039E+03  0.38016062507E+03  0.17200000000E+03 0.  1.
</event>
<event>
 4    1  0.5718861E+000  0.2518941E+03  0.7818608E-02  0.1112114E+00
         21   -1    0    0  501  502  0.00000000000E+00  0.00000000000E+00  0.58114129140E+02  0.58114129140E+02  0.00000000000E+00 0.  1.
         21   -1    0    0  502  503 -0.00000000000E+00 -0.00000000000E+00 -0.11681804743E+04  0.11681804743E+04  0.00000000000E+00 0. -1.
          6    1    1    2  501    0 -0.10024005208E+03 -0.15433267583E+03 -0.39827833807E+03  0.47124969755E+03  0.17200000000E+03 0.  1.
         -6    1    1    2    0  503  0.10024005208E+03  0.15433267583E+03 -0.71178800712E+03  0.75504490592E+03  0.17200000000E+03 0. -1.
</event>
<event>
 4    1  0.5718861E+000  0.2050467E+03  0.7818608E-02  0.1145550E+00
         21   -1    0    0  501  502  0.00000000000E+00  0.00000000000E+00  0.68737868604E+03  0.68737868604E+03  0.00000000000E+00 0. -1.
         21   -1    0    0  502  503 -0.00000000000E+00 -0.00000000000E+00 -0.72914171500E+02  0.72914171500E+02  0.00000000000E+00 0. -1.
          6    1    1    2  501    0  0.10614950702E+03  0.34531689865E+02  0.45982413098E+03  0.50347034359E+03  0.17200000000E+03 0. -1.
         -6    1    1    2    0  503 -0.10614950702E+03 -0.34531689865E+02  0.15464038356E+03  0.25682251395E+03  0.17200000000E+03 0. -1.
</event>
<event>
 4    1  0.5718861E+000  0.2152196E+03  0.7818608E-02  0.1137498E+00
         21   -1    0    0  501  502  0.00000000000E+00  0.00000000000E+00  0.13752377407E+03  0.13752377407E+03  0.00000000000E+00 0. -1.
         21   -1    0    0  502  503 -0.00000000000E+00 -0.00000000000E+00 -0.65715941535E+03  0.65715941535E+03  0.00000000000E+00 0. -1.
          6    1    1    2  501    0  0.75568316635E+02  0.10499953238E+03  0.17603725454E+02  0.21593833247E+03  0.17200000000E+03 0. -1.
         -6    1    1    2    0  503 -0.75568316635E+02 -0.10499953238E+03 -0.53723936674E+03  0.57874485695E+03  0.17200000000E+03 0. -1.
</event>
<event>
 4    1  0.5718861E+000  0.1819428E+03  0.7818608E-02  0.1165936E+00
         21   -1    0    0  501  502  0.00000000000E+00  0.00000000000E+00  0.22199945104E+03  0.22199945104E+03  0.00000000000E+00 0.  1.
         21   -1    0    0  502  503 -0.00000000000E+00 -0.00000000000E+00 -0.15158227129E+03  0.15158227129E+03  0.00000000000E+00 0.  1.
          6    1    1    2  501    0  0.29341788553E+02 -0.51558038867E+02  0.59045466529E+02  0.19128392260E+03  0.17200000000E+03 0.  1.
         -6    1    1    2    0  503 -0.29341788553E+02  0.51558038867E+02  0.11371713217E+02  0.18229779974E+03  0.17200000000E+03 0.  1.
</event>
<event>
 4    1  0.5718861E+000  0.2618030E+03  0.7818608E-02  0.1106065E+00
         21   -1    0    0  501  502  0.00000000000E+00  0.00000000000E+00  0.68364928138E+03  0.68364928138E+03  0.00000000000E+00 0.  1.
         21   -1    0    0  502  503 -0.00000000000E+00 -0.00000000000E+00 -0.11466738614E+03  0.11466738614E+03  0.00000000000E+00 0. -1.
          6    1    1    2  501    0  0.11742739450E+03  0.15864312659E+03  0.14299029072E+03  0.29830698590E+03  0.17200000000E+03 0. -1.
         -6    1    1    2    0  503 -0.11742739450E+03 -0.15864312659E+03  0.42599160451E+03  0.50000968162E+03  0.17200000000E+03 0.  1.
</event>
<event>
 4    1  0.5718861E+000  0.1819217E+03  0.7818608E-02  0.1165956E+00
         21   -1    0    0  503  502  0.00000000000E+00  0.00000000000E+00  0.14923207905E+04  0.14923207905E+04  0.00000000000E+00 0.  1.
         21   -1    0    0  501  503 -0.00000000000E+00 -0.00000000000E+00 -0.25608419689E+02  0.25608419689E+02  0.00000000000E+00 0. -1.
          6    1    1    2  501    0  0.55867701695E+02 -0.19755773935E+02  0.45554185259E+03  0.49052407704E+03  0.17200000000E+03 0. -1.
         -6    1    1    2    0  502 -0.55867701695E+02  0.19755773935E+02  0.10111705182E+04  0.10274051331E+04  0.17200000000E+03 0. -1.
</event>
<event>
 4    1  0.5718861E+000  0.2272952E+03  0.7818608E-02  0.1128558E+00
         21   -1    0    0  501  502  0.00000000000E+00  0.00000000000E+00  0.27622362270E+04  0.27622362270E+04  0.00000000000E+00 0. -1.
         21   -1    0    0  502  503 -0.00000000000E+00 -0.00000000000E+00 -0.46463885135E+02  0.46463885135E+02  0.00000000000E+00 0. -1.
          6    1    1    2  501    0 -0.12603408266E+03 -0.78705325670E+02  0.24433900960E+04  0.24539393391E+04  0.17200000000E+03 0. -1.
         -6    1    1    2    0  503  0.12603408266E+03  0.78705325670E+02  0.27238224581E+03  0.35476077308E+03  0.17200000000E+03 0. -1.
</event>
<event>
 4    1  0.5718861E+000  0.1820044E+03  0.7818608E-02  0.1165877E+00
         21   -1    0    0  503  502  0.00000000000E+00  0.00000000000E+00  0.28493094093E+03  0.28493094093E+03  0.00000000000E+00 0. -1.
         21   -1    0    0  501  503 -0.00000000000E+00 -0.00000000000E+00 -0.14570120424E+03  0.14570120424E+03  0.00000000000E+00 0. -1.
          6    1    1    2  501    0 -0.20858578306E+02  0.55736191671E+02 -0.27176086456E+02  0.18402212646E+03  0.17200000000E+03 0. -1.
         -6    1    1    2    0  502  0.20858578306E+02 -0.55736191671E+02  0.16640582315E+03  0.24661001871E+03  0.17200000000E+03 0. -1.
</event>
<event>
 4    1  0.5718861E+000  0.2657394E+03  0.7818608E-02  0.1103743E+00
         21   -1    0    0  503  502  0.00000000000E+00  0.00000000000E+00  0.19403845292E+03  0.19403845292E+03  0.00000000000E+00 0. -1.
         21   -1    0    0  501  503 -0.00000000000E+00 -0.00000000000E+00 -0.42856508084E+03  0.42856508084E+03  0.00000000000E+00 0.  1.
          6    1    1    2  501    0  0.59792768064E+02  0.19354128272E+03 -0.23815326939E+03  0.35683943582E+03  0.17200000000E+03 0. -1.
         -6    1    1    2    0  502 -0.59792768064E+02 -0.19354128272E+03  0.36266414712E+01  0.26576409795E+03  0.17200000000E+03 0. -1.
</event>
<event>
 4    1  0.5718861E+000  0.1922876E+03  0.7818608E-02  0.1156414E+00
         21   -1    0    0  501  502  0.00000000000E+00  0.00000000000E+00  0.19863797787E+02  0.19863797787E+02  0.00000000000E+00 0.  1.
         21   -1    0    0  502  503 -0.00000000000E+00 -0.00000000000E+00 -0.22238414490E+04  0.22238414490E+04  0.00000000000E+00 0. -1.
          6    1    1    2  501    0  0.69181154809E+02  0.51034010953E+02 -0.64908921820E+03  0.67697216755E+03  0.17200000000E+03 0.  1.
         -6    1    1    2    0  503 -0.69181154809E+02 -0.51034010953E+02 -0.15548884331E+04  0.15667330793E+04  0.17200000000E+03 0. -1.
</event>
<event>
 4    1  0.5718861E+000  0.1940595E+03  0.7818608E-02  0.1154850E+00
         21   -1    0    0  503  502  0.00000000000E+00  0.00000000000E+00  0.39981314508E+02  0.39981314508E+02  0.00000000000E+00 0. -1.
         21   -1    0    0  501  503 -0.00000000000E+00 -0.00000000000E+00 -0.98417828409E+03  0.98417828409E+03  0.00000000000E+00 0.  1.
          6    1    1    2  501    0  0.89432327814E+02 -0.87722370795E+01 -0.57821191495E+03  0.60990828162E+03  0.17200000000E+03 0. -1.
         -6    1    1    2    0  502 -0.89432327814E+02  0.87722370795E+01 -0.36598505463E+03  0.41425131697E+03  0.17200000000E+03 0. -1.
</event>
<event>
 4    1  0.5718861E+000  0.3465679E+03  0.7818608E-02  0.1064033E+00
         21   -1    0    0  503  502  0.00000000000E+00  0.00000000000E+00  0.27285680726E+03  0.27285680726E+03  0.00000000000E+00 0. -1.
         21   -1    0    0  501  503 -0.00000000000E+00 -0.00000000000E+00 -0.46151346721E+03  0.46151346721E+03  0.00000000000E+00 0.  1.
          6    1    1    2  501    0  0.25836420966E+03  0.15418583016E+03 -0.17325127154E+03  0.38746011168E+03  0.17200000000E+03 0. -1.
         -6    1    1    2    0  502 -0.25836420966E+03 -0.15418583016E+03 -0.15405388410E+02  0.34691016279E+03  0.17200000000E+03 0. -1.
</event>
<event>
 4    1  0.5718861E+000  0.2272464E+03  0.7818608E-02  0.1128593E+00
         21   -1    0    0  501  502  0.00000000000E+00  0.00000000000E+00  0.64835784017E+03  0.64835784017E+03  0.00000000000E+00 0. -1.
         21   -1    0    0  502  503 -0.00000000000E+00 -0.00000000000E+00 -0.80804361594E+02  0.80804361594E+02  0.00000000000E+00 0. -1.
          6    1    1    2  501    0  0.14731003178E+03  0.18886362867E+02  0.32737494314E+03  0.39851636548E+03  0.17200000000E+03 0. -1.
         -6    1    1    2    0  503 -0.14731003178E+03 -0.18886362867E+02  0.24017853544E+03  0.33064583628E+03  0.17200000000E+03 0. -1.
</event>
<event>
 4    1  0.5718861E+000  0.1976610E+03  0.7818608E-02  0.1151728E+00
         21   -1    0    0  501  502  0.00000000000E+00  0.00000000000E+00  0.10384194338E+03  0.10384194338E+03  0.00000000000E+00 0.  1.
         21   -1    0    0  502  503 -0.00000000000E+00 -0.00000000000E+00 -0.53721337234E+03  0.53721337234E+03  0.00000000000E+00 0. -1.
          6    1    1    2  501    0 -0.65993924582E+02 -0.71628678711E+02 -0.41231308122E+02  0.20191554290E+03  0.17200000000E+03 0.  1.
         -6    1    1    2    0  503  0.65993924582E+02  0.71628678711E+02 -0.39214012084E+03  0.43913977281E+03  0.17200000000E+03 0. -1.
</event>
<event>
 4    1  0.5718861E+000  0.1754286E+03  0.7818608E-02  0.1172302E+00
         21   -1    0    0  503  502  0.00000000000E+00  0.00000000000E+00  0.27960090108E+03  0.27960090108E+03  0.00000000000E+00 0.  1.
         21   -1    0    0  501  503 -0.00000000000E+00 -0.00000000000E+00 -0.13107226720E+03  0.13107226720E+03  0.00000000000E+00 0.  1.
          6    1    1    2  501    0  0.17442675311E+02  0.29781494816E+02  0.15646246224E+03  0.23506528124E+03  0.17200000000E+03 0. -1.
         -6    1    1    2    0  502 -0.17442675311E+02 -0.29781494816E+02 -0.79338283551E+01  0.17560788703E+03  0.17200000000E+03 0. -1.
</event>
<event>
 4    1  0.5718861E+000  0.1791215E+03  0.7818608E-02  0.1168656E+00
         21   -1    0    0  501  502  0.00000000000E+00  0.00000000000E+00  0.20370439610E+03  0.20370439610E+03  0.00000000000E+00 0. -1.
         21   -1    0    0  502  503 -0.00000000000E+00 -0.00000000000E+00 -0.42495798946E+03  0.42495798946E+03  0.00000000000E+00 0. -1.
          6    1    1    2  501    0  0.49976857450E+02 -0.16857700352E+01  0.13873960682E+03  0.22656832657E+03  0.17200000000E+03 0. -1.
         -6    1    1    2    0  503 -0.49976857450E+02  0.16857700352E+01 -0.35999320019E+03  0.40209405900E+03  0.17200000000E+03 0. -1.
</event>
<event>
 4    1  0.5718861E+000  0.1745428E+03  0.7818608E-02  0.1173192E+00
         21   -1    0    0  501  502  0.00000000000E+00  0.00000000000E+00  0.29763662028E+03  0.29763662028E+03  0.00000000000E+00 0.  1.
         21   -1    0    0  502  503 -0.00000000000E+00 -0.00000000000E+00 -0.14252317428E+03  0.14252317428E+03  0.00000000000E+00 0.  1.
          6    1    1    2  501    0 -0.24054987685E+02  0.17393591407E+02  0.19439041079E+03  0.26125238996E+03  0.17200000000E+03 0.  1.
         -6    1    1    2    0  503  0.24054987685E+02 -0.17393591407E+02 -0.39276964788E+02  0.17890740459E+03  0.17200000000E+03 0.  1.
</event>
<event>
 4    1  0.5718861E+000  0.2742027E+03  0.7818608E-02  0.1098898E+00
         21   -1    0    0  501  502  0.00000000000E+00  0.00000000000E+00  0.69761115204E+03  0.69761115204E+03  0.00000000000E+00 0. -1.
         21   -1    0    0  502  503 -0.00000000000E+00 -0.00000000000E+00 -0.55061835747E+03  0.55061835747E+03  0.00000000000E+00 0.  1.
          6    1    1    2  501    0 -0.93206047643E+02  0.19213467118E+03  0.63320596127E+03  0.69002673034E+03  0.17200000000E+03 0. -1.
         -6    1    1    2    0  503  0.93206047643E+02 -0.19213467118E+03 -0.48621316671E+03  0.55820277917E+03  0.17200000000E+03 0.  1.
</event>
<event>
 4    1  0.5718861E+000  0.2122205E+03  0.7818608E-02  0.1139820E+00
         21   -1    0    0  501  502  0.00000000000E+00  0.00000000000E+00  0.10636144713E+03  0.10636144713E+03  0.00000000000E+00 0.  1.
         21   -1    0    0  502  503 -0.00000000000E+00 -0.00000000000E+00 -0.44099316110E+03  0.44099316110E+03  0.00000000000E+00 0.  1.
          6    1    1    2  501    0 -0.83055910932E+02  0.92494519015E+02 -0.11271236871E+03  0.24029481569E+03  0.17200000000E+03 0.  1.
         -6    1    1    2    0  503  0.83055910932E+02 -0.92494519015E+02 -0.22191934526E+03  0.30705979253E+03  0.17200000000E+03 0.  1.
</event>
<event>
 4    1  0.5718861E+000  0.2196903E+03  0.7818608E-02  0.1134114E+00
         21   -1    0    0  501  502  0.00000000000E+00  0.00000000000E+00  0.12036688700E+03  0.12036688700E+03  0.00000000000E+00 0. -1.
         21   -1    0    0  502  503 -0.00000000000E+00 -0.00000000000E+00 -0.56560326536E+03  0.56560326536E+03  0.00000000000E+00 0.  1.
          6    1    1    2  501    0  0.13539624977E+03  0.18646500882E+02 -0.37574407290E+02  0.22288039961E+03  0.17200000000E+03 0. -1.
         -6    1    1    2    0  503 -0.13539624977E+03 -0.18646500882E+02 -0.40766197107E+03  0.46308975275E+03  0.17200000000E+03 0.  1.
</event>
<event>
 4    1  0.5718861E+000  0.2035042E+03  0.7818608E-02  0.1146816E+00
         21   -1    0    0  501  502  0.00000000000E+00  0.00000000000E+00  0.97963580523E+03  0.97963580523E+03  0.00000000000E+00 0. -1.
         21   -1    0    0  502  503 -0.00000000000E+00 -0.00000000000E+00 -0.12491866569E+03  0.12491866569E+03  0.00000000000E+00 0. -1.
          6    1    1    2  501    0 -0.10809392575E+03 -0.12068776943E+02  0.87656779473E+03  0.89988057592E+03  0.17200000000E+03 0. -1.
         -6    1    1    2    0  503  0.10809392575E+03  0.12068776943E+02 -0.21850655189E+02  0.20467389500E+03  0.17200000000E+03 0. -1.
</event>
<event>
 4    1  0.5718861E+000  0.5586701E+03  0.7818608E-02  0.9995068E-01
         21   -1    0    0  501  502  0.00000000000E+00  0.00000000000E+00  0.89128003471E+03  0.89128003471E+03  0.00000000000E+00 0.  1.
         21   -1    0    0  502  503 -0.00000000000E+00 -0.00000000000E+00 -0.45791841105E+03  0.45791841105E+03  0.00000000000E+00 0. -1.
          6    1    1    2  501    0 -0.51171668545E+03  0.14378550050E+03 -0.11053063476E+03  0.56949912866E+03  0.17200000000E+03 0. -1.
         -6    1    1    2    0  503  0.51171668545E+03 -0.14378550050E+03  0.54389225842E+03  0.77969931710E+03  0.17200000000E+03 0.  1.
</event>
<event>
 4    1  0.5718861E+000  0.3213911E+03  0.7818608E-02  0.1075011E+00
         21   -1    0    0  501  502  0.00000000000E+00  0.00000000000E+00  0.14985251192E+04  0.14985251192E+04  0.00000000000E+00 0. -1.
         21   -1    0    0  502  503 -0.00000000000E+00 -0.00000000000E+00 -0.69143601321E+02  0.69143601321E+02  0.00000000000E+00 0.  1.
          6    1    1    2  501    0  0.26608945398E+03  0.53894770068E+02  0.75833131720E+03  0.82362529733E+03  0.17200000000E+03 0.  1.
         -6    1    1    2    0  503 -0.26608945398E+03 -0.53894770068E+02  0.67105020070E+03  0.74404342321E+03  0.17200000000E+03 0.  1.
</event>
<event>
 4    1  0.5718861E+000  0.2134903E+03  0.7818608E-02  0.1138831E+00
         21   -1    0    0  501  502  0.00000000000E+00  0.00000000000E+00  0.55186550532E+03  0.55186550532E+03  0.00000000000E+00 0.  1.
         21   -1    0    0  502  503 -0.00000000000E+00 -0.00000000000E+00 -0.14063504571E+03  0.14063504571E+03  0.00000000000E+00 0.  1.
          6    1    1    2  501    0  0.19458972155E+02 -0.12496186354E+03 -0.16833022946E+02  0.21415291172E+03  0.17200000000E+03 0.  1.
         -6    1    1    2    0  503 -0.19458972155E+02  0.12496186354E+03  0.42806348256E+03  0.47834763931E+03  0.17200000000E+03 0.  1.
</event>
<event>
 4    1  0.5718861E+000  0.2210091E+03  0.7818608E-02  0.1133133E+00
         21   -1    0    0  503  502  0.00000000000E+00  0.00000000000E+00  0.13173097906E+03  0.13173097906E+03  0.00000000000E+00 0.  1.
         21   -1    0    0  501  503 -0.00000000000E+00 -0.00000000000E+00 -0.51494058207E+03  0.51494058207E+03  0.00000000000E+00 0.  1.
          6    1    1    2  501    0  0.13868864301E+03 -0.51463375874E+01 -0.20533267737E+02  0.22196089650E+03  0.17200000000E+03 0.  1.
         -6    1    1    2    0  502 -0.13868864301E+03  0.51463375874E+01 -0.36267633527E+03  0.42471066464E+03  0.17200000000E+03 0.  1.
</event>
<event>
 4    1  0.5718861E+000  0.1787241E+03  0.7818608E-02  0.1169044E+00
         21   -1    0    0  503  502  0.00000000000E+00  0.00000000000E+00  0.84132844279E+03  0.84132844279E+03  0.00000000000E+00 0. -1.
         21   -1    0    0  501  503 -0.00000000000E+00 -0.00000000000E+00 -0.41765346194E+02  0.41765346194E+02  0.00000000000E+00 0. -1.
          6    1    1    2  501    0 -0.38933008557E+02 -0.29026368286E+02  0.26661542056E+03  0.32097677749E+03  0.17200000000E+03 0. -1.
         -6    1    1    2    0  502  0.38933008557E+02  0.29026368286E+02  0.53294767604E+03  0.56211701149E+03  0.17200000000E+03 0. -1.
</event>
<event>
 4    1  0.5718861E+000  0.3529543E+03  0.7818608E-02  0.1061409E+00
         21   -1    0    0  503  502  0.00000000000E+00  0.00000000000E+00  0.22402795342E+03  0.22402795342E+03  0.00000000000E+00 0. -1.
         21   -1    0    0  501  503 -0.00000000000E+00 -0.00000000000E+00 -0.63335514379E+03  0.63335514379E+03  0.00000000000E+00 0. -1.
          6    1    1    2  501    0  0.21001232469E+03  0.22558270069E+03 -0.35440792114E+03  0.50018167293E+03  0.17200000000E+03 0. -1.
         -6    1    1    2    0  502 -0.21001232469E+03 -0.22558270069E+03 -0.54919269223E+02  0.35720142428E+03  0.17200000000E+03 0. -1.
</event>
<event>
 4    1  0.5718861E+000  0.1766854E+03  0.7818608E-02  0.1171050E+00
         21   -1    0    0  501  502  0.00000000000E+00  0.00000000000E+00  0.54714231030E+02  0.54714231030E+02  0.00000000000E+00 0.  1.
         21   -1    0    0  502  503 -0.00000000000E+00 -0.00000000000E+00 -0.57777708662E+03  0.57777708662E+03  0.00000000000E+00 0. -1.
          6    1    1    2  501    0  0.24467872369E+02 -0.32172017070E+02 -0.29687783510E+03  0.34547672054E+03  0.17200000000E+03 0. -1.
         -6    1    1    2    0  503 -0.24467872369E+02  0.32172017070E+02 -0.22618502049E+03  0.28701459711E+03  0.17200000000E+03 0.  1.
</event>
<event>
 4    1  0.5718861E+000  0.2427593E+03  0.7818608E-02  0.1117968E+00
         21   -1    0    0  501  502  0.00000000000E+00  0.00000000000E+00  0.70879450033E+02  0.70879450033E+02  0.00000000000E+00 0.  1.
         21   -1    0    0  502  503 -0.00000000000E+00 -0.00000000000E+00 -0.85242391895E+03  0.85242391895E+03  0.00000000000E+00 0. -1.
          6    1    1    2  501    0  0.16996730679E+03  0.21428593402E+02 -0.31834179129E+03  0.40034181155E+03  0.17200000000E+03 0.  1.
         -6    1    1    2    0  503 -0.16996730679E+03 -0.21428593402E+02 -0.46320267763E+03  0.52296155743E+03  0.17200000000E+03 0.  1.
</event>
<event>
 4    1  0.5718861E+000  0.2310786E+03  0.7818608E-02  0.1125883E+00
         21   -1    0    0  501  502  0.00000000000E+00  0.00000000000E+00  0.10667854489E+04  0.10667854489E+04  0.00000000000E+00 0. -1.
         21   -1    0    0  502  503 -0.00000000000E+00 -0.00000000000E+00 -0.58078926352E+02  0.58078926352E+02  0.00000000000E+00 0.  1.
          6    1    1    2  501    0 -0.32416883369E+02 -0.15087227751E+03  0.71341317270E+03  0.74990376278E+03  0.17200000000E+03 0. -1.
         -6    1    1    2    0  503  0.32416883369E+02  0.15087227751E+03  0.29529334988E+03  0.37496061251E+03  0.17200000000E+03 0. -1.
</event>
<event>
 4    1  0.5718861E+000  0.1732103E+03  0.7818608E-02  0.1174541E+00
         21   -1    0    0  501  502  0.00000000000E+00  0.00000000000E+00  0.33782582061E+04  0.33782582061E+04  0.00000000000E+00 0. -1.
         21   -1    0    0  502  503 -0.00000000000E+00 -0.00000000000E+00 -0.11422517441E+02  0.11422517441E+02  0.00000000000E+00 0. -1.
          6    1    1    2  501    0 -0.12587021890E+02  0.16105035927E+02  0.24828971430E+04  0.24889315033E+04  0.17200000000E+03 0. -1.
         -6    1    1    2    0  503  0.12587021890E+02 -0.16105035927E+02  0.88393854571E+03  0.90074922031E+03  0.17200000000E+03 0. -1.
</event>
<event>
 4    1  0.5718861E+000  0.1914512E+03  0.7818608E-02  0.1157159E+00
         21   -1    0    0  503  502  0.00000000000E+00  0.00000000000E+00  0.27761760414E+03  0.27761760414E+03  0.00000000000E+00 0. -1.
         21   -1    0    0  501  503 -0.00000000000E+00 -0.00000000000E+00 -0.39154306593E+03  0.39154306593E+03  0.00000000000E+00 0. -1.
          6    1    1    2  501    0 -0.36653800944E+02 -0.75670779254E+02 -0.32935270245E+03  0.38095507683E+03  0.17200000000E+03 0. -1.
         -6    1    1    2    0  502  0.36653800944E+02  0.75670779254E+02  0.21542724066E+03  0.28820559324E+03  0.17200000000E+03 0. -1.
</event>
<event>
 4    1  0.5718861E+000  0.1733560E+03  0.7818608E-02  0.1174393E+00
         21   -1    0    0  503  502  0.00000000000E+00  0.00000000000E+00  0.18053613730E+03  0.18053613730E+03  0.00000000000E+00 0.  1.
         21   -1    0    0  501  503 -0.00000000000E+00 -0.00000000000E+00 -0.16976597914E+03  0.16976597914E+03  0.00000000000E+00 0.  1.
          6    1    1    2  501    0 -0.19534336896E+02 -0.93121666817E+01  0.29821769215E+02  0.17590237260E+03  0.17200000000E+03 0. -1.
         -6    1    1    2    0  502  0.19534336896E+02  0.93121666817E+01 -0.19051611054E+02  0.17439974384E+03  0.17200000000E+03 0. -1.
</event>
<event>
 4    1  0.5718861E+000  0.2319417E+03  0.7818608E-02  0.1125281E+00
         21   -1    0    0  501  502  0.00000000000E+00  0.00000000000E+00  0.46410381756E+03  0.46410381756E+03  0.00000000000E+00 0. -1.
         21   -1    0    0  502  503 -0.00000000000E+00 -0.00000000000E+00 -0.41110728353E+03  0.41110728353E+03  0.00000000000E+00 0. -1.
          6    1    1    2  501    0 -0.60245511622E+02  0.14346918752E+03  0.39731319129E+03  0.46005945422E+03  0.17200000000E+03 0. -1.
         -6    1    1    2    0  503  0.60245511622E+02 -0.14346918752E+03 -0.34431665726E+03  0.41515164688E+03  0.17200000000E+03 0. -1.
</event>
<event>
 4    1  0.5718861E+000  0.2171241E+03  0.7818608E-02  0.1136045E+00
         21   -1    0    0  503  502  0.00000000000E+00  0.00000000000E+00  0.15125732149E+03  0.15125732149E+03  0.00000000000E+00 0. -1.
         21   -1    0    0  501  503 -0.00000000000E+00 -0.00000000000E+00 -0.43174972137E+03  0.43174972137E+03  0.00000000000E+00 0. -1.
          6    1    1    2  501    0 -0.10061847224E+03 -0.86225247800E+02 -0.29397548923E+03  0.36546471592E+03  0.17200000000E+03 0. -1.
         -6    1    1    2    0  502  0.10061847224E+03  0.86225247800E+02  0.13483089345E+02  0.21754232695E+03  0.17200000000E+03 0. -1.
</event>
<event>
 4    1  0.5718861E+000  0.1891820E+03  0.7818608E-02  0.1159201E+00
         21   -1    0    0  501  502  0.00000000000E+00  0.00000000000E+00  0.21510618987E+03  0.21510618987E+03  0.00000000000E+00 0.  1.
         21   -1    0    0  502  503 -0.00000000000E+00 -0.00000000000E+00 -0.17657696673E+03  0.17657696673E+03  0.00000000000E+00 0.  1.
          6    1    1    2  501    0 -0.76727372215E+02  0.17853329219E+02  0.66321967389E+02  0.20047053242E+03  0.17200000000E+03 0.  1.
         -6    1    1    2    0  503  0.76727372215E+02 -0.17853329219E+02 -0.27792744256E+02  0.19121262418E+03  0.17200000000E+03 0.  1.
</event>
<event>
 4    1  0.5718861E+000  0.1967100E+03  0.7818608E-02  0.1152545E+00
         21   -1    0    0  501  502  0.00000000000E+00  0.00000000000E+00  0.76445417257E+03  0.76445417257E+03  0.00000000000E+00 0.  1.
         21   -1    0    0  502  503 -0.00000000000E+00 -0.00000000000E+00 -0.50671636174E+02  0.50671636174E+02  0.00000000000E+00 0.  1.
          6    1    1    2  501    0  0.91518285817E+02  0.27114722556E+02  0.37020549165E+03  0.41922179197E+03  0.17200000000E+03 0.  1.
         -6    1    1    2    0  503 -0.91518285817E+02 -0.27114722556E+02  0.34357704476E+03  0.39590401678E+03  0.17200000000E+03 0.  1.
</event>
<event>
 4    1  0.5718861E+000  0.2209076E+03  0.7818608E-02  0.1133208E+00
         21   -1    0    0  503  502  0.00000000000E+00  0.00000000000E+00  0.58241627066E+03  0.58241627066E+03  0.00000000000E+00 0. -1.
         21   -1    0    0  501  503 -0.00000000000E+00 -0.00000000000E+00 -0.11221005071E+03  0.11221005071E+03  0.00000000000E+00 0. -1.
          6    1    1    2  501    0  0.31700356466E+02  0.13494901775E+03  0.40989628327E+03  0.46563409780E+03  0.17200000000E+03 0. -1.
         -6    1    1    2    0  502 -0.31700356466E+02 -0.13494901775E+03  0.60309936680E+02  0.22899222357E+03  0.17200000000E+03 0. -1.
</event>
<event>
 4    1  0.5718861E+000  0.1833917E+03  0.7818608E-02  0.1164560E+00
         21   -1    0    0  501  502  0.00000000000E+00  0.00000000000E+00  0.89372605575E+03  0.89372605575E+03  0.00000000000E+00 0. -1.
         21   -1    0    0  502  503 -0.00000000000E+00 -0.00000000000E+00 -0.71628770069E+02  0.71628770069E+02  0.00000000000E+00 0. -1.
          6    1    1    2  501    0 -0.62286311840E+02  0.12996777879E+02  0.74358066531E+03  0.76586206768E+03  0.17200000000E+03 0. -1.
         -6    1    1    2    0  503  0.62286311840E+02 -0.12996777879E+02  0.78516620370E+02  0.19949275814E+03  0.17200000000E+03 0. -1.
</event>
<event>
 4    1  0.5718861E+000  0.2269171E+03  0.7818608E-02  0.1128829E+00
         21   -1    0    0  503  502  0.00000000000E+00  0.00000000000E+00  0.40844733974E+03  0.40844733974E+03  0.00000000000E+00 0. -1.
         21   -1    0    0  501  503 -0.00000000000E+00 -0.00000000000E+00 -0.20095472709E+03  0.20095472709E+03  0.00000000000E+00 0. -1.
          6    1    1    2  501    0  0.12209070988E+03  0.83673462309E+02 -0.82262094827E+02  0.24136785614E+03  0.17200000000E+03 0. -1.
         -6    1    1    2    0  502 -0.12209070988E+03 -0.83673462309E+02  0.28975470747E+03  0.36803421069E+03  0.17200000000E+03 0. -1.
</event>
<event>
 4    1  0.5718861E+000  0.2068095E+03  0.7818608E-02  0.1144118E+00
         21   -1    0    0  503  502  0.00000000000E+00  0.00000000000E+00  0.13286767010E+03  0.13286767010E+03  0.00000000000E+00 0.  1.
         21   -1    0    0  501  503 -0.00000000000E+00 -0.00000000000E+00 -0.34765418725E+03  0.34765418725E+03  0.00000000000E+00 0.  1.
          6    1    1    2  501    0 -0.11262742429E+03  0.22388241730E+02 -0.42000585905E+02  0.21103132300E+03  0.17200000000E+03 0.  1.
         -6    1    1    2    0  502  0.11262742429E+03 -0.22388241730E+02 -0.17278593124E+03  0.26949053435E+03  0.17200000000E+03 0.  1.
</event>
<event>
 4    1  0.5718861E+000  0.1837775E+03  0.7818608E-02  0.1164196E+00
         21   -1    0    0  501  502  0.00000000000E+00  0.00000000000E+00  0.58920471358E+03  0.58920471358E+03  0.00000000000E+00 0. -1.
         21   -1    0    0  502  503 -0.00000000000E+00 -0.00000000000E+00 -0.60574581952E+02  0.60574581952E+02  0.00000000000E+00 0.  1.
          6    1    1    2  501    0 -0.53539485880E+02 -0.36382371753E+02  0.33960412515E+03  0.38614131525E+03  0.17200000000E+03 0. -1.
         -6    1    1    2    0  503  0.53539485880E+02  0.36382371753E+02  0.18902600647E+03  0.26363798028E+03  0.17200000000E+03 0. -1.
</event>
<event>
 4    1  0.5718861E+000  0.1807793E+03  0.7818608E-02  0.1167051E+00
         21   -1    0    0  503  502  0.00000000000E+00  0.00000000000E+00  0.58944752124E+02  0.58944752124E+02  0.00000000000E+00 0.  1.
         21   -1    0    0  501  503 -0.00000000000E+00 -0.00000000000E+00 -0.56250802479E+03  0.56250802479E+03  0.00000000000E+00 0.  1.
          6    1    1    2  501    0  0.23121033752E+02  0.50621965649E+02 -0.28900123556E+03  0.34088543495E+03  0.17200000000E+03 0.  1.
         -6    1    1    2    0  502 -0.23121033752E+02 -0.50621965649E+02 -0.21456203711E+03  0.28056734196E+03  0.17200000000E+03 0.  1.
</event>
<event>
 4    1  0.5718861E+000  0.1757574E+03  0.7818608E-02  0.1171973E+00
         21   -1    0    0  503  502  0.00000000000E+00  0.00000000000E+00  0.58248137795E+02  0.58248137795E+02  0.00000000000E+00 0. -1.
         21   -1    0    0  501  503 -0.00000000000E+00 -0.00000000000E+00 -0.97870519870E+03  0.97870519870E+03  0.00000000000E+00 0. -1.
          6    1    1    2  501    0 -0.11001604190E+02 -0.34432806344E+02 -0.81116195828E+03  0.82998456372E+03  0.17200000000E+03 0. -1.
         -6    1    1    2    0  502  0.11001604190E+02  0.34432806344E+02 -0.10929510263E+03  0.20696877278E+03  0.17200000000E+03 0. -1.
</event>
<event>
 4    1  0.5718861E+000  0.1747720E+03  0.7818608E-02  0.1172961E+00
         21   -1    0    0  503  502  0.00000000000E+00  0.00000000000E+00  0.15678838835E+03  0.15678838835E+03  0.00000000000E+00 0. -1.
         21   -1    0    0  501  503 -0.00000000000E+00 -0.00000000000E+00 -0.22125808651E+03  0.22125808651E+03  0.00000000000E+00 0. -1.
          6    1    1    2  501    0 -0.30906206317E+02  0.24631029438E+01  0.33107373446E+02  0.17788018058E+03  0.17200000000E+03 0. -1.
         -6    1    1    2    0  502  0.30906206317E+02 -0.24631029438E+01 -0.97577071608E+02  0.20016629429E+03  0.17200000000E+03 0. -1.
</event>
<event>
 4    1  0.5718861E+000  0.1938857E+03  0.7818608E-02  0.1155003E+00
         21   -1    0    0  501  502  0.00000000000E+00  0.00000000000E+00  0.44367564478E+03  0.44367564478E+03  0.00000000000E+00 0. -1.
         21   -1    0    0  502  503 -0.00000000000E+00 -0.00000000000E+00 -0.96817040148E+02  0.96817040148E+02  0.00000000000E+00 0. -1.
          6    1    1    2  501    0 -0.68137711333E+02 -0.58007811428E+02  0.77933622160E+02  0.20896244484E+03  0.17200000000E+03 0.  1.
         -6    1    1    2    0  503  0.68137711333E+02  0.58007811428E+02  0.26892498247E+03  0.33153024008E+03  0.17200000000E+03 0.  1.
</event>
<event>
 4    1  0.5718861E+000  0.1726783E+03  0.7818608E-02  0.1175083E+00
         21   -1    0    0  503  502  0.00000000000E+00  0.00000000000E+00  0.24416361816E+03  0.24416361816E+03  0.00000000000E+00 0. -1.
         21   -1    0    0  501  503 -0.00000000000E+00 -0.00000000000E+00 -0.12486503478E+03  0.12486503478E+03  0.00000000000E+00 0. -1.
          6    1    1    2  501    0  0.12425519000E+02  0.89102291674E+01  0.86996534656E+02  0.19335506910E+03  0.17200000000E+03 0. -1.
         -6    1    1    2    0  502 -0.12425519000E+02 -0.89102291674E+01  0.32302048729E+02  0.17567358384E+03  0.17200000000E+03 0. -1.
</event>
<event>
 4    1  0.5718861E+000  0.1933886E+03  0.7818608E-02  0.1155440E+00
         21   -1    0    0  503  502  0.00000000000E+00  0.00000000000E+00  0.11450371694E+03  0.11450371694E+03  0.00000000000E+00 0. -1.
         21   -1    0    0  501  503 -0.00000000000E+00 -0.00000000000E+00 -0.32667234504E+03  0.32667234504E+03  0.00000000000E+00 0. -1.
          6    1    1    2  501    0  0.47329170734E+02 -0.74666618587E+02 -0.10888817516E+03  0.22193645267E+03  0.17200000000E+03 0. -1.
         -6    1    1    2    0  502 -0.47329170734E+02  0.74666618587E+02 -0.10328045294E+03  0.21923960931E+03  0.17200000000E+03 0. -1.
</event>
<event>
 4    1  0.5718861E+000  0.2260946E+03  0.7818608E-02  0.1129419E+00
         21   -1    0    0  501  502  0.00000000000E+00  0.00000000000E+00  0.18836119579E+03  0.18836119579E+03  0.00000000000E+00 0. -1.
         21   -1    0    0  502  503 -0.00000000000E+00 -0.00000000000E+00 -0.27791879710E+03  0.27791879710E+03  0.00000000000E+00 0.  1.
          6    1    1    2  501    0  0.82315414548E+02  0.12148639774E+03 -0.80520524712E+02  0.24000484830E+03  0.17200000000E+03 0. -1.
         -6    1    1    2    0  503 -0.82315414548E+02 -0.12148639774E+03 -0.90370765923E+01  0.22627514459E+03  0.17200000000E+03 0. -1.
</event>
<event>
 4    1  0.5718861E+000  0.1943145E+03  0.7818608E-02  0.1154626E+00
         21   -1    0    0  503  502  0.00000000000E+00  0.00000000000E+00  0.47727303062E+03  0.47727303062E+03  0.00000000000E+00 0.  1.
         21   -1    0    0  501  503 -0.00000000000E+00 -0.00000000000E+00 -0.42211923850E+03  0.42211923850E+03  0.00000000000E+00 0.  1.
          6    1    1    2  501    0 -0.85381180123E+02  0.29735466640E+02 -0.37779446678E+03  0.42483738421E+03  0.17200000000E+03 0.  1.
         -6    1    1    2    0  502  0.85381180123E+02 -0.29735466640E+02  0.43294825890E+03  0.47455488490E+03  0.17200000000E+03 0.  1.
</event>
<event>
 4    1  0.5718861E+000  0.1952521E+03  0.7818608E-02  0.1153808E+00
         21   -1    0    0  503  502  0.00000000000E+00  0.00000000000E+00  0.37521309685E+03  0.37521309685E+03  0.00000000000E+00 0.  1.
         21   -1    0    0  501  503 -0.00000000000E+00 -0.00000000000E+00 -0.10171979260E+03  0.10171979260E+03  0.00000000000E+00 0.  1.
          6    1    1    2  501    0  0.92213664538E+02 -0.60002929899E+01  0.14477272364E+03  0.24306893046E+03  0.17200000000E+03 0.  1.
         -6    1    1    2    0  502 -0.92213664538E+02  0.60002929899E+01  0.12872058061E+03  0.23386395899E+03  0.17200000000E+03 0.  1.
</event>
<event>
 4    1  0.5718861E+000  0.2187106E+03  0.7818608E-02  0.1134848E+00
         21   -1    0    0  501  502  0.00000000000E+00  0.00000000000E+00  0.12915681956E+04  0.12915681956E+04  0.00000000000E+00 0. -1.
         21   -1    0    0  502  503 -0.00000000000E+00 -0.00000000000E+00 -0.37053425567E+02  0.37053425567E+02  0.00000000000E+00 0. -1.
          6    1    1    2  501    0 -0.20131142910E+02  0.13358537926E+03  0.64172852002E+03  0.67797478557E+03  0.17200000000E+03 0. -1.
         -6    1    1    2    0  503  0.20131142910E+02 -0.13358537926E+03  0.61278625005E+03  0.65064683563E+03  0.17200000000E+03 0. -1.
</event>
<event>
 4    1  0.5718861E+000  0.1959630E+03  0.7818608E-02  0.1153190E+00
         21   -1    0    0  501  502  0.00000000000E+00  0.00000000000E+00  0.23980221518E+03  0.23980221518E+03  0.00000000000E+00 0. -1.
         21   -1    0    0  502  503 -0.00000000000E+00 -0.00000000000E+00 -0.18879518161E+03  0.18879518161E+03  0.00000000000E+00 0. -1.
          6    1    1    2  501    0 -0.28173744205E+02  0.89575358960E+02  0.10899438862E+03  0.22423488031E+03  0.17200000000E+03 0. -1.
         -6    1    1    2    0  503  0.28173744205E+02 -0.89575358960E+02 -0.57987355051E+02  0.20436251648E+03  0.17200000000E+03 0. -1.
</event>
<event>
 4    1  0.5718861E+000  0.1921146E+03  0.7818608E-02  0.1156568E+00
         21   -1    0    0  501  502  0.00000000000E+00  0.00000000000E+00  0.12789176382E+03  0.12789176382E+03  0.00000000000E+00 0.  1.
         21   -1    0    0  502  503 -0.00000000000E+00 -0.00000000000E+00 -0.29433080702E+03  0.29433080702E+03  0.00000000000E+00 0.  1.
          6    1    1    2  501    0  0.84851464994E+02  0.11146807466E+02 -0.53730698004E+02  0.19948686758E+03  0.17200000000E+03 0.  1.
         -6    1    1    2    0  503 -0.84851464994E+02 -0.11146807466E+02 -0.11270834520E+03  0.22273570326E+03  0.17200000000E+03 0.  1.
</event>
<event>
 4    1  0.5718861E+000  0.2378966E+03  0.7818608E-02  0.1121202E+00
         21   -1    0    0  501  502  0.00000000000E+00  0.00000000000E+00  0.65018161781E+02  0.65018161781E+02  0.00000000000E+00 0. -1.
         21   -1    0    0  502  503 -0.00000000000E+00 -0.00000000000E+00 -0.89788775772E+03  0.89788775772E+03  0.00000000000E+00 0. -1.
          6    1    1    2  501    0  0.28813001268E+02 -0.16180415534E+03 -0.33226585832E+03  0.40865067519E+03  0.17200000000E+03 0. -1.
         -6    1    1    2    0  503 -0.28813001268E+02  0.16180415534E+03 -0.50060373761E+03  0.55425524430E+03  0.17200000000E+03 0. -1.
</event>
<event>
 4    1  0.5718861E+000  0.1955404E+03  0.7818608E-02  0.1153557E+00
         21   -1    0    0  503  502  0.00000000000E+00  0.00000000000E+00  0.18168557911E+03  0.18168557911E+03  0.00000000000E+00 0.  1.
         21   -1    0    0  501  503 -0.00000000000E+00 -0.00000000000E+00 -0.40241769021E+03  0.40241769021E+03  0.00000000000E+00 0. -1.
          6    1    1    2  501    0  0.56105376813E+00  0.93014757328E+02 -0.31207870147E+03  0.36827866592E+03  0.17200000000E+03 0. -1.
         -6    1    1    2    0  502 -0.56105376813E+00 -0.93014757328E+02  0.91346590366E+02  0.21582460340E+03  0.17200000000E+03 0.  1.
</event>
<event>
 4    1  0.5718861E+000  0.1760537E+03  0.7818608E-02  0.1171678E+00
         21   -1    0    0  501  502  0.00000000000E+00  0.00000000000E+00  0.51828111804E+03  0.51828111804E+03  0.00000000000E+00 0. -1.
         21   -1    0    0  502  503 -0.00000000000E+00 -0.00000000000E+00 -0.80888583693E+02  0.80888583693E+02  0.00000000000E+00 0. -1.
          6    1    1    2  501    0  0.27931078130E+02 -0.25114802134E+02  0.65740305176E+02  0.18792734271E+03  0.17200000000E+03 0. -1.
         -6    1    1    2    0  503 -0.27931078130E+02  0.25114802134E+02  0.37165222917E+03  0.41124235903E+03  0.17200000000E+03 0. -1.
</event>
<event>
 4    1  0.5718861E+000  0.1790552E+03  0.7818608E-02  0.1168721E+00
         21   -1    0    0  503  502  0.00000000000E+00  0.00000000000E+00  0.87936801410E+03  0.87936801410E+03  0.00000000000E+00 0.  1.
         21   -1    0    0  501  503 -0.00000000000E+00 -0.00000000000E+00 -0.45304877296E+02  0.45304877296E+02  0.00000000000E+00 0.  1.
          6    1    1    2  501    0  0.39064578870E+02  0.30833702159E+02  0.62132737558E+03  0.64661307298E+03  0.17200000000E+03 0.  1.
         -6    1    1    2    0  502 -0.39064578870E+02 -0.30833702159E+02  0.21273576123E+03  0.27805981842E+03  0.17200000000E+03 0.  1.
</event>
<event>
 4    1  0.5718861E+000  0.1778395E+03  0.7818608E-02  0.1169911E+00
         21   -1    0    0  501  502  0.00000000000E+00  0.00000000000E+00  0.69754722907E+03  0.69754722907E+03  0.00000000000E+00 0. -1.
         21   -1    0    0  502  503 -0.00000000000E+00 -0.00000000000E+00 -0.12986524092E+03  0.12986524092E+03  0.00000000000E+00 0. -1.
          6    1    1    2  501    0 -0.23707268899E+01  0.45136045394E+02  0.61760421269E+03  0.64269887698E+03  0.17200000000E+03 0. -1.
         -6    1    1    2    0  503  0.23707268899E+01 -0.45136045394E+02 -0.49922224533E+02  0.18471359301E+03  0.17200000000E+03 0. -1.
</event>
<event>
 4    1  0.5718861E+000  0.2075785E+03  0.7818608E-02  0.1143498E+00
         21   -1    0    0  503  502  0.00000000000E+00  0.00000000000E+00  0.13585053653E+03  0.13585053653E+03  0.00000000000E+00 0.  1.
         21   -1    0    0  501  503 -0.00000000000E+00 -0.00000000000E+00 -0.32482214000E+03  0.32482214000E+03  0.00000000000E+00 0.  1.
          6    1    1    2  501    0  0.62755936525E+02  0.97808693187E+02 -0.12981991749E+03  0.24483067416E+03  0.17200000000E+03 0.  1.
         -6    1    1    2    0  502 -0.62755936525E+02 -0.97808693187E+02 -0.59151685983E+02  0.21584200237E+03  0.17200000000E+03 0.  1.
</event>
<event>
 4    1  0.5718861E+000  0.2542896E+03  0.7818608E-02  0.1110624E+00
         21   -1    0    0  501  502  0.00000000000E+00  0.00000000000E+00  0.35508905357E+03  0.35508905357E+03  0.00000000000E+00 0.  1.
         21   -1    0    0  502  503 -0.00000000000E+00 -0.00000000000E+00 -0.30084131267E+03  0.30084131267E+03  0.00000000000E+00 0.  1.
          6    1    1    2  501    0 -0.18497347558E+03 -0.29393826838E+02  0.23316426413E+03  0.34500544603E+03  0.17200000000E+03 0.  1.
         -6    1    1    2    0  503  0.18497347558E+03  0.29393826838E+02 -0.17891652323E+03  0.31092492021E+03  0.17200000000E+03 0.  1.
</event>
<event>
 4    1  0.5718861E+000  0.2109622E+03  0.7818608E-02  0.1140806E+00
         21   -1    0    0  503  502  0.00000000000E+00  0.00000000000E+00  0.10056151257E+03  0.10056151257E+03  0.00000000000E+00 0.  1.
         21   -1    0    0  501  503 -0.00000000000E+00 -0.00000000000E+00 -0.48321552084E+03  0.48321552084E+03  0.00000000000E+00 0.  1.
          6    1    1    2  501    0  0.88425588466E+02  0.84273125841E+02 -0.27598687029E+03  0.34738134234E+03  0.17200000000E+03 0.  1.
         -6    1    1    2    0  502 -0.88425588466E+02 -0.84273125841E+02 -0.10666713798E+03  0.23639569108E+03  0.17200000000E+03 0.  1.
</event>
<event>
 4    1  0.5718861E+000  0.1856031E+03  0.7818608E-02  0.1162488E+00
         21   -1    0    0  501  502  0.00000000000E+00  0.00000000000E+00  0.65573096158E+02  0.65573096158E+02  0.00000000000E+00 0. -1.
         21   -1    0    0  502  503 -0.00000000000E+00 -0.00000000000E+00 -0.88902136256E+03  0.88902136256E+03  0.00000000000E+00 0. -1.
          6    1    1    2  501    0 -0.69050088159E+02  0.98291867802E+01 -0.10644994526E+03  0.21396289032E+03  0.17200000000E+03 0. -1.
         -6    1    1    2    0  503  0.69050088159E+02 -0.98291867802E+01 -0.71699832115E+03  0.74063156840E+03  0.17200000000E+03 0. -1.
</event>
<event>
 4    1  0.5718861E+000  0.2309044E+03  0.7818608E-02  0.1126005E+00
         21   -1    0    0  503  502  0.00000000000E+00  0.00000000000E+00  0.70484476735E+03  0.70484476735E+03  0.00000000000E+00 0.  1.
         21   -1    0    0  501  503 -0.00000000000E+00 -0.00000000000E+00 -0.79838352138E+02  0.79838352138E+02  0.00000000000E+00 0.  1.
          6    1    1    2  501    0 -0.12460342932E+02 -0.15354991679E+03  0.40243708714E+03  0.46397461805E+03  0.17200000000E+03 0.  1.
         -6    1    1    2    0  502  0.12460342932E+02  0.15354991679E+03  0.22256932808E+03  0.32070850144E+03  0.17200000000E+03 0.  1.
</event>
<event>
 4    1  0.5718861E+000  0.2243505E+03  0.7818608E-02  0.1130681E+00
         21   -1    0    0  501  502  0.00000000000E+00  0.00000000000E+00  0.94270836277E+03  0.94270836277E+03  0.00000000000E+00 0.  1.
         21   -1    0    0  502  503 -0.00000000000E+00 -0.00000000000E+00 -0.59921174647E+02  0.59921174647E+02  0.00000000000E+00 0. -1.
          6    1    1    2  501    0 -0.38228635786E+02  0.13888018733E+03  0.60687443317E+03  0.64701600650E+03  0.17200000000E+03 0.  1.
         -6    1    1    2    0  503  0.38228635786E+02 -0.13888018733E+03  0.27591275495E+03  0.35561353092E+03  0.17200000000E+03 0. -1.
</event>
<event>
 4    1  0.5718861E+000  0.1895081E+03  0.7818608E-02  0.1158906E+00
         21   -1    0    0  503  502  0.00000000000E+00  0.00000000000E+00  0.43454266618E+03  0.43454266618E+03  0.00000000000E+00 0.  1.
         21   -1    0    0  501  503 -0.00000000000E+00 -0.00000000000E+00 -0.22179712642E+03  0.22179712642E+03  0.00000000000E+00 0.  1.
          6    1    1    2  501    0 -0.38963648162E+02 -0.69362583943E+02 -0.15356160227E+03  0.24391494341E+03  0.17200000000E+03 0.  1.
         -6    1    1    2    0  502  0.38963648162E+02  0.69362583943E+02  0.36630714203E+03  0.41242484919E+03  0.17200000000E+03 0.  1.
</event>
<event>
 4    1  0.5718861E+000  0.2524563E+03  0.7818608E-02  0.1111762E+00
         21   -1    0    0  501  502  0.00000000000E+00  0.00000000000E+00  0.92904881608E+03  0.92904881608E+03  0.00000000000E+00 0.  1.
         21   -1    0    0  502  503 -0.00000000000E+00 -0.00000000000E+00 -0.47426501305E+03  0.47426501305E+03  0.00000000000E+00 0. -1.
          6    1    1    2  501    0  0.62018250678E+01  0.18469363414E+03  0.87632093532E+03  0.91196084499E+03  0.17200000000E+03 0.  1.
         -6    1    1    2    0  503 -0.62018250678E+01 -0.18469363414E+03 -0.42153713229E+03  0.49135298414E+03  0.17200000000E+03 0. -1.
</event>
<event>
 4    1  0.5718861E+000  0.2113418E+03  0.7818608E-02  0.1140508E+00
         21   -1    0    0  501  502  0.00000000000E+00  0.00000000000E+00  0.17858577939E+03  0.17858577939E+03  0.00000000000E+00 0.  1.
         21   -1    0    0  502  503 -0.00000000000E+00 -0.00000000000E+00 -0.26006761496E+03  0.26006761496E+03  0.00000000000E+00 0.  1.
          6    1    1    2  501    0  0.11712991963E+03  0.36904418015E+02  0.21846230291E+01  0.21135308543E+03  0.17200000000E+03 0.  1.
         -6    1    1    2    0  503 -0.11712991963E+03 -0.36904418015E+02 -0.83666458601E+02  0.22730030892E+03  0.17200000000E+03 0.  1.
</event>
<event>
 4    1  0.5718861E+000  0.1828629E+03  0.7818608E-02  0.1165061E+00
         21   -1    0    0  501  502  0.00000000000E+00  0.00000000000E+00  0.64312954979E+02  0.64312954979E+02  0.00000000000E+00 0. -1.
         21   -1    0    0  502  503 -0.00000000000E+00 -0.00000000000E+00 -0.59780713849E+03  0.59780713849E+03  0.00000000000E+00 0. -1.
          6    1    1    2  501    0 -0.59605474065E+02  0.17379288663E+02 -0.14726455316E+03  0.23478863011E+03  0.17200000000E+03 0. -1.
         -6    1    1    2    0  503  0.59605474065E+02 -0.17379288663E+02 -0.38622963035E+03  0.42733146335E+03  0.17200000000E+03 0. -1.
</event>
<event>
 4    1  0.5718861E+000  0.2153842E+03  0.7818608E-02  0.1137372E+00
         21   -1    0    0  503  502  0.00000000000E+00  0.00000000000E+00  0.39106071332E+02  0.39106071332E+02  0.00000000000E+00 0.  1.
         21   -1    0    0  501  503 -0.00000000000E+00 -0.00000000000E+00 -0.11931555637E+04  0.11931555637E+04  0.00000000000E+00 0.  1.
          6    1    1    2  501    0 -0.10153379982E+03  0.80605574346E+02 -0.62382891790E+03  0.65996430959E+03  0.17200000000E+03 0. -1.
         -6    1    1    2    0  502  0.10153379982E+03 -0.80605574346E+02 -0.53022057446E+03  0.57229732544E+03  0.17200000000E+03 0. -1.
</event>
<event>
 4    1  0.5718861E+000  0.2249736E+03  0.7818608E-02  0.1130228E+00
         21   -1    0    0  503  502  0.00000000000E+00  0.00000000000E+00  0.14398294652E+03  0.14398294652E+03  0.00000000000E+00 0. -1.
         21   -1    0    0  501  503 -0.00000000000E+00 -0.00000000000E+00 -0.63199809684E+03  0.63199809684E+03  0.00000000000E+00 0. -1.
          6    1    1    2  501    0 -0.91947995892E+02  0.11213689571E+03 -0.50247835886E+03  0.55054302144E+03  0.17200000000E+03 0. -1.
         -6    1    1    2    0  502  0.91947995892E+02 -0.11213689571E+03  0.14463208539E+02  0.22543802192E+03  0.17200000000E+03 0. -1.
</event>
<event>
 4    1  0.5718861E+000  0.2332087E+03  0.7818608E-02  0.1124402E+00
         21   -1    0    0  503  502  0.00000000000E+00  0.00000000000E+00  0.13954299099E+03  0.13954299099E+03  0.00000000000E+00 0. -1.
         21   -1    0    0  501  503 -0.00000000000E+00 -0.00000000000E+00 -0.54230549121E+03  0.54230549121E+03  0.00000000000E+00 0. -1.
          6    1    1    2  501    0 -0.15689106094E+03  0.13692293285E+02 -0.38220517502E+03  0.44773550195E+03  0.17200000000E+03 0. -1.
         -6    1    1    2    0  502  0.15689106094E+03 -0.13692293285E+02 -0.20557325201E+02  0.23411298024E+03  0.17200000000E+03 0. -1.
</event>
<event>
 4    1  0.5718861E+000  0.1921541E+03  0.7818608E-02  0.1156533E+00
         21   -1    0    0  501  502  0.00000000000E+00  0.00000000000E+00  0.20433135538E+02  0.20433135538E+02  0.00000000000E+00 0. -1.
         21   -1    0    0  502  503 -0.00000000000E+00 -0.00000000000E+00 -0.20996228943E+04  0.20996228943E+04  0.00000000000E+00 0. -1.
          6    1    1    2  501    0  0.85667690269E+02 -0.48263243580E+00 -0.64388005949E+03  0.67194100716E+03  0.17200000000E+03 0. -1.
         -6    1    1    2    0  503 -0.85667690269E+02  0.48263243580E+00 -0.14353096992E+04  0.14481150227E+04  0.17200000000E+03 0. -1.
</event>
<event>
 4    1  0.5718861E+000  0.2263987E+03  0.7818608E-02  0.1129200E+00
         21   -1    0    0  503  502  0.00000000000E+00  0.00000000000E+00  0.44281032537E+03  0.44281032537E+03  0.00000000000E+00 0. -1.
         21   -1    0    0  501  503 -0.00000000000E+00 -0.00000000000E+00 -0.12033548329E+03  0.12033548329E+03  0.00000000000E+00 0.  1.
          6    1    1    2  501    0 -0.36582475161E+02 -0.14259769570E+03  0.10628706821E+03  0.25010661962E+03  0.17200000000E+03 0.  1.
         -6    1    1    2    0  502  0.36582475161E+02  0.14259769570E+03  0.21618777386E+03  0.31303918904E+03  0.17200000000E+03 0. -1.
</event>
<event>
 4    1  0.5718861E+000  0.2303726E+03  0.7818608E-02  0.1126378E+00
         21   -1    0    0  501  502  0.00000000000E+00  0.00000000000E+00  0.50347408563E+03  0.50347408563E+03  0.00000000000E+00 0.  1.
         21   -1    0    0  502  503 -0.00000000000E+00 -0.00000000000E+00 -0.10550275774E+03  0.10550275774E+03  0.00000000000E+00 0. -1.
          6    1    1    2  501    0 -0.13028186728E+03 -0.80710539828E+02  0.20797996110E+03  0.31036626815E+03  0.17200000000E+03 0.  1.
         -6    1    1    2    0  503  0.13028186728E+03  0.80710539828E+02  0.18999136678E+03  0.29861057522E+03  0.17200000000E+03 0. -1.
</event>
<event>
 4    1  0.5718861E+000  0.1800062E+03  0.7818608E-02  0.1167797E+00
         21   -1    0    0  503  502  0.00000000000E+00  0.00000000000E+00  0.15077519437E+03  0.15077519437E+03  0.00000000000E+00 0.  1.
         21   -1    0    0  501  503 -0.00000000000E+00 -0.00000000000E+00 -0.22822698421E+03  0.22822698421E+03  0.00000000000E+00 0.  1.
          6    1    1    2  501    0  0.17311585456E+02 -0.50184893326E+02 -0.84511249116E+02  0.19885765194E+03  0.17200000000E+03 0.  1.
         -6    1    1    2    0  502 -0.17311585456E+02  0.50184893326E+02  0.70594592759E+01  0.18014452663E+03  0.17200000000E+03 0.  1.
</event>
<event>
 4    1  0.5718861E+000  0.2648084E+03  0.7818608E-02  0.1104288E+00
         21   -1    0    0  503  502  0.00000000000E+00  0.00000000000E+00  0.33849069802E+03  0.33849069802E+03  0.00000000000E+00 0. -1.
         21   -1    0    0  501  503 -0.00000000000E+00 -0.00000000000E+00 -0.21598716779E+03  0.21598716779E+03  0.00000000000E+00 0.  1.
          6    1    1    2  501    0  0.19260477486E+03 -0.58676085444E+02  0.52213594434E+01  0.26485985897E+03  0.17200000000E+03 0.  1.
         -6    1    1    2    0  502 -0.19260477486E+03  0.58676085444E+02  0.11728217078E+03  0.28961800684E+03  0.17200000000E+03 0.  1.
</event>
<event>
 4    1  0.5718861E+000  0.1747479E+03  0.7818608E-02  0.1172985E+00
         21   -1    0    0  501  502  0.00000000000E+00  0.00000000000E+00  0.52246652112E+03  0.52246652112E+03  0.00000000000E+00 0. -1.
         21   -1    0    0  502  503 -0.00000000000E+00 -0.00000000000E+00 -0.85889056981E+02  0.85889056981E+02  0.00000000000E+00 0. -1.
          6    1    1    2  501    0  0.18440759889E+02 -0.24754440019E+02  0.39022331112E+03  0.42756411971E+03  0.17200000000E+03 0.  1.
         -6    1    1    2    0  503 -0.18440759889E+02  0.24754440019E+02  0.46354153028E+02  0.18079145840E+03  0.17200000000E+03 0.  1.
</event>
<event>
 4    1  0.5718861E+000  0.1992996E+03  0.7818608E-02  0.1150331E+00
         21   -1    0    0  501  502  0.00000000000E+00  0.00000000000E+00  0.53258689432E+02  0.53258689432E+02  0.00000000000E+00 0.  1.
         21   -1    0    0  502  503 -0.00000000000E+00 -0.00000000000E+00 -0.77451613763E+03  0.77451613763E+03  0.00000000000E+00 0.  1.
          6    1    1    2  501    0 -0.17010442920E+02  0.99231851614E+02 -0.28093353015E+03  0.34444733111E+03  0.17200000000E+03 0.  1.
         -6    1    1    2    0  503  0.17010442920E+02 -0.99231851614E+02 -0.44032391805E+03  0.48332749596E+03  0.17200000000E+03 0.  1.
</event>
<event>
 4    1  0.5718861E+000  0.1950849E+03  0.7818608E-02  0.1153953E+00
         21   -1    0    0  503  502  0.00000000000E+00  0.00000000000E+00  0.23621368614E+04  0.23621368614E+04  0.00000000000E+00 0.  1.
         21   -1    0    0  501  503 -0.00000000000E+00 -0.00000000000E+00 -0.16839748286E+02  0.16839748286E+02  0.00000000000E+00 0.  1.
          6    1    1    2  501    0 -0.52388420276E+02  0.75694004717E+02  0.92532738183E+03  0.94566848974E+03  0.17200000000E+03 0.  1.
         -6    1    1    2    0  502  0.52388420276E+02 -0.75694004717E+02  0.14199697313E+04  0.14333081199E+04  0.17200000000E+03 0.  1.
</event>
<event>
 4    1  0.5718861E+000  0.2285574E+03  0.7818608E-02  0.1127659E+00
         21   -1    0    0  503  502  0.00000000000E+00  0.00000000000E+00  0.18390019330E+03  0.18390019330E+03  0.00000000000E+00 0.  1.
         21   -1    0    0  501  503 -0.00000000000E+00 -0.00000000000E+00 -0.56283786511E+03  0.56283786511E+03  0.00000000000E+00 0. -1.
          6    1    1    2  501    0 -0.36387277870E+02 -0.14604948799E+03 -0.45223935349E+03  0.50671384407E+03  0.17200000000E+03 0. -1.
         -6    1    1    2    0  502  0.36387277870E+02  0.14604948799E+03  0.73301681680E+02  0.24002421434E+03  0.17200000000E+03 0.  1.
</event>
<event>
 4    1  0.5718861E+000  0.2377391E+03  0.7818608E-02  0.1121308E+00
         21   -1    0    0  501  502  0.00000000000E+00  0.00000000000E+00  0.43339308831E+03  0.43339308831E+03  0.00000000000E+00 0. -1.
         21   -1    0    0  502  503 -0.00000000000E+00 -0.00000000000E+00 -0.18646445764E+03  0.18646445764E+03  0.00000000000E+00 0.  1.
          6    1    1    2  501    0  0.14060359697E+02  0.16351818976E+03  0.29339003407E+03  0.37762097954E+03  0.17200000000E+03 0. -1.
         -6    1    1    2    0  503 -0.14060359697E+02 -0.16351818976E+03 -0.46461403396E+02  0.24223656641E+03  0.17200000000E+03 0.  1.
</event>
<event>
 4    1  0.5718861E+000  0.2023744E+03  0.7818608E-02  0.1147751E+00
         21   -1    0    0  503  502  0.00000000000E+00  0.00000000000E+00  0.72491645338E+02  0.72491645338E+02  0.00000000000E+00 0.  1.
         21   -1    0    0  501  503 -0.00000000000E+00 -0.00000000000E+00 -0.62570811639E+03  0.62570811639E+03  0.00000000000E+00 0. -1.
          6    1    1    2  501    0  0.96805577917E+02 -0.44722433818E+02 -0.38537689605E+03  0.43528240030E+03  0.17200000000E+03 0. -1.
         -6    1    1    2    0  502 -0.96805577917E+02  0.44722433818E+02 -0.16783957500E+03  0.26291736142E+03  0.17200000000E+03 0.  1.
</event>
<event>
 4    1  0.5718861E+000  0.1840149E+03  0.7818608E-02  0.1163973E+00
         21   -1    0    0  501  502  0.00000000000E+00  0.00000000000E+00  0.92700400056E+03  0.92700400056E+03  0.00000000000E+00 0. -1.
         21   -1    0    0  502  503 -0.00000000000E+00 -0.00000000000E+00 -0.68151104082E+02  0.68151104082E+02  0.00000000000E+00 0. -1.
          6    1    1    2  501    0 -0.58592961517E+02 -0.29057825487E+02  0.76837001340E+03  0.79009744326E+03  0.17200000000E+03 0. -1.
         -6    1    1    2    0  503  0.58592961517E+02  0.29057825487E+02  0.90482883085E+02  0.20505766139E+03  0.17200000000E+03 0. -1.
</event>
<event>
 4    1  0.5718861E+000  0.2406205E+03  0.7818608E-02  0.1119380E+00
         21   -1    0    0  503  502  0.00000000000E+00  0.00000000000E+00  0.45421820640E+03  0.45421820640E+03  0.00000000000E+00 0. -1.
         21   -1    0    0  501  503 -0.00000000000E+00 -0.00000000000E+00 -0.12928492156E+03  0.12928492156E+03  0.00000000000E+00 0. -1.
          6    1    1    2  501    0  0.11525665570E+03  0.12259732651E+03  0.19705498534E+03  0.31101264990E+03  0.17200000000E+03 0. -1.
         -6    1    1    2    0  502 -0.11525665570E+03 -0.12259732651E+03  0.12787829950E+03  0.27249047806E+03  0.17200000000E+03 0. -1.
</event>
<event>
 4    1  0.5718861E+000  0.2022556E+03  0.7818608E-02  0.1147850E+00
         21   -1    0    0  501  502  0.00000000000E+00  0.00000000000E+00  0.33558093254E+03  0.33558093254E+03  0.00000000000E+00 0.  1.
         21   -1    0    0  502  503 -0.00000000000E+00 -0.00000000000E+00 -0.13541049098E+03  0.13541049098E+03  0.00000000000E+00 0.  1.
          6    1    1    2  501    0 -0.10620606877E+03  0.66029447758E+01  0.17447132707E+03  0.26710966267E+03  0.17200000000E+03 0. -1.
         -6    1    1    2    0  503  0.10620606877E+03 -0.66029447758E+01  0.25699114483E+02  0.20388176085E+03  0.17200000000E+03 0. -1.
</event>
<event>
 4    1  0.5718861E+000  0.2884412E+03  0.7818608E-02  0.1091166E+00
         21   -1    0    0  503  502  0.00000000000E+00  0.00000000000E+00  0.58530794104E+03  0.58530794104E+03  0.00000000000E+00 0.  1.
         21   -1    0    0  501  503 -0.00000000000E+00 -0.00000000000E+00 -0.17714367370E+03  0.17714367370E+03  0.00000000000E+00 0. -1.
          6    1    1    2  501    0  0.14269936171E+03 -0.18234923165E+03  0.34629671863E+02  0.29051258887E+03  0.17200000000E+03 0.  1.
         -6    1    1    2    0  502 -0.14269936171E+03  0.18234923165E+03  0.37353459548E+03  0.47193902587E+03  0.17200000000E+03 0. -1.
</event>
<event>
 4    1  0.5718861E+000  0.2013553E+03  0.7818608E-02  0.1148601E+00
         21   -1    0    0  501  502  0.00000000000E+00  0.00000000000E+00  0.19079580569E+03  0.19079580569E+03  0.00000000000E+00 0. -1.
         21   -1    0    0  502  503 -0.00000000000E+00 -0.00000000000E+00 -0.31024113476E+03  0.31024113476E+03  0.00000000000E+00 0. -1.
          6    1    1    2  501    0 -0.88013256799E+02 -0.56688796553E+02  0.80891982850E+02  0.21699646522E+03  0.17200000000E+03 0. -1.
         -6    1    1    2    0  503  0.88013256799E+02  0.56688796553E+02 -0.20033731192E+03  0.28404047524E+03  0.17200000000E+03 0. -1.
</event>
<event>
 4    1  0.5718861E+000  0.1778161E+03  0.7818608E-02  0.1169934E+00
         21   -1    0    0  501  502  0.00000000000E+00  0.00000000000E+00  0.13918580633E+03  0.13918580633E+03  0.00000000000E+00 0.  1.
         21   -1    0    0  502  503 -0.00000000000E+00 -0.00000000000E+00 -0.24555851218E+03  0.24555851218E+03  0.00000000000E+00 0.  1.
          6    1    1    2  501    0 -0.38096036489E+02  0.24150403590E+02 -0.10583201487E+03  0.20692743985E+03  0.17200000000E+03 0.  1.
         -6    1    1    2    0  503  0.38096036489E+02 -0.24150403590E+02 -0.54069097666E+00  0.17781687866E+03  0.17200000000E+03 0.  1.
</event>
<event>
 4    1  0.5718861E+000  0.4721241E+03  0.7818608E-02  0.1021322E+00
         21   -1    0    0  501  502  0.00000000000E+00  0.00000000000E+00  0.79647050509E+03  0.79647050509E+03  0.00000000000E+00 0. -1.
         21   -1    0    0  502  503 -0.00000000000E+00 -0.00000000000E+00 -0.20448931433E+04  0.20448931433E+04  0.00000000000E+00 0.  1.
          6    1    1    2  501    0  0.35988860097E+03  0.25258136770E+03  0.69567888518E+03  0.84075576935E+03  0.17200000000E+03 0. -1.
         -6    1    1    2    0  503 -0.35988860097E+03 -0.25258136770E+03 -0.19441015234E+04  0.20006078791E+04  0.17200000000E+03 0.  1.
</event>
<event>
 4    1  0.5718861E+000  0.2173107E+03  0.7818608E-02  0.1135904E+00
         21   -1    0    0  503  502  0.00000000000E+00  0.00000000000E+00  0.24892632775E+03  0.24892632775E+03  0.00000000000E+00 0. -1.
         21   -1    0    0  501  503 -0.00000000000E+00 -0.00000000000E+00 -0.23819480522E+03  0.23819480522E+03  0.00000000000E+00 0. -1.
          6    1    1    2  501    0 -0.92503829399E+02 -0.95304635653E+02  0.11525155009E+03  0.24598140545E+03  0.17200000000E+03 0. -1.
         -6    1    1    2    0  502  0.92503829399E+02  0.95304635653E+02 -0.10452002755E+03  0.24113972752E+03  0.17200000000E+03 0. -1.
</event>
<event>
 4    1  0.5718861E+000  0.2836607E+03  0.7818608E-02  0.1093706E+00
         21   -1    0    0  501  502  0.00000000000E+00  0.00000000000E+00  0.16929982047E+03  0.16929982047E+03  0.00000000000E+00 0.  1.
         21   -1    0    0  502  503 -0.00000000000E+00 -0.00000000000E+00 -0.17331730711E+04  0.17331730711E+04  0.00000000000E+00 0. -1.
          6    1    1    2  501    0 -0.32936371856E+02 -0.22314697114E+03  0.28447358910E+02  0.28508354486E+03  0.17200000000E+03 0.  1.
         -6    1    1    2    0  503  0.32936371856E+02  0.22314697114E+03 -0.15923206096E+04  0.16173893467E+04  0.17200000000E+03 0. -1.
</event>
<event>
 4    1  0.5718861E+000  0.1843565E+03  0.7818608E-02  0.1163652E+00
         21   -1    0    0  503  502  0.00000000000E+00  0.00000000000E+00  0.32248474916E+03  0.32248474916E+03  0.00000000000E+00 0. -1.
         21   -1    0    0  501  503 -0.00000000000E+00 -0.00000000000E+00 -0.13590325781E+03  0.13590325781E+03  0.00000000000E+00 0. -1.
          6    1    1    2  501    0  0.27170576491E+02  0.60539998354E+02 -0.15306286006E+02  0.18499084847E+03  0.17200000000E+03 0. -1.
         -6    1    1    2    0  502 -0.27170576491E+02 -0.60539998354E+02  0.20188777736E+03  0.27339715850E+03  0.17200000000E+03 0. -1.
</event>
<event>
 4    1  0.5718861E+000  0.2136015E+03  0.7818608E-02  0.1138745E+00
         21   -1    0    0  503  502  0.00000000000E+00  0.00000000000E+00  0.14642782636E+04  0.14642782636E+04  0.00000000000E+00 0. -1.
         21   -1    0    0  501  503 -0.00000000000E+00 -0.00000000000E+00 -0.35251585610E+02  0.35251585610E+02  0.00000000000E+00 0.  1.
          6    1    1    2  501    0  0.11164076889E+03  0.59815857196E+02  0.96997703028E+03  0.99321751763E+03  0.17200000000E+03 0. -1.
         -6    1    1    2    0  502 -0.11164076889E+03 -0.59815857196E+02  0.45904964770E+03  0.50631233157E+03  0.17200000000E+03 0.  1.
</event>
<event>
 4    1  0.5718861E+000  0.1849421E+03  0.7818608E-02  0.1163104E+00
         21   -1    0    0  503  502  0.00000000000E+00  0.00000000000E+00  0.30503337520E+03  0.30503337520E+03  0.00000000000E+00 0.  1.
         21   -1    0    0  501  503 -0.00000000000E+00 -0.00000000000E+00 -0.19216127625E+03  0.19216127625E+03  0.00000000000E+00 0.  1.
          6    1    1    2  501    0  0.67776302750E+02  0.50931080866E+01 -0.10399625928E+03  0.21217631561E+03  0.17200000000E+03 0.  1.
         -6    1    1    2    0  502 -0.67776302750E+02 -0.50931080866E+01  0.21686835822E+03  0.28501833583E+03  0.17200000000E+03 0.  1.
</event>
<event>
 4    1  0.5718861E+000  0.1972681E+03  0.7818608E-02  0.1152065E+00
         21   -1    0    0  503  502  0.00000000000E+00  0.00000000000E+00  0.11927679093E+03  0.11927679093E+03  0.00000000000E+00 0. -1.
         21   -1    0    0  501  503 -0.00000000000E+00 -0.00000000000E+00 -0.34450837835E+03  0.34450837835E+03  0.00000000000E+00 0. -1.
          6    1    1    2  501    0 -0.96563747927E+02 -0.24810825534E+01 -0.16599255707E+03  0.25781435605E+03  0.17200000000E+03 0. -1.
         -6    1    1    2    0  502  0.96563747927E+02  0.24810825534E+01 -0.59239030340E+02  0.20597081322E+03  0.17200000000E+03 0. -1.
</event>
<event>
 4    1  0.5718861E+000  0.1787655E+03  0.7818608E-02  0.1169003E+00
         21   -1    0    0  501  502  0.00000000000E+00  0.00000000000E+00  0.45191056808E+02  0.45191056808E+02  0.00000000000E+00 0.  1.
         21   -1    0    0  502  503 -0.00000000000E+00 -0.00000000000E+00 -0.12182365636E+04  0.12182365636E+04  0.00000000000E+00 0.  1.
          6    1    1    2  501    0  0.46217556718E+02 -0.15396278996E+02 -0.17735686731E+03  0.25181851866E+03  0.17200000000E+03 0.  1.
         -6    1    1    2    0  503 -0.46217556718E+02  0.15396278996E+02 -0.99568863947E+03  0.10116091017E+04  0.17200000000E+03 0.  1.
</event>
<event>
 4    1  0.5718861E+000  0.2128442E+03  0.7818608E-02  0.1139333E+00
         21   -1    0    0  501  502  0.00000000000E+00  0.00000000000E+00  0.18866987445E+03  0.18866987445E+03  0.00000000000E+00 0.  1.
         21   -1    0    0  502  503 -0.00000000000E+00 -0.00000000000E+00 -0.24090349593E+03  0.24090349593E+03  0.00000000000E+00 0.  1.
          6    1    1    2  501    0  0.10161241112E+03 -0.73441061471E+02 -0.13837145285E+02  0.21329354935E+03  0.17200000000E+03 0.  1.
         -6    1    1    2    0  503 -0.10161241112E+03  0.73441061471E+02 -0.38396476194E+02  0.21627982104E+03  0.17200000000E+03 0.  1.
</event>
<event>
 4    1  0.5718861E+000  0.2702203E+03  0.7818608E-02  0.1101154E+00
         21   -1    0    0  503  502  0.00000000000E+00  0.00000000000E+00  0.20131691568E+03  0.20131691568E+03  0.00000000000E+00 0.  1.
         21   -1    0    0  501  503 -0.00000000000E+00 -0.00000000000E+00 -0.45129324912E+03  0.45129324912E+03  0.00000000000E+00 0. -1.
          6    1    1    2  501    0  0.11801374656E+02 -0.20807629239E+03 -0.26955812207E+03  0.38168127682E+03  0.17200000000E+03 0. -1.
         -6    1    1    2    0  502 -0.11801374656E+02  0.20807629239E+03  0.19581788622E+02  0.27092888798E+03  0.17200000000E+03 0.  1.
</event>
<event>
 4    1  0.5718861E+000  0.2214383E+03  0.7818608E-02  0.1132815E+00
         21   -1    0    0  503  502  0.00000000000E+00  0.00000000000E+00  0.10727429623E+03  0.10727429623E+03  0.00000000000E+00 0. -1.
         21   -1    0    0  501  503 -0.00000000000E+00 -0.00000000000E+00 -0.48943196125E+03  0.48943196125E+03  0.00000000000E+00 0. -1.
          6    1    1    2  501    0  0.63111342494E+02 -0.12436999267E+03 -0.11439399803E+03  0.24924069374E+03  0.17200000000E+03 0. -1.
         -6    1    1    2    0  502 -0.63111342494E+02  0.12436999267E+03 -0.26776366698E+03  0.34746556374E+03  0.17200000000E+03 0. -1.
</event>
<event>
 4    1  0.5718861E+000  0.2317537E+03  0.7818608E-02  0.1125412E+00
         21   -1    0    0  501  502  0.00000000000E+00  0.00000000000E+00  0.95121927668E+02  0.95121927668E+02  0.00000000000E+00 0.  1.
         21   -1    0    0  502  503 -0.00000000000E+00 -0.00000000000E+00 -0.97552605931E+03  0.97552605931E+03  0.00000000000E+00 0.  1.
          6    1    1    2  501    0 -0.15283600352E+03  0.27693162317E+02 -0.92780027624E+02  0.24963551177E+03  0.17200000000E+03 0.  1.
         -6    1    1    2    0  503  0.15283600352E+03 -0.27693162317E+02 -0.78762410402E+03  0.82101247521E+03  0.17200000000E+03 0.  1.
</event>
<event>
 4    1  0.5718861E+000  0.1814702E+03  0.7818608E-02  0.1166388E+00
         21   -1    0    0  501  502  0.00000000000E+00  0.00000000000E+00  0.82502918369E+02  0.82502918369E+02  0.00000000000E+00 0. -1.
         21   -1    0    0  502  503 -0.00000000000E+00 -0.00000000000E+00 -0.90257030943E+03  0.90257030943E+03  0.00000000000E+00 0. -1.
          6    1    1    2  501    0 -0.30284469492E+02  0.49298007613E+02 -0.42191743055E+02  0.18631045550E+03  0.17200000000E+03 0. -1.
         -6    1    1    2    0  503  0.30284469492E+02 -0.49298007613E+02 -0.77787564801E+03  0.79876277230E+03  0.17200000000E+03 0. -1.
</event>
<event>
 4    1  0.5718861E+000  0.1872221E+03  0.7818608E-02  0.1160991E+00
         21   -1    0    0  503  502  0.00000000000E+00  0.00000000000E+00  0.32644925584E+03  0.32644925584E+03  0.00000000000E+00 0. -1.
         21   -1    0    0  501  503 -0.00000000000E+00 -0.00000000000E+00 -0.22946583701E+03  0.22946583701E+03  0.00000000000E+00 0. -1.
          6    1    1    2  501    0 -0.30353940882E+02  0.67429750957E+02 -0.15425925335E+03  0.24258617084E+03  0.17200000000E+03 0. -1.
         -6    1    1    2    0  502  0.30353940882E+02 -0.67429750957E+02  0.25124267218E+03  0.31332892200E+03  0.17200000000E+03 0. -1.
</event>
<event>
 4    1  0.5718861E+000  0.2082963E+03  0.7818608E-02  0.1142922E+00
         21   -1    0    0  501  502  0.00000000000E+00  0.00000000000E+00  0.39683917426E+02  0.39683917426E+02  0.00000000000E+00 0.  1.
         21   -1    0    0  502  503 -0.00000000000E+00 -0.00000000000E+00 -0.11481818598E+04  0.11481818598E+04  0.00000000000E+00 0. -1.
          6    1    1    2  501    0 -0.25590410823E+02 -0.11466675124E+03 -0.42442464132E+03  0.47278283505E+03  0.17200000000E+03 0.  1.
         -6    1    1    2    0  503  0.25590410823E+02  0.11466675124E+03 -0.68407330105E+03  0.71508294216E+03  0.17200000000E+03 0. -1.
</event>
<event>
 4    1  0.5718861E+000  0.1849162E+03  0.7818608E-02  0.1163128E+00
         21   -1    0    0  503  502  0.00000000000E+00  0.00000000000E+00  0.18370851964E+04  0.18370851964E+04  0.00000000000E+00 0.  1.
         21   -1    0    0  501  503 -0.00000000000E+00 -0.00000000000E+00 -0.23885411798E+02  0.23885411798E+02  0.00000000000E+00 0.  1.
          6    1    1    2  501    0  0.25328363784E+02  0.62995921292E+02  0.46944024105E+03  0.50454747252E+03  0.17200000000E+03 0.  1.
         -6    1    1    2    0  502 -0.25328363784E+02 -0.62995921292E+02  0.13437595435E+04  0.13564231356E+04  0.17200000000E+03 0.  1.
</event>
<event>
 4    1  0.5718861E+000  0.1781495E+03  0.7818608E-02  0.1169606E+00
         21   -1    0    0  503  502  0.00000000000E+00  0.00000000000E+00  0.45674077872E+02  0.45674077872E+02  0.00000000000E+00 0. -1.
         21   -1    0    0  501  503 -0.00000000000E+00 -0.00000000000E+00 -0.72997739033E+03  0.72997739033E+03  0.00000000000E+00 0. -1.
          6    1    1    2  501    0  0.35165162827E+02  0.30276268233E+02 -0.42721110146E+03  0.46286776331E+03  0.17200000000E+03 0. -1.
         -6    1    1    2    0  502 -0.35165162827E+02 -0.30276268233E+02 -0.25709221100E+03  0.31278370490E+03  0.17200000000E+03 0. -1.
</event>
<event>
 4    1  0.5718861E+000  0.3147591E+03  0.7818608E-02  0.1078087E+00
         21   -1    0    0  501  502  0.00000000000E+00  0.00000000000E+00  0.21082143964E+03  0.21082143964E+03  0.00000000000E+00 0. -1.
         21   -1    0    0  502  503 -0.00000000000E+00 -0.00000000000E+00 -0.56503766853E+03  0.56503766853E+03  0.00000000000E+00 0.  1.
          6    1    1    2  501    0 -0.25181513682E+02  0.26240271198E+03 -0.17960340442E+02  0.31527109876E+03  0.17200000000E+03 0. -1.
         -6    1    1    2    0  503  0.25181513682E+02 -0.26240271198E+03 -0.33625588845E+03  0.46058800940E+03  0.17200000000E+03 0.  1.
</event>
<event>
 4    1  0.5718861E+000  0.2256187E+03  0.7818608E-02  0.1129762E+00
         21   -1    0    0  503  502  0.00000000000E+00  0.00000000000E+00  0.55228128199E+03  0.55228128199E+03  0.00000000000E+00 0.  1.
         21   -1    0    0  501  503 -0.00000000000E+00 -0.00000000000E+00 -0.12745251641E+03  0.12745251641E+03  0.00000000000E+00 0.  1.
          6    1    1    2  501    0 -0.14183645628E+03  0.34672878462E+02  0.33595169062E+02  0.22810616874E+03  0.17200000000E+03 0.  1.
         -6    1    1    2    0  502  0.14183645628E+03 -0.34672878462E+02  0.39123359652E+03  0.45162762967E+03  0.17200000000E+03 0.  1.
</event>
<event>
 4    1  0.5718861E+000  0.2167588E+03  0.7818608E-02  0.1136323E+00
         21   -1    0    0  503  502  0.00000000000E+00  0.00000000000E+00  0.52292915218E+03  0.52292915218E+03  0.00000000000E+00 0.  1.
         21   -1    0    0  501  503 -0.00000000000E+00 -0.00000000000E+00 -0.21709171438E+03  0.21709171438E+03  0.00000000000E+00 0.  1.
          6    1    1    2  501    0 -0.11877324386E+03 -0.57387140335E+02 -0.13035727252E+03  0.25293751369E+03  0.17200000000E+03 0. -1.
         -6    1    1    2    0  502  0.11877324386E+03  0.57387140335E+02  0.43619471032E+03  0.48708335287E+03  0.17200000000E+03 0. -1.
</event>
<event>
 4    1  0.5718861E+000  0.1856106E+03  0.7818608E-02  0.1162481E+00
         21   -1    0    0  503  502  0.00000000000E+00  0.00000000000E+00  0.24496531114E+03  0.24496531114E+03  0.00000000000E+00 0. -1.
         21   -1    0    0  501  503 -0.00000000000E+00 -0.00000000000E+00 -0.16850088824E+03  0.16850088824E+03  0.00000000000E+00 0. -1.
          6    1    1    2  501    0  0.64112226339E+02  0.27511909156E+02 -0.45835014506E+02  0.19118611682E+03  0.17200000000E+03 0.  1.
         -6    1    1    2    0  502 -0.64112226339E+02 -0.27511909156E+02  0.12229943741E+03  0.22228008256E+03  0.17200000000E+03 0.  1.
</event>
<event>
 4    1  0.5718861E+000  0.2525853E+03  0.7818608E-02  0.1111682E+00
         21   -1    0    0  503  502  0.00000000000E+00  0.00000000000E+00  0.23422055097E+04  0.23422055097E+04  0.00000000000E+00 0. -1.
         21   -1    0    0  501  503 -0.00000000000E+00 -0.00000000000E+00 -0.41294814288E+02  0.41294814288E+02  0.00000000000E+00 0.  1.
          6    1    1    2  501    0  0.17967907238E+03  0.43940310608E+02  0.45516600719E+03  0.52055298871E+03  0.17200000000E+03 0. -1.
         -6    1    1    2    0  502 -0.17967907238E+03 -0.43940310608E+02  0.18457446882E+04  0.18629473353E+04  0.17200000000E+03 0. -1.
</event>
<event>
 4    1  0.5718861E+000  0.1813359E+03  0.7818608E-02  0.1166516E+00
         21   -1    0    0  501  502  0.00000000000E+00  0.00000000000E+00  0.17102786717E+03  0.17102786717E+03  0.00000000000E+00 0.  1.
         21   -1    0    0  502  503 -0.00000000000E+00 -0.00000000000E+00 -0.19370961180E+03  0.19370961180E+03  0.00000000000E+00 0.  1.
          6    1    1    2  501    0  0.29848393817E+01 -0.57356733231E+02  0.44070382115E+01  0.18138943216E+03  0.17200000000E+03 0. -1.
         -6    1    1    2    0  503 -0.29848393817E+01  0.57356733231E+02 -0.27088782835E+02  0.18334804681E+03  0.17200000000E+03 0. -1.
</event>
<event>
 4    1  0.5718861E+000  0.2648848E+03  0.7818608E-02  0.1104243E+00
         21   -1    0    0  503  502  0.00000000000E+00  0.00000000000E+00  0.96978630062E+03  0.96978630062E+03  0.00000000000E+00 0. -1.
         21   -1    0    0  501  503 -0.00000000000E+00 -0.00000000000E+00 -0.74674544344E+02  0.74674544344E+02  0.00000000000E+00 0. -1.
          6    1    1    2  501    0 -0.13723687756E+03 -0.14746519079E+03  0.35541464458E+03  0.44326460793E+03  0.17200000000E+03 0.  1.
         -6    1    1    2    0  502  0.13723687756E+03  0.14746519079E+03  0.53969711169E+03  0.60119623703E+03  0.17200000000E+03 0.  1.
</event>
<event>
 4    1  0.5718861E+000  0.1937208E+03  0.7818608E-02  0.1155148E+00
         21   -1    0    0  501  502  0.00000000000E+00  0.00000000000E+00  0.65994128268E+03  0.65994128268E+03  0.00000000000E+00 0. -1.
         21   -1    0    0  502  503 -0.00000000000E+00 -0.00000000000E+00 -0.57517387907E+02  0.57517387907E+02  0.00000000000E+00 0. -1.
          6    1    1    2  501    0  0.60103742695E+02 -0.65812402706E+02  0.33940935635E+03  0.39080230733E+03  0.17200000000E+03 0. -1.
         -6    1    1    2    0  503 -0.60103742695E+02  0.65812402706E+02  0.26301453843E+03  0.32665636326E+03  0.17200000000E+03 0. -1.
</event>
<event>
 4    1  0.5718861E+000  0.2244957E+03  0.7818608E-02  0.1130575E+00
         21   -1    0    0  501  502  0.00000000000E+00  0.00000000000E+00  0.17237310939E+04  0.17237310939E+04  0.00000000000E+00 0.  1.
         21   -1    0    0  502  503 -0.00000000000E+00 -0.00000000000E+00 -0.37198247319E+02  0.37198247319E+02  0.00000000000E+00 0. -1.
          6    1    1    2  501    0 -0.13333271000E+03  0.55106493209E+02  0.12505676869E+04  0.12705580966E+04  0.17200000000E+03 0.  1.
         -6    1    1    2    0  503  0.13333271000E+03 -0.55106493209E+02  0.43596515961E+03  0.49037124461E+03  0.17200000000E+03 0. -1.
</event>
<event>
 4    1  0.5718861E+000  0.2409879E+03  0.7818608E-02  0.1119136E+00
         21   -1    0    0  501  502  0.00000000000E+00  0.00000000000E+00  0.39744408322E+03  0.39744408322E+03  0.00000000000E+00 0.  1.
         21   -1    0    0  502  503 -0.00000000000E+00 -0.00000000000E+00 -0.17017097956E+03  0.17017097956E+03  0.00000000000E+00 0.  1.
          6    1    1    2  501    0 -0.71298061356E+01 -0.16864264835E+03  0.22032879373E+03  0.32652711116E+03  0.17200000000E+03 0.  1.
         -6    1    1    2    0  503  0.71298061356E+01  0.16864264835E+03  0.69443099289E+01  0.24108795162E+03  0.17200000000E+03 0.  1.
</event>
<event>
 4    1  0.5718861E+000  0.1851470E+03  0.7818608E-02  0.1162913E+00
         21   -1    0    0  501  502  0.00000000000E+00  0.00000000000E+00  0.12856688358E+03  0.12856688358E+03  0.00000000000E+00 0. -1.
         21   -1    0    0  502  503 -0.00000000000E+00 -0.00000000000E+00 -0.32857581510E+03  0.32857581510E+03  0.00000000000E+00 0. -1.
          6    1    1    2  501    0 -0.22396217887E+02  0.64759840410E+02 -0.19925202030E+03  0.27199410857E+03  0.17200000000E+03 0. -1.
         -6    1    1    2    0  503  0.22396217887E+02 -0.64759840410E+02 -0.75691122204E+00  0.18514859011E+03  0.17200000000E+03 0. -1.
</event>
<event>
 4    1  0.5718861E+000  0.2494494E+03  0.7818608E-02  0.1113653E+00
         21   -1    0    0  503  502  0.00000000000E+00  0.00000000000E+00  0.11619768133E+04  0.11619768133E+04  0.00000000000E+00 0.  1.
         21   -1    0    0  501  503 -0.00000000000E+00 -0.00000000000E+00 -0.22143705908E+03  0.22143705908E+03  0.00000000000E+00 0. -1.
          6    1    1    2  501    0  0.13962663101E+03 -0.11465342864E+03 -0.13201826501E+03  0.28223009599E+03  0.17200000000E+03 0. -1.
         -6    1    1    2    0  502 -0.13962663101E+03  0.11465342864E+03  0.10725580192E+04  0.11011837764E+04  0.17200000000E+03 0.  1.
</event>
<event>
 4    1  0.5718861E+000  0.2034077E+03  0.7818608E-02  0.1146895E+00
         21   -1    0    0  501  502  0.00000000000E+00  0.00000000000E+00  0.32485291479E+03  0.32485291479E+03  0.00000000000E+00 0. -1.
         21   -1    0    0  502  503 -0.00000000000E+00 -0.00000000000E+00 -0.14172888698E+03  0.14172888698E+03  0.00000000000E+00 0.  1.
          6    1    1    2  501    0 -0.10615269410E+03  0.22853417827E+02  0.16583224262E+03  0.26244048061E+03  0.17200000000E+03 0. -1.
         -6    1    1    2    0  503  0.10615269410E+03 -0.22853417827E+02  0.17291785192E+02  0.20414132116E+03  0.17200000000E+03 0.  1.
</event>
<event>
 4    1  0.5718861E+000  0.1842003E+03  0.7818608E-02  0.1163799E+00
         21   -1    0    0  503  502  0.00000000000E+00  0.00000000000E+00  0.55853057925E+02  0.55853057925E+02  0.00000000000E+00 0.  1.
         21   -1    0    0  501  503 -0.00000000000E+00 -0.00000000000E+00 -0.96847255429E+03  0.96847255429E+03  0.00000000000E+00 0.  1.
          6    1    1    2  501    0  0.60662843271E+02  0.25802607555E+02 -0.76899831175E+03  0.79075164154E+03  0.17200000000E+03 0.  1.
         -6    1    1    2    0  502 -0.60662843271E+02 -0.25802607555E+02 -0.14362118461E+03  0.23357397068E+03  0.17200000000E+03 0.  1.
</event>
<event>
 4    1  0.5718861E+000  0.2067502E+03  0.7818608E-02  0.1144166E+00
         21   -1    0    0  501  502  0.00000000000E+00  0.00000000000E+00  0.18777087612E+03  0.18777087612E+03  0.00000000000E+00 0.  1.
         21   -1    0    0  502  503 -0.00000000000E+00 -0.00000000000E+00 -0.48533001469E+03  0.48533001469E+03  0.00000000000E+00 0. -1.
          6    1    1    2  501    0  0.11427229411E+03  0.10173119547E+02  0.96450496512E+02  0.22814107004E+03  0.17200000000E+03 0.  1.
         -6    1    1    2    0  503 -0.11427229411E+03 -0.10173119547E+02 -0.39400963509E+03  0.44495982077E+03  0.17200000000E+03 0. -1.
</event>
<event>
 4    1  0.5718861E+000  0.1721290E+03  0.7818608E-02  0.1175646E+00
         21   -1    0    0  501  502  0.00000000000E+00  0.00000000000E+00  0.40655287123E+02  0.40655287123E+02  0.00000000000E+00 0.  1.
         21   -1    0    0  502  503 -0.00000000000E+00 -0.00000000000E+00 -0.17248796437E+04  0.17248796437E+04  0.00000000000E+00 0.  1.
          6    1    1    2  501    0  0.27788443769E+01 -0.60570207060E+01 -0.17127025860E+03  0.24282073832E+03  0.17200000000E+03 0.  1.
         -6    1    1    2    0  503 -0.27788443769E+01  0.60570207060E+01 -0.15129540980E+04  0.15227141925E+04  0.17200000000E+03 0.  1.
</event>
<event>
 4    1  0.5718861E+000  0.1730710E+03  0.7818608E-02  0.1174683E+00
         21   -1    0    0  501  502  0.00000000000E+00  0.00000000000E+00  0.21050043199E+03  0.21050043199E+03  0.00000000000E+00 0.  1.
         21   -1    0    0  502  503 -0.00000000000E+00 -0.00000000000E+00 -0.14528926780E+03  0.14528926780E+03  0.00000000000E+00 0.  1.
          6    1    1    2  501    0  0.75830351987E+01 -0.17665001019E+02  0.70753034401E+01  0.17321551490E+03  0.17200000000E+03 0.  1.
         -6    1    1    2    0  503 -0.75830351987E+01  0.17665001019E+02  0.58135860741E+02  0.18257418489E+03  0.17200000000E+03 0.  1.
</event>
<event>
 4    1  0.5718861E+000  0.2007981E+03  0.7818608E-02  0.1149067E+00
         21   -1    0    0  503  502  0.00000000000E+00  0.00000000000E+00  0.31192218715E+03  0.31192218715E+03  0.00000000000E+00 0. -1.
         21   -1    0    0  501  503 -0.00000000000E+00 -0.00000000000E+00 -0.14806347367E+03  0.14806347367E+03  0.00000000000E+00 0. -1.
          6    1    1    2  501    0 -0.95330934102E+01  0.10317461708E+03 -0.26317809495E-01  0.20079811297E+03  0.17200000000E+03 0. -1.
         -6    1    1    2    0  502  0.95330934102E+01 -0.10317461708E+03  0.16388503129E+03  0.25918754785E+03  0.17200000000E+03 0. -1.
</event>
<event>
 4    1  0.5718861E+000  0.1855997E+03  0.7818608E-02  0.1162491E+00
         21   -1    0    0  501  502  0.00000000000E+00  0.00000000000E+00  0.40328863293E+02  0.40328863293E+02  0.00000000000E+00 0. -1.
         21   -1    0    0  502  503 -0.00000000000E+00 -0.00000000000E+00 -0.88820259171E+03  0.88820259171E+03  0.00000000000E+00 0. -1.
          6    1    1    2  501    0 -0.59835870863E+02 -0.35817947257E+02 -0.33304415566E+03  0.38126849648E+03  0.17200000000E+03 0. -1.
         -6    1    1    2    0  503  0.59835870863E+02  0.35817947257E+02 -0.51482957275E+03  0.54726295852E+03  0.17200000000E+03 0. -1.
</event>
<event>
 4    1  0.5718861E+000  0.2229382E+03  0.7818608E-02  0.1131711E+00
         21   -1    0    0  503  502  0.00000000000E+00  0.00000000000E+00  0.18345874373E+03  0.18345874373E+03  0.00000000000E+00 0. -1.
         21   -1    0    0  501  503 -0.00000000000E+00 -0.00000000000E+00 -0.37707043150E+03  0.37707043150E+03  0.00000000000E+00 0.  1.
          6    1    1    2  501    0  0.14183395327E+03 -0.76742223080E+00 -0.24551272569E+03  0.33162924737E+03  0.17200000000E+03 0.  1.
         -6    1    1    2    0  502 -0.14183395327E+03  0.76742223080E+00  0.51901037916E+02  0.22889992786E+03  0.17200000000E+03 0. -1.
</event>
<event>
 4    1  0.5718861E+000  0.1990763E+03  0.7818608E-02  0.1150521E+00
         21   -1    0    0  503  502  0.00000000000E+00  0.00000000000E+00  0.36408624437E+03  0.36408624437E+03  0.00000000000E+00 0. -1.
         21   -1    0    0  501  503 -0.00000000000E+00 -0.00000000000E+00 -0.19098107343E+03  0.19098107343E+03  0.00000000000E+00 0. -1.
          6    1    1    2  501    0  0.36659826627E+02  0.93292109944E+02 -0.95446868480E+02  0.22077469368E+03  0.17200000000E+03 0. -1.
         -6    1    1    2    0  502 -0.36659826627E+02 -0.93292109944E+02  0.26855203942E+03  0.33429262413E+03  0.17200000000E+03 0. -1.
</event>
<event>
 4    1  0.5718861E+000  0.3148337E+03  0.7818608E-02  0.1078052E+00
         21   -1    0    0  503  502  0.00000000000E+00  0.00000000000E+00  0.10873062718E+03  0.10873062718E+03  0.00000000000E+00 0.  1.
         21   -1    0    0  501  503 -0.00000000000E+00 -0.00000000000E+00 -0.11933744860E+04  0.11933744860E+04  0.00000000000E+00 0. -1.
          6    1    1    2  501    0 -0.23979652956E+03  0.10969917877E+03 -0.85867223688E+03  0.91457000596E+03  0.17200000000E+03 0. -1.
         -6    1    1    2    0  502  0.23979652956E+03 -0.10969917877E+03 -0.22597162196E+03  0.38753510724E+03  0.17200000000E+03 0.  1.
</event>
<event>
 4    1  0.5718861E+000  0.2084485E+03  0.7818608E-02  0.1142801E+00
         21   -1    0    0  501  502  0.00000000000E+00  0.00000000000E+00  0.10941617271E+03  0.10941617271E+03  0.00000000000E+00 0.  1.
         21   -1    0    0  502  503 -0.00000000000E+00 -0.00000000000E+00 -0.10343767466E+04  0.10343767466E+04  0.00000000000E+00 0.  1.
          6    1    1    2  501    0  0.11574065728E+03  0.21699940775E+02 -0.13593306774E+02  0.20889127595E+03  0.17200000000E+03 0.  1.
         -6    1    1    2    0  503 -0.11574065728E+03 -0.21699940775E+02 -0.91136726708E+03  0.93490164332E+03  0.17200000000E+03 0.  1.
</event>
<event>
 4    1  0.5718861E+000  0.2349759E+03  0.7818608E-02  0.1123186E+00
         21   -1    0    0  503  502  0.00000000000E+00  0.00000000000E+00  0.14447626734E+03  0.14447626734E+03  0.00000000000E+00 0.  1.
         21   -1    0    0  501  503 -0.00000000000E+00 -0.00000000000E+00 -0.43064661893E+03  0.43064661893E+03  0.00000000000E+00 0.  1.
          6    1    1    2  501    0 -0.94019982442E+02  0.12957585322E+03 -0.46599638286E+02  0.23955205097E+03  0.17200000000E+03 0.  1.
         -6    1    1    2    0  502  0.94019982442E+02 -0.12957585322E+03 -0.23957071330E+03  0.33557083531E+03  0.17200000000E+03 0.  1.
</event>
<event>
 4    1  0.5718861E+000  0.2224525E+03  0.7818608E-02  0.1132068E+00
         21   -1    0    0  503  502  0.00000000000E+00  0.00000000000E+00  0.24012670248E+03  0.24012670248E+03  0.00000000000E+00 0.  1.
         21   -1    0    0  501  503 -0.00000000000E+00 -0.00000000000E+00 -0.21615642231E+03  0.21615642231E+03  0.00000000000E+00 0. -1.
          6    1    1    2  501    0 -0.10919759651E+03  0.89314022460E+02 -0.37274538270E+02  0.22555376498E+03  0.17200000000E+03 0.  1.
         -6    1    1    2    0  502  0.10919759651E+03 -0.89314022460E+02  0.61244818436E+02  0.23072935981E+03  0.17200000000E+03 0. -1.
</event>
<event>
 4    1  0.5718861E+000  0.2717359E+03  0.7818608E-02  0.1100290E+00
         21   -1    0    0  501  502  0.00000000000E+00  0.00000000000E+00  0.11713585497E+04  0.11713585497E+04  0.00000000000E+00 0.  1.
         21   -1    0    0  502  503 -0.00000000000E+00 -0.00000000000E+00 -0.54739047970E+03  0.54739047970E+03  0.00000000000E+00 0. -1.
          6    1    1    2  501    0  0.33067786128E+02  0.20775684335E+03  0.11203620716E+04  0.11528449834E+04  0.17200000000E+03 0.  1.
         -6    1    1    2    0  503 -0.33067786128E+02 -0.20775684335E+03 -0.49639400157E+03  0.56590404596E+03  0.17200000000E+03 0. -1.
</event>
<event>
 4    1  0.5718861E+000  0.1838690E+03  0.7818608E-02  0.1164110E+00
         21   -1    0    0  501  502  0.00000000000E+00  0.00000000000E+00  0.53566147322E+03  0.53566147322E+03  0.00000000000E+00 0.  1.
         21   -1    0    0  502  503 -0.00000000000E+00 -0.00000000000E+00 -0.64671795285E+02  0.64671795285E+02  0.00000000000E+00 0.  1.
          6    1    1    2  501    0  0.62913487603E+02 -0.16300546142E+02  0.28207921036E+03  0.33671426409E+03  0.17200000000E+03 0. -1.
         -6    1    1    2    0  503 -0.62913487603E+02  0.16300546142E+02  0.18891046757E+03  0.26361900441E+03  0.17200000000E+03 0. -1.
</event>
<event>
 4    1  0.5718861E+000  0.1779975E+03  0.7818608E-02  0.1169755E+00
         21   -1    0    0  501  502  0.00000000000E+00  0.00000000000E+00  0.24625391251E+03  0.24625391251E+03  0.00000000000E+00 0.  1.
         21   -1    0    0  502  503 -0.00000000000E+00 -0.00000000000E+00 -0.25881521905E+03  0.25881521905E+03  0.00000000000E+00 0.  1.
          6    1    1    2  501    0  0.11590166133E+02  0.44325701090E+02  0.17280311982E+03  0.24808066822E+03  0.17200000000E+03 0.  1.
         -6    1    1    2    0  503 -0.11590166133E+02 -0.44325701090E+02 -0.18536442636E+03  0.25698846333E+03  0.17200000000E+03 0.  1.
</event>
<event>
 4    1  0.5718861E+000  0.1802913E+03  0.7818608E-02  0.1167521E+00
         21   -1    0    0  503  502  0.00000000000E+00  0.00000000000E+00  0.42126752082E+03  0.42126752082E+03  0.00000000000E+00 0. -1.
         21   -1    0    0  501  503 -0.00000000000E+00 -0.00000000000E+00 -0.97586205986E+02  0.97586205986E+02  0.00000000000E+00 0. -1.
          6    1    1    2  501    0  0.34808126209E+02  0.41344386526E+02  0.43150272147E+02  0.18538314361E+03  0.17200000000E+03 0. -1.
         -6    1    1    2    0  502 -0.34808126209E+02 -0.41344386526E+02  0.28053104268E+03  0.33347058320E+03  0.17200000000E+03 0. -1.
</event>
<event>
 4    1  0.5718861E+000  0.2042888E+03  0.7818608E-02  0.1146170E+00
         21   -1    0    0  503  502  0.00000000000E+00  0.00000000000E+00  0.37363674515E+03  0.37363674515E+03  0.00000000000E+00 0.  1.
         21   -1    0    0  501  503 -0.00000000000E+00 -0.00000000000E+00 -0.45974372664E+03  0.45974372664E+03  0.00000000000E+00 0.  1.
          6    1    1    2  501    0 -0.92783858464E+01 -0.10983541738E+03 -0.40560901128E+03  0.45415039072E+03  0.17200000000E+03 0.  1.
         -6    1    1    2    0  502  0.92783858464E+01  0.10983541738E+03  0.31950202979E+03  0.37923008108E+03  0.17200000000E+03 0.  1.
</event>
<event>
 4    1  0.5718861E+000  0.2536291E+03  0.7818608E-02  0.1111033E+00
         21   -1    0    0  501  502  0.00000000000E+00  0.00000000000E+00  0.54335924297E+03  0.54335924297E+03  0.00000000000E+00 0.  1.
         21   -1    0    0  502  503 -0.00000000000E+00 -0.00000000000E+00 -0.45791154043E+03  0.45791154043E+03  0.00000000000E+00 0.  1.
          6    1    1    2  501    0 -0.98957829780E+02 -0.15795903039E+03  0.47381104208E+03  0.53742405134E+03  0.17200000000E+03 0.  1.
         -6    1    1    2    0  503  0.98957829780E+02  0.15795903039E+03 -0.38836333953E+03  0.46384673207E+03  0.17200000000E+03 0.  1.
</event>
<event>
 4    1  0.5718861E+000  0.3082547E+03  0.7818608E-02  0.1081185E+00
         21   -1    0    0  503  502  0.00000000000E+00  0.00000000000E+00  0.10914610089E+03  0.10914610089E+03  0.00000000000E+00 0. -1.
         21   -1    0    0  501  503 -0.00000000000E+00 -0.00000000000E+00 -0.14713595275E+04  0.14713595275E+04  0.00000000000E+00 0. -1.
          6    1    1    2  501    0 -0.14375504080E+03 -0.21159268496E+03 -0.11860729538E+04  0.12254754293E+04  0.17200000000E+03 0. -1.
         -6    1    1    2    0  502  0.14375504080E+03  0.21159268496E+03 -0.17614047275E+03  0.35503019903E+03  0.17200000000E+03 0. -1.
</event>
<event>
 4    1  0.5718861E+000  0.1779447E+03  0.7818608E-02  0.1169807E+00
         21   -1    0    0  501  502  0.00000000000E+00  0.00000000000E+00  0.14571372458E+04  0.14571372458E+04  0.00000000000E+00 0.  1.
         21   -1    0    0  502  503 -0.00000000000E+00 -0.00000000000E+00 -0.26433298011E+02  0.26433298011E+02  0.00000000000E+00 0.  1.
          6    1    1    2  501    0  0.26296357448E+02 -0.37266716072E+02  0.10282343843E+04  0.10435182104E+04  0.17200000000E+03 0. -1.
         -6    1    1    2    0  503 -0.26296357448E+02  0.37266716072E+02  0.40246956355E+03  0.44005233340E+03  0.17200000000E+03 0. -1.
</event>
<event>
 4    1  0.5718861E+000  0.2283240E+03  0.7818608E-02  0.1127825E+00
         21   -1    0    0  501  502  0.00000000000E+00  0.00000000000E+00  0.16052776013E+03  0.16052776013E+03  0.00000000000E+00 0.  1.
         21   -1    0    0  502  503 -0.00000000000E+00 -0.00000000000E+00 -0.34842499008E+03  0.34842499008E+03  0.00000000000E+00 0. -1.
          6    1    1    2  501    0  0.74029765847E+02 -0.13064242840E+03 -0.27618396607E+02  0.22998831744E+03  0.17200000000E+03 0. -1.
         -6    1    1    2    0  503 -0.74029765847E+02  0.13064242840E+03 -0.16027883334E+03  0.27896443277E+03  0.17200000000E+03 0.  1.
</event>
<event>
 4    1  0.5718861E+000  0.1805112E+03  0.7818608E-02  0.1167309E+00
         21   -1    0    0  501  502  0.00000000000E+00  0.00000000000E+00  0.44746986245E+03  0.44746986245E+03  0.00000000000E+00 0. -1.
         21   -1    0    0  502  503 -0.00000000000E+00 -0.00000000000E+00 -0.98083948994E+02  0.98083948994E+02  0.00000000000E+00 0. -1.
          6    1    1    2  501    0  0.93022681844E+01 -0.53979251614E+02  0.31313504757E+03  0.36143858373E+03  0.17200000000E+03 0. -1.
         -6    1    1    2    0  503 -0.93022681844E+01  0.53979251614E+02  0.36250865894E+02  0.18411522771E+03  0.17200000000E+03 0. -1.
</event>
<event>
 4    1  0.5718861E+000  0.1941975E+03  0.7818608E-02  0.1154729E+00
         21   -1    0    0  501  502  0.00000000000E+00  0.00000000000E+00  0.27980735282E+03  0.27980735282E+03  0.00000000000E+00 0.  1.
         21   -1    0    0  502  503 -0.00000000000E+00 -0.00000000000E+00 -0.23450177281E+03  0.23450177281E+03  0.00000000000E+00 0.  1.
          6    1    1    2  501    0  0.90099346682E+02 -0.32803846566E+01  0.19034560951E+03  0.27192665234E+03  0.17200000000E+03 0.  1.
         -6    1    1    2    0  503 -0.90099346682E+02  0.32803846566E+01 -0.14504002950E+03  0.24238247328E+03  0.17200000000E+03 0.  1.
</event>
<event>
 4    1  0.5718861E+000  0.2808399E+03  0.7818608E-02  0.1095231E+00
         21   -1    0    0  503  502  0.00000000000E+00  0.00000000000E+00  0.24119797745E+03  0.24119797745E+03  0.00000000000E+00 0.  1.
         21   -1    0    0  501  503 -0.00000000000E+00 -0.00000000000E+00 -0.36103458739E+03  0.36103458739E+03  0.00000000000E+00 0.  1.
          6    1    1    2  501    0  0.19297533334E+03 -0.10976147316E+03  0.32538317337E+02  0.28271859218E+03  0.17200000000E+03 0.  1.
         -6    1    1    2    0  502 -0.19297533334E+03  0.10976147316E+03 -0.15237492728E+03  0.31951397267E+03  0.17200000000E+03 0.  1.
</event>
<event>
 4    1  0.5718861E+000  0.2038502E+03  0.7818608E-02  0.1146531E+00
         21   -1    0    0  503  502  0.00000000000E+00  0.00000000000E+00  0.25396632903E+02  0.25396632903E+02  0.00000000000E+00 0. -1.
         21   -1    0    0  501  503 -0.00000000000E+00 -0.00000000000E+00 -0.18258118045E+04  0.18258118045E+04  0.00000000000E+00 0. -1.
          6    1    1    2  501    0  0.27667568346E+02  0.10585558726E+03 -0.11984628467E+04  0.12156759825E+04  0.17200000000E+03 0. -1.
         -6    1    1    2    0  502 -0.27667568346E+02 -0.10585558726E+03 -0.60195232495E+03  0.63553245488E+03  0.17200000000E+03 0. -1.
</event>
<event>
 4    1  0.5718861E+000  0.1739696E+03  0.7818608E-02  0.1173770E+00
         21   -1    0    0  501  502  0.00000000000E+00  0.00000000000E+00  0.62355471148E+03  0.62355471148E+03  0.00000000000E+00 0.  1.
         21   -1    0    0  502  503 -0.00000000000E+00 -0.00000000000E+00 -0.97320938893E+02  0.97320938893E+02  0.00000000000E+00 0.  1.
          6    1    1    2  501    0 -0.25166057142E+02  0.69339739051E+01  0.51830832962E+03  0.54672564873E+03  0.17200000000E+03 0. -1.
         -6    1    1    2    0  503  0.25166057142E+02 -0.69339739051E+01  0.79254429687E+01  0.17415000164E+03  0.17200000000E+03 0. -1.
</event>
<event>
 4    1  0.5718861E+000  0.1750546E+03  0.7818608E-02  0.1172677E+00
         21   -1    0    0  501  502  0.00000000000E+00  0.00000000000E+00  0.13796055044E+03  0.13796055044E+03  0.00000000000E+00 0. -1.
         21   -1    0    0  502  503 -0.00000000000E+00 -0.00000000000E+00 -0.35614884601E+03  0.35614884601E+03  0.00000000000E+00 0. -1.
          6    1    1    2  501    0  0.10229135223E+02  0.30911043641E+02  0.42461667797E+02  0.18013084427E+03  0.17200000000E+03 0. -1.
         -6    1    1    2    0  503 -0.10229135223E+02 -0.30911043641E+02 -0.26064996336E+03  0.31397855218E+03  0.17200000000E+03 0. -1.
</event>
<event>
 4    1  0.5718861E+000  0.3528334E+03  0.7818608E-02  0.1061458E+00
         21   -1    0    0  501  502  0.00000000000E+00  0.00000000000E+00  0.23205603513E+03  0.23205603513E+03  0.00000000000E+00 0. -1.
         21   -1    0    0  502  503 -0.00000000000E+00 -0.00000000000E+00 -0.74236152034E+03  0.74236152034E+03  0.00000000000E+00 0.  1.
          6    1    1    2  501    0 -0.26225126486E+03 -0.16165305666E+03  0.14286059327E+01  0.35283633254E+03  0.17200000000E+03 0. -1.
         -6    1    1    2    0  503  0.26225126486E+03  0.16165305666E+03 -0.51173409114E+03  0.62158122292E+03  0.17200000000E+03 0.  1.
</event>
<event>
 4    1  0.5718861E+000  0.2296235E+03  0.7818608E-02  0.1126905E+00
         21   -1    0    0  503  502  0.00000000000E+00  0.00000000000E+00  0.11724790488E+04  0.11724790488E+04  0.00000000000E+00 0. -1.
         21   -1    0    0  501  503 -0.00000000000E+00 -0.00000000000E+00 -0.45974243055E+02  0.45974243055E+02  0.00000000000E+00 0.  1.
          6    1    1    2  501    0 -0.15185622078E+03 -0.90902878250E+01  0.47323275896E+03  0.52600017992E+03  0.17200000000E+03 0.  1.
         -6    1    1    2    0  502  0.15185622078E+03  0.90902878250E+01  0.65327204679E+03  0.69245311194E+03  0.17200000000E+03 0.  1.
</event>
<event>
 4    1  0.5718861E+000  0.3226867E+03  0.7818608E-02  0.1074419E+00
         21   -1    0    0  503  502  0.00000000000E+00  0.00000000000E+00  0.44031152852E+03  0.44031152852E+03  0.00000000000E+00 0. -1.
         21   -1    0    0  501  503 -0.00000000000E+00 -0.00000000000E+00 -0.32359394232E+03  0.32359394232E+03  0.00000000000E+00 0. -1.
          6    1    1    2  501    0  0.23316291594E+03 -0.14204849537E+03 -0.13981343530E+03  0.35167387890E+03  0.17200000000E+03 0. -1.
         -6    1    1    2    0  502 -0.23316291594E+03  0.14204849537E+03  0.25653102149E+03  0.41223159194E+03  0.17200000000E+03 0. -1.
</event>
<event>
 4    1  0.5718861E+000  0.2040412E+03  0.7818608E-02  0.1146374E+00
         21   -1    0    0  503  502  0.00000000000E+00  0.00000000000E+00  0.23053429835E+03  0.23053429835E+03  0.00000000000E+00 0. -1.
         21   -1    0    0  501  503 -0.00000000000E+00 -0.00000000000E+00 -0.27660839932E+03  0.27660839932E+03  0.00000000000E+00 0.  1.
          6    1    1    2  501    0  0.63527740445E+02 -0.89515629009E+02 -0.17243289687E+03  0.26714401653E+03  0.17200000000E+03 0.  1.
         -6    1    1    2    0  502 -0.63527740445E+02  0.89515629009E+02  0.12635879590E+03  0.23999868113E+03  0.17200000000E+03 0. -1.
</event>
<event>
 4    1  0.5718861E+000  0.1858411E+03  0.7818608E-02  0.1162267E+00
         21   -1    0    0  503  502  0.00000000000E+00  0.00000000000E+00  0.14133538982E+03  0.14133538982E+03  0.00000000000E+00 0. -1.
         21   -1    0    0  501  503 -0.00000000000E+00 -0.00000000000E+00 -0.83440037049E+03  0.83440037049E+03  0.00000000000E+00 0. -1.
          6    1    1    2  501    0  0.27858973416E+02  0.64628169096E+02 -0.75678883603E+03  0.77927290789E+03  0.17200000000E+03 0. -1.
         -6    1    1    2    0  502 -0.27858973416E+02 -0.64628169096E+02  0.63723855359E+02  0.19646285242E+03  0.17200000000E+03 0. -1.
</event>
<event>
 4    1  0.5718861E+000  0.2266148E+03  0.7818608E-02  0.1129045E+00
         21   -1    0    0  501  502  0.00000000000E+00  0.00000000000E+00  0.24328109377E+03  0.24328109377E+03  0.00000000000E+00 0. -1.
         21   -1    0    0  502  503 -0.00000000000E+00 -0.00000000000E+00 -0.23098716874E+03  0.23098716874E+03  0.00000000000E+00 0. -1.
          6    1    1    2  501    0  0.13952379608E+03  0.47993662042E+02  0.75744265194E+02  0.23893822419E+03  0.17200000000E+03 0. -1.
         -6    1    1    2    0  503 -0.13952379608E+03 -0.47993662042E+02 -0.63450340167E+02  0.23533003832E+03  0.17200000000E+03 0. -1.
</event>
<event>
 4    1  0.5718861E+000  0.2436197E+03  0.7818608E-02  0.1117405E+00
         21   -1    0    0  503  502  0.00000000000E+00  0.00000000000E+00  0.63639727936E+03  0.63639727936E+03  0.00000000000E+00 0.  1.
         21   -1    0    0  501  503 -0.00000000000E+00 -0.00000000000E+00 -0.12059146834E+03  0.12059146834E+03  0.00000000000E+00 0. -1.
          6    1    1    2  501    0  0.96096309237E+02 -0.14329007274E+03  0.77712804259E+02  0.25571434364E+03  0.17200000000E+03 0. -1.
         -6    1    1    2    0  502 -0.96096309237E+02  0.14329007274E+03  0.43809300676E+03  0.50127440406E+03  0.17200000000E+03 0.  1.
</event>
<event>
 4    1  0.5718861E+000  0.2336015E+03  0.7818608E-02  0.1124130E+00
         21   -1    0    0  503  502  0.00000000000E+00  0.00000000000E+00  0.29683283433E+03  0.29683283433E+03  0.00000000000E+00 0. -1.
         21   -1    0    0  501  503 -0.00000000000E+00 -0.00000000000E+00 -0.21382163613E+03  0.21382163613E+03  0.00000000000E+00 0.  1.
          6    1    1    2  501    0 -0.12731668190E+03  0.93680961274E+02 -0.54103920628E+02  0.23978510008E+03  0.17200000000E+03 0.  1.
         -6    1    1    2    0  502  0.12731668190E+03 -0.93680961274E+02  0.13711511883E+03  0.27086937038E+03  0.17200000000E+03 0. -1.
</event>
<event>
 4    1  0.5718861E+000  0.1988070E+03  0.7818608E-02  0.1150749E+00
         21   -1    0    0  501  502  0.00000000000E+00  0.00000000000E+00  0.61010722751E+02  0.61010722751E+02  0.00000000000E+00 0.  1.
         21   -1    0    0  502  503 -0.00000000000E+00 -0.00000000000E+00 -0.65719040048E+03  0.65719040048E+03  0.00000000000E+00 0. -1.
          6    1    1    2  501    0 -0.85240772071E+02  0.51712971151E+02 -0.25521988835E+03  0.32351416046E+03  0.17200000000E+03 0. -1.
         -6    1    1    2    0  503  0.85240772071E+02 -0.51712971151E+02 -0.34095978938E+03  0.39468696277E+03  0.17200000000E+03 0. -1.
</event>
<event>
 4    1  0.5718861E+000  0.2712635E+03  0.7818608E-02  0.1100559E+00
         21   -1    0    0  503  502  0.00000000000E+00  0.00000000000E+00  0.24727249009E+04  0.24727249009E+04  0.00000000000E+00 0.  1.
         21   -1    0    0  501  503 -0.00000000000E+00 -0.00000000000E+00 -0.10429290469E+03  0.10429290469E+03  0.00000000000E+00 0. -1.
          6    1    1    2  501    0  0.19960753898E+03  0.64472629674E+02  0.94936690649E+02  0.28739670288E+03  0.17200000000E+03 0. -1.
         -6    1    1    2    0  502 -0.19960753898E+03 -0.64472629674E+02  0.22734953056E+04  0.22896211027E+04  0.17200000000E+03 0.  1.
</event>
<event>
 4    1  0.5718861E+000  0.2081538E+03  0.7818608E-02  0.1143036E+00
         21   -1    0    0  503  502  0.00000000000E+00  0.00000000000E+00  0.84189294930E+02  0.84189294930E+02  0.00000000000E+00 0. -1.
         21   -1    0    0  501  503 -0.00000000000E+00 -0.00000000000E+00 -0.51741959442E+03  0.51741959442E+03  0.00000000000E+00 0. -1.
          6    1    1    2  501    0 -0.87822815178E+02 -0.77660485000E+02 -0.23862373722E+03  0.31665325793E+03  0.17200000000E+03 0. -1.
         -6    1    1    2    0  502  0.87822815178E+02  0.77660485000E+02 -0.19460656227E+03  0.28495563142E+03  0.17200000000E+03 0. -1.
</event>
<event>
 4    1  0.5718861E+000  0.1741354E+03  0.7818608E-02  0.1173603E+00
         21   -1    0    0  501  502  0.00000000000E+00  0.00000000000E+00  0.74154372546E+02  0.74154372546E+02  0.00000000000E+00 0. -1.
         21   -1    0    0  502  503 -0.00000000000E+00 -0.00000000000E+00 -0.42376329214E+03  0.42376329214E+03  0.00000000000E+00 0. -1.
          6    1    1    2  501    0  0.75309966030E+01  0.26122940617E+02 -0.12820861583E+03  0.21624193189E+03  0.17200000000E+03 0. -1.
         -6    1    1    2    0  503 -0.75309966030E+01 -0.26122940617E+02 -0.22140030376E+03  0.28167573279E+03  0.17200000000E+03 0. -1.
</event>
<event>
 4    1  0.5718861E+000  0.1927665E+03  0.7818608E-02  0.1155990E+00
         21   -1    0    0  501  502  0.00000000000E+00  0.00000000000E+00  0.25932540162E+03  0.25932540162E+03  0.00000000000E+00 0. -1.
         21   -1    0    0  502  503 -0.00000000000E+00 -0.00000000000E+00 -0.23594025846E+03  0.23594025846E+03  0.00000000000E+00 0.  1.
          6    1    1    2  501    0 -0.99686186002E+01 -0.86461288918E+02  0.16687008433E+03  0.25495990446E+03  0.17200000000E+03 0. -1.
         -6    1    1    2    0  503  0.99686186002E+01  0.86461288918E+02 -0.14348494118E+03  0.24030575562E+03  0.17200000000E+03 0.  1.
</event>
<event>
 4    1  0.5718861E+000  0.1878133E+03  0.7818608E-02  0.1160448E+00
         21   -1    0    0  503  502  0.00000000000E+00  0.00000000000E+00  0.50377281954E+03  0.50377281954E+03  0.00000000000E+00 0. -1.
         21   -1    0    0  501  503 -0.00000000000E+00 -0.00000000000E+00 -0.15531276571E+03  0.15531276571E+03  0.00000000000E+00 0. -1.
          6    1    1    2  501    0  0.68958590686E+02 -0.30570399773E+02 -0.69981432420E+02  0.20042763646E+03  0.17200000000E+03 0. -1.
         -6    1    1    2    0  502 -0.68958590686E+02  0.30570399773E+02  0.41844148625E+03  0.45865794879E+03  0.17200000000E+03 0. -1.
</event>
<event>
 4    1  0.5718861E+000  0.1912915E+03  0.7818608E-02  0.1157302E+00
         21   -1    0    0  501  502  0.00000000000E+00  0.00000000000E+00  0.24771998850E+03  0.24771998850E+03  0.00000000000E+00 0.  1.
         21   -1    0    0  502  503 -0.00000000000E+00 -0.00000000000E+00 -0.20209672987E+03  0.20209672987E+03  0.00000000000E+00 0. -1.
          6    1    1    2  501    0  0.45670043315E+02  0.70161827714E+02  0.13947775536E+03  0.23674137611E+03  0.17200000000E+03 0.  1.
         -6    1    1    2    0  503 -0.45670043315E+02 -0.70161827714E+02 -0.93854496721E+02  0.21307534226E+03  0.17200000000E+03 0. -1.
</event>
<event>
 4    1  0.5718861E+000  0.2963078E+03  0.7818608E-02  0.1087101E+00
         21   -1    0    0  501  502  0.00000000000E+00  0.00000000000E+00  0.57001400241E+03  0.57001400241E+03  0.00000000000E+00 0. -1.
         21   -1    0    0  502  503 -0.00000000000E+00 -0.00000000000E+00 -0.17112357784E+03  0.17112357784E+03  0.00000000000E+00 0.  1.
          6    1    1    2  501    0 -0.23725449525E+03  0.43870320950E+02  0.31657078027E+03  0.43360737943E+03  0.17200000000E+03 0. -1.
         -6    1    1    2    0  503  0.23725449525E+03 -0.43870320950E+02  0.82319644303E+02  0.30753020082E+03  0.17200000000E+03 0.  1.
</event>
<event>
 4    1  0.5718861E+000  0.1938936E+03  0.7818608E-02  0.1154996E+00
         21   -1    0    0  501  502  0.00000000000E+00  0.00000000000E+00  0.96511979767E+02  0.96511979767E+02  0.00000000000E+00 0. -1.
         21   -1    0    0  502  503 -0.00000000000E+00 -0.00000000000E+00 -0.45314641392E+03  0.45314641392E+03  0.00000000000E+00 0.  1.
          6    1    1    2  501    0  0.71921056168E+02 -0.53273803784E+02 -0.75346638035E+02  0.20801887499E+03  0.17200000000E+03 0. -1.
         -6    1    1    2    0  503 -0.71921056168E+02  0.53273803784E+02 -0.28128779612E+03  0.34163951870E+03  0.17200000000E+03 0.  1.
</event>
<event>
 4    1  0.5718861E+000  0.1873463E+03  0.7818608E-02  0.1160877E+00
         21   -1    0    0  501  502  0.00000000000E+00  0.00000000000E+00  0.17697765676E+03  0.17697765676E+03  0.00000000000E+00 0.  1.
         21   -1    0    0  502  503 -0.00000000000E+00 -0.00000000000E+00 -0.22694744188E+03  0.22694744188E+03  0.00000000000E+00 0.  1.
          6    1    1    2  501    0  0.70297139043E+02 -0.23936171578E+02  0.46741915104E+02  0.19308918845E+03  0.17200000000E+03 0.  1.
         -6    1    1    2    0  503 -0.70297139043E+02  0.23936171578E+02 -0.96711700219E+02  0.21083591019E+03  0.17200000000E+03 0.  1.
</event>
<event>
 4    1  0.5718861E+000  0.1850959E+03  0.7818608E-02  0.1162960E+00
         21   -1    0    0  501  502  0.00000000000E+00  0.00000000000E+00  0.14229204100E+03  0.14229204100E+03  0.00000000000E+00 0. -1.
         21   -1    0    0  502  503 -0.00000000000E+00 -0.00000000000E+00 -0.28489567105E+03  0.28489567105E+03  0.00000000000E+00 0.  1.
          6    1    1    2  501    0  0.41911430782E+02 -0.54036366872E+02 -0.15535658448E+03  0.24165298532E+03  0.17200000000E+03 0.  1.
         -6    1    1    2    0  503 -0.41911430782E+02  0.54036366872E+02  0.12752954424E+02  0.18553472673E+03  0.17200000000E+03 0. -1.
</event>
<event>
 4    1  0.5718861E+000  0.2480055E+03  0.7818608E-02  0.1114572E+00
         21   -1    0    0  503  502  0.00000000000E+00  0.00000000000E+00  0.20921201506E+03  0.20921201506E+03  0.00000000000E+00 0. -1.
         21   -1    0    0  501  503 -0.00000000000E+00 -0.00000000000E+00 -0.34968449831E+03  0.34968449831E+03  0.00000000000E+00 0. -1.
          6    1    1    2  501    0  0.60259824753E+02  0.16820068999E+03  0.41285732622E+02  0.25141843670E+03  0.17200000000E+03 0. -1.
         -6    1    1    2    0  502 -0.60259824753E+02 -0.16820068999E+03 -0.18175821588E+03  0.30747807667E+03  0.17200000000E+03 0. -1.
</event>
<event>
 4    1  0.5718861E+000  0.1853237E+03  0.7818608E-02  0.1162748E+00
         21   -1    0    0  503  502  0.00000000000E+00  0.00000000000E+00  0.15667364036E+04  0.15667364036E+04  0.00000000000E+00 0. -1.
         21   -1    0    0  501  503 -0.00000000000E+00 -0.00000000000E+00 -0.35072671233E+03  0.35072671233E+03  0.00000000000E+00 0.  1.
          6    1    1    2  501    0 -0.68986235914E+02 -0.13300004171E+01 -0.32028177704E+03  0.37003416917E+03  0.17200000000E+03 0.  1.
         -6    1    1    2    0  502  0.68986235914E+02  0.13300004171E+01  0.15362914683E+04  0.15474289467E+04  0.17200000000E+03 0. -1.
</event>
<event>
 4    1  0.5718861E+000  0.2006700E+03  0.7818608E-02  0.1149175E+00
         21   -1    0    0  503  502  0.00000000000E+00  0.00000000000E+00  0.89210774876E+02  0.89210774876E+02  0.00000000000E+00 0. -1.
         21   -1    0    0  501  503 -0.00000000000E+00 -0.00000000000E+00 -0.64158796208E+03  0.64158796208E+03  0.00000000000E+00 0.  1.
          6    1    1    2  501    0 -0.52742510024E+02  0.88897063561E+02 -0.47514028130E+03  0.51577780796E+03  0.17200000000E+03 0.  1.
         -6    1    1    2    0  502  0.52742510024E+02 -0.88897063561E+02 -0.77236905913E+02  0.21502092900E+03  0.17200000000E+03 0. -1.
</event>
<event>
 4    1  0.5718861E+000  0.1928818E+03  0.7818608E-02  0.1155887E+00
         21   -1    0    0  503  502  0.00000000000E+00  0.00000000000E+00  0.42763616268E+03  0.42763616268E+03  0.00000000000E+00 0. -1.
         21   -1    0    0  501  503 -0.00000000000E+00 -0.00000000000E+00 -0.20019430858E+03  0.20019430858E+03  0.00000000000E+00 0. -1.
          6    1    1    2  501    0  0.84697313029E+02  0.21113291096E+02 -0.12232855103E+03  0.22840245246E+03  0.17200000000E+03 0. -1.
         -6    1    1    2    0  502 -0.84697313029E+02 -0.21113291096E+02  0.34977040513E+03  0.39942801880E+03  0.17200000000E+03 0. -1.
</event>
<event>
 4    1  0.5718861E+000  0.1876373E+03  0.7818608E-02  0.1160610E+00
         21   -1    0    0  503  502  0.00000000000E+00  0.00000000000E+00  0.30276936959E+03  0.30276936959E+03  0.00000000000E+00 0. -1.
         21   -1    0    0  501  503 -0.00000000000E+00 -0.00000000000E+00 -0.11628605407E+03  0.11628605407E+03  0.00000000000E+00 0. -1.
          6    1    1    2  501    0 -0.74375606479E+02  0.95928261946E+01  0.92884796945E+02  0.20936890566E+03  0.17200000000E+03 0. -1.
         -6    1    1    2    0  502  0.74375606479E+02 -0.95928261946E+01  0.93598518579E+02  0.20968651801E+03  0.17200000000E+03 0. -1.
</event>
<event>
 4    1  0.5718861E+000  0.2565497E+03  0.7818608E-02  0.1109234E+00
         21   -1    0    0  503  502  0.00000000000E+00  0.00000000000E+00  0.88107189800E+03  0.88107189800E+03  0.00000000000E+00 0. -1.
         21   -1    0    0  501  503 -0.00000000000E+00 -0.00000000000E+00 -0.83124340853E+02  0.83124340853E+02  0.00000000000E+00 0. -1.
          6    1    1    2  501    0 -0.59159558956E+02 -0.18092509977E+03  0.24551550588E+03  0.35509943504E+03  0.17200000000E+03 0. -1.
         -6    1    1    2    0  502  0.59159558956E+02  0.18092509977E+03  0.55243205127E+03  0.60909680381E+03  0.17200000000E+03 0. -1.
</event>
<event>
 4    1  0.5718861E+000  0.1873398E+03  0.7818608E-02  0.1160883E+00
         21   -1    0    0  503  502  0.00000000000E+00  0.00000000000E+00  0.44985346228E+02  0.44985346228E+02  0.00000000000E+00 0.  1.
         21   -1    0    0  501  503 -0.00000000000E+00 -0.00000000000E+00 -0.10055552604E+04  0.10055552604E+04  0.00000000000E+00 0.  1.
          6    1    1    2  501    0 -0.39667531467E+02 -0.62759058759E+02 -0.72896603481E+03  0.75265376662E+03  0.17200000000E+03 0.  1.
         -6    1    1    2    0  502  0.39667531467E+02  0.62759058759E+02 -0.23160387934E+03  0.29788683998E+03  0.17200000000E+03 0.  1.
</event>
<event>
 4    1  0.5718861E+000  0.1994280E+03  0.7818608E-02  0.1150222E+00
         21   -1    0    0  501  502  0.00000000000E+00  0.00000000000E+00  0.33740380124E+02  0.33740380124E+02  0.00000000000E+00 0.  1.
         21   -1    0    0  502  503 -0.00000000000E+00 -0.00000000000E+00 -0.11871955114E+04  0.11871955114E+04  0.00000000000E+00 0.  1.
          6    1    1    2  501    0  0.54949001588E+02 -0.84664921542E+02 -0.52524473670E+03  0.56183055733E+03  0.17200000000E+03 0.  1.
         -6    1    1    2    0  503 -0.54949001588E+02  0.84664921542E+02 -0.62821039461E+03  0.65910533423E+03  0.17200000000E+03 0.  1.
</event>
<event>
 4    1  0.5718861E+000  0.1853808E+03  0.7818608E-02  0.1162695E+00
         21   -1    0    0  503  502  0.00000000000E+00  0.00000000000E+00  0.34845441951E+03  0.34845441951E+03  0.00000000000E+00 0.  1.
         21   -1    0    0  501  503 -0.00000000000E+00 -0.00000000000E+00 -0.99284169644E+02  0.99284169644E+02  0.00000000000E+00 0.  1.
          6    1    1    2  501    0 -0.68178325976E+02  0.11564619513E+02  0.10633232304E+03  0.21371145847E+03  0.17200000000E+03 0. -1.
         -6    1    1    2    0  502  0.68178325976E+02 -0.11564619513E+02  0.14283792682E+03  0.23402713068E+03  0.17200000000E+03 0. -1.
</event>
<event>
 4    1  0.5718861E+000  0.2415632E+03  0.7818608E-02  0.1118756E+00
         21   -1    0    0  501  502  0.00000000000E+00  0.00000000000E+00  0.21245639368E+04  0.21245639368E+04  0.00000000000E+00 0. -1.
         21   -1    0    0  502  503 -0.00000000000E+00 -0.00000000000E+00 -0.55701589896E+02  0.55701589896E+02  0.00000000000E+00 0.  1.
          6    1    1    2  501    0 -0.15015961501E+03 -0.78872498168E+02  0.18105814397E+04  0.18266247372E+04  0.17200000000E+03 0. -1.
         -6    1    1    2    0  503  0.15015961501E+03  0.78872498168E+02  0.25828090728E+03  0.35364078952E+03  0.17200000000E+03 0.  1.
</event>
<event>
 4    1  0.5718861E+000  0.1731495E+03  0.7818608E-02  0.1174603E+00
         21   -1    0    0  501  502  0.00000000000E+00  0.00000000000E+00  0.39443484062E+02  0.39443484062E+02  0.00000000000E+00 0. -1.
         21   -1    0    0  502  503 -0.00000000000E+00 -0.00000000000E+00 -0.95466234465E+03  0.95466234465E+03  0.00000000000E+00 0. -1.
          6    1    1    2  501    0  0.29564632502E+01 -0.19698087658E+02 -0.68200476683E+03  0.70364142666E+03  0.17200000000E+03 0. -1.
         -6    1    1    2    0  503 -0.29564632502E+01  0.19698087658E+02 -0.23321409376E+03  0.29046440205E+03  0.17200000000E+03 0. -1.
</event>
<event>
 4    1  0.5718861E+000  0.1859718E+03  0.7818608E-02  0.1162146E+00
         21   -1    0    0  501  502  0.00000000000E+00  0.00000000000E+00  0.20173438553E+03  0.20173438553E+03  0.00000000000E+00 0.  1.
         21   -1    0    0  502  503 -0.00000000000E+00 -0.00000000000E+00 -0.33224729817E+03  0.33224729817E+03  0.00000000000E+00 0.  1.
          6    1    1    2  501    0 -0.36773594366E+01 -0.70625653494E+02  0.12048866825E+03  0.22159202396E+03  0.17200000000E+03 0.  1.
         -6    1    1    2    0  503  0.36773594366E+01  0.70625653494E+02 -0.25100158089E+03  0.31238965974E+03  0.17200000000E+03 0.  1.
</event>
<event>
 4    1  0.5718861E+000  0.2642071E+03  0.7818608E-02  0.1104642E+00
         21   -1    0    0  503  502  0.00000000000E+00  0.00000000000E+00  0.82212588227E+03  0.82212588227E+03  0.00000000000E+00 0. -1.
         21   -1    0    0  501  503 -0.00000000000E+00 -0.00000000000E+00 -0.11194216602E+03  0.11194216602E+03  0.00000000000E+00 0.  1.
          6    1    1    2  501    0  0.19806493487E+03 -0.31491142497E+02  0.12558018718E+03  0.29253340646E+03  0.17200000000E+03 0.  1.
         -6    1    1    2    0  502 -0.19806493487E+03  0.31491142497E+02  0.58460352906E+03  0.64153464183E+03  0.17200000000E+03 0. -1.
</event>
<event>
 4    1  0.5718861E+000  0.1721275E+03  0.7818608E-02  0.1175647E+00
         21   -1    0    0  503  502  0.00000000000E+00  0.00000000000E+00  0.69718757007E+02  0.69718757007E+02  0.00000000000E+00 0.  1.
         21   -1    0    0  501  503 -0.00000000000E+00 -0.00000000000E+00 -0.44345782042E+03  0.44345782042E+03  0.00000000000E+00 0.  1.
          6    1    1    2  501    0 -0.63501881358E+01  0.18883424849E+01 -0.13446896696E+03  0.21842571690E+03  0.17200000000E+03 0. -1.
         -6    1    1    2    0  502  0.63501881358E+01 -0.18883424849E+01 -0.23927009645E+03  0.29475086053E+03  0.17200000000E+03 0. -1.
</event>
<event>
 4    1  0.5718861E+000  0.1725930E+03  0.7818608E-02  0.1175170E+00
         21   -1    0    0  501  502  0.00000000000E+00  0.00000000000E+00  0.10417130519E+03  0.10417130519E+03  0.00000000000E+00 0. -1.
         21   -1    0    0  502  503 -0.00000000000E+00 -0.00000000000E+00 -0.35282747014E+03  0.35282747014E+03  0.00000000000E+00 0. -1.
          6    1    1    2  501    0 -0.76869541874E+01 -0.12051631482E+02 -0.24850154045E+02  0.17437276520E+03  0.17200000000E+03 0. -1.
         -6    1    1    2    0  503  0.76869541874E+01  0.12051631482E+02 -0.22380601091E+03  0.28262601014E+03  0.17200000000E+03 0. -1.
</event>
<event>
 4    1  0.5718861E+000  0.1851997E+03  0.7818608E-02  0.1162863E+00
         21   -1    0    0  501  502  0.00000000000E+00  0.00000000000E+00  0.27208326777E+03  0.27208326777E+03  0.00000000000E+00 0.  1.
         21   -1    0    0  502  503 -0.00000000000E+00 -0.00000000000E+00 -0.14444022252E+03  0.14444022252E+03  0.00000000000E+00 0.  1.
          6    1    1    2  501    0 -0.29586834245E+02  0.61964236444E+02  0.13811234048E+03  0.23102806313E+03  0.17200000000E+03 0.  1.
         -6    1    1    2    0  503  0.29586834245E+02 -0.61964236444E+02 -0.10469295228E+02  0.18549542717E+03  0.17200000000E+03 0.  1.
</event>
<event>
 4    1  0.5718861E+000  0.1849149E+03  0.7818608E-02  0.1163129E+00
         21   -1    0    0  503  502  0.00000000000E+00  0.00000000000E+00  0.27492512211E+03  0.27492512211E+03  0.00000000000E+00 0. -1.
         21   -1    0    0  501  503 -0.00000000000E+00 -0.00000000000E+00 -0.15781155928E+03  0.15781155928E+03  0.00000000000E+00 0. -1.
          6    1    1    2  501    0  0.32632500557E+02 -0.59536792095E+02 -0.41039297748E+02  0.18941418549E+03  0.17200000000E+03 0. -1.
         -6    1    1    2    0  502 -0.32632500557E+02  0.59536792095E+02  0.15815286058E+03  0.24332249591E+03  0.17200000000E+03 0. -1.
</event>
<event>
 4    1  0.5718861E+000  0.1730751E+03  0.7818608E-02  0.1174678E+00
         21   -1    0    0  503  502  0.00000000000E+00  0.00000000000E+00  0.20936325397E+03  0.20936325397E+03  0.00000000000E+00 0.  1.
         21   -1    0    0  501  503 -0.00000000000E+00 -0.00000000000E+00 -0.21006538089E+03  0.21006538089E+03  0.00000000000E+00 0.  1.
          6    1    1    2  501    0 -0.10230175216E+02  0.16319632169E+02 -0.11877835808E+03  0.20991256567E+03  0.17200000000E+03 0.  1.
         -6    1    1    2    0  502  0.10230175216E+02 -0.16319632169E+02  0.11807623116E+03  0.20951606918E+03  0.17200000000E+03 0.  1.
</event>
<event>
 4    1  0.5718861E+000  0.1933165E+03  0.7818608E-02  0.1155504E+00
         21   -1    0    0  503  502  0.00000000000E+00  0.00000000000E+00  0.49031418991E+03  0.49031418991E+03  0.00000000000E+00 0. -1.
         21   -1    0    0  501  503 -0.00000000000E+00 -0.00000000000E+00 -0.11776126501E+03  0.11776126501E+03  0.00000000000E+00 0.  1.
          6    1    1    2  501    0 -0.82798367101E+02  0.30523908817E+02  0.56958570049E+01  0.19340041725E+03  0.17200000000E+03 0.  1.
         -6    1    1    2    0  502  0.82798367101E+02 -0.30523908817E+02  0.36685706789E+03  0.41467503767E+03  0.17200000000E+03 0. -1.
</event>
<event>
 4    1  0.5718861E+000  0.1746397E+03  0.7818608E-02  0.1173094E+00
         21   -1    0    0  501  502  0.00000000000E+00  0.00000000000E+00  0.27702212875E+03  0.27702212875E+03  0.00000000000E+00 0.  1.
         21   -1    0    0  502  503 -0.00000000000E+00 -0.00000000000E+00 -0.15114504208E+03  0.15114504208E+03  0.00000000000E+00 0. -1.
          6    1    1    2  501    0  0.23095089830E+02  0.19536018074E+02  0.17450604863E+03  0.24688337365E+03  0.17200000000E+03 0.  1.
         -6    1    1    2    0  503 -0.23095089830E+02 -0.19536018074E+02 -0.48628961973E+02  0.18128379718E+03  0.17200000000E+03 0. -1.
</event>
<event>
 4    1  0.5718861E+000  0.2552924E+03  0.7818608E-02  0.1110005E+00
         21   -1    0    0  503  502  0.00000000000E+00  0.00000000000E+00  0.99954594796E+02  0.99954594796E+02  0.00000000000E+00 0.  1.
         21   -1    0    0  501  503 -0.00000000000E+00 -0.00000000000E+00 -0.87339844125E+03  0.87339844125E+03  0.00000000000E+00 0. -1.
          6    1    1    2  501    0 -0.35343106110E+02 -0.18531340907E+03 -0.63173213488E+03  0.68136604331E+03  0.17200000000E+03 0. -1.
         -6    1    1    2    0  502  0.35343106110E+02  0.18531340907E+03 -0.14171171157E+03  0.29198699274E+03  0.17200000000E+03 0.  1.
</event>
<event>
 4    1  0.5718861E+000  0.1953595E+03  0.7818608E-02  0.1153714E+00
         21   -1    0    0  503  502  0.00000000000E+00  0.00000000000E+00  0.54293108020E+03  0.54293108020E+03  0.00000000000E+00 0.  1.
         21   -1    0    0  501  503 -0.00000000000E+00 -0.00000000000E+00 -0.89980206706E+02  0.89980206706E+02  0.00000000000E+00 0.  1.
          6    1    1    2  501    0 -0.84294710660E+00 -0.92631570715E+02  0.78459054556E+02  0.21052586942E+03  0.17200000000E+03 0. -1.
         -6    1    1    2    0  502  0.84294710660E+00  0.92631570715E+02  0.37449181893E+03  0.42238541748E+03  0.17200000000E+03 0. -1.
</event>
<event>
 4    1  0.5718861E+000  0.2440929E+03  0.7818608E-02  0.1117096E+00
         21   -1    0    0  503  502  0.00000000000E+00  0.00000000000E+00  0.20830950129E+03  0.20830950129E+03  0.00000000000E+00 0. -1.
         21   -1    0    0  501  503 -0.00000000000E+00 -0.00000000000E+00 -0.34458698108E+03  0.34458698108E+03  0.00000000000E+00 0. -1.
          6    1    1    2  501    0 -0.72103817664E+02 -0.15747496601E+03 -0.18210581240E+03  0.30453875345E+03  0.17200000000E+03 0. -1.
         -6    1    1    2    0  502  0.72103817664E+02  0.15747496601E+03  0.45828332618E+02  0.24835772892E+03  0.17200000000E+03 0. -1.
</event>
<event>
 4    1  0.5718861E+000  0.2082990E+03  0.7818608E-02  0.1142920E+00
         21   -1    0    0  503  502  0.00000000000E+00  0.00000000000E+00  0.10239083180E+04  0.10239083180E+04  0.00000000000E+00 0. -1.
         21   -1    0    0  501  503 -0.00000000000E+00 -0.00000000000E+00 -0.45931065982E+02  0.45931065982E+02  0.00000000000E+00 0.  1.
          6    1    1    2  501    0 -0.31722609135E+02  0.11312888433E+03  0.34015565541E+03  0.39886631633E+03  0.17200000000E+03 0.  1.
         -6    1    1    2    0  502  0.31722609135E+02 -0.11312888433E+03  0.63782159658E+03  0.67097306761E+03  0.17200000000E+03 0. -1.
</event>
<event>
 4    1  0.5718861E+000  0.1953609E+03  0.7818608E-02  0.1153713E+00
         21   -1    0    0  503  502  0.00000000000E+00  0.00000000000E+00  0.49933206549E+03  0.49933206549E+03  0.00000000000E+00 0.  1.
         21   -1    0    0  501  503 -0.00000000000E+00 -0.00000000000E+00 -0.11492076409E+03  0.11492076409E+03  0.00000000000E+00 0.  1.
          6    1    1    2  501    0  0.92627946661E+02 -0.14007910347E+01  0.14470157711E+02  0.19589610558E+03  0.17200000000E+03 0.  1.
         -6    1    1    2    0  502 -0.92627946661E+02  0.14007910347E+01  0.36994114369E+03  0.41835672400E+03  0.17200000000E+03 0.  1.
</event>
<event>
 4    1  0.5718861E+000  0.2906483E+03  0.7818608E-02  0.1090011E+00
         21   -1    0    0  503  502  0.00000000000E+00  0.00000000000E+00  0.41065181104E+02  0.41065181104E+02  0.00000000000E+00 0.  1.
         21   -1    0    0  501  503 -0.00000000000E+00 -0.00000000000E+00 -0.21151148998E+04  0.21151148998E+04  0.00000000000E+00 0. -1.
          6    1    1    2  501    0  0.23416109914E+03 -0.78095872847E+01 -0.85852163963E+03  0.90638612949E+03  0.17200000000E+03 0.  1.
         -6    1    1    2    0  502 -0.23416109914E+03  0.78095872847E+01 -0.12155280790E+04  0.12497939514E+04  0.17200000000E+03 0. -1.
</event>
<event>
 4    1  0.5718861E+000  0.2438116E+03  0.7818608E-02  0.1117279E+00
         21   -1    0    0  501  502  0.00000000000E+00  0.00000000000E+00  0.20401629799E+03  0.20401629799E+03  0.00000000000E+00 0.  1.
         21   -1    0    0  502  503 -0.00000000000E+00 -0.00000000000E+00 -0.30238200870E+03  0.30238200870E+03  0.00000000000E+00 0. -1.
          6    1    1    2  501    0  0.16962381460E+03  0.32982991186E+02 -0.86268825011E+00  0.24381316703E+03  0.17200000000E+03 0. -1.
         -6    1    1    2    0  503 -0.16962381460E+03 -0.32982991186E+02 -0.97503022459E+02  0.26258513967E+03  0.17200000000E+03 0. -1.
</event>
<event>
 4    1  0.5718861E+000  0.1880707E+03  0.7818608E-02  0.1160213E+00
         21   -1    0    0  501  502  0.00000000000E+00  0.00000000000E+00  0.48126925528E+02  0.48126925528E+02  0.00000000000E+00 0.  1.
         21   -1    0    0  502  503 -0.00000000000E+00 -0.00000000000E+00 -0.73757379808E+03  0.73757379808E+03  0.00000000000E+00 0.  1.
          6    1    1    2  501    0 -0.11046885854E+02 -0.75263195211E+02 -0.36818234348E+03  0.41343538829E+03  0.17200000000E+03 0. -1.
         -6    1    1    2    0  503  0.11046885854E+02  0.75263195211E+02 -0.32126452908E+03  0.37226533533E+03  0.17200000000E+03 0. -1.
</event>
<event>
 4    1  0.5718861E+000  0.2374479E+03  0.7818608E-02  0.1121505E+00
         21   -1    0    0  503  502  0.00000000000E+00  0.00000000000E+00  0.43776812852E+03  0.43776812852E+03  0.00000000000E+00 0. -1.
         21   -1    0    0  501  503 -0.00000000000E+00 -0.00000000000E+00 -0.12882342712E+03  0.12882342712E+03  0.00000000000E+00 0. -1.
          6    1    1    2  501    0 -0.15509053000E+03 -0.52387186599E+02  0.15012164954E+03  0.28092347620E+03  0.17200000000E+03 0. -1.
         -6    1    1    2    0  502  0.15509053000E+03  0.52387186599E+02  0.15882305185E+03  0.28566807945E+03  0.17200000000E+03 0. -1.
</event>
<event>
 4    1  0.5718861E+000  0.1760878E+03  0.7818608E-02  0.1171644E+00
         21   -1    0    0  503  502  0.00000000000E+00  0.00000000000E+00  0.14143665688E+04  0.14143665688E+04  0.00000000000E+00 0. -1.
         21   -1    0    0  501  503 -0.00000000000E+00 -0.00000000000E+00 -0.22041723719E+02  0.22041723719E+02  0.00000000000E+00 0. -1.
          6    1    1    2  501    0 -0.33816679089E+02 -0.16714050230E+02  0.74890877451E+03  0.76933170986E+03  0.17200000000E+03 0. -1.
         -6    1    1    2    0  502  0.33816679089E+02  0.16714050230E+02  0.64341607053E+03  0.66707658261E+03  0.17200000000E+03 0. -1.
</event>
<event>
 4    1  0.5718861E+000  0.3931758E+03  0.7818608E-02  0.1046169E+00
         21   -1    0    0  501  502  0.00000000000E+00  0.00000000000E+00  0.12081833362E+03  0.12081833362E+03  0.00000000000E+00 0. -1.
         21   -1    0    0  502  503 -0.00000000000E+00 -0.00000000000E+00 -0.14638719829E+04  0.14638719829E+04  0.00000000000E+00 0.  1.
          6    1    1    2  501    0 -0.26296169158E+03  0.23633524241E+03 -0.39033094297E+03  0.55402657254E+03  0.17200000000E+03 0.  1.
         -6    1    1    2    0  503  0.26296169158E+03 -0.23633524241E+03 -0.95272270631E+03  0.10306637440E+04  0.17200000000E+03 0.  1.
</event>
<event>
 4    1  0.5718861E+000  0.2094432E+03  0.7818608E-02  0.1142008E+00
         21   -1    0    0  501  502  0.00000000000E+00  0.00000000000E+00  0.93594265476E+02  0.93594265476E+02  0.00000000000E+00 0.  1.
         21   -1    0    0  502  503 -0.00000000000E+00 -0.00000000000E+00 -0.72005429844E+03  0.72005429844E+03  0.00000000000E+00 0.  1.
          6    1    1    2  501    0  0.24870543198E+02 -0.11689274849E+03 -0.72861139593E+02  0.22175482910E+03  0.17200000000E+03 0.  1.
         -6    1    1    2    0  503 -0.24870543198E+02  0.11689274849E+03 -0.55359889337E+03  0.59189373482E+03  0.17200000000E+03 0.  1.
</event>
<event>
 4    1  0.5718861E+000  0.2730995E+03  0.7818608E-02  0.1099519E+00
         21   -1    0    0  503  502  0.00000000000E+00  0.00000000000E+00  0.95589385660E+02  0.95589385660E+02  0.00000000000E+00 0.  1.
         21   -1    0    0  501  503 -0.00000000000E+00 -0.00000000000E+00 -0.78406146054E+03  0.78406146054E+03  0.00000000000E+00 0.  1.
          6    1    1    2  501    0  0.57790419256E+02 -0.20410689378E+03 -0.37491260752E+03  0.46383490589E+03  0.17200000000E+03 0.  1.
         -6    1    1    2    0  502 -0.57790419256E+02  0.20410689378E+03 -0.31355946736E+03  0.41581594031E+03  0.17200000000E+03 0.  1.
</event>
<event>
 4    1  0.5718861E+000  0.1978703E+03  0.7818608E-02  0.1151548E+00
         21   -1    0    0  503  502  0.00000000000E+00  0.00000000000E+00  0.39295587320E+03  0.39295587320E+03  0.00000000000E+00 0.  1.
         21   -1    0    0  501  503 -0.00000000000E+00 -0.00000000000E+00 -0.10781718159E+03  0.10781718159E+03  0.00000000000E+00 0. -1.
          6    1    1    2  501    0  0.41618919793E+02  0.88524143778E+02  0.73598151049E+02  0.21111453374E+03  0.17200000000E+03 0.  1.
         -6    1    1    2    0  502 -0.41618919793E+02 -0.88524143778E+02  0.21154054057E+03  0.28965852105E+03  0.17200000000E+03 0.  1.
</event>
<event>
 4    1  0.5718861E+000  0.1746800E+03  0.7818608E-02  0.1173053E+00
         21   -1    0    0  503  502  0.00000000000E+00  0.00000000000E+00  0.19255142609E+03  0.19255142609E+03  0.00000000000E+00 0.  1.
         21   -1    0    0  501  503 -0.00000000000E+00 -0.00000000000E+00 -0.57042638455E+03  0.57042638455E+03  0.00000000000E+00 0.  1.
          6    1    1    2  501    0  0.30463131993E+02  0.10540165429E+01 -0.51313458072E+03  0.54205185296E+03  0.17200000000E+03 0.  1.
         -6    1    1    2    0  502 -0.30463131993E+02 -0.10540165429E+01  0.13525962227E+03  0.22092595768E+03  0.17200000000E+03 0.  1.
</event>
<event>
 4    1  0.5718861E+000  0.2599562E+03  0.7818608E-02  0.1107170E+00
         21   -1    0    0  503  502  0.00000000000E+00  0.00000000000E+00  0.31975306119E+03  0.31975306119E+03  0.00000000000E+00 0.  1.
         21   -1    0    0  501  503 -0.00000000000E+00 -0.00000000000E+00 -0.25214663465E+03  0.25214663465E+03  0.00000000000E+00 0.  1.
          6    1    1    2  501    0 -0.18589563147E+03  0.58617655285E+02 -0.81228776037E+02  0.27235148130E+03  0.17200000000E+03 0.  1.
         -6    1    1    2    0  502  0.18589563147E+03 -0.58617655285E+02  0.14883520257E+03  0.29954821454E+03  0.17200000000E+03 0.  1.
</event>
<event>
 4    1  0.5718861E+000  0.1979380E+03  0.7818608E-02  0.1151490E+00
         21   -1    0    0  501  502  0.00000000000E+00  0.00000000000E+00  0.15766185183E+03  0.15766185183E+03  0.00000000000E+00 0. -1.
         21   -1    0    0  502  503 -0.00000000000E+00 -0.00000000000E+00 -0.25210830496E+03  0.25210830496E+03  0.00000000000E+00 0. -1.
          6    1    1    2  501    0  0.78733461631E+01  0.97639413466E+02 -0.22722035718E+02  0.19923788683E+03  0.17200000000E+03 0. -1.
         -6    1    1    2    0  503 -0.78733461631E+01 -0.97639413466E+02 -0.71724417405E+02  0.21053226996E+03  0.17200000000E+03 0. -1.
</event>
<event>
 4    1  0.5718861E+000  0.1890847E+03  0.7818608E-02  0.1159289E+00
         21   -1    0    0  501  502  0.00000000000E+00  0.00000000000E+00  0.26968578891E+03  0.26968578891E+03  0.00000000000E+00 0. -1.
         21   -1    0    0  502  503 -0.00000000000E+00 -0.00000000000E+00 -0.13897433553E+03  0.13897433553E+03  0.00000000000E+00 0. -1.
          6    1    1    2  501    0  0.74603939010E+02  0.24562043130E+02  0.10920898039E+03  0.21835668773E+03  0.17200000000E+03 0. -1.
         -6    1    1    2    0  503 -0.74603939010E+02 -0.24562043130E+02  0.21502472990E+02  0.19030343671E+03  0.17200000000E+03 0. -1.
</event>
<event>
 4    1  0.5718861E+000  0.1764166E+03  0.7818608E-02  0.1171317E+00
         21   -1    0    0  503  502  0.00000000000E+00  0.00000000000E+00  0.36955671065E+02  0.36955671065E+02  0.00000000000E+00 0. -1.
         21   -1    0    0  501  503 -0.00000000000E+00 -0.00000000000E+00 -0.97029363268E+03  0.97029363268E+03  0.00000000000E+00 0. -1.
          6    1    1    2  501    0  0.30481472083E+01  0.39109332345E+02 -0.64967939718E+03  0.67320587505E+03  0.17200000000E+03 0. -1.
         -6    1    1    2    0  502 -0.30481472083E+01 -0.39109332345E+02 -0.28365856443E+03  0.33404342869E+03  0.17200000000E+03 0. -1.
</event>
<event>
 4    1  0.5718861E+000  0.1975544E+03  0.7818608E-02  0.1151819E+00
         21   -1    0    0  501  502  0.00000000000E+00  0.00000000000E+00  0.51722228547E+03  0.51722228547E+03  0.00000000000E+00 0.  1.
         21   -1    0    0  502  503 -0.00000000000E+00 -0.00000000000E+00 -0.30284286191E+03  0.30284286191E+03  0.00000000000E+00 0.  1.
          6    1    1    2  501    0  0.21925386310E+02 -0.94673223950E+02  0.46248706443E+03  0.50291353796E+03  0.17200000000E+03 0.  1.
         -6    1    1    2    0  503 -0.21925386310E+02  0.94673223950E+02 -0.24810764087E+03  0.31715160942E+03  0.17200000000E+03 0.  1.
</event>
<event>
 4    1  0.5718861E+000  0.1979385E+03  0.7818608E-02  0.1151490E+00
         21   -1    0    0  503  502  0.00000000000E+00  0.00000000000E+00  0.19016981384E+03  0.19016981384E+03  0.00000000000E+00 0. -1.
         21   -1    0    0  501  503 -0.00000000000E+00 -0.00000000000E+00 -0.34702191477E+03  0.34702191477E+03  0.00000000000E+00 0. -1.
          6    1    1    2  501    0 -0.45448255979E+02 -0.86776265213E+02 -0.24963491860E+03  0.31858634114E+03  0.17200000000E+03 0. -1.
         -6    1    1    2    0  502  0.45448255979E+02  0.86776265213E+02  0.92782817677E+02  0.21860538747E+03  0.17200000000E+03 0. -1.
</event>
<event>
 4    1  0.5718861E+000  0.2316843E+03  0.7818608E-02  0.1125460E+00
         21   -1    0    0  501  502  0.00000000000E+00  0.00000000000E+00  0.17907130824E+03  0.17907130824E+03  0.00000000000E+00 0. -1.
         21   -1    0    0  502  503 -0.00000000000E+00 -0.00000000000E+00 -0.30641133199E+03  0.30641133199E+03  0.00000000000E+00 0. -1.
          6    1    1    2  501    0  0.14269009245E+03  0.61099532603E+02 -0.99445981307E+02  0.25212520415E+03  0.17200000000E+03 0. -1.
         -6    1    1    2    0  503 -0.14269009245E+03 -0.61099532603E+02 -0.27894042441E+02  0.23335743608E+03  0.17200000000E+03 0. -1.
</event>
<event>
 4    1  0.5718861E+000  0.2343255E+03  0.7818608E-02  0.1123632E+00
         21   -1    0    0  503  502  0.00000000000E+00  0.00000000000E+00  0.67376932863E+03  0.67376932863E+03  0.00000000000E+00 0.  1.
         21   -1    0    0  501  503 -0.00000000000E+00 -0.00000000000E+00 -0.83372828421E+02  0.83372828421E+02  0.00000000000E+00 0.  1.
          6    1    1    2  501    0  0.12988418553E+03  0.91948480752E+02  0.35202239431E+03  0.42288082347E+03  0.17200000000E+03 0.  1.
         -6    1    1    2    0  502 -0.12988418553E+03 -0.91948480752E+02  0.23837410590E+03  0.33426133358E+03  0.17200000000E+03 0.  1.
</event>
<event>
 4    1  0.5718861E+000  0.1721709E+03  0.7818608E-02  0.1175603E+00
         21   -1    0    0  503  502  0.00000000000E+00  0.00000000000E+00  0.23461745173E+03  0.23461745173E+03  0.00000000000E+00 0.  1.
         21   -1    0    0  501  503 -0.00000000000E+00 -0.00000000000E+00 -0.17126840771E+03  0.17126840771E+03  0.00000000000E+00 0.  1.
          6    1    1    2  501    0 -0.24863022329E+01 -0.72544330756E+01 -0.72262500309E+02  0.18672085435E+03  0.17200000000E+03 0.  1.
         -6    1    1    2    0  502  0.24863022329E+01  0.72544330756E+01  0.13561154433E+03  0.21916500509E+03  0.17200000000E+03 0.  1.
</event>
<event>
 4    1  0.5718861E+000  0.1799590E+03  0.7818608E-02  0.1167843E+00
         21   -1    0    0  503  502  0.00000000000E+00  0.00000000000E+00  0.41352391084E+03  0.41352391084E+03  0.00000000000E+00 0. -1.
         21   -1    0    0  501  503 -0.00000000000E+00 -0.00000000000E+00 -0.13756145504E+03  0.13756145504E+03  0.00000000000E+00 0. -1.
          6    1    1    2  501    0  0.22652777515E+01 -0.52878360770E+02 -0.42848803495E+02  0.18498992535E+03  0.17200000000E+03 0. -1.
         -6    1    1    2    0  502 -0.22652777515E+01  0.52878360770E+02  0.31881125929E+03  0.36609544052E+03  0.17200000000E+03 0. -1.
</event>
<event>
 4    1  0.5718861E+000  0.2070344E+03  0.7818608E-02  0.1143936E+00
         21   -1    0    0  503  502  0.00000000000E+00  0.00000000000E+00  0.11840280479E+03  0.11840280479E+03  0.00000000000E+00 0.  1.
         21   -1    0    0  501  503 -0.00000000000E+00 -0.00000000000E+00 -0.96735822466E+03  0.96735822466E+03  0.00000000000E+00 0. -1.
          6    1    1    2  501    0  0.29825925714E+02 -0.11130884510E+03 -0.85392758690E+03  0.87866692695E+03  0.17200000000E+03 0. -1.
         -6    1    1    2    0  502 -0.29825925714E+02  0.11130884510E+03  0.49721670337E+01  0.20709410249E+03  0.17200000000E+03 0.  1.
</event>
<event>
 4    1  0.5718861E+000  0.4210798E+03  0.7818608E-02  0.1036715E+00
         21   -1    0    0  501  502  0.00000000000E+00  0.00000000000E+00  0.17285355135E+04  0.17285355135E+04  0.00000000000E+00 0. -1.
         21   -1    0    0  502  503 -0.00000000000E+00 -0.00000000000E+00 -0.26661664990E+03  0.26661664990E+03  0.00000000000E+00 0.  1.
          6    1    1    2  501    0  0.38290106629E+03 -0.33330980787E+02  0.15134455883E+04  0.15709314847E+04  0.17200000000E+03 0. -1.
         -6    1    1    2    0  503 -0.38290106629E+03  0.33330980787E+02 -0.51526724739E+02  0.42422067867E+03  0.17200000000E+03 0.  1.
</event>
<event>
 4    1  0.5718861E+000  0.2354761E+03  0.7818608E-02  0.1122844E+00
         21   -1    0    0  501  502  0.00000000000E+00  0.00000000000E+00  0.50293303147E+03  0.50293303147E+03  0.00000000000E+00 0.  1.
         21   -1    0    0  502  503 -0.00000000000E+00 -0.00000000000E+00 -0.12285999325E+03  0.12285999325E+03  0.00000000000E+00 0.  1.
          6    1    1    2  501    0  0.92103119949E+02 -0.13184077652E+03  0.29027444588E+03  0.37377563991E+03  0.17200000000E+03 0.  1.
         -6    1    1    2    0  503 -0.92103119949E+02  0.13184077652E+03  0.89798592346E+02  0.25201738481E+03  0.17200000000E+03 0.  1.
</event>
<event>
 4    1  0.5718861E+000  0.1729028E+03  0.7818608E-02  0.1174854E+00
         21   -1    0    0  503  502  0.00000000000E+00  0.00000000000E+00  0.10680355745E+04  0.10680355745E+04  0.00000000000E+00 0. -1.
         21   -1    0    0  501  503 -0.00000000000E+00 -0.00000000000E+00 -0.35677220411E+02  0.35677220411E+02  0.00000000000E+00 0. -1.
          6    1    1    2  501    0  0.17608718141E+02  0.11503155835E+01  0.26003362238E+03  0.31227051565E+03  0.17200000000E+03 0. -1.
         -6    1    1    2    0  502 -0.17608718141E+02 -0.11503155835E+01  0.77232473167E+03  0.79144227922E+03  0.17200000000E+03 0. -1.
</event>
<event>
 4    1  0.5718861E+000  0.2869813E+03  0.7818608E-02  0.1091936E+00
         21   -1    0    0  503  502  0.00000000000E+00  0.00000000000E+00  0.33454834215E+03  0.33454834215E+03  0.00000000000E+00 0.  1.
         21   -1    0    0  501  503 -0.00000000000E+00 -0.00000000000E+00 -0.26052316562E+03  0.26052316562E+03  0.00000000000E+00 0.  1.
          6    1    1    2  501    0  0.14369090206E+03  0.17924056244E+03 -0.32806993293E+02  0.28885039963E+03  0.17200000000E+03 0.  1.
         -6    1    1    2    0  502 -0.14369090206E+03 -0.17924056244E+03  0.10683216983E+03  0.30622110814E+03  0.17200000000E+03 0.  1.
</event>
<event>
 4    1  0.5718861E+000  0.1778746E+03  0.7818608E-02  0.1169876E+00
         21   -1    0    0  501  502  0.00000000000E+00  0.00000000000E+00  0.47360147539E+02  0.47360147539E+02  0.00000000000E+00 0.  1.
         21   -1    0    0  502  503 -0.00000000000E+00 -0.00000000000E+00 -0.85048199321E+03  0.85048199321E+03  0.00000000000E+00 0.  1.
          6    1    1    2  501    0 -0.45281303151E+02 -0.22283988473E+01 -0.19364991479E+03  0.26294419878E+03  0.17200000000E+03 0.  1.
         -6    1    1    2    0  503  0.45281303151E+02  0.22283988473E+01 -0.60947193088E+03  0.63489794196E+03  0.17200000000E+03 0.  1.
</event>
<event>
 4    1  0.5718861E+000  0.3465483E+03  0.7818608E-02  0.1064041E+00
         21   -1    0    0  501  502  0.00000000000E+00  0.00000000000E+00  0.11246208551E+03  0.11246208551E+03  0.00000000000E+00 0. -1.
         21   -1    0    0  502  503 -0.00000000000E+00 -0.00000000000E+00 -0.13216482865E+04  0.13216482865E+04  0.00000000000E+00 0.  1.
          6    1    1    2  501    0 -0.29786703056E+03  0.42272384807E+02 -0.29038635198E+03  0.45212825153E+03  0.17200000000E+03 0. -1.
         -6    1    1    2    0  503  0.29786703056E+03 -0.42272384807E+02 -0.91879984898E+03  0.98198212046E+03  0.17200000000E+03 0.  1.
</event>
<event>
 4    1  0.5718861E+000  0.1742766E+03  0.7818608E-02  0.1173460E+00
         21   -1    0    0  501  502  0.00000000000E+00  0.00000000000E+00  0.11769573471E+03  0.11769573471E+03  0.00000000000E+00 0.  1.
         21   -1    0    0  502  503 -0.00000000000E+00 -0.00000000000E+00 -0.47758028340E+03  0.47758028340E+03  0.00000000000E+00 0.  1.
          6    1    1    2  501    0  0.22792582517E+02  0.16396457990E+02  0.21849907525E+02  0.17564100920E+03  0.17200000000E+03 0.  1.
         -6    1    1    2    0  503 -0.22792582517E+02 -0.16396457990E+02 -0.38173445621E+03  0.41963500892E+03  0.17200000000E+03 0.  1.
</event>
<event>
 4    1  0.5718861E+000  0.1965864E+03  0.7818608E-02  0.1152651E+00
         21   -1    0    0  501  502  0.00000000000E+00  0.00000000000E+00  0.15209283789E+03  0.15209283789E+03  0.00000000000E+00 0.  1.
         21   -1    0    0  502  503 -0.00000000000E+00 -0.00000000000E+00 -0.38952506581E+03  0.38952506581E+03  0.00000000000E+00 0.  1.
          6    1    1    2  501    0 -0.77498112223E+02  0.55283245313E+02  0.40964104138E+02  0.20080899491E+03  0.17200000000E+03 0.  1.
         -6    1    1    2    0  503  0.77498112223E+02 -0.55283245313E+02 -0.27839633205E+03  0.34080890879E+03  0.17200000000E+03 0.  1.
</event>
<event>
 4    1  0.5718861E+000  0.3126208E+03  0.7818608E-02  0.1079096E+00
         21   -1    0    0  503  502  0.00000000000E+00  0.00000000000E+00  0.85519610158E+02  0.85519610158E+02  0.00000000000E+00 0.  1.
         21   -1    0    0  501  503 -0.00000000000E+00 -0.00000000000E+00 -0.11669965550E+04  0.11669965550E+04  0.00000000000E+00 0.  1.
          6    1    1    2  501    0  0.22085611182E+03  0.13917745833E+03 -0.63091588842E+03  0.70412118652E+03  0.17200000000E+03 0.  1.
         -6    1    1    2    0  502 -0.22085611182E+03 -0.13917745833E+03 -0.45056105639E+03  0.54839497861E+03  0.17200000000E+03 0.  1.
</event>
<event>
 4    1  0.5718861E+000  0.1989077E+03  0.7818608E-02  0.1150664E+00
         21   -1    0    0  501  502  0.00000000000E+00  0.00000000000E+00  0.55582650976E+03  0.55582650976E+03  0.00000000000E+00 0. -1.
         21   -1    0    0  502  503 -0.00000000000E+00 -0.00000000000E+00 -0.15628068225E+03  0.15628068225E+03  0.00000000000E+00 0. -1.
          6    1    1    2  501    0  0.61831676772E+02  0.78467319537E+02  0.46251324532E+03  0.50347073260E+03  0.17200000000E+03 0. -1.
         -6    1    1    2    0  503 -0.61831676772E+02 -0.78467319537E+02 -0.62967417816E+02  0.20863645941E+03  0.17200000000E+03 0. -1.
</event>
<event>
 4    1  0.5718861E+000  0.2175499E+03  0.7818608E-02  0.1135723E+00
         21   -1    0    0  503  502  0.00000000000E+00  0.00000000000E+00  0.50587696382E+03  0.50587696382E+03  0.00000000000E+00 0.  1.
         21   -1    0    0  501  503 -0.00000000000E+00 -0.00000000000E+00 -0.93608086988E+02  0.93608086988E+02  0.00000000000E+00 0.  1.
          6    1    1    2  501    0  0.66941130431E+02  0.11516444772E+03  0.21318626581E+03  0.30459210248E+03  0.17200000000E+03 0. -1.
         -6    1    1    2    0  502 -0.66941130431E+02 -0.11516444772E+03  0.19908261102E+03  0.29489294833E+03  0.17200000000E+03 0. -1.
</event>
<event>
 4    1  0.5718861E+000  0.2686017E+03  0.7818608E-02  0.1102083E+00
         21   -1    0    0  501  502  0.00000000000E+00  0.00000000000E+00  0.16126757697E+03  0.16126757697E+03  0.00000000000E+00 0.  1.
         21   -1    0    0  502  503 -0.00000000000E+00 -0.00000000000E+00 -0.57178446357E+03  0.57178446357E+03  0.00000000000E+00 0. -1.
          6    1    1    2  501    0 -0.29028578318E+02 -0.20425525004E+03 -0.34289317798E+02  0.27078150388E+03  0.17200000000E+03 0.  1.
         -6    1    1    2    0  503  0.29028578318E+02  0.20425525004E+03 -0.37622756880E+03  0.46227053665E+03  0.17200000000E+03 0. -1.
</event>
<event>
 4    1  0.5718861E+000  0.1889709E+03  0.7818608E-02  0.1159393E+00
         21   -1    0    0  503  502  0.00000000000E+00  0.00000000000E+00  0.58598922532E+03  0.58598922532E+03  0.00000000000E+00 0. -1.
         21   -1    0    0  501  503 -0.00000000000E+00 -0.00000000000E+00 -0.66228942234E+02  0.66228942234E+02  0.00000000000E+00 0. -1.
          6    1    1    2  501    0  0.72843706677E+02 -0.28631776154E+02  0.16772122639E+03  0.25266656682E+03  0.17200000000E+03 0. -1.
         -6    1    1    2    0  502 -0.72843706677E+02  0.28631776154E+02  0.35203905669E+03  0.39955160073E+03  0.17200000000E+03 0. -1.
</event>
<event>
 4    1  0.5718861E+000  0.2008843E+03  0.7818608E-02  0.1148995E+00
         21   -1    0    0  501  502  0.00000000000E+00  0.00000000000E+00  0.31147677854E+04  0.31147677854E+04  0.00000000000E+00 0.  1.
         21   -1    0    0  502  503 -0.00000000000E+00 -0.00000000000E+00 -0.13039178521E+02  0.13039178521E+02  0.00000000000E+00 0.  1.
          6    1    1    2  501    0 -0.94813385841E+02 -0.42201091145E+02  0.14258547611E+04  0.14399362173E+04  0.17200000000E+03 0.  1.
         -6    1    1    2    0  503  0.94813385841E+02  0.42201091145E+02  0.16758738458E+04  0.16878707466E+04  0.17200000000E+03 0.  1.
</event>
<event>
 4    1  0.5718861E+000  0.2401314E+03  0.7818608E-02  0.1119705E+00
         21   -1    0    0  503  502  0.00000000000E+00  0.00000000000E+00  0.27346304813E+03  0.27346304813E+03  0.00000000000E+00 0. -1.
         21   -1    0    0  501  503 -0.00000000000E+00 -0.00000000000E+00 -0.21253102596E+03  0.21253102596E+03  0.00000000000E+00 0.  1.
          6    1    1    2  501    0  0.15545258664E+03  0.62558822596E+02  0.51996359657E+02  0.24569642732E+03  0.17200000000E+03 0. -1.
         -6    1    1    2    0  502 -0.15545258664E+03 -0.62558822596E+02  0.89356625079E+01  0.24029764677E+03  0.17200000000E+03 0.  1.
</event>
<event>
 4    1  0.5718861E+000  0.1734904E+03  0.7818608E-02  0.1174256E+00
         21   -1    0    0  503  502  0.00000000000E+00  0.00000000000E+00  0.50314780848E+03  0.50314780848E+03  0.00000000000E+00 0. -1.
         21   -1    0    0  501  503 -0.00000000000E+00 -0.00000000000E+00 -0.35127461966E+03  0.35127461966E+03  0.00000000000E+00 0. -1.
          6    1    1    2  501    0  0.15496245314E+02  0.16576581426E+02 -0.31320156415E+03  0.35804208755E+03  0.17200000000E+03 0. -1.
         -6    1    1    2    0  502 -0.15496245314E+02 -0.16576581426E+02  0.46507475297E+03  0.49638034059E+03  0.17200000000E+03 0. -1.
</event>
<event>
 4    1  0.5718861E+000  0.1969869E+03  0.7818608E-02  0.1152306E+00
         21   -1    0    0  501  502  0.00000000000E+00  0.00000000000E+00  0.75567380431E+02  0.75567380431E+02  0.00000000000E+00 0.  1.
         21   -1    0    0  502  503 -0.00000000000E+00 -0.00000000000E+00 -0.56190140899E+03  0.56190140899E+03  0.00000000000E+00 0. -1.
          6    1    1    2  501    0  0.50362642183E+01 -0.95887725567E+02 -0.14962005998E+03  0.24736608947E+03  0.17200000000E+03 0.  1.
         -6    1    1    2    0  503 -0.50362642183E+01  0.95887725567E+02 -0.33671396858E+03  0.39010269995E+03  0.17200000000E+03 0. -1.
</event>
<event>
 4    1  0.5718861E+000  0.1731520E+03  0.7818608E-02  0.1174600E+00
         21   -1    0    0  501  502  0.00000000000E+00  0.00000000000E+00  0.67284396605E+02  0.67284396605E+02  0.00000000000E+00 0.  1.
         21   -1    0    0  502  503 -0.00000000000E+00 -0.00000000000E+00 -0.44577790759E+03  0.44577790759E+03  0.00000000000E+00 0.  1.
          6    1    1    2  501    0 -0.15836603918E+02 -0.12116390635E+02 -0.18405343309E+03  0.25269996276E+03  0.17200000000E+03 0. -1.
         -6    1    1    2    0  503  0.15836603918E+02  0.12116390635E+02 -0.19444007789E+03  0.26036234143E+03  0.17200000000E+03 0. -1.
</event>
<event>
 4    1  0.5718861E+000  0.1829273E+03  0.7818608E-02  0.1165000E+00
         21   -1    0    0  503  502  0.00000000000E+00  0.00000000000E+00  0.62519883079E+02  0.62519883079E+02  0.00000000000E+00 0. -1.
         21   -1    0    0  501  503 -0.00000000000E+00 -0.00000000000E+00 -0.62491881297E+03  0.62491881297E+03  0.00000000000E+00 0.  1.
          6    1    1    2  501    0  0.21040340283E+02 -0.58614978504E+02 -0.41141577943E+03  0.45025032503E+03  0.17200000000E+03 0.  1.
         -6    1    1    2    0  502 -0.21040340283E+02  0.58614978504E+02 -0.15098315046E+03  0.23718837102E+03  0.17200000000E+03 0.  1.
</event>
<event>
 4    1  0.5718861E+000  0.1843688E+03  0.7818608E-02  0.1163641E+00
         21   -1    0    0  503  502  0.00000000000E+00  0.00000000000E+00  0.20472031543E+03  0.20472031543E+03  0.00000000000E+00 0. -1.
         21   -1    0    0  501  503 -0.00000000000E+00 -0.00000000000E+00 -0.20121839582E+03  0.20121839582E+03  0.00000000000E+00 0. -1.
          6    1    1    2  501    0  0.45777992458E+02  0.48085663887E+02  0.86616581728E+02  0.20370146758E+03  0.17200000000E+03 0. -1.
         -6    1    1    2    0  502 -0.45777992458E+02 -0.48085663887E+02 -0.83114662125E+02  0.20223724366E+03  0.17200000000E+03 0. -1.
</event>
<event>
 4    1  0.5718861E+000  0.1795088E+03  0.7818608E-02  0.1168279E+00
         21   -1    0    0  503  502  0.00000000000E+00  0.00000000000E+00  0.12420802492E+03  0.12420802492E+03  0.00000000000E+00 0.  1.
         21   -1    0    0  501  503 -0.00000000000E+00 -0.00000000000E+00 -0.36977144546E+03  0.36977144546E+03  0.00000000000E+00 0.  1.
          6    1    1    2  501    0  0.41692867859E+02 -0.30018720928E+02 -0.25770268776E+03  0.31406065356E+03  0.17200000000E+03 0.  1.
         -6    1    1    2    0  502 -0.41692867859E+02  0.30018720928E+02  0.12139267215E+02  0.17991881682E+03  0.17200000000E+03 0.  1.
</event>
<event>
 4    1  0.5718861E+000  0.1863133E+03  0.7818608E-02  0.1161829E+00
         21   -1    0    0  501  502  0.00000000000E+00  0.00000000000E+00  0.81977686760E+03  0.81977686760E+03  0.00000000000E+00 0.  1.
         21   -1    0    0  502  503 -0.00000000000E+00 -0.00000000000E+00 -0.68175239617E+02  0.68175239617E+02  0.00000000000E+00 0. -1.
          6    1    1    2  501    0  0.14627123779E+01  0.71599618817E+02  0.64908764086E+03  0.67529801603E+03  0.17200000000E+03 0.  1.
         -6    1    1    2    0  503 -0.14627123779E+01 -0.71599618817E+02  0.10251398713E+03  0.21265409119E+03  0.17200000000E+03 0. -1.
</event>
<event>
 4    1  0.5718861E+000  0.1781662E+03  0.7818608E-02  0.1169590E+00
         21   -1    0    0  503  502  0.00000000000E+00  0.00000000000E+00  0.46449613151E+02  0.46449613151E+02  0.00000000000E+00 0. -1.
         21   -1    0    0  501  503 -0.00000000000E+00 -0.00000000000E+00 -0.11261800662E+04  0.11261800662E+04  0.00000000000E+00 0. -1.
          6    1    1    2  501    0 -0.22123207071E+02 -0.40862894516E+02 -0.90750778826E+03  0.92483165938E+03  0.17200000000E+03 0. -1.
         -6    1    1    2    0  502  0.22123207071E+02  0.40862894516E+02 -0.17222266482E+03  0.24779802000E+03  0.17200000000E+03 0. -1.
</event>
<event>
 4    1  0.5718861E+000  0.2031395E+03  0.7818608E-02  0.1147117E+00
         21   -1    0    0  503  502  0.00000000000E+00  0.00000000000E+00  0.19376981866E+03  0.19376981866E+03  0.00000000000E+00 0.  1.
         21   -1    0    0  501  503 -0.00000000000E+00 -0.00000000000E+00 -0.24879090164E+03  0.24879090164E+03  0.00000000000E+00 0.  1.
          6    1    1    2  501    0  0.76569692116E+01 -0.10781011958E+03 -0.11148380406E+03  0.23172028316E+03  0.17200000000E+03 0.  1.
         -6    1    1    2    0  502 -0.76569692116E+01  0.10781011958E+03  0.56462721075E+02  0.21084043714E+03  0.17200000000E+03 0.  1.
</event>
<event>
 4    1  0.5718861E+000  0.2337339E+03  0.7818608E-02  0.1124039E+00
         21   -1    0    0  501  502  0.00000000000E+00  0.00000000000E+00  0.61850883953E+03  0.61850883953E+03  0.00000000000E+00 0.  1.
         21   -1    0    0  502  503 -0.00000000000E+00 -0.00000000000E+00 -0.21731573965E+03  0.21731573965E+03  0.00000000000E+00 0. -1.
          6    1    1    2  501    0 -0.15468995662E+03  0.33444630087E+02 -0.12137248211E+03  0.26336819355E+03  0.17200000000E+03 0. -1.
         -6    1    1    2    0  503  0.15468995662E+03 -0.33444630087E+02  0.52256558199E+03  0.57245638562E+03  0.17200000000E+03 0.  1.
</event>
<event>
 4    1  0.5718861E+000  0.1832172E+03  0.7818608E-02  0.1164725E+00
         21   -1    0    0  503  502  0.00000000000E+00  0.00000000000E+00  0.32849751982E+02  0.32849751982E+02  0.00000000000E+00 0.  1.
         21   -1    0    0  501  503 -0.00000000000E+00 -0.00000000000E+00 -0.10312998400E+04  0.10312998400E+04  0.00000000000E+00 0. -1.
          6    1    1    2  501    0  0.63094535363E+02 -0.18999680353E+01 -0.44837586684E+03  0.48436499485E+03  0.17200000000E+03 0.  1.
         -6    1    1    2    0  502 -0.63094535363E+02  0.18999680353E+01 -0.55007422123E+03  0.57978459718E+03  0.17200000000E+03 0. -1.
</event>
<event>
 4    1  0.5718861E+000  0.1864438E+03  0.7818608E-02  0.1161708E+00
         21   -1    0    0  501  502  0.00000000000E+00  0.00000000000E+00  0.54672784470E+02  0.54672784470E+02  0.00000000000E+00 0.  1.
         21   -1    0    0  502  503 -0.00000000000E+00 -0.00000000000E+00 -0.10474222608E+04  0.10474222608E+04  0.00000000000E+00 0.  1.
          6    1    1    2  501    0 -0.51549162861E+02  0.50199299825E+02 -0.15093332506E+03  0.23987945829E+03  0.17200000000E+03 0.  1.
         -6    1    1    2    0  503  0.51549162861E+02 -0.50199299825E+02 -0.84181615124E+03  0.86221558695E+03  0.17200000000E+03 0.  1.
</event>
<event>
 4    1  0.5718861E+000  0.3555884E+03  0.7818608E-02  0.1060344E+00
         21   -1    0    0  503  502  0.00000000000E+00  0.00000000000E+00  0.42245021827E+03  0.42245021827E+03  0.00000000000E+00 0. -1.
         21   -1    0    0  501  503 -0.00000000000E+00 -0.00000000000E+00 -0.30275457457E+03  0.30275457457E+03  0.00000000000E+00 0.  1.
          6    1    1    2  501    0 -0.18255812586E+03 -0.25205484616E+03  0.21164679351E+02  0.35621771214E+03  0.17200000000E+03 0. -1.
         -6    1    1    2    0  502  0.18255812586E+03  0.25205484616E+03  0.98530964344E+02  0.36898708070E+03  0.17200000000E+03 0. -1.
</event>
<event>
 4    1  0.5718861E+000  0.2147711E+03  0.7818608E-02  0.1137843E+00
         21   -1    0    0  501  502  0.00000000000E+00  0.00000000000E+00  0.48329663104E+03  0.48329663104E+03  0.00000000000E+00 0. -1.
         21   -1    0    0  502  503 -0.00000000000E+00 -0.00000000000E+00 -0.11392529809E+03  0.11392529809E+03  0.00000000000E+00 0.  1.
          6    1    1    2  501    0 -0.12746881148E+03 -0.17155975141E+02  0.30496460051E+03  0.37300138464E+03  0.17200000000E+03 0. -1.
         -6    1    1    2    0  503  0.12746881148E+03  0.17155975141E+02  0.64406732441E+02  0.22422054448E+03  0.17200000000E+03 0. -1.
</event>
<event>
 4    1  0.5718861E+000  0.2246790E+03  0.7818608E-02  0.1130442E+00
         21   -1    0    0  503  502  0.00000000000E+00  0.00000000000E+00  0.33949492565E+03  0.33949492565E+03  0.00000000000E+00 0. -1.
         21   -1    0    0  501  503 -0.00000000000E+00 -0.00000000000E+00 -0.15219188255E+03  0.15219188255E+03  0.00000000000E+00 0.  1.
          6    1    1    2  501    0  0.12275244839E+03  0.76344526303E+02  0.56377736667E+02  0.23164433832E+03  0.17200000000E+03 0. -1.
         -6    1    1    2    0  502 -0.12275244839E+03 -0.76344526303E+02  0.13092530643E+03  0.26004246989E+03  0.17200000000E+03 0. -1.
</event>
<event>
 4    1  0.5718861E+000  0.2647986E+03  0.7818608E-02  0.1104294E+00
         21   -1    0    0  501  502  0.00000000000E+00  0.00000000000E+00  0.26217762599E+03  0.26217762599E+03  0.00000000000E+00 0. -1.
         21   -1    0    0  502  503 -0.00000000000E+00 -0.00000000000E+00 -0.29340790581E+03  0.29340790581E+03  0.00000000000E+00 0.  1.
          6    1    1    2  501    0  0.19931525483E+03  0.28420988323E+02  0.67018026540E+02  0.27314783409E+03  0.17200000000E+03 0. -1.
         -6    1    1    2    0  503 -0.19931525483E+03 -0.28420988323E+02 -0.98248306351E+02  0.28243769771E+03  0.17200000000E+03 0.  1.
</event>
<event>
 4    1  0.5718861E+000  0.1805079E+03  0.7818608E-02  0.1167312E+00
         21   -1    0    0  501  502  0.00000000000E+00  0.00000000000E+00  0.16280006912E+03  0.16280006912E+03  0.00000000000E+00 0. -1.
         21   -1    0    0  502  503 -0.00000000000E+00 -0.00000000000E+00 -0.26480636966E+03  0.26480636966E+03  0.00000000000E+00 0. -1.
          6    1    1    2  501    0 -0.50756453588E+02  0.20564183562E+02  0.54650165864E+02  0.18859942698E+03  0.17200000000E+03 0. -1.
         -6    1    1    2    0  503  0.50756453588E+02 -0.20564183562E+02 -0.15665646641E+03  0.23900701181E+03  0.17200000000E+03 0. -1.
</event>
<event>
 4    1  0.5718861E+000  0.2190428E+03  0.7818608E-02  0.1134599E+00
         21   -1    0    0  503  502  0.00000000000E+00  0.00000000000E+00  0.34889480800E+03  0.34889480800E+03  0.00000000000E+00 0. -1.
         21   -1    0    0  501  503 -0.00000000000E+00 -0.00000000000E+00 -0.14593725024E+03  0.14593725024E+03  0.00000000000E+00 0. -1.
          6    1    1    2  501    0 -0.12508645561E+03  0.52431988069E+02  0.42056333635E+02  0.22304365032E+03  0.17200000000E+03 0. -1.
         -6    1    1    2    0  502  0.12508645561E+03 -0.52431988069E+02  0.16090122412E+03  0.27178840791E+03  0.17200000000E+03 0. -1.
</event>
<event>
 4    1  0.5718861E+000  0.2228315E+03  0.7818608E-02  0.1131789E+00
         21   -1    0    0  503  502  0.00000000000E+00  0.00000000000E+00  0.32162678166E+03  0.32162678166E+03  0.00000000000E+00 0.  1.
         21   -1    0    0  501  503 -0.00000000000E+00 -0.00000000000E+00 -0.15603031418E+03  0.15603031418E+03  0.00000000000E+00 0. -1.
          6    1    1    2  501    0  0.10067384994E+03 -0.99672744415E+02  0.58262490922E+02  0.23032237818E+03  0.17200000000E+03 0. -1.
         -6    1    1    2    0  502 -0.10067384994E+03  0.99672744415E+02  0.10733397656E+03  0.24733471767E+03  0.17200000000E+03 0.  1.
</event>
<event>
 4    1  0.5718861E+000  0.1848597E+03  0.7818608E-02  0.1163181E+00
         21   -1    0    0  501  502  0.00000000000E+00  0.00000000000E+00  0.38206751707E+03  0.38206751707E+03  0.00000000000E+00 0.  1.
         21   -1    0    0  502  503 -0.00000000000E+00 -0.00000000000E+00 -0.94956411055E+02  0.94956411055E+02  0.00000000000E+00 0.  1.
          6    1    1    2  501    0 -0.60629122933E+02 -0.30219559440E+02  0.20102988604E+03  0.27310460890E+03  0.17200000000E+03 0.  1.
         -6    1    1    2    0  503  0.60629122933E+02  0.30219559440E+02  0.86081219968E+02  0.20391931922E+03  0.17200000000E+03 0.  1.
</event>
<event>
 4    1  0.5718861E+000  0.1757059E+03  0.7818608E-02  0.1172025E+00
         21   -1    0    0  503  502  0.00000000000E+00  0.00000000000E+00  0.54871742495E+03  0.54871742495E+03  0.00000000000E+00 0.  1.
         21   -1    0    0  501  503 -0.00000000000E+00 -0.00000000000E+00 -0.31210806912E+03  0.31210806912E+03  0.00000000000E+00 0.  1.
          6    1    1    2  501    0 -0.33105046077E+02  0.13878842624E+02 -0.27138691053E+03  0.32330082208E+03  0.17200000000E+03 0.  1.
         -6    1    1    2    0  502  0.33105046077E+02 -0.13878842624E+02  0.50799626637E+03  0.53752467198E+03  0.17200000000E+03 0.  1.
</event>
<event>
 4    1  0.5718861E+000  0.2583766E+03  0.7818608E-02  0.1108123E+00
         21   -1    0    0  503  502  0.00000000000E+00  0.00000000000E+00  0.18172617831E+04  0.18172617831E+04  0.00000000000E+00 0.  1.
         21   -1    0    0  501  503 -0.00000000000E+00 -0.00000000000E+00 -0.71016375941E+02  0.71016375941E+02  0.00000000000E+00 0. -1.
          6    1    1    2  501    0 -0.18803183111E+03 -0.42643586509E+02  0.21715690553E+03  0.33751380209E+03  0.17200000000E+03 0. -1.
         -6    1    1    2    0  502  0.18803183111E+03  0.42643586509E+02  0.15290885016E+04  0.15507643570E+04  0.17200000000E+03 0.  1.
</event>
<event>
 4    1  0.5718861E+000  0.2056843E+03  0.7818608E-02  0.1145030E+00
         21   -1    0    0  503  502  0.00000000000E+00  0.00000000000E+00  0.21736898148E+03  0.21736898148E+03  0.00000000000E+00 0. -1.
         21   -1    0    0  501  503 -0.00000000000E+00 -0.00000000000E+00 -0.26948225935E+03  0.26948225935E+03  0.00000000000E+00 0. -1.
          6    1    1    2  501    0 -0.66070299893E+01 -0.11259836887E+03 -0.15435173308E+03  0.25715851730E+03  0.17200000000E+03 0. -1.
         -6    1    1    2    0  502  0.66070299893E+01  0.11259836887E+03  0.10223845521E+03  0.22969272353E+03  0.17200000000E+03 0. -1.
</event>
<event>
 4    1  0.5718861E+000  0.4915501E+03  0.7818608E-02  0.1016008E+00
         21   -1    0    0  503  502  0.00000000000E+00  0.00000000000E+00  0.11725841462E+04  0.11725841462E+04  0.00000000000E+00 0. -1.
         21   -1    0    0  501  503 -0.00000000000E+00 -0.00000000000E+00 -0.34263985352E+03  0.34263985352E+03  0.00000000000E+00 0.  1.
          6    1    1    2  501    0  0.83139879473E+02  0.45290760680E+03 -0.63352530363E+02  0.49561586229E+03  0.17200000000E+03 0.  1.
         -6    1    1    2    0  502 -0.83139879473E+02 -0.45290760680E+03  0.89329682305E+03  0.10196081374E+04  0.17200000000E+03 0. -1.
</event>
<event>
 4    1  0.5718861E+000  0.1832725E+03  0.7818608E-02  0.1164673E+00
         21   -1    0    0  503  502  0.00000000000E+00  0.00000000000E+00  0.35808342770E+03  0.35808342770E+03  0.00000000000E+00 0.  1.
         21   -1    0    0  501  503 -0.00000000000E+00 -0.00000000000E+00 -0.20129907042E+03  0.20129907042E+03  0.00000000000E+00 0.  1.
          6    1    1    2  501    0  0.48171392162E+02  0.41040509189E+02 -0.12599661070E+03  0.22240492874E+03  0.17200000000E+03 0.  1.
         -6    1    1    2    0  502 -0.48171392162E+02 -0.41040509189E+02  0.28278096798E+03  0.33697756938E+03  0.17200000000E+03 0.  1.
</event>
<event>
 4    1  0.5718861E+000  0.1908874E+03  0.7818608E-02  0.1157663E+00
         21   -1    0    0  501  502  0.00000000000E+00  0.00000000000E+00  0.51560281250E+02  0.51560281250E+02  0.00000000000E+00 0.  1.
         21   -1    0    0  502  503 -0.00000000000E+00 -0.00000000000E+00 -0.10106382216E+04  0.10106382216E+04  0.00000000000E+00 0. -1.
          6    1    1    2  501    0 -0.82784104771E+02 -0.88957455474E+00 -0.18828915490E+03  0.26812460760E+03  0.17200000000E+03 0.  1.
         -6    1    1    2    0  503  0.82784104771E+02  0.88957455474E+00 -0.77078878543E+03  0.79407389524E+03  0.17200000000E+03 0. -1.
</event>
<event>
 4    1  0.5718861E+000  0.1962450E+03  0.7818608E-02  0.1152946E+00
         21   -1    0    0  503  502  0.00000000000E+00  0.00000000000E+00  0.10642100684E+03  0.10642100684E+03  0.00000000000E+00 0.  1.
         21   -1    0    0  501  503 -0.00000000000E+00 -0.00000000000E+00 -0.36517708556E+03  0.36517708556E+03  0.00000000000E+00 0.  1.
          6    1    1    2  501    0  0.94424842754E+02 -0.34730228727E+01 -0.15176828411E+03  0.24808410847E+03  0.17200000000E+03 0.  1.
         -6    1    1    2    0  502 -0.94424842754E+02  0.34730228727E+01 -0.10698779461E+03  0.22351398393E+03  0.17200000000E+03 0.  1.
</event>
<event>
 4    1  0.5718861E+000  0.2826081E+03  0.7818608E-02  0.1094273E+00
         21   -1    0    0  501  502  0.00000000000E+00  0.00000000000E+00  0.87791305081E+02  0.87791305081E+02  0.00000000000E+00 0.  1.
         21   -1    0    0  502  503 -0.00000000000E+00 -0.00000000000E+00 -0.93622553270E+03  0.93622553270E+03  0.00000000000E+00 0.  1.
          6    1    1    2  501    0 -0.21688798577E+03  0.56946951667E+02 -0.51033287512E+03  0.58335837793E+03  0.17200000000E+03 0.  1.
         -6    1    1    2    0  503  0.21688798577E+03 -0.56946951667E+02 -0.33810135250E+03  0.44065845985E+03  0.17200000000E+03 0.  1.
</event>
<event>
 4    1  0.5718861E+000  0.2322743E+03  0.7818608E-02  0.1125049E+00
         21   -1    0    0  501  502  0.00000000000E+00  0.00000000000E+00  0.36757744805E+03  0.36757744805E+03  0.00000000000E+00 0. -1.
         21   -1    0    0  502  503 -0.00000000000E+00 -0.00000000000E+00 -0.15608265412E+03  0.15608265412E+03  0.00000000000E+00 0.  1.
          6    1    1    2  501    0 -0.11196218513E+03  0.10877421605E+03  0.41810611562E+02  0.23600739017E+03  0.17200000000E+03 0.  1.
         -6    1    1    2    0  503  0.11196218513E+03 -0.10877421605E+03  0.16968418237E+03  0.28765271200E+03  0.17200000000E+03 0. -1.
</event>
<event>
 4    1  0.5718861E+000  0.3190644E+03  0.7818608E-02  0.1076081E+00
         21   -1    0    0  503  502  0.00000000000E+00  0.00000000000E+00  0.17870120908E+04  0.17870120908E+04  0.00000000000E+00 0. -1.
         21   -1    0    0  501  503 -0.00000000000E+00 -0.00000000000E+00 -0.57349496570E+02  0.57349496570E+02  0.00000000000E+00 0. -1.
          6    1    1    2  501    0 -0.18183966633E+03  0.19786972845E+03  0.78959498633E+03  0.85162335344E+03  0.17200000000E+03 0. -1.
         -6    1    1    2    0  502  0.18183966633E+03 -0.19786972845E+03  0.94006760795E+03  0.99273823398E+03  0.17200000000E+03 0. -1.
</event>
<event>
 4    1  0.5718861E+000  0.2056079E+03  0.7818608E-02  0.1145092E+00
         21   -1    0    0  501  502  0.00000000000E+00  0.00000000000E+00  0.50827002469E+03  0.50827002469E+03  0.00000000000E+00 0.  1.
         21   -1    0    0  502  503 -0.00000000000E+00 -0.00000000000E+00 -0.10205542689E+03  0.10205542689E+03  0.00000000000E+00 0. -1.
          6    1    1    2  501    0 -0.11204148291E+03  0.11717597476E+02  0.71846026398E+02  0.21779909893E+03  0.17200000000E+03 0. -1.
         -6    1    1    2    0  503  0.11204148291E+03 -0.11717597476E+02  0.33436857140E+03  0.39252635265E+03  0.17200000000E+03 0. -1.
</event>
<event>
 4    1  0.5718861E+000  0.2131530E+03  0.7818608E-02  0.1139093E+00
         21   -1    0    0  501  502  0.00000000000E+00  0.00000000000E+00  0.15606346469E+03  0.15606346469E+03  0.00000000000E+00 0.  1.
         21   -1    0    0  502  503 -0.00000000000E+00 -0.00000000000E+00 -0.36734365951E+03  0.36734365951E+03  0.00000000000E+00 0.  1.
          6    1    1    2  501    0 -0.95446248232E+02  0.82098710522E+02 -0.22484667192E+03  0.30982286946E+03  0.17200000000E+03 0.  1.
         -6    1    1    2    0  503  0.95446248232E+02 -0.82098710522E+02  0.13566477098E+02  0.21358425474E+03  0.17200000000E+03 0.  1.
</event>
<event>
 4    1  0.5718861E+000  0.3460835E+03  0.7818608E-02  0.1064234E+00
         21   -1    0    0  503  502  0.00000000000E+00  0.00000000000E+00  0.42833595959E+03  0.42833595959E+03  0.00000000000E+00 0. -1.
         21   -1    0    0  501  503 -0.00000000000E+00 -0.00000000000E+00 -0.44563516167E+03  0.44563516167E+03  0.00000000000E+00 0.  1.
          6    1    1    2  501    0  0.14921632132E+03  0.26062292545E+03 -0.27536220911E+03  0.44226481437E+03  0.17200000000E+03 0.  1.
         -6    1    1    2    0  502 -0.14921632132E+03 -0.26062292545E+03  0.25806300703E+03  0.43170630690E+03  0.17200000000E+03 0. -1.
</event>
<event>
 4    1  0.5718861E+000  0.2331636E+03  0.7818608E-02  0.1124433E+00
         21   -1    0    0  501  502  0.00000000000E+00  0.00000000000E+00  0.88601456205E+02  0.88601456205E+02  0.00000000000E+00 0. -1.
         21   -1    0    0  502  503 -0.00000000000E+00 -0.00000000000E+00 -0.72793278304E+03  0.72793278304E+03  0.00000000000E+00 0. -1.
          6    1    1    2  501    0 -0.81066593557E+02  0.13494250844E+03 -0.15785892900E+03  0.28157541555E+03  0.17200000000E+03 0. -1.
         -6    1    1    2    0  503  0.81066593557E+02 -0.13494250844E+03 -0.48147239783E+03  0.53495882370E+03  0.17200000000E+03 0. -1.
</event>
<event>
 4    1  0.5718861E+000  0.2969092E+03  0.7818608E-02  0.1086796E+00
         21   -1    0    0  503  502  0.00000000000E+00  0.00000000000E+00  0.15356938920E+03  0.15356938920E+03  0.00000000000E+00 0. -1.
         21   -1    0    0  501  503 -0.00000000000E+00 -0.00000000000E+00 -0.65022382651E+03  0.65022382651E+03  0.00000000000E+00 0. -1.
          6    1    1    2  501    0  0.55035054429E+02 -0.23567390026E+03 -0.38589380164E+03  0.48689739230E+03  0.17200000000E+03 0.  1.
         -6    1    1    2    0  502 -0.55035054429E+02  0.23567390026E+03 -0.11076063567E+03  0.31689582341E+03  0.17200000000E+03 0.  1.
</event>
<event>
 4    1  0.5718861E+000  0.2098089E+03  0.7818608E-02  0.1141717E+00
         21   -1    0    0  503  502  0.00000000000E+00  0.00000000000E+00  0.29509341954E+03  0.29509341954E+03  0.00000000000E+00 0. -1.
         21   -1    0    0  501  503 -0.00000000000E+00 -0.00000000000E+00 -0.15097826940E+03  0.15097826940E+03  0.00000000000E+00 0.  1.
          6    1    1    2  501    0 -0.17891175348E+02  0.11880949203E+03  0.96450409603E+02  0.23091658897E+03  0.17200000000E+03 0. -1.
         -6    1    1    2    0  502  0.17891175348E+02 -0.11880949203E+03  0.47664740535E+02  0.21515509997E+03  0.17200000000E+03 0.  1.
</event>
<event>
 4    1  0.5718861E+000  0.1793356E+03  0.7818608E-02  0.1168448E+00
         21   -1    0    0  501  502  0.00000000000E+00  0.00000000000E+00  0.25264095200E+03  0.25264095200E+03  0.00000000000E+00 0.  1.
         21   -1    0    0  502  503 -0.00000000000E+00 -0.00000000000E+00 -0.37631948462E+03  0.37631948462E+03  0.00000000000E+00 0.  1.
          6    1    1    2  501    0  0.28037429707E+02  0.42322089749E+02  0.19397892572E+03  0.26417622976E+03  0.17200000000E+03 0.  1.
         -6    1    1    2    0  503 -0.28037429707E+02 -0.42322089749E+02 -0.31765745834E+03  0.36478420687E+03  0.17200000000E+03 0.  1.
</event>
<event>
 4    1  0.5718861E+000  0.1743132E+03  0.7818608E-02  0.1173423E+00
         21   -1    0    0  501  502  0.00000000000E+00  0.00000000000E+00  0.43249736623E+03  0.43249736623E+03  0.00000000000E+00 0. -1.
         21   -1    0    0  502  503 -0.00000000000E+00 -0.00000000000E+00 -0.11694650055E+03  0.11694650055E+03  0.00000000000E+00 0. -1.
          6    1    1    2  501    0  0.28269545983E+02  0.13838524875E+01  0.33136309395E+03  0.37441498676E+03  0.17200000000E+03 0. -1.
         -6    1    1    2    0  503 -0.28269545983E+02 -0.13838524875E+01 -0.15812228275E+02  0.17502888002E+03  0.17200000000E+03 0. -1.
</event>
<event>
 4    1  0.5718861E+000  0.2242946E+03  0.7818608E-02  0.1130721E+00
         21   -1    0    0  501  502  0.00000000000E+00  0.00000000000E+00  0.54389365801E+02  0.54389365801E+02  0.00000000000E+00 0.  1.
         21   -1    0    0  502  503 -0.00000000000E+00 -0.00000000000E+00 -0.10425894780E+04  0.10425894780E+04  0.00000000000E+00 0.  1.
          6    1    1    2  501    0  0.12873650680E+02 -0.14338176430E+03 -0.30986715955E+03  0.38252544724E+03  0.17200000000E+03 0.  1.
         -6    1    1    2    0  503 -0.12873650680E+02  0.14338176430E+03 -0.67833295266E+03  0.71445339658E+03  0.17200000000E+03 0.  1.
</event>
<event>
 4    1  0.5718861E+000  0.2219069E+03  0.7818608E-02  0.1132469E+00
         21   -1    0    0  501  502  0.00000000000E+00  0.00000000000E+00  0.73560731948E+02  0.73560731948E+02  0.00000000000E+00 0. -1.
         21   -1    0    0  502  503 -0.00000000000E+00 -0.00000000000E+00 -0.11513735802E+04  0.11513735802E+04  0.00000000000E+00 0. -1.
          6    1    1    2  501    0 -0.10692905695E+03  0.90691062778E+02 -0.14264725914E+03  0.26380093371E+03  0.17200000000E+03 0. -1.
         -6    1    1    2    0  503  0.10692905695E+03 -0.90691062778E+02 -0.93516558915E+03  0.96113337847E+03  0.17200000000E+03 0. -1.
</event>
<event>
 4    1  0.5718861E+000  0.2079776E+03  0.7818608E-02  0.1143178E+00
         21   -1    0    0  501  502  0.00000000000E+00  0.00000000000E+00  0.14668699712E+04  0.14668699712E+04  0.00000000000E+00 0.  1.
         21   -1    0    0  502  503 -0.00000000000E+00 -0.00000000000E+00 -0.31784339030E+02  0.31784339030E+02  0.00000000000E+00 0.  1.
          6    1    1    2  501    0 -0.11161136412E+03  0.34836604562E+02  0.91896491925E+03  0.94220550223E+03  0.17200000000E+03 0.  1.
         -6    1    1    2    0  503  0.11161136412E+03 -0.34836604562E+02  0.51612071290E+03  0.55644880798E+03  0.17200000000E+03 0.  1.
</event>
<event>
 4    1  0.5718861E+000  0.1883423E+03  0.7818608E-02  0.1159965E+00
         21   -1    0    0  503  502  0.00000000000E+00  0.00000000000E+00  0.11616701854E+03  0.11616701854E+03  0.00000000000E+00 0.  1.
         21   -1    0    0  501  503 -0.00000000000E+00 -0.00000000000E+00 -0.37898859635E+03  0.37898859635E+03  0.00000000000E+00 0.  1.
          6    1    1    2  501    0 -0.61279101501E+02  0.46191921877E+02 -0.24053480717E+03  0.30549928868E+03  0.17200000000E+03 0.  1.
         -6    1    1    2    0  502  0.61279101501E+02 -0.46191921877E+02 -0.22286770641E+02  0.18965632621E+03  0.17200000000E+03 0.  1.
</event>
<event>
 4    1  0.5718861E+000  0.2489633E+03  0.7818608E-02  0.1113962E+00
         21   -1    0    0  503  502  0.00000000000E+00  0.00000000000E+00  0.43252461335E+03  0.43252461335E+03  0.00000000000E+00 0. -1.
         21   -1    0    0  501  503 -0.00000000000E+00 -0.00000000000E+00 -0.21921532674E+03  0.21921532674E+03  0.00000000000E+00 0. -1.
          6    1    1    2  501    0 -0.96455464731E+02 -0.15197058930E+03 -0.85106578674E+02  0.26310805085E+03  0.17200000000E+03 0. -1.
         -6    1    1    2    0  502  0.96455464731E+02  0.15197058930E+03  0.29841586528E+03  0.38863188925E+03  0.17200000000E+03 0. -1.
</event>
<event>
 4    1  0.5718861E+000  0.1892002E+03  0.7818608E-02  0.1159185E+00
         21   -1    0    0  503  502  0.00000000000E+00  0.00000000000E+00  0.51802843095E+03  0.51802843095E+03  0.00000000000E+00 0.  1.
         21   -1    0    0  501  503 -0.00000000000E+00 -0.00000000000E+00 -0.70554961911E+02  0.70554961911E+02  0.00000000000E+00 0.  1.
          6    1    1    2  501    0 -0.35503214078E+02 -0.70372159102E+02  0.18150247377E+03  0.26218288840E+03  0.17200000000E+03 0.  1.
         -6    1    1    2    0  502  0.35503214078E+02  0.70372159102E+02  0.26597099527E+03  0.32640050446E+03  0.17200000000E+03 0.  1.
</event>
<event>
 4    1  0.5718861E+000  0.2030720E+03  0.7818608E-02  0.1147173E+00
         21   -1    0    0  501  502  0.00000000000E+00  0.00000000000E+00  0.36057487676E+02  0.36057487676E+02  0.00000000000E+00 0. -1.
         21   -1    0    0  502  503 -0.00000000000E+00 -0.00000000000E+00 -0.15846586258E+04  0.15846586258E+04  0.00000000000E+00 0.  1.
          6    1    1    2  501    0 -0.42483283149E+00 -0.10795403035E+03 -0.12017822560E+04  0.12188186264E+04  0.17200000000E+03 0.  1.
         -6    1    1    2    0  503  0.42483283149E+00  0.10795403035E+03 -0.34681888218E+03  0.40189748716E+03  0.17200000000E+03 0. -1.
</event>
<event>
 4    1  0.5718861E+000  0.3660761E+03  0.7818608E-02  0.1056204E+00
         21   -1    0    0  503  502  0.00000000000E+00  0.00000000000E+00  0.88392771140E+03  0.88392771140E+03  0.00000000000E+00 0. -1.
         21   -1    0    0  501  503 -0.00000000000E+00 -0.00000000000E+00 -0.16867274411E+03  0.16867274411E+03  0.00000000000E+00 0.  1.
          6    1    1    2  501    0  0.96322941626E+02 -0.30846328377E+03  0.52502299284E+03  0.64004753693E+03  0.17200000000E+03 0. -1.
         -6    1    1    2    0  502 -0.96322941626E+02  0.30846328377E+03  0.19023197446E+03  0.41255291858E+03  0.17200000000E+03 0.  1.
</event>
<event>
 4    1  0.5718861E+000  0.1858561E+03  0.7818608E-02  0.1162253E+00
         21   -1    0    0  503  502  0.00000000000E+00  0.00000000000E+00  0.25826388647E+03  0.25826388647E+03  0.00000000000E+00 0. -1.
         21   -1    0    0  501  503 -0.00000000000E+00 -0.00000000000E+00 -0.27531638265E+03  0.27531638265E+03  0.00000000000E+00 0. -1.
          6    1    1    2  501    0  0.20999681754E+02  0.67212387400E+02 -0.19983533845E+03  0.27290411163E+03  0.17200000000E+03 0. -1.
         -6    1    1    2    0  502 -0.20999681754E+02 -0.67212387400E+02  0.18278284226E+03  0.26067615748E+03  0.17200000000E+03 0. -1.
</event>
<event>
 4    1  0.5718861E+000  0.1863309E+03  0.7818608E-02  0.1161813E+00
         21   -1    0    0  503  502  0.00000000000E+00  0.00000000000E+00  0.89562763573E+02  0.89562763573E+02  0.00000000000E+00 0. -1.
         21   -1    0    0  501  503 -0.00000000000E+00 -0.00000000000E+00 -0.51157505982E+03  0.51157505982E+03  0.00000000000E+00 0. -1.
          6    1    1    2  501    0  0.71065139367E+02  0.92173066485E+01 -0.35893908742E+03  0.40442116816E+03  0.17200000000E+03 0. -1.
         -6    1    1    2    0  502 -0.71065139367E+02 -0.92173066485E+01 -0.63073208824E+02  0.19671665523E+03  0.17200000000E+03 0. -1.
</event>
<event>
 4    1  0.5718861E+000  0.2460425E+03  0.7818608E-02  0.1115832E+00
         21   -1    0    0  501  502  0.00000000000E+00  0.00000000000E+00  0.22194566404E+03  0.22194566404E+03  0.00000000000E+00 0. -1.
         21   -1    0    0  502  503 -0.00000000000E+00 -0.00000000000E+00 -0.29861467481E+03  0.29861467481E+03  0.00000000000E+00 0.  1.
          6    1    1    2  501    0  0.16874727179E+03 -0.49772257842E+02  0.38259031855E+02  0.24899934319E+03  0.17200000000E+03 0. -1.
         -6    1    1    2    0  503 -0.16874727179E+03  0.49772257842E+02 -0.11492804263E+03  0.27156099567E+03  0.17200000000E+03 0.  1.
</event>
<event>
 4    1  0.5718861E+000  0.2195783E+03  0.7818608E-02  0.1134198E+00
         21   -1    0    0  503  502  0.00000000000E+00  0.00000000000E+00  0.12182022306E+03  0.12182022306E+03  0.00000000000E+00 0.  1.
         21   -1    0    0  501  503 -0.00000000000E+00 -0.00000000000E+00 -0.59364575917E+03  0.59364575917E+03  0.00000000000E+00 0.  1.
          6    1    1    2  501    0 -0.52911444670E+02 -0.12582142120E+03 -0.44243881765E+03  0.49392991240E+03  0.17200000000E+03 0. -1.
         -6    1    1    2    0  502  0.52911444670E+02  0.12582142120E+03 -0.29386718464E+02  0.22153606982E+03  0.17200000000E+03 0. -1.
</event>
<event>
 4    1  0.5718861E+000  0.1746499E+03  0.7818608E-02  0.1173084E+00
         21   -1    0    0  503  502  0.00000000000E+00  0.00000000000E+00  0.13573365218E+03  0.13573365218E+03  0.00000000000E+00 0. -1.
         21   -1    0    0  501  503 -0.00000000000E+00 -0.00000000000E+00 -0.24053340733E+03  0.24053340733E+03  0.00000000000E+00 0. -1.
          6    1    1    2  501    0 -0.30157515351E+02 -0.30164730533E+01 -0.10063237821E+03  0.20156748346E+03  0.17200000000E+03 0. -1.
         -6    1    1    2    0  502  0.30157515351E+02  0.30164730533E+01 -0.41673769286E+01  0.17469957605E+03  0.17200000000E+03 0. -1.
</event>
<event>
 4    1  0.5718861E+000  0.2045995E+03  0.7818608E-02  0.1145915E+00
         21   -1    0    0  503  502  0.00000000000E+00  0.00000000000E+00  0.96611079056E+02  0.96611079056E+02  0.00000000000E+00 0.  1.
         21   -1    0    0  501  503 -0.00000000000E+00 -0.00000000000E+00 -0.91549309654E+03  0.91549309654E+03  0.00000000000E+00 0.  1.
          6    1    1    2  501    0 -0.10966545609E+03 -0.15825512509E+02 -0.77670730474E+03  0.80320308536E+03  0.17200000000E+03 0.  1.
         -6    1    1    2    0  502  0.10966545609E+03  0.15825512509E+02 -0.42174712749E+02  0.20890109023E+03  0.17200000000E+03 0.  1.
</event>
<event>
 4    1  0.5718861E+000  0.1763835E+03  0.7818608E-02  0.1171350E+00
         21   -1    0    0  503  502  0.00000000000E+00  0.00000000000E+00  0.10742545357E+03  0.10742545357E+03  0.00000000000E+00 0. -1.
         21   -1    0    0  501  503 -0.00000000000E+00 -0.00000000000E+00 -0.38844309715E+03  0.38844309715E+03  0.00000000000E+00 0. -1.
          6    1    1    2  501    0  0.38384325314E+02  0.73339061423E+01 -0.26557246702E+03  0.31881009684E+03  0.17200000000E+03 0. -1.
         -6    1    1    2    0  502 -0.38384325314E+02 -0.73339061423E+01 -0.15445176562E+02  0.17705845387E+03  0.17200000000E+03 0. -1.
</event>
<event>
 4    1  0.5718861E+000  0.1874897E+03  0.7818608E-02  0.1160745E+00
         21   -1    0    0  503  502  0.00000000000E+00  0.00000000000E+00  0.12548456819E+03  0.12548456819E+03  0.00000000000E+00 0.  1.
         21   -1    0    0  501  503 -0.00000000000E+00 -0.00000000000E+00 -0.37277740009E+03  0.37277740009E+03  0.00000000000E+00 0.  1.
          6    1    1    2  501    0 -0.67685943077E+02 -0.31416311785E+02 -0.24784381097E+03  0.31077150155E+03  0.17200000000E+03 0.  1.
         -6    1    1    2    0  502  0.67685943077E+02  0.31416311785E+02  0.55097906741E+00  0.18749046673E+03  0.17200000000E+03 0.  1.
</event>
<event>
 4    1  0.5718861E+000  0.1852779E+03  0.7818608E-02  0.1162791E+00
         21   -1    0    0  501  502  0.00000000000E+00  0.00000000000E+00  0.23640716437E+03  0.23640716437E+03  0.00000000000E+00 0. -1.
         21   -1    0    0  502  503 -0.00000000000E+00 -0.00000000000E+00 -0.15203688661E+03  0.15203688661E+03  0.00000000000E+00 0. -1.
          6    1    1    2  501    0 -0.57826751035E+02 -0.37416011942E+02  0.83351458619E+02  0.20316337450E+03  0.17200000000E+03 0. -1.
         -6    1    1    2    0  503  0.57826751035E+02  0.37416011942E+02  0.10188191345E+01  0.18528067648E+03  0.17200000000E+03 0. -1.
</event>
<event>
 4    1  0.5718861E+000  0.1884962E+03  0.7818608E-02  0.1159825E+00
         21   -1    0    0  501  502  0.00000000000E+00  0.00000000000E+00  0.78965587853E+02  0.78965587853E+02  0.00000000000E+00 0.  1.
         21   -1    0    0  502  503 -0.00000000000E+00 -0.00000000000E+00 -0.51350816778E+03  0.51350816778E+03  0.00000000000E+00 0.  1.
          6    1    1    2  501    0  0.69153732474E+02  0.34125917036E+02 -0.11305387837E+03  0.21979990069E+03  0.17200000000E+03 0.  1.
         -6    1    1    2    0  503 -0.69153732474E+02 -0.34125917036E+02 -0.32148870155E+03  0.37267385494E+03  0.17200000000E+03 0.  1.
</event>
<event>
 4    1  0.5718861E+000  0.1795808E+03  0.7818608E-02  0.1168209E+00
         21   -1    0    0  503  502  0.00000000000E+00  0.00000000000E+00  0.93797139483E+03  0.93797139483E+03  0.00000000000E+00 0.  1.
         21   -1    0    0  501  503 -0.00000000000E+00 -0.00000000000E+00 -0.43908673643E+02  0.43908673643E+02  0.00000000000E+00 0.  1.
          6    1    1    2  501    0  0.11727557996E+02 -0.50276618442E+02  0.21835284985E+03  0.28271406229E+03  0.17200000000E+03 0.  1.
         -6    1    1    2    0  502 -0.11727557996E+02  0.50276618442E+02  0.67570987134E+03  0.69916600618E+03  0.17200000000E+03 0.  1.
</event>
<event>
 4    1  0.5718861E+000  0.2203222E+03  0.7818608E-02  0.1133643E+00
         21   -1    0    0  503  502  0.00000000000E+00  0.00000000000E+00  0.57387413476E+02  0.57387413476E+02  0.00000000000E+00 0.  1.
         21   -1    0    0  501  503 -0.00000000000E+00 -0.00000000000E+00 -0.12329904536E+04  0.12329904536E+04  0.00000000000E+00 0.  1.
          6    1    1    2  501    0 -0.11973074230E+02 -0.13716607818E+03 -0.94932296131E+03  0.97455424291E+03  0.17200000000E+03 0.  1.
         -6    1    1    2    0  502  0.11973074230E+02  0.13716607818E+03 -0.22628007880E+03  0.31582362415E+03  0.17200000000E+03 0.  1.
</event>
<event>
 4    1  0.5718861E+000  0.1733710E+03  0.7818608E-02  0.1174377E+00
         21   -1    0    0  503  502  0.00000000000E+00  0.00000000000E+00  0.28024556363E+02  0.28024556363E+02  0.00000000000E+00 0.  1.
         21   -1    0    0  501  503 -0.00000000000E+00 -0.00000000000E+00 -0.11490399254E+04  0.11490399254E+04  0.00000000000E+00 0.  1.
          6    1    1    2  501    0 -0.21733270367E+02  0.10757493624E+01 -0.71236289615E+03  0.73315645540E+03  0.17200000000E+03 0.  1.
         -6    1    1    2    0  502  0.21733270367E+02 -0.10757493624E+01 -0.40865247290E+03  0.44390802638E+03  0.17200000000E+03 0.  1.
</event>
<event>
 4    1  0.5718861E+000  0.2050769E+03  0.7818608E-02  0.1145525E+00
         21   -1    0    0  501  502  0.00000000000E+00  0.00000000000E+00  0.18382695002E+03  0.18382695002E+03  0.00000000000E+00 0. -1.
         21   -1    0    0  502  503 -0.00000000000E+00 -0.00000000000E+00 -0.38140298980E+03  0.38140298980E+03  0.00000000000E+00 0.  1.
          6    1    1    2  501    0  0.10072936865E+03 -0.48229758922E+02  0.79987710418E+02  0.22012394048E+03  0.17200000000E+03 0. -1.
         -6    1    1    2    0  503 -0.10072936865E+03  0.48229758922E+02 -0.27756375020E+03  0.34510599934E+03  0.17200000000E+03 0.  1.
</event>
<event>
 4    1  0.5718861E+000  0.1757487E+03  0.7818608E-02  0.1171982E+00
         21   -1    0    0  503  502  0.00000000000E+00  0.00000000000E+00  0.85683822394E+03  0.85683822394E+03  0.00000000000E+00 0. -1.
         21   -1    0    0  501  503 -0.00000000000E+00 -0.00000000000E+00 -0.74983995926E+02  0.74983995926E+02  0.00000000000E+00 0. -1.
          6    1    1    2  501    0  0.26312578806E+02  0.24723849938E+02  0.55195404564E+02  0.18421225053E+03  0.17200000000E+03 0. -1.
         -6    1    1    2    0  502 -0.26312578806E+02 -0.24723849938E+02  0.72665882345E+03  0.74760996934E+03  0.17200000000E+03 0. -1.
</event>
<event>
 4    1  0.5718861E+000  0.1791922E+03  0.7818608E-02  0.1168587E+00
         21   -1    0    0  501  502  0.00000000000E+00  0.00000000000E+00  0.91959399935E+02  0.91959399935E+02  0.00000000000E+00 0. -1.
         21   -1    0    0  502  503 -0.00000000000E+00 -0.00000000000E+00 -0.91914207960E+03  0.91914207960E+03  0.00000000000E+00 0. -1.
          6    1    1    2  501    0 -0.39786719543E+02 -0.30705781417E+02 -0.81169732515E+03  0.83124146656E+03  0.17200000000E+03 0. -1.
         -6    1    1    2    0  503  0.39786719543E+02  0.30705781417E+02 -0.15485354515E+02  0.17986001298E+03  0.17200000000E+03 0. -1.
</event>
<event>
 4    1  0.5718861E+000  0.2087431E+03  0.7818608E-02  0.1142565E+00
         21   -1    0    0  501  502  0.00000000000E+00  0.00000000000E+00  0.39724941427E+02  0.39724941427E+02  0.00000000000E+00 0.  1.
         21   -1    0    0  502  503 -0.00000000000E+00 -0.00000000000E+00 -0.13289945215E+04  0.13289945215E+04  0.00000000000E+00 0. -1.
          6    1    1    2  501    0  0.73420853534E+02 -0.92731075862E+02 -0.35863233642E+03  0.41495882554E+03  0.17200000000E+03 0.  1.
         -6    1    1    2    0  503 -0.73420853534E+02  0.92731075862E+02 -0.93063724366E+03  0.95376063740E+03  0.17200000000E+03 0. -1.
</event>
<event>
 4    1  0.5718861E+000  0.2194969E+03  0.7818608E-02  0.1134259E+00
         21   -1    0    0  503  502  0.00000000000E+00  0.00000000000E+00  0.23479432773E+03  0.23479432773E+03  0.00000000000E+00 0. -1.
         21   -1    0    0  501  503 -0.00000000000E+00 -0.00000000000E+00 -0.44603655558E+03  0.44603655558E+03  0.00000000000E+00 0. -1.
          6    1    1    2  501    0 -0.10342929841E+03  0.88866666974E+02 -0.35576428636E+03  0.41802766860E+03  0.17200000000E+03 0. -1.
         -6    1    1    2    0  502  0.10342929841E+03 -0.88866666974E+02  0.14452205850E+03  0.26280321471E+03  0.17200000000E+03 0. -1.
</event>
<event>
 4    1  0.5718861E+000  0.1862738E+03  0.7818608E-02  0.1161866E+00
         21   -1    0    0  501  502  0.00000000000E+00  0.00000000000E+00  0.17506573242E+02  0.17506573242E+02  0.00000000000E+00 0. -1.
         21   -1    0    0  502  503 -0.00000000000E+00 -0.00000000000E+00 -0.20027373481E+04  0.20027373481E+04  0.00000000000E+00 0.  1.
          6    1    1    2  501    0  0.17830693161E+02  0.69253122140E+02 -0.10954165445E+04  0.11111414557E+04  0.17200000000E+03 0.  1.
         -6    1    1    2    0  503 -0.17830693161E+02 -0.69253122140E+02 -0.88981423039E+03  0.90910246570E+03  0.17200000000E+03 0.  1.
</event>
<event>
 4    1  0.5718861E+000  0.1814837E+03  0.7818608E-02  0.1166375E+00
         21   -1    0    0  501  502  0.00000000000E+00  0.00000000000E+00  0.24100673578E+03  0.24100673578E+03  0.00000000000E+00 0. -1.
         21   -1    0    0  502  503 -0.00000000000E+00 -0.00000000000E+00 -0.13791213022E+03  0.13791213022E+03  0.00000000000E+00 0. -1.
          6    1    1    2  501    0  0.41827495494E+02 -0.40034769661E+02  0.69589680365E+02  0.19436832503E+03  0.17200000000E+03 0. -1.
         -6    1    1    2    0  503 -0.41827495494E+02  0.40034769661E+02  0.33504925189E+02  0.18455054097E+03  0.17200000000E+03 0. -1.
</event>
<event>
 4    1  0.5718861E+000  0.1906313E+03  0.7818608E-02  0.1157893E+00
         21   -1    0    0  503  502  0.00000000000E+00  0.00000000000E+00  0.81831801220E+03  0.81831801220E+03  0.00000000000E+00 0. -1.
         21   -1    0    0  501  503 -0.00000000000E+00 -0.00000000000E+00 -0.10069066324E+03  0.10069066324E+03  0.00000000000E+00 0. -1.
          6    1    1    2  501    0  0.81348236884E+02  0.11778871297E+02  0.15271234414E+02  0.19124196206E+03  0.17200000000E+03 0. -1.
         -6    1    1    2    0  502 -0.81348236884E+02 -0.11778871297E+02  0.70235611455E+03  0.72776671337E+03  0.17200000000E+03 0. -1.
</event>
<event>
 4    1  0.5718861E+000  0.1735787E+03  0.7818608E-02  0.1174166E+00
         21   -1    0    0  503  502  0.00000000000E+00  0.00000000000E+00  0.55802858785E+03  0.55802858785E+03  0.00000000000E+00 0.  1.
         21   -1    0    0  501  503 -0.00000000000E+00 -0.00000000000E+00 -0.13067521145E+03  0.13067521145E+03  0.00000000000E+00 0.  1.
          6    1    1    2  501    0 -0.57634578552E+01 -0.22635133352E+02 -0.50110410579E+02  0.18066715240E+03  0.17200000000E+03 0.  1.
         -6    1    1    2    0  502  0.57634578552E+01  0.22635133352E+02  0.47746378698E+03  0.50803664690E+03  0.17200000000E+03 0.  1.
</event>
<event>
 4    1  0.5718861E+000  0.2262993E+03  0.7818608E-02  0.1129272E+00
         21   -1    0    0  503  502  0.00000000000E+00  0.00000000000E+00  0.23051544111E+03  0.23051544111E+03  0.00000000000E+00 0. -1.
         21   -1    0    0  501  503 -0.00000000000E+00 -0.00000000000E+00 -0.30944698430E+03  0.30944698430E+03  0.00000000000E+00 0.  1.
          6    1    1    2  501    0 -0.11112529820E+03  0.96325180316E+02 -0.18285432832E+03  0.29094170833E+03  0.17200000000E+03 0.  1.
         -6    1    1    2    0  502  0.11112529820E+03 -0.96325180316E+02  0.10392278514E+03  0.24902071708E+03  0.17200000000E+03 0. -1.
</event>
<event>
 4    1  0.5718861E+000  0.2493427E+03  0.7818608E-02  0.1113721E+00
         21   -1    0    0  501  502  0.00000000000E+00  0.00000000000E+00  0.14118892942E+03  0.14118892942E+03  0.00000000000E+00 0.  1.
         21   -1    0    0  502  503 -0.00000000000E+00 -0.00000000000E+00 -0.44899716441E+03  0.44899716441E+03  0.00000000000E+00 0.  1.
          6    1    1    2  501    0  0.76544194248E+02 -0.16348933403E+03 -0.11293932332E+03  0.27372808911E+03  0.17200000000E+03 0.  1.
         -6    1    1    2    0  503 -0.76544194248E+02  0.16348933403E+03 -0.19486891167E+03  0.31645800472E+03  0.17200000000E+03 0.  1.
</event>
<event>
 4    1  0.5718861E+000  0.1862577E+03  0.7818608E-02  0.1161881E+00
         21   -1    0    0  501  502  0.00000000000E+00  0.00000000000E+00  0.32671532181E+03  0.32671532181E+03  0.00000000000E+00 0.  1.
         21   -1    0    0  502  503 -0.00000000000E+00 -0.00000000000E+00 -0.11033083567E+03  0.11033083567E+03  0.00000000000E+00 0.  1.
          6    1    1    2  501    0 -0.54584543977E+01  0.71261033165E+02  0.65827078509E+02  0.19754780140E+03  0.17200000000E+03 0. -1.
         -6    1    1    2    0  503  0.54584543977E+01 -0.71261033165E+02  0.15055740764E+03  0.23949835608E+03  0.17200000000E+03 0. -1.
</event>
<event>
 4    1  0.5718861E+000  0.2034761E+03  0.7818608E-02  0.1146839E+00
         21   -1    0    0  501  502  0.00000000000E+00  0.00000000000E+00  0.42862310491E+03  0.42862310491E+03  0.00000000000E+00 0.  1.
         21   -1    0    0  502  503 -0.00000000000E+00 -0.00000000000E+00 -0.10260077221E+03  0.10260077221E+03  0.00000000000E+00 0.  1.
          6    1    1    2  501    0 -0.74175433089E+02  0.79476585729E+02  0.98744729016E+02  0.22617038723E+03  0.17200000000E+03 0.  1.
         -6    1    1    2    0  503  0.74175433089E+02 -0.79476585729E+02  0.22727760369E+03  0.30505348989E+03  0.17200000000E+03 0.  1.
</event>
<event>
 4    1  0.5718861E+000  0.1767800E+03  0.7818608E-02  0.1170956E+00
         21   -1    0    0  501  502  0.00000000000E+00  0.00000000000E+00  0.35301834470E+02  0.35301834470E+02  0.00000000000E+00 0. -1.
         21   -1    0    0  502  503 -0.00000000000E+00 -0.00000000000E+00 -0.14268509687E+04  0.14268509687E+04  0.00000000000E+00 0. -1.
          6    1    1    2  501    0  0.35412198170E+02 -0.20326156236E+02 -0.24536190460E+03  0.30241302987E+03  0.17200000000E+03 0. -1.
         -6    1    1    2    0  503 -0.35412198170E+02  0.20326156236E+02 -0.11461872296E+04  0.11597397733E+04  0.17200000000E+03 0. -1.
</event>
<event>
 4    1  0.5718861E+000  0.1872417E+03  0.7818608E-02  0.1160973E+00
         21   -1    0    0  503  502  0.00000000000E+00  0.00000000000E+00  0.61029760377E+02  0.61029760377E+02  0.00000000000E+00 0. -1.
         21   -1    0    0  501  503 -0.00000000000E+00 -0.00000000000E+00 -0.58127745953E+03  0.58127745953E+03  0.00000000000E+00 0. -1.
          6    1    1    2  501    0  0.65038963256E+02 -0.35290169744E+02 -0.29489125142E+03  0.34931406068E+03  0.17200000000E+03 0. -1.
         -6    1    1    2    0  502 -0.65038963256E+02  0.35290169744E+02 -0.22535644773E+03  0.29299315923E+03  0.17200000000E+03 0. -1.
</event>
<event>
 4    1  0.5718861E+000  0.1808614E+03  0.7818608E-02  0.1166972E+00
         21   -1    0    0  503  502  0.00000000000E+00  0.00000000000E+00  0.93546611655E+02  0.93546611655E+02  0.00000000000E+00 0.  1.
         21   -1    0    0  501  503 -0.00000000000E+00 -0.00000000000E+00 -0.52982831447E+03  0.52982831447E+03  0.00000000000E+00 0.  1.
          6    1    1    2  501    0  0.55760868646E+02  0.41931307828E+01 -0.39989050187E+03  0.43888867644E+03  0.17200000000E+03 0.  1.
         -6    1    1    2    0  502 -0.55760868646E+02 -0.41931307828E+01 -0.36391200943E+02  0.18448624969E+03  0.17200000000E+03 0.  1.
</event>
<event>
 4    1  0.5718861E+000  0.2781674E+03  0.7818608E-02  0.1096694E+00
         21   -1    0    0  501  502  0.00000000000E+00  0.00000000000E+00  0.19544962321E+03  0.19544962321E+03  0.00000000000E+00 0. -1.
         21   -1    0    0  502  503 -0.00000000000E+00 -0.00000000000E+00 -0.40679104315E+03  0.40679104315E+03  0.00000000000E+00 0. -1.
          6    1    1    2  501    0  0.17252735299E+03 -0.13426618594E+03 -0.15495776625E+03  0.31841640275E+03  0.17200000000E+03 0. -1.
         -6    1    1    2    0  503 -0.17252735299E+03  0.13426618594E+03 -0.56383653688E+02  0.28382426362E+03  0.17200000000E+03 0. -1.
</event>
<event>
 4    1  0.5718861E+000  0.3618033E+03  0.7818608E-02  0.1057872E+00
         21   -1    0    0  503  502  0.00000000000E+00  0.00000000000E+00  0.60554324125E+02  0.60554324125E+02  0.00000000000E+00 0.  1.
         21   -1    0    0  501  503 -0.00000000000E+00 -0.00000000000E+00 -0.21728842536E+04  0.21728842536E+04  0.00000000000E+00 0. -1.
          6    1    1    2  501    0  0.28336389178E+03  0.14499144428E+03 -0.97612592895E+03  0.10410203856E+04  0.17200000000E+03 0.  1.
         -6    1    1    2    0  502 -0.28336389178E+03 -0.14499144428E+03 -0.11362040005E+04  0.11924181921E+04  0.17200000000E+03 0. -1.
</event>
<event>
 4    1  0.5718861E+000  0.2146923E+03  0.7818608E-02  0.1137903E+00
         21   -1    0    0  501  502  0.00000000000E+00  0.00000000000E+00  0.27364598166E+03  0.27364598166E+03  0.00000000000E+00 0.  1.
         21   -1    0    0  502  503 -0.00000000000E+00 -0.00000000000E+00 -0.20461919053E+03  0.20461919053E+03  0.00000000000E+00 0.  1.
          6    1    1    2  501    0  0.32481845182E+02 -0.12431292540E+03  0.13506717808E+03  0.25364525677E+03  0.17200000000E+03 0.  1.
         -6    1    1    2    0  503 -0.32481845182E+02  0.12431292540E+03 -0.66040386953E+02  0.22461991541E+03  0.17200000000E+03 0.  1.
</event>
<event>
 4    1  0.5718861E+000  0.1887735E+03  0.7818608E-02  0.1159572E+00
         21   -1    0    0  501  502  0.00000000000E+00  0.00000000000E+00  0.18703523873E+03  0.18703523873E+03  0.00000000000E+00 0.  1.
         21   -1    0    0  502  503 -0.00000000000E+00 -0.00000000000E+00 -0.25195418997E+03  0.25195418997E+03  0.00000000000E+00 0. -1.
          6    1    1    2  501    0  0.77270211504E+02  0.89852677089E+01  0.75918395998E+02  0.20346749979E+03  0.17200000000E+03 0.  1.
         -6    1    1    2    0  503 -0.77270211504E+02 -0.89852677089E+01 -0.14083734724E+03  0.23552192891E+03  0.17200000000E+03 0. -1.
</event>
<event>
 4    1  0.5718861E+000  0.2386516E+03  0.7818608E-02  0.1120694E+00
         21   -1    0    0  501  502  0.00000000000E+00  0.00000000000E+00  0.18964587272E+03  0.18964587272E+03  0.00000000000E+00 0.  1.
         21   -1    0    0  502  503 -0.00000000000E+00 -0.00000000000E+00 -0.30896392130E+03  0.30896392130E+03  0.00000000000E+00 0. -1.
          6    1    1    2  501    0 -0.38508264406E+02 -0.16089654479E+03 -0.17961112775E+02  0.23932652616E+03  0.17200000000E+03 0.  1.
         -6    1    1    2    0  503  0.38508264406E+02  0.16089654479E+03 -0.10135693580E+03  0.25928326785E+03  0.17200000000E+03 0. -1.
</event>
<event>
 4    1  0.5718861E+000  0.1921425E+03  0.7818608E-02  0.1156543E+00
         21   -1    0    0  501  502  0.00000000000E+00  0.00000000000E+00  0.10338118924E+03  0.10338118924E+03  0.00000000000E+00 0.  1.
         21   -1    0    0  502  503 -0.00000000000E+00 -0.00000000000E+00 -0.41630442867E+03  0.41630442867E+03  0.00000000000E+00 0.  1.
          6    1    1    2  501    0  0.47208070753E+02 -0.71457298981E+02 -0.58482106748E+02  0.20084547376E+03  0.17200000000E+03 0. -1.
         -6    1    1    2    0  503 -0.47208070753E+02  0.71457298981E+02 -0.25444113268E+03  0.31884014415E+03  0.17200000000E+03 0. -1.
</event>
<event>
 4    1  0.5718861E+000  0.1783224E+03  0.7818608E-02  0.1169437E+00
         21   -1    0    0  501  502  0.00000000000E+00  0.00000000000E+00  0.98349093082E+02  0.98349093082E+02  0.00000000000E+00 0. -1.
         21   -1    0    0  502  503 -0.00000000000E+00 -0.00000000000E+00 -0.32333994420E+03  0.32333994420E+03  0.00000000000E+00 0. -1.
          6    1    1    2  501    0  0.22551310640E+02 -0.41307518565E+02 -0.11385259469E+03  0.21156863193E+03  0.17200000000E+03 0. -1.
         -6    1    1    2    0  503 -0.22551310640E+02  0.41307518565E+02 -0.11113825643E+03  0.21012040535E+03  0.17200000000E+03 0. -1.
</event>
<event>
 4    1  0.5718861E+000  0.1739452E+03  0.7818608E-02  0.1173795E+00
         21   -1    0    0  501  502  0.00000000000E+00  0.00000000000E+00  0.77433886970E+03  0.77433886970E+03  0.00000000000E+00 0. -1.
         21   -1    0    0  502  503 -0.00000000000E+00 -0.00000000000E+00 -0.41115246273E+02  0.41115246273E+02  0.00000000000E+00 0. -1.
          6    1    1    2  501    0 -0.46226983789E+01 -0.25526024375E+02  0.45744753306E+03  0.48940289411E+03  0.17200000000E+03 0. -1.
         -6    1    1    2    0  503  0.46226983789E+01  0.25526024375E+02  0.27577609037E+03  0.32605122187E+03  0.17200000000E+03 0. -1.
</event>
<event>
 4    1  0.5718861E+000  0.2171847E+03  0.7818608E-02  0.1136000E+00
         21   -1    0    0  501  502  0.00000000000E+00  0.00000000000E+00  0.46052292496E+02  0.46052292496E+02  0.00000000000E+00 0.  1.
         21   -1    0    0  502  503 -0.00000000000E+00 -0.00000000000E+00 -0.15210606807E+04  0.15210606807E+04  0.00000000000E+00 0.  1.
          6    1    1    2  501    0  0.45644277563E+02  0.12450618644E+03 -0.28969679113E+03  0.36206825506E+03  0.17200000000E+03 0.  1.
         -6    1    1    2    0  503 -0.45644277563E+02 -0.12450618644E+03 -0.11853115971E+04  0.12050447181E+04  0.17200000000E+03 0.  1.
</event>
<event>
 4    1  0.5718861E+000  0.1768548E+03  0.7818608E-02  0.1170882E+00
         21   -1    0    0  503  502  0.00000000000E+00  0.00000000000E+00  0.36967312818E+03  0.36967312818E+03  0.00000000000E+00 0. -1.
         21   -1    0    0  501  503 -0.00000000000E+00 -0.00000000000E+00 -0.14491284707E+03  0.14491284707E+03  0.00000000000E+00 0. -1.
          6    1    1    2  501    0 -0.38654221400E+02 -0.14123323359E+02 -0.53596727840E+02  0.18479779850E+03  0.17200000000E+03 0. -1.
         -6    1    1    2    0  502  0.38654221400E+02  0.14123323359E+02  0.27835700895E+03  0.32978817675E+03  0.17200000000E+03 0. -1.
</event>
<event>
 4    1  0.5718861E+000  0.2123980E+03  0.7818608E-02  0.1139681E+00
         21   -1    0    0  503  502  0.00000000000E+00  0.00000000000E+00  0.35091530693E+03  0.35091530693E+03  0.00000000000E+00 0. -1.
         21   -1    0    0  501  503 -0.00000000000E+00 -0.00000000000E+00 -0.21931207355E+03  0.21931207355E+03  0.00000000000E+00 0. -1.
          6    1    1    2  501    0  0.12456871431E+03  0.33961614305E+01 -0.11760726055E+03  0.24278460872E+03  0.17200000000E+03 0. -1.
         -6    1    1    2    0  502 -0.12456871431E+03 -0.33961614305E+01  0.24921049393E+03  0.32744277176E+03  0.17200000000E+03 0. -1.
</event>
<event>
 4    1  0.5718861E+000  0.2486130E+03  0.7818608E-02  0.1114185E+00
         21   -1    0    0  503  502  0.00000000000E+00  0.00000000000E+00  0.25784013542E+04  0.25784013542E+04  0.00000000000E+00 0. -1.
         21   -1    0    0  501  503 -0.00000000000E+00 -0.00000000000E+00 -0.24234206264E+02  0.24234206264E+02  0.00000000000E+00 0. -1.
          6    1    1    2  501    0 -0.25323401011E+02  0.17771649806E+03  0.14125445857E+04  0.14342561260E+04  0.17200000000E+03 0. -1.
         -6    1    1    2    0  502  0.25323401011E+02 -0.17771649806E+03  0.11416225623E+04  0.11683794345E+04  0.17200000000E+03 0. -1.
</event>
<event>
 4    1  0.5718861E+000  0.2828947E+03  0.7818608E-02  0.1094118E+00
         21   -1    0    0  503  502  0.00000000000E+00  0.00000000000E+00  0.17366651571E+03  0.17366651571E+03  0.00000000000E+00 0.  1.
         21   -1    0    0  501  503 -0.00000000000E+00 -0.00000000000E+00 -0.47953829609E+03  0.47953829609E+03  0.00000000000E+00 0.  1.
          6    1    1    2  501    0  0.19204588059E+03 -0.11646373207E+03 -0.21745866058E+03  0.35681604533E+03  0.17200000000E+03 0.  1.
         -6    1    1    2    0  502 -0.19204588059E+03  0.11646373207E+03 -0.88413119804E+02  0.29638876648E+03  0.17200000000E+03 0.  1.
</event>
<event>
 4    1  0.5718861E+000  0.3792280E+03  0.7818608E-02  0.1051219E+00
         21   -1    0    0  503  502  0.00000000000E+00  0.00000000000E+00  0.81902803881E+03  0.81902803881E+03  0.00000000000E+00 0. -1.
         21   -1    0    0  501  503 -0.00000000000E+00 -0.00000000000E+00 -0.20717747231E+03  0.20717747231E+03  0.00000000000E+00 0.  1.
          6    1    1    2  501    0 -0.33752194217E+03  0.17572439678E+02  0.10557752553E+03  0.39365018224E+03  0.17200000000E+03 0.  1.
         -6    1    1    2    0  502  0.33752194217E+03 -0.17572439678E+02  0.50627304098E+03  0.63255532888E+03  0.17200000000E+03 0. -1.
</event>
<event>
 4    1  0.5718861E+000  0.1932989E+03  0.7818608E-02  0.1155519E+00
         21   -1    0    0  501  502  0.00000000000E+00  0.00000000000E+00  0.94887544344E+02  0.94887544344E+02  0.00000000000E+00 0. -1.
         21   -1    0    0  502  503 -0.00000000000E+00 -0.00000000000E+00 -0.41132094055E+03  0.41132094055E+03  0.00000000000E+00 0. -1.
          6    1    1    2  501    0  0.80162603495E+02 -0.36802595066E+02 -0.21049003507E+03  0.28578056068E+03  0.17200000000E+03 0. -1.
         -6    1    1    2    0  503 -0.80162603495E+02  0.36802595066E+02 -0.10594336114E+03  0.22042792421E+03  0.17200000000E+03 0. -1.
</event>
<event>
 4    1  0.5718861E+000  0.2168909E+03  0.7818608E-02  0.1136222E+00
         21   -1    0    0  503  502  0.00000000000E+00  0.00000000000E+00  0.77399311378E+03  0.77399311378E+03  0.00000000000E+00 0. -1.
         21   -1    0    0  501  503 -0.00000000000E+00 -0.00000000000E+00 -0.20176804581E+03  0.20176804581E+03  0.00000000000E+00 0. -1.
          6    1    1    2  501    0  0.10138339757E+03  0.84729500638E+02 -0.12171984835E+03  0.24871148559E+03  0.17200000000E+03 0. -1.
         -6    1    1    2    0  502 -0.10138339757E+03 -0.84729500638E+02  0.69394491632E+03  0.72704967401E+03  0.17200000000E+03 0. -1.
</event>
<event>
 4    1  0.5718861E+000  0.1798096E+03  0.7818608E-02  0.1167987E+00
         21   -1    0    0  503  502  0.00000000000E+00  0.00000000000E+00  0.17575211652E+04  0.17575211652E+04  0.00000000000E+00 0.  1.
         21   -1    0    0  501  503 -0.00000000000E+00 -0.00000000000E+00 -0.18806898371E+02  0.18806898371E+02  0.00000000000E+00 0.  1.
          6    1    1    2  501    0 -0.49704283523E+02  0.16642167685E+02  0.73808689901E+03  0.75967344829E+03  0.17200000000E+03 0.  1.
         -6    1    1    2    0  502  0.49704283523E+02 -0.16642167685E+02  0.10006273678E+04  0.10166546153E+04  0.17200000000E+03 0.  1.
</event>
<event>
 4    1  0.5718861E+000  0.1724402E+03  0.7818608E-02  0.1175327E+00
         21   -1    0    0  503  502  0.00000000000E+00  0.00000000000E+00  0.52457726746E+02  0.52457726746E+02  0.00000000000E+00 0. -1.
         21   -1    0    0  501  503 -0.00000000000E+00 -0.00000000000E+00 -0.56702929616E+03  0.56702929616E+03  0.00000000000E+00 0. -1.
          6    1    1    2  501    0 -0.11449573105E+02 -0.45310486550E+01 -0.25176640936E+03  0.30515888978E+03  0.17200000000E+03 0. -1.
         -6    1    1    2    0  502  0.11449573105E+02  0.45310486550E+01 -0.26280516005E+03  0.31432813313E+03  0.17200000000E+03 0. -1.
</event>
<event>
 4    1  0.5718861E+000  0.1724317E+03  0.7818608E-02  0.1175335E+00
         21   -1    0    0  503  502  0.00000000000E+00  0.00000000000E+00  0.70240934610E+03  0.70240934610E+03  0.00000000000E+00 0.  1.
         21   -1    0    0  501  503 -0.00000000000E+00 -0.00000000000E+00 -0.46408056352E+02  0.46408056352E+02  0.00000000000E+00 0.  1.
          6    1    1    2  501    0 -0.94222873805E+01 -0.77411672832E+01  0.21700721671E+03  0.27717293749E+03  0.17200000000E+03 0.  1.
         -6    1    1    2    0  502  0.94222873805E+01  0.77411672832E+01  0.43899407303E+03  0.47164446496E+03  0.17200000000E+03 0.  1.
</event>
<event>
 4    1  0.5718861E+000  0.2561712E+03  0.7818608E-02  0.1109466E+00
         21   -1    0    0  503  502  0.00000000000E+00  0.00000000000E+00  0.86883453108E+03  0.86883453108E+03  0.00000000000E+00 0.  1.
         21   -1    0    0  501  503 -0.00000000000E+00 -0.00000000000E+00 -0.76149543120E+02  0.76149543120E+02  0.00000000000E+00 0.  1.
          6    1    1    2  501    0  0.81680402017E+02 -0.17137092594E+03  0.43893667901E+03  0.50822149749E+03  0.17200000000E+03 0.  1.
         -6    1    1    2    0  502 -0.81680402017E+02  0.17137092594E+03  0.35374830895E+03  0.43676257672E+03  0.17200000000E+03 0.  1.
</event>
<event>
 4    1  0.5718861E+000  0.1857723E+03  0.7818608E-02  0.1162331E+00
         21   -1    0    0  503  502  0.00000000000E+00  0.00000000000E+00  0.25555692499E+03  0.25555692499E+03  0.00000000000E+00 0.  1.
         21   -1    0    0  501  503 -0.00000000000E+00 -0.00000000000E+00 -0.30497981713E+03  0.30497981713E+03  0.00000000000E+00 0.  1.
          6    1    1    2  501    0 -0.21517353817E+02 -0.66815877296E+02 -0.23392092541E+03  0.29871450805E+03  0.17200000000E+03 0.  1.
         -6    1    1    2    0  502  0.21517353817E+02  0.66815877296E+02  0.18449803327E+03  0.26182223407E+03  0.17200000000E+03 0.  1.
</event>
<event>
 4    1  0.5718861E+000  0.2129716E+03  0.7818608E-02  0.1139234E+00
         21   -1    0    0  503  502  0.00000000000E+00  0.00000000000E+00  0.65426051198E+03  0.65426051198E+03  0.00000000000E+00 0.  1.
         21   -1    0    0  501  503 -0.00000000000E+00 -0.00000000000E+00 -0.12408564724E+03  0.12408564724E+03  0.00000000000E+00 0. -1.
          6    1    1    2  501    0 -0.79876182803E+01  0.12533592671E+03  0.65552779737E+01  0.21307244833E+03  0.17200000000E+03 0. -1.
         -6    1    1    2    0  502  0.79876182803E+01 -0.12533592671E+03  0.52361958677E+03  0.56527371088E+03  0.17200000000E+03 0.  1.
</event>
<event>
 4    1  0.5718861E+000  0.1793997E+03  0.7818608E-02  0.1168385E+00
         21   -1    0    0  501  502  0.00000000000E+00  0.00000000000E+00  0.33703636145E+03  0.33703636145E+03  0.00000000000E+00 0.  1.
         21   -1    0    0  502  503 -0.00000000000E+00 -0.00000000000E+00 -0.34013716876E+03  0.34013716876E+03  0.00000000000E+00 0.  1.
          6    1    1    2  501    0 -0.34866160468E+02  0.37210484188E+02  0.28560121724E+03  0.33727188523E+03  0.17200000000E+03 0.  1.
         -6    1    1    2    0  503  0.34866160468E+02 -0.37210484188E+02 -0.28870202455E+03  0.33990164497E+03  0.17200000000E+03 0.  1.
</event>
<event>
 4    1  0.5718861E+000  0.2008362E+03  0.7818608E-02  0.1149035E+00
         21   -1    0    0  501  502  0.00000000000E+00  0.00000000000E+00  0.50193135367E+03  0.50193135367E+03  0.00000000000E+00 0.  1.
         21   -1    0    0  502  503 -0.00000000000E+00 -0.00000000000E+00 -0.11386446624E+03  0.11386446624E+03  0.00000000000E+00 0.  1.
          6    1    1    2  501    0  0.10243624628E+03 -0.16062398013E+02  0.36105180680E+03  0.41315081069E+03  0.17200000000E+03 0.  1.
         -6    1    1    2    0  503 -0.10243624628E+03  0.16062398013E+02  0.27015080625E+02  0.20264500922E+03  0.17200000000E+03 0.  1.
</event>
<event>
 4    1  0.5718861E+000  0.1978222E+03  0.7818608E-02  0.1151590E+00
         21   -1    0    0  503  502  0.00000000000E+00  0.00000000000E+00  0.15170386267E+04  0.15170386267E+04  0.00000000000E+00 0.  1.
         21   -1    0    0  501  503 -0.00000000000E+00 -0.00000000000E+00 -0.46694056735E+02  0.46694056735E+02  0.00000000000E+00 0.  1.
          6    1    1    2  501    0 -0.29761389314E+02  0.93079997221E+02  0.21210928932E+03  0.29004133635E+03  0.17200000000E+03 0.  1.
         -6    1    1    2    0  502  0.29761389314E+02 -0.93079997221E+02  0.12582352807E+04  0.12736913471E+04  0.17200000000E+03 0.  1.
</event>
<event>
 4    1  0.5718861E+000  0.2157893E+03  0.7818608E-02  0.1137062E+00
         21   -1    0    0  503  502  0.00000000000E+00  0.00000000000E+00  0.31020228640E+03  0.31020228640E+03  0.00000000000E+00 0.  1.
         21   -1    0    0  501  503 -0.00000000000E+00 -0.00000000000E+00 -0.15194069324E+03  0.15194069324E+03  0.00000000000E+00 0.  1.
          6    1    1    2  501    0  0.57685755320E+02 -0.11684763943E+03  0.53779164250E+02  0.22238978330E+03  0.17200000000E+03 0. -1.
         -6    1    1    2    0  502 -0.57685755320E+02  0.11684763943E+03  0.10448242891E+03  0.23975319635E+03  0.17200000000E+03 0. -1.
</event>
<event>
 4    1  0.5718861E+000  0.2304210E+03  0.7818608E-02  0.1126344E+00
         21   -1    0    0  503  502  0.00000000000E+00  0.00000000000E+00  0.57144555888E+02  0.57144555888E+02  0.00000000000E+00 0. -1.
         21   -1    0    0  501  503 -0.00000000000E+00 -0.00000000000E+00 -0.14047936742E+04  0.14047936742E+04  0.00000000000E+00 0.  1.
          6    1    1    2  501    0 -0.59233100576E+02 -0.14142586770E+03 -0.10991778711E+04  0.11230698236E+04  0.17200000000E+03 0.  1.
         -6    1    1    2    0  502  0.59233100576E+02  0.14142586770E+03 -0.24847124723E+03  0.33886840655E+03  0.17200000000E+03 0. -1.
</event>
<event>
 4    1  0.5718861E+000  0.2103768E+03  0.7818608E-02  0.1141268E+00
         21   -1    0    0  501  502  0.00000000000E+00  0.00000000000E+00  0.23228812378E+02  0.23228812378E+02  0.00000000000E+00 0.  1.
         21   -1    0    0  502  503 -0.00000000000E+00 -0.00000000000E+00 -0.19053725178E+04  0.19053725178E+04  0.00000000000E+00 0.  1.
          6    1    1    2  501    0  0.12108434177E+03  0.36043728835E+01 -0.93619637386E+03  0.95954263051E+03  0.17200000000E+03 0.  1.
         -6    1    1    2    0  503 -0.12108434177E+03 -0.36043728835E+01 -0.94594733156E+03  0.96905869967E+03  0.17200000000E+03 0.  1.
</event>
<event>
 4    1  0.5718861E+000  0.1806257E+03  0.7818608E-02  0.1167199E+00
         21   -1    0    0  503  502  0.00000000000E+00  0.00000000000E+00  0.64886412277E+02  0.64886412277E+02  0.00000000000E+00 0. -1.
         21   -1    0    0  501  503 -0.00000000000E+00 -0.00000000000E+00 -0.90020598119E+03  0.90020598119E+03  0.00000000000E+00 0. -1.
          6    1    1    2  501    0  0.33621200695E+02  0.43717764744E+02 -0.73827115297E+03  0.76004600084E+03  0.17200000000E+03 0. -1.
         -6    1    1    2    0  502 -0.33621200695E+02 -0.43717764744E+02 -0.97048415939E+02  0.20504639262E+03  0.17200000000E+03 0. -1.
</event>
<event>
 4    1  0.5718861E+000  0.2024854E+03  0.7818608E-02  0.1147659E+00
         21   -1    0    0  503  502  0.00000000000E+00  0.00000000000E+00  0.62385941216E+03  0.62385941216E+03  0.00000000000E+00 0.  1.
         21   -1    0    0  501  503 -0.00000000000E+00 -0.00000000000E+00 -0.82529906821E+02  0.82529906821E+02  0.00000000000E+00 0. -1.
          6    1    1    2  501    0  0.78667039096E+01 -0.10655720471E+03  0.11126587559E+03  0.23104202643E+03  0.17200000000E+03 0. -1.
         -6    1    1    2    0  502 -0.78667039096E+01  0.10655720471E+03  0.43006362975E+03  0.47534729256E+03  0.17200000000E+03 0.  1.
</event>
<event>
 4    1  0.5718861E+000  0.1949445E+03  0.7818608E-02  0.1154076E+00
         21   -1    0    0  501  502  0.00000000000E+00  0.00000000000E+00  0.11066985304E+03  0.11066985304E+03  0.00000000000E+00 0. -1.
         21   -1    0    0  502  503 -0.00000000000E+00 -0.00000000000E+00 -0.87225006139E+03  0.87225006139E+03  0.00000000000E+00 0. -1.
          6    1    1    2  501    0  0.75670963764E+02 -0.51896769749E+02  0.18904156545E+01  0.19495369486E+03  0.17200000000E+03 0. -1.
         -6    1    1    2    0  503 -0.75670963764E+02  0.51896769749E+02 -0.76347062401E+03  0.78796621957E+03  0.17200000000E+03 0. -1.
</event>
<event>
 4    1  0.5718861E+000  0.2135151E+03  0.7818608E-02  0.1138812E+00
         21   -1    0    0  503  502  0.00000000000E+00  0.00000000000E+00  0.11005483012E+04  0.11005483012E+04  0.00000000000E+00 0. -1.
         21   -1    0    0  501  503 -0.00000000000E+00 -0.00000000000E+00 -0.84223351640E+02  0.84223351640E+02  0.00000000000E+00 0.  1.
          6    1    1    2  501    0 -0.62264751011E+02 -0.11012627043E+03  0.85874298496E+02  0.23013711087E+03  0.17200000000E+03 0.  1.
         -6    1    1    2    0  502  0.62264751011E+02  0.11012627043E+03  0.93045065103E+03  0.95463454194E+03  0.17200000000E+03 0.  1.
</event>
<event>
 4    1  0.5718861E+000  0.1975052E+03  0.7818608E-02  0.1151861E+00
         21   -1    0    0  503  502  0.00000000000E+00  0.00000000000E+00  0.17215670089E+03  0.17215670089E+03  0.00000000000E+00 0.  1.
         21   -1    0    0  501  503 -0.00000000000E+00 -0.00000000000E+00 -0.26358106127E+03  0.26358106127E+03  0.00000000000E+00 0.  1.
          6    1    1    2  501    0  0.78204616940E+02  0.57518233333E+02 -0.12733462532E+03  0.23499450224E+03  0.17200000000E+03 0. -1.
         -6    1    1    2    0  502 -0.78204616940E+02 -0.57518233333E+02  0.35910264942E+02  0.20074325992E+03  0.17200000000E+03 0. -1.
</event>
<event>
 4    1  0.5718861E+000  0.2190968E+03  0.7818608E-02  0.1134558E+00
         21   -1    0    0  503  502  0.00000000000E+00  0.00000000000E+00  0.54833761614E+03  0.54833761614E+03  0.00000000000E+00 0. -1.
         21   -1    0    0  501  503 -0.00000000000E+00 -0.00000000000E+00 -0.15375511739E+03  0.15375511739E+03  0.00000000000E+00 0.  1.
          6    1    1    2  501    0  0.35326045054E+02 -0.13104005104E+03 -0.33073810955E+02  0.22157910869E+03  0.17200000000E+03 0.  1.
         -6    1    1    2    0  502 -0.35326045054E+02  0.13104005104E+03  0.42765630971E+03  0.48051362485E+03  0.17200000000E+03 0.  1.
</event>
<event>
 4    1  0.5718861E+000  0.1913700E+03  0.7818608E-02  0.1157231E+00
         21   -1    0    0  501  502  0.00000000000E+00  0.00000000000E+00  0.69874857145E+03  0.69874857145E+03  0.00000000000E+00 0.  1.
         21   -1    0    0  502  503 -0.00000000000E+00 -0.00000000000E+00 -0.57924603335E+02  0.57924603335E+02  0.00000000000E+00 0.  1.
          6    1    1    2  501    0  0.68797643277E+02  0.48014167843E+02  0.43713164383E+03  0.47718607490E+03  0.17200000000E+03 0.  1.
         -6    1    1    2    0  503 -0.68797643277E+02 -0.48014167843E+02  0.20369232429E+03  0.27948709989E+03  0.17200000000E+03 0.  1.
</event>
<event>
 4    1  0.5718861E+000  0.1913630E+03  0.7818608E-02  0.1157238E+00
         21   -1    0    0  503  502  0.00000000000E+00  0.00000000000E+00  0.20858909190E+03  0.20858909190E+03  0.00000000000E+00 0. -1.
         21   -1    0    0  501  503 -0.00000000000E+00 -0.00000000000E+00 -0.17894940901E+03  0.17894940901E+03  0.00000000000E+00 0. -1.
          6    1    1    2  501    0 -0.20364280275E+02 -0.81370027850E+02 -0.11849803088E+02  0.19172950523E+03  0.17200000000E+03 0. -1.
         -6    1    1    2    0  502  0.20364280275E+02  0.81370027850E+02  0.41489485973E+02  0.19580899568E+03  0.17200000000E+03 0. -1.
</event>
<event>
 4    1  0.5718861E+000  0.1724174E+03  0.7818608E-02  0.1175350E+00
         21   -1    0    0  503  502  0.00000000000E+00  0.00000000000E+00  0.54153971701E+02  0.54153971701E+02  0.00000000000E+00 0. -1.
         21   -1    0    0  501  503 -0.00000000000E+00 -0.00000000000E+00 -0.67927317965E+03  0.67927317965E+03  0.00000000000E+00 0. -1.
          6    1    1    2  501    0 -0.28885953857E+00  0.11986763008E+02 -0.47318615587E+03  0.50361980107E+03  0.17200000000E+03 0. -1.
         -6    1    1    2    0  502  0.28885953857E+00 -0.11986763008E+02 -0.15193305208E+03  0.22980735028E+03  0.17200000000E+03 0. -1.
</event>
<event>
 4    1  0.5718861E+000  0.1933479E+03  0.7818608E-02  0.1155476E+00
         21   -1    0    0  501  502  0.00000000000E+00  0.00000000000E+00  0.23521132127E+03  0.23521132127E+03  0.00000000000E+00 0.  1.
         21   -1    0    0  502  503 -0.00000000000E+00 -0.00000000000E+00 -0.22469625117E+03  0.22469625117E+03  0.00000000000E+00 0.  1.
          6    1    1    2  501    0 -0.41424654410E+02  0.77996164092E+02  0.12965925643E+03  0.23279803776E+03  0.17200000000E+03 0.  1.
         -6    1    1    2    0  503  0.41424654410E+02 -0.77996164092E+02 -0.11914418633E+03  0.22710953468E+03  0.17200000000E+03 0.  1.
</event>
<event>
 4    1  0.5718861E+000  0.2252535E+03  0.7818608E-02  0.1130026E+00
         21   -1    0    0  503  502  0.00000000000E+00  0.00000000000E+00  0.38652544406E+03  0.38652544406E+03  0.00000000000E+00 0. -1.
         21   -1    0    0  501  503 -0.00000000000E+00 -0.00000000000E+00 -0.14039272051E+03  0.14039272051E+03  0.00000000000E+00 0. -1.
          6    1    1    2  501    0  0.87750779592E+02 -0.11599548025E+03  0.19022560468E+03  0.29483034347E+03  0.17200000000E+03 0. -1.
         -6    1    1    2    0  502 -0.87750779592E+02  0.11599548025E+03  0.55907118869E+02  0.23208782109E+03  0.17200000000E+03 0. -1.
</event>
<event>
 4    1  0.5718861E+000  0.1905840E+03  0.7818608E-02  0.1157936E+00
         21   -1    0    0  503  502  0.00000000000E+00  0.00000000000E+00  0.65526195966E+03  0.65526195966E+03  0.00000000000E+00 0.  1.
         21   -1    0    0  501  503 -0.00000000000E+00 -0.00000000000E+00 -0.59266084751E+02  0.59266084751E+02  0.00000000000E+00 0.  1.
          6    1    1    2  501    0  0.47456386782E+02 -0.66978621851E+02  0.38887148040E+03  0.43306266602E+03  0.17200000000E+03 0.  1.
         -6    1    1    2    0  502 -0.47456386782E+02  0.66978621851E+02  0.20712439451E+03  0.28146537839E+03  0.17200000000E+03 0.  1.
</event>
<event>
 4    1  0.5718861E+000  0.2326801E+03  0.7818608E-02  0.1124767E+00
         21   -1    0    0  503  502  0.00000000000E+00  0.00000000000E+00  0.49653301912E+02  0.49653301912E+02  0.00000000000E+00 0. -1.
         21   -1    0    0  501  503 -0.00000000000E+00 -0.00000000000E+00 -0.10909444963E+04  0.10909444963E+04  0.00000000000E+00 0. -1.
          6    1    1    2  501    0  0.15610015696E+03  0.13740074827E+02 -0.50746197327E+03  0.55826311267E+03  0.17200000000E+03 0. -1.
         -6    1    1    2    0  502 -0.15610015696E+03 -0.13740074827E+02 -0.53382922109E+03  0.58233468551E+03  0.17200000000E+03 0. -1.
</event>
<event>
 4    1  0.5718861E+000  0.3000597E+03  0.7818608E-02  0.1085211E+00
         21   -1    0    0  501  502  0.00000000000E+00  0.00000000000E+00  0.10601561936E+04  0.10601561936E+04  0.00000000000E+00 0. -1.
         21   -1    0    0  502  503 -0.00000000000E+00 -0.00000000000E+00 -0.84927257890E+02  0.84927257890E+02  0.00000000000E+00 0.  1.
          6    1    1    2  501    0 -0.19463719848E+03 -0.15022714759E+03  0.48652911833E+03  0.57161737018E+03  0.17200000000E+03 0. -1.
         -6    1    1    2    0  503  0.19463719848E+03  0.15022714759E+03  0.48869981733E+03  0.57346608127E+03  0.17200000000E+03 0. -1.
</event>
<event>
 4    1  0.5718861E+000  0.1825885E+03  0.7818608E-02  0.1165321E+00
         21   -1    0    0  501  502  0.00000000000E+00  0.00000000000E+00  0.80334141389E+02  0.80334141389E+02  0.00000000000E+00 0. -1.
         21   -1    0    0  502  503 -0.00000000000E+00 -0.00000000000E+00 -0.42808439392E+03  0.42808439392E+03  0.00000000000E+00 0. -1.
          6    1    1    2  501    0  0.60441804757E+02 -0.10066913057E+02 -0.12942970031E+03  0.22380929789E+03  0.17200000000E+03 0.  1.
         -6    1    1    2    0  503 -0.60441804757E+02  0.10066913057E+02 -0.21832055222E+03  0.28460923742E+03  0.17200000000E+03 0.  1.
</event>
<event>
 4    1  0.5718861E+000  0.1794800E+03  0.7818608E-02  0.1168307E+00
         21   -1    0    0  501  502  0.00000000000E+00  0.00000000000E+00  0.14645232870E+03  0.14645232870E+03  0.00000000000E+00 0.  1.
         21   -1    0    0  502  503 -0.00000000000E+00 -0.00000000000E+00 -0.34810378436E+03  0.34810378436E+03  0.00000000000E+00 0.  1.
          6    1    1    2  501    0  0.39963590472E+02 -0.32124574214E+02 -0.25085868172E+03  0.30845284085E+03  0.17200000000E+03 0.  1.
         -6    1    1    2    0  503 -0.39963590472E+02  0.32124574214E+02  0.49207226066E+02  0.18610327221E+03  0.17200000000E+03 0.  1.
</event>
<event>
 4    1  0.5718861E+000  0.5486192E+03  0.7818608E-02  0.1001814E+00
         21   -1    0    0  503  502  0.00000000000E+00  0.00000000000E+00  0.32497593672E+03  0.32497593672E+03  0.00000000000E+00 0. -1.
         21   -1    0    0  501  503 -0.00000000000E+00 -0.00000000000E+00 -0.92830531831E+03  0.92830531831E+03  0.00000000000E+00 0.  1.
          6    1    1    2  501    0 -0.43569757232E+03 -0.28559869105E+03 -0.27161105113E+03  0.61217281053E+03  0.17200000000E+03 0.  1.
         -6    1    1    2    0  502  0.43569757232E+03  0.28559869105E+03 -0.33171833046E+03  0.64110844450E+03  0.17200000000E+03 0. -1.
</event>
<event>
 4    1  0.5718861E+000  0.1880354E+03  0.7818608E-02  0.1160245E+00
         21   -1    0    0  501  502  0.00000000000E+00  0.00000000000E+00  0.32208008447E+03  0.32208008447E+03  0.00000000000E+00 0.  1.
         21   -1    0    0  502  503 -0.00000000000E+00 -0.00000000000E+00 -0.11288424018E+03  0.11288424018E+03  0.00000000000E+00 0.  1.
          6    1    1    2  501    0 -0.64699151401E+02  0.39841513735E+02  0.14067409016E+03  0.23483297479E+03  0.17200000000E+03 0.  1.
         -6    1    1    2    0  503  0.64699151401E+02 -0.39841513735E+02  0.68521754131E+02  0.20013134986E+03  0.17200000000E+03 0.  1.
</event>
<event>
 4    1  0.5718861E+000  0.1940004E+03  0.7818608E-02  0.1154902E+00
         21   -1    0    0  501  502  0.00000000000E+00  0.00000000000E+00  0.10374654518E+04  0.10374654518E+04  0.00000000000E+00 0.  1.
         21   -1    0    0  502  503 -0.00000000000E+00 -0.00000000000E+00 -0.37961283535E+02  0.37961283535E+02  0.00000000000E+00 0.  1.
          6    1    1    2  501    0  0.58585158359E+02  0.67970109572E+02  0.61301434058E+03  0.64297957847E+03  0.17200000000E+03 0.  1.
         -6    1    1    2    0  503 -0.58585158359E+02 -0.67970109572E+02  0.38648982768E+03  0.43244715686E+03  0.17200000000E+03 0.  1.
</event>
<event>
 4    1  0.5718861E+000  0.1876426E+03  0.7818608E-02  0.1160605E+00
         21   -1    0    0  503  502  0.00000000000E+00  0.00000000000E+00  0.27016261422E+03  0.27016261422E+03  0.00000000000E+00 0.  1.
         21   -1    0    0  501  503 -0.00000000000E+00 -0.00000000000E+00 -0.14551098853E+03  0.14551098853E+03  0.00000000000E+00 0. -1.
          6    1    1    2  501    0  0.60229354904E+02  0.44701082327E+02 -0.48097635902E+01  0.18770427747E+03  0.17200000000E+03 0. -1.
         -6    1    1    2    0  502 -0.60229354904E+02 -0.44701082327E+02  0.12946138928E+03  0.22796932528E+03  0.17200000000E+03 0.  1.
</event>
<event>
 4    1  0.5718861E+000  0.2075993E+03  0.7818608E-02  0.1143481E+00
         21   -1    0    0  501  502  0.00000000000E+00  0.00000000000E+00  0.19831250910E+03  0.19831250910E+03  0.00000000000E+00 0.  1.
         21   -1    0    0  502  503 -0.00000000000E+00 -0.00000000000E+00 -0.23242596447E+03  0.23242596447E+03  0.00000000000E+00 0.  1.
          6    1    1    2  501    0 -0.93614631981E+02 -0.68918520344E+02 -0.71960476774E+02  0.21971748220E+03  0.17200000000E+03 0.  1.
         -6    1    1    2    0  503  0.93614631981E+02  0.68918520344E+02  0.37847021403E+02  0.21102099136E+03  0.17200000000E+03 0.  1.
</event>
<event>
 4    1  0.5718861E+000  0.1837327E+03  0.7818608E-02  0.1164239E+00
         21   -1    0    0  503  502  0.00000000000E+00  0.00000000000E+00  0.55820558742E+02  0.55820558742E+02  0.00000000000E+00 0.  1.
         21   -1    0    0  501  503 -0.00000000000E+00 -0.00000000000E+00 -0.60505226495E+03  0.60505226495E+03  0.00000000000E+00 0.  1.
          6    1    1    2  501    0  0.21552121392E+02 -0.60903423821E+02 -0.28194915567E+03  0.33653090104E+03  0.17200000000E+03 0. -1.
         -6    1    1    2    0  502 -0.21552121392E+02  0.60903423821E+02 -0.26728255054E+03  0.32434192266E+03  0.17200000000E+03 0. -1.
</event>
<event>
 4    1  0.5718861E+000  0.1758757E+03  0.7818608E-02  0.1171855E+00
         21   -1    0    0  501  502  0.00000000000E+00  0.00000000000E+00  0.22118720660E+03  0.22118720660E+03  0.00000000000E+00 0. -1.
         21   -1    0    0  502  503 -0.00000000000E+00 -0.00000000000E+00 -0.20375651953E+03  0.20375651953E+03  0.00000000000E+00 0. -1.
          6    1    1    2  501    0 -0.36418384885E+02 -0.46870885668E+01 -0.11028000282E+03  0.20759081525E+03  0.17200000000E+03 0. -1.
         -6    1    1    2    0  503  0.36418384885E+02  0.46870885668E+01  0.12771068989E+03  0.21735291088E+03  0.17200000000E+03 0. -1.
</event>
<event>
 4    1  0.5718861E+000  0.1739176E+03  0.7818608E-02  0.1173823E+00
         21   -1    0    0  501  502  0.00000000000E+00  0.00000000000E+00  0.43433786920E+03  0.43433786920E+03  0.00000000000E+00 0.  1.
         21   -1    0    0  502  503 -0.00000000000E+00 -0.00000000000E+00 -0.73010716685E+02  0.73010716685E+02  0.00000000000E+00 0.  1.
          6    1    1    2  501    0  0.22535833118E+02 -0.12469305451E+02  0.23516848971E+03  0.29249199289E+03  0.17200000000E+03 0.  1.
         -6    1    1    2    0  503 -0.22535833118E+02  0.12469305451E+02  0.12615866281E+03  0.21485659300E+03  0.17200000000E+03 0.  1.
</event>
<event>
 4    1  0.5718861E+000  0.1919201E+03  0.7818608E-02  0.1156741E+00
         21   -1    0    0  503  502  0.00000000000E+00  0.00000000000E+00  0.62901623484E+03  0.62901623484E+03  0.00000000000E+00 0. -1.
         21   -1    0    0  501  503 -0.00000000000E+00 -0.00000000000E+00 -0.66578749350E+02  0.66578749350E+02  0.00000000000E+00 0. -1.
          6    1    1    2  501    0  0.55604958263E+02 -0.64478000623E+02  0.40194237689E+03  0.44541104419E+03  0.17200000000E+03 0. -1.
         -6    1    1    2    0  502 -0.55604958263E+02  0.64478000623E+02  0.16049510859E+03  0.25018393999E+03  0.17200000000E+03 0. -1.
</event>
<event>
 4    1  0.5718861E+000  0.2864492E+03  0.7818608E-02  0.1092218E+00
         21   -1    0    0  501  502  0.00000000000E+00  0.00000000000E+00  0.15631784461E+04  0.15631784461E+04  0.00000000000E+00 0. -1.
         21   -1    0    0  502  503 -0.00000000000E+00 -0.00000000000E+00 -0.53291625706E+02  0.53291625706E+02  0.00000000000E+00 0.  1.
          6    1    1    2  501    0  0.13396820301E+03  0.18580007663E+03  0.85399525091E+03  0.90075581401E+03  0.17200000000E+03 0. -1.
         -6    1    1    2    0  503 -0.13396820301E+03 -0.18580007663E+03  0.65589156947E+03  0.71571425778E+03  0.17200000000E+03 0.  1.
</event>
<event>
 4    1  0.5718861E+000  0.1763646E+03  0.7818608E-02  0.1171368E+00
         21   -1    0    0  503  502  0.00000000000E+00  0.00000000000E+00  0.37589125076E+02  0.37589125076E+02  0.00000000000E+00 0.  1.
         21   -1    0    0  501  503 -0.00000000000E+00 -0.00000000000E+00 -0.16119925303E+04  0.16119925303E+04  0.00000000000E+00 0.  1.
          6    1    1    2  501    0  0.16079871220E+02 -0.35523517701E+02 -0.13625893500E+04  0.13739556832E+04  0.17200000000E+03 0.  1.
         -6    1    1    2    0  502 -0.16079871220E+02  0.35523517701E+02 -0.21181405524E+03  0.27562597223E+03  0.17200000000E+03 0.  1.
</event>
<event>
 4    1  0.5718861E+000  0.1861559E+03  0.7818608E-02  0.1161975E+00
         21   -1    0    0  503  502  0.00000000000E+00  0.00000000000E+00  0.27254269203E+03  0.27254269203E+03  0.00000000000E+00 0.  1.
         21   -1    0    0  501  503 -0.00000000000E+00 -0.00000000000E+00 -0.13672871394E+03  0.13672871394E+03  0.00000000000E+00 0.  1.
          6    1    1    2  501    0 -0.64155799953E+02 -0.30887714152E+02  0.13745908225E+02  0.18666271065E+03  0.17200000000E+03 0.  1.
         -6    1    1    2    0  502  0.64155799953E+02  0.30887714152E+02  0.12206806987E+03  0.22260869533E+03  0.17200000000E+03 0.  1.
</event>
<event>
 4    1  0.5718861E+000  0.2157882E+03  0.7818608E-02  0.1137063E+00
         21   -1    0    0  501  502  0.00000000000E+00  0.00000000000E+00  0.93100995562E+02  0.93100995562E+02  0.00000000000E+00 0. -1.
         21   -1    0    0  502  503 -0.00000000000E+00 -0.00000000000E+00 -0.64313815422E+03  0.64313815422E+03  0.00000000000E+00 0.  1.
          6    1    1    2  501    0  0.92311565189E+02 -0.91973433145E+02 -0.10144421298E+03  0.23844384207E+03  0.17200000000E+03 0.  1.
         -6    1    1    2    0  503 -0.92311565189E+02  0.91973433145E+02 -0.44859294568E+03  0.49779530771E+03  0.17200000000E+03 0.  1.
</event>
<event>
 4    1  0.5718861E+000  0.2198752E+03  0.7818608E-02  0.1133976E+00
         21   -1    0    0  501  502  0.00000000000E+00  0.00000000000E+00  0.19549742446E+03  0.19549742446E+03  0.00000000000E+00 0.  1.
         21   -1    0    0  502  503 -0.00000000000E+00 -0.00000000000E+00 -0.39765472288E+03  0.39765472288E+03  0.00000000000E+00 0. -1.
          6    1    1    2  501    0  0.93429165256E+02 -0.10016032554E+03  0.81290770793E+02  0.23442117897E+03  0.17200000000E+03 0.  1.
         -6    1    1    2    0  503 -0.93429165256E+02  0.10016032554E+03 -0.28344806921E+03  0.35873096838E+03  0.17200000000E+03 0. -1.
</event>
<event>
 4    1  0.5718861E+000  0.1974832E+03  0.7818608E-02  0.1151880E+00
         21   -1    0    0  501  502  0.00000000000E+00  0.00000000000E+00  0.45366099798E+03  0.45366099798E+03  0.00000000000E+00 0. -1.
         21   -1    0    0  502  503 -0.00000000000E+00 -0.00000000000E+00 -0.11006665280E+03  0.11006665280E+03  0.00000000000E+00 0. -1.
          6    1    1    2  501    0  0.94215159714E+02 -0.23219260079E+02  0.30369016268E+03  0.36225315080E+03  0.17200000000E+03 0. -1.
         -6    1    1    2    0  503 -0.94215159714E+02  0.23219260079E+02  0.39904182508E+02  0.20147449997E+03  0.17200000000E+03 0. -1.
</event>
<event>
 4    1  0.5718861E+000  0.1871191E+03  0.7818608E-02  0.1161086E+00
         21   -1    0    0  501  502  0.00000000000E+00  0.00000000000E+00  0.31576281578E+02  0.31576281578E+02  0.00000000000E+00 0. -1.
         21   -1    0    0  502  503 -0.00000000000E+00 -0.00000000000E+00 -0.14620229844E+04  0.14620229844E+04  0.00000000000E+00 0. -1.
          6    1    1    2  501    0  0.20294203874E+02  0.70835700340E+02 -0.34818029902E+03  0.39527594384E+03  0.17200000000E+03 0. -1.
         -6    1    1    2    0  503 -0.20294203874E+02 -0.70835700340E+02 -0.10822664038E+04  0.10983233222E+04  0.17200000000E+03 0. -1.
</event>
<event>
 4    1  0.5718861E+000  0.2155892E+03  0.7818608E-02  0.1137215E+00
         21   -1    0    0  503  502  0.00000000000E+00  0.00000000000E+00  0.81288135252E+02  0.81288135252E+02  0.00000000000E+00 0.  1.
         21   -1    0    0  501  503 -0.00000000000E+00 -0.00000000000E+00 -0.65805725448E+03  0.65805725448E+03  0.00000000000E+00 0.  1.
          6    1    1    2  501    0 -0.11721595672E+03  0.56170520686E+02 -0.42224139916E+03  0.47409546198E+03  0.17200000000E+03 0.  1.
         -6    1    1    2    0  502  0.11721595672E+03 -0.56170520686E+02 -0.15452772007E+03  0.26524992775E+03  0.17200000000E+03 0.  1.
</event>
<event>
 4    1  0.5718861E+000  0.1921783E+03  0.7818608E-02  0.1156511E+00
         21   -1    0    0  501  502  0.00000000000E+00  0.00000000000E+00  0.70927036020E+03  0.70927036020E+03  0.00000000000E+00 0.  1.
         21   -1    0    0  502  503 -0.00000000000E+00 -0.00000000000E+00 -0.15007438094E+03  0.15007438094E+03  0.00000000000E+00 0. -1.
          6    1    1    2  501    0 -0.47647900173E+02 -0.71261255727E+02  0.62681776501E+03  0.65561650337E+03  0.17200000000E+03 0.  1.
         -6    1    1    2    0  503  0.47647900173E+02  0.71261255727E+02 -0.67621785739E+02  0.20372823777E+03  0.17200000000E+03 0. -1.
</event>
<event>
 4    1  0.5718861E+000  0.1985620E+03  0.7818608E-02  0.1150958E+00
         21   -1    0    0  501  502  0.00000000000E+00  0.00000000000E+00  0.11902427263E+03  0.11902427263E+03  0.00000000000E+00 0.  1.
         21   -1    0    0  502  503 -0.00000000000E+00 -0.00000000000E+00 -0.79243680475E+03  0.79243680475E+03  0.00000000000E+00 0. -1.
          6    1    1    2  501    0  0.53028650329E+02 -0.83850010868E+02  0.10961130375E+02  0.19886429659E+03  0.17200000000E+03 0.  1.
         -6    1    1    2    0  503 -0.53028650329E+02  0.83850010868E+02 -0.68437366249E+03  0.71259678079E+03  0.17200000000E+03 0. -1.
</event>
<event>
 4    1  0.5718861E+000  0.2186514E+03  0.7818608E-02  0.1134892E+00
         21   -1    0    0  501  502  0.00000000000E+00  0.00000000000E+00  0.10601451856E+03  0.10601451856E+03  0.00000000000E+00 0.  1.
         21   -1    0    0  502  503 -0.00000000000E+00 -0.00000000000E+00 -0.10807441893E+04  0.10807441893E+04  0.00000000000E+00 0.  1.
          6    1    1    2  501    0 -0.13316538636E+03 -0.22168336553E+02 -0.34398034855E+02  0.22134064261E+03  0.17200000000E+03 0.  1.
         -6    1    1    2    0  503  0.13316538636E+03  0.22168336553E+02 -0.94033163590E+03  0.96541806527E+03  0.17200000000E+03 0.  1.
</event>
<event>
 4    1  0.5718861E+000  0.2386996E+03  0.7818608E-02  0.1120662E+00
         21   -1    0    0  501  502  0.00000000000E+00  0.00000000000E+00  0.21865978048E+03  0.21865978048E+03  0.00000000000E+00 0. -1.
         21   -1    0    0  502  503 -0.00000000000E+00 -0.00000000000E+00 -0.33610374001E+03  0.33610374001E+03  0.00000000000E+00 0. -1.
          6    1    1    2  501    0  0.16543407556E+03 -0.50045638325E+01  0.72768596642E+02  0.24954508144E+03  0.17200000000E+03 0.  1.
         -6    1    1    2    0  503 -0.16543407556E+03  0.50045638325E+01 -0.19021255616E+03  0.30521843905E+03  0.17200000000E+03 0.  1.
</event>
<event>
 4    1  0.5718861E+000  0.2045154E+03  0.7818608E-02  0.1145984E+00
         21   -1    0    0  501  502  0.00000000000E+00  0.00000000000E+00  0.15684875328E+03  0.15684875328E+03  0.00000000000E+00 0.  1.
         21   -1    0    0  502  503 -0.00000000000E+00 -0.00000000000E+00 -0.56611914328E+03  0.56611914328E+03  0.00000000000E+00 0.  1.
          6    1    1    2  501    0 -0.10602342996E+03  0.31648004766E+02 -0.46753967666E+03  0.51031354397E+03  0.17200000000E+03 0.  1.
         -6    1    1    2    0  503  0.10602342996E+03 -0.31648004766E+02  0.58269286669E+02  0.21265435259E+03  0.17200000000E+03 0.  1.
</event>
<event>
 4    1  0.5718861E+000  0.2624906E+03  0.7818608E-02  0.1105656E+00
         21   -1    0    0  501  502  0.00000000000E+00  0.00000000000E+00  0.84448712572E+02  0.84448712572E+02  0.00000000000E+00 0. -1.
         21   -1    0    0  502  503 -0.00000000000E+00 -0.00000000000E+00 -0.99427736932E+03  0.99427736932E+03  0.00000000000E+00 0. -1.
          6    1    1    2  501    0  0.16501620879E+03  0.10994067909E+03 -0.22645805619E+03  0.34667643891E+03  0.17200000000E+03 0. -1.
         -6    1    1    2    0  503 -0.16501620879E+03 -0.10994067909E+03 -0.68337060056E+03  0.73204964298E+03  0.17200000000E+03 0. -1.
</event>
<event>
 4    1  0.5718861E+000  0.2041045E+03  0.7818608E-02  0.1146322E+00
         21   -1    0    0  501  502  0.00000000000E+00  0.00000000000E+00  0.16650545009E+03  0.16650545009E+03  0.00000000000E+00 0.  1.
         21   -1    0    0  502  503 -0.00000000000E+00 -0.00000000000E+00 -0.25652564758E+03  0.25652564758E+03  0.00000000000E+00 0.  1.
          6    1    1    2  501    0  0.27022315808E+02 -0.10651033361E+03 -0.78240599763E+02  0.21858693504E+03  0.17200000000E+03 0.  1.
         -6    1    1    2    0  503 -0.27022315808E+02  0.10651033361E+03 -0.11779597727E+02  0.20444416264E+03  0.17200000000E+03 0.  1.
</event>
<event>
 4    1  0.5718861E+000  0.2593701E+03  0.7818608E-02  0.1107522E+00
         21   -1    0    0  503  502  0.00000000000E+00  0.00000000000E+00  0.47074546232E+03  0.47074546232E+03  0.00000000000E+00 0.  1.
         21   -1    0    0  501  503 -0.00000000000E+00 -0.00000000000E+00 -0.17055090215E+03  0.17055090215E+03  0.00000000000E+00 0. -1.
          6    1    1    2  501    0  0.11971016304E+03  0.15283424060E+03  0.21004683129E+02  0.26021918636E+03  0.17200000000E+03 0. -1.
         -6    1    1    2    0  502 -0.11971016304E+03 -0.15283424060E+03  0.27918987704E+03  0.38107717811E+03  0.17200000000E+03 0.  1.
</event>
<event>
 4    1  0.5718861E+000  0.1832432E+03  0.7818608E-02  0.1164701E+00
         21   -1    0    0  503  502  0.00000000000E+00  0.00000000000E+00  0.48649697726E+02  0.48649697726E+02  0.00000000000E+00 0.  1.
         21   -1    0    0  501  503 -0.00000000000E+00 -0.00000000000E+00 -0.80717192974E+03  0.80717192974E+03  0.00000000000E+00 0.  1.
          6    1    1    2  501    0  0.63106602801E+02  0.34077497471E+01 -0.54215686074E+03  0.57228674432E+03  0.17200000000E+03 0. -1.
         -6    1    1    2    0  502 -0.63106602801E+02 -0.34077497471E+01 -0.21636537128E+03  0.28353488315E+03  0.17200000000E+03 0. -1.
</event>
<event>
 4    1  0.5718861E+000  0.1978824E+03  0.7818608E-02  0.1151538E+00
         21   -1    0    0  503  502  0.00000000000E+00  0.00000000000E+00  0.11965959505E+03  0.11965959505E+03  0.00000000000E+00 0.  1.
         21   -1    0    0  501  503 -0.00000000000E+00 -0.00000000000E+00 -0.32726594492E+03  0.32726594492E+03  0.00000000000E+00 0. -1.
          6    1    1    2  501    0  0.67921506021E+02  0.70427972999E+02 -0.10182136438E+03  0.22254217714E+03  0.17200000000E+03 0.  1.
         -6    1    1    2    0  502 -0.67921506021E+02 -0.70427972999E+02 -0.10578498549E+03  0.22438336283E+03  0.17200000000E+03 0.  1.
</event>
<event>
 4    1  0.5718861E+000  0.1753144E+03  0.7818608E-02  0.1172416E+00
         21   -1    0    0  501  502  0.00000000000E+00  0.00000000000E+00  0.57394169843E+03  0.57394169843E+03  0.00000000000E+00 0.  1.
         21   -1    0    0  502  503 -0.00000000000E+00 -0.00000000000E+00 -0.21270210233E+03  0.21270210233E+03  0.00000000000E+00 0.  1.
          6    1    1    2  501    0 -0.24006371860E+02 -0.23975831720E+02  0.52084546663E+03  0.54955904734E+03  0.17200000000E+03 0.  1.
         -6    1    1    2    0  503  0.24006371860E+02  0.23975831720E+02 -0.15960587053E+03  0.23708475342E+03  0.17200000000E+03 0.  1.
</event>
<event>
 4    1  0.5718861E+000  0.2082177E+03  0.7818608E-02  0.1142985E+00
         21   -1    0    0  501  502  0.00000000000E+00  0.00000000000E+00  0.53878647964E+03  0.53878647964E+03  0.00000000000E+00 0. -1.
         21   -1    0    0  502  503 -0.00000000000E+00 -0.00000000000E+00 -0.15892796659E+03  0.15892796659E+03  0.00000000000E+00 0. -1.
          6    1    1    2  501    0 -0.32814790380E+02  0.11266673650E+03 -0.55188070259E+02  0.21540735150E+03  0.17200000000E+03 0. -1.
         -6    1    1    2    0  503  0.32814790380E+02 -0.11266673650E+03  0.43504658331E+03  0.48230709474E+03  0.17200000000E+03 0. -1.
</event>
<event>
 4    1  0.5718861E+000  0.1846408E+03  0.7818608E-02  0.1163386E+00
         21   -1    0    0  501  502  0.00000000000E+00  0.00000000000E+00  0.35305859081E+02  0.35305859081E+02  0.00000000000E+00 0. -1.
         21   -1    0    0  502  503 -0.00000000000E+00 -0.00000000000E+00 -0.98036214483E+03  0.98036214483E+03  0.00000000000E+00 0. -1.
          6    1    1    2  501    0 -0.38853469437E+02 -0.54759835430E+02 -0.41026509305E+03  0.44989963129E+03  0.17200000000E+03 0.  1.
         -6    1    1    2    0  503  0.38853469437E+02  0.54759835430E+02 -0.53479119270E+03  0.56576837262E+03  0.17200000000E+03 0.  1.
</event>
<event>
 4    1  0.5718861E+000  0.2541795E+03  0.7818608E-02  0.1110692E+00
         21   -1    0    0  503  502  0.00000000000E+00  0.00000000000E+00  0.10142441110E+04  0.10142441110E+04  0.00000000000E+00 0.  1.
         21   -1    0    0  501  503 -0.00000000000E+00 -0.00000000000E+00 -0.72644788756E+02  0.72644788756E+02  0.00000000000E+00 0. -1.
          6    1    1    2  501    0  0.90227404109E+02  0.16395802924E+03  0.28010388108E+03  0.37823987627E+03  0.17200000000E+03 0. -1.
         -6    1    1    2    0  502 -0.90227404109E+02 -0.16395802924E+03  0.66149544115E+03  0.70864902347E+03  0.17200000000E+03 0. -1.
</event>
<event>
 4    1  0.5718861E+000  0.1903672E+03  0.7818608E-02  0.1158131E+00
         21   -1    0    0  501  502  0.00000000000E+00  0.00000000000E+00  0.20203519775E+03  0.20203519775E+03  0.00000000000E+00 0.  1.
         21   -1    0    0  502  503 -0.00000000000E+00 -0.00000000000E+00 -0.18042854139E+03  0.18042854139E+03  0.00000000000E+00 0.  1.
          6    1    1    2  501    0 -0.63723153578E+02  0.50941327543E+02  0.25430004980E+02  0.19205817948E+03  0.17200000000E+03 0.  1.
         -6    1    1    2    0  503  0.63723153578E+02 -0.50941327543E+02 -0.38233486154E+01  0.19040555966E+03  0.17200000000E+03 0.  1.
</event>
<event>
 4    1  0.5718861E+000  0.2194065E+03  0.7818608E-02  0.1134326E+00
         21   -1    0    0  501  502  0.00000000000E+00  0.00000000000E+00  0.27782417590E+03  0.27782417590E+03  0.00000000000E+00 0.  1.
         21   -1    0    0  502  503 -0.00000000000E+00 -0.00000000000E+00 -0.23356403814E+03  0.23356403814E+03  0.00000000000E+00 0.  1.
          6    1    1    2  501    0  0.12608922561E+03  0.51543215991E+02  0.15204142801E+03  0.26693780504E+03  0.17200000000E+03 0.  1.
         -6    1    1    2    0  503 -0.12608922561E+03 -0.51543215991E+02 -0.10778129026E+03  0.24445040900E+03  0.17200000000E+03 0.  1.
</event>
<event>
 4    1  0.5718861E+000  0.1866720E+03  0.7818608E-02  0.1161498E+00
         21   -1    0    0  501  502  0.00000000000E+00  0.00000000000E+00  0.60316444169E+03  0.60316444169E+03  0.00000000000E+00 0. -1.
         21   -1    0    0  502  503 -0.00000000000E+00 -0.00000000000E+00 -0.57937746173E+02  0.57937746173E+02  0.00000000000E+00 0. -1.
          6    1    1    2  501    0 -0.71075126849E+02 -0.14517328200E+02  0.29025691555E+03  0.34510216386E+03  0.17200000000E+03 0. -1.
         -6    1    1    2    0  503  0.71075126849E+02  0.14517328200E+02  0.25496977997E+03  0.31600002401E+03  0.17200000000E+03 0. -1.
</event>
<event>
 4    1  0.5718861E+000  0.1996302E+03  0.7818608E-02  0.1150051E+00
         21   -1    0    0  501  502  0.00000000000E+00  0.00000000000E+00  0.12995323564E+03  0.12995323564E+03  0.00000000000E+00 0.  1.
         21   -1    0    0  502  503 -0.00000000000E+00 -0.00000000000E+00 -0.32430260661E+03  0.32430260661E+03  0.00000000000E+00 0.  1.
          6    1    1    2  501    0 -0.91728452628E+02 -0.43059190290E+02 -0.44207580336E+02  0.20446641056E+03  0.17200000000E+03 0.  1.
         -6    1    1    2    0  503  0.91728452628E+02  0.43059190290E+02 -0.15014179062E+03  0.24978943169E+03  0.17200000000E+03 0.  1.
</event>
<event>
 4    1  0.5718861E+000  0.1794818E+03  0.7818608E-02  0.1168305E+00
         21   -1    0    0  503  502  0.00000000000E+00  0.00000000000E+00  0.23395893366E+03  0.23395893366E+03  0.00000000000E+00 0.  1.
         21   -1    0    0  501  503 -0.00000000000E+00 -0.00000000000E+00 -0.25862455364E+03  0.25862455364E+03  0.00000000000E+00 0.  1.
          6    1    1    2  501    0 -0.51061452234E+02  0.47391569963E+01  0.15608605946E+03  0.23785833908E+03  0.17200000000E+03 0.  1.
         -6    1    1    2    0  502  0.51061452234E+02 -0.47391569963E+01 -0.18075167944E+03  0.25472514822E+03  0.17200000000E+03 0.  1.
</event>
<event>
 4    1  0.5718861E+000  0.1866282E+03  0.7818608E-02  0.1161538E+00
         21   -1    0    0  503  502  0.00000000000E+00  0.00000000000E+00  0.15024609791E+03  0.15024609791E+03  0.00000000000E+00 0.  1.
         21   -1    0    0  501  503 -0.00000000000E+00 -0.00000000000E+00 -0.48158532849E+03  0.48158532849E+03  0.00000000000E+00 0.  1.
          6    1    1    2  501    0 -0.67290349897E+02  0.26797085937E+02 -0.39317963971E+03  0.43522442956E+03  0.17200000000E+03 0.  1.
         -6    1    1    2    0  502  0.67290349897E+02 -0.26797085937E+02  0.61840409134E+02  0.19660699684E+03  0.17200000000E+03 0.  1.
</event>
<event>
 4    1  0.5718861E+000  0.1897681E+03  0.7818608E-02  0.1158671E+00
         21   -1    0    0  503  502  0.00000000000E+00  0.00000000000E+00  0.77412706317E+03  0.77412706317E+03  0.00000000000E+00 0.  1.
         21   -1    0    0  501  503 -0.00000000000E+00 -0.00000000000E+00 -0.51669673853E+02  0.51669673853E+02  0.00000000000E+00 0.  1.
          6    1    1    2  501    0 -0.72448798490E+02  0.34338193679E+02  0.23087008029E+03  0.29885269602E+03  0.17200000000E+03 0.  1.
         -6    1    1    2    0  502  0.72448798490E+02 -0.34338193679E+02  0.49158730902E+03  0.52694404100E+03  0.17200000000E+03 0.  1.
</event>
<event>
 4    1  0.5718861E+000  0.2321207E+03  0.7818608E-02  0.1125156E+00
         21   -1    0    0  503  502  0.00000000000E+00  0.00000000000E+00  0.30575239141E+03  0.30575239141E+03  0.00000000000E+00 0.  1.
         21   -1    0    0  501  503 -0.00000000000E+00 -0.00000000000E+00 -0.19486223824E+03  0.19486223824E+03  0.00000000000E+00 0. -1.
          6    1    1    2  501    0 -0.12143761087E+03  0.97718513237E+02 -0.21973776594E+02  0.23315841829E+03  0.17200000000E+03 0. -1.
         -6    1    1    2    0  502  0.12143761087E+03 -0.97718513237E+02  0.13286392977E+03  0.26745621136E+03  0.17200000000E+03 0.  1.
</event>
<event>
 4    1  0.5718861E+000  0.2268012E+03  0.7818608E-02  0.1128912E+00
         21   -1    0    0  501  502  0.00000000000E+00  0.00000000000E+00  0.44349504910E+03  0.44349504910E+03  0.00000000000E+00 0.  1.
         21   -1    0    0  502  503 -0.00000000000E+00 -0.00000000000E+00 -0.16024704214E+03  0.16024704214E+03  0.00000000000E+00 0.  1.
          6    1    1    2  501    0 -0.11985063339E+03  0.86548207797E+02  0.30027479587E+03  0.37630269681E+03  0.17200000000E+03 0.  1.
         -6    1    1    2    0  503  0.11985063339E+03 -0.86548207797E+02 -0.17026788903E+02  0.22743939442E+03  0.17200000000E+03 0.  1.
</event>
<event>
 4    1  0.5718861E+000  0.1917272E+03  0.7818608E-02  0.1156913E+00
         21   -1    0    0  503  502  0.00000000000E+00  0.00000000000E+00  0.15874162868E+04  0.15874162868E+04  0.00000000000E+00 0. -1.
         21   -1    0    0  501  503 -0.00000000000E+00 -0.00000000000E+00 -0.29477493230E+02  0.29477493230E+02  0.00000000000E+00 0. -1.
          6    1    1    2  501    0  0.67629859416E+02 -0.51005175600E+02  0.40460723591E+03  0.44773467721E+03  0.17200000000E+03 0. -1.
         -6    1    1    2    0  502 -0.67629859416E+02  0.51005175600E+02  0.11533315577E+04  0.11691591028E+04  0.17200000000E+03 0. -1.
</event>
<event>
 4    1  0.5718861E+000  0.2739238E+03  0.7818608E-02  0.1099055E+00
         21   -1    0    0  503  502  0.00000000000E+00  0.00000000000E+00  0.54012501335E+03  0.54012501335E+03  0.00000000000E+00 0.  1.
         21   -1    0    0  501  503 -0.00000000000E+00 -0.00000000000E+00 -0.48879643617E+03  0.48879643617E+03  0.00000000000E+00 0. -1.
          6    1    1    2  501    0 -0.50378615600E+02 -0.20715273233E+03 -0.40959239689E+03  0.49274759361E+03  0.17200000000E+03 0. -1.
         -6    1    1    2    0  502  0.50378615600E+02  0.20715273233E+03  0.46092097407E+03  0.53617385591E+03  0.17200000000E+03 0.  1.
</event>
<event>
 4    1  0.5718861E+000  0.2643615E+03  0.7818608E-02  0.1104551E+00
         21   -1    0    0  501  502  0.00000000000E+00  0.00000000000E+00  0.70364543965E+03  0.70364543965E+03  0.00000000000E+00 0. -1.
         21   -1    0    0  502  503 -0.00000000000E+00 -0.00000000000E+00 -0.11536443541E+03  0.11536443541E+03  0.00000000000E+00 0.  1.
          6    1    1    2  501    0  0.48064699278E+02 -0.19491737197E+03  0.44685049598E+03  0.51919395506E+03  0.17200000000E+03 0. -1.
         -6    1    1    2    0  503 -0.48064699278E+02  0.19491737197E+03  0.14143050825E+03  0.29981591999E+03  0.17200000000E+03 0.  1.
</event>
<event>
 4    1  0.5718861E+000  0.1781637E+03  0.7818608E-02  0.1169592E+00
         21   -1    0    0  501  502  0.00000000000E+00  0.00000000000E+00  0.50408983324E+03  0.50408983324E+03  0.00000000000E+00 0. -1.
         21   -1    0    0  502  503 -0.00000000000E+00 -0.00000000000E+00 -0.68964135564E+02  0.68964135564E+02  0.00000000000E+00 0. -1.
          6    1    1    2  501    0  0.18448535603E+02 -0.42637646920E+02  0.30203876831E+03  0.35067040788E+03  0.17200000000E+03 0. -1.
         -6    1    1    2    0  503 -0.18448535603E+02  0.42637646920E+02  0.13308692937E+03  0.22238356092E+03  0.17200000000E+03 0. -1.
</event>
<event>
 4    1  0.5718861E+000  0.2113093E+03  0.7818608E-02  0.1140533E+00
         21   -1    0    0  501  502  0.00000000000E+00  0.00000000000E+00  0.19673796954E+03  0.19673796954E+03  0.00000000000E+00 0. -1.
         21   -1    0    0  502  503 -0.00000000000E+00 -0.00000000000E+00 -0.23580052479E+03  0.23580052479E+03  0.00000000000E+00 0. -1.
          6    1    1    2  501    0 -0.79967716967E+02  0.93127709047E+02  0.22344882683E+02  0.21248741076E+03  0.17200000000E+03 0.  1.
         -6    1    1    2    0  503  0.79967716967E+02 -0.93127709047E+02 -0.61407437933E+02  0.22005108358E+03  0.17200000000E+03 0.  1.
</event>
<event>
 4    1  0.5718861E+000  0.2824643E+03  0.7818608E-02  0.1094351E+00
         21   -1    0    0  503  502  0.00000000000E+00  0.00000000000E+00  0.11975142574E+04  0.11975142574E+04  0.00000000000E+00 0.  1.
         21   -1    0    0  501  503 -0.00000000000E+00 -0.00000000000E+00 -0.85795249351E+02  0.85795249351E+02  0.00000000000E+00 0.  1.
          6    1    1    2  501    0  0.22121787136E+03 -0.35563212959E+02  0.85915613267E+03  0.90439778253E+03  0.17200000000E+03 0.  1.
         -6    1    1    2    0  502 -0.22121787136E+03  0.35563212959E+02  0.25256287533E+03  0.37891172418E+03  0.17200000000E+03 0.  1.
</event>
<event>
 4    1  0.5718861E+000  0.2875839E+03  0.7818608E-02  0.1091617E+00
         21   -1    0    0  501  502  0.00000000000E+00  0.00000000000E+00  0.74870534977E+03  0.74870534977E+03  0.00000000000E+00 0. -1.
         21   -1    0    0  502  503 -0.00000000000E+00 -0.00000000000E+00 -0.11369642214E+03  0.11369642214E+03  0.00000000000E+00 0. -1.
          6    1    1    2  501    0 -0.16923570719E+03 -0.15646008051E+03  0.24479085297E+03  0.37765995695E+03  0.17200000000E+03 0. -1.
         -6    1    1    2    0  503  0.16923570719E+03  0.15646008051E+03  0.39021807466E+03  0.48474181497E+03  0.17200000000E+03 0. -1.
</event>
<event>
 4    1  0.5718861E+000  0.2381301E+03  0.7818608E-02  0.1121045E+00
         21   -1    0    0  503  502  0.00000000000E+00  0.00000000000E+00  0.14482052620E+04  0.14482052620E+04  0.00000000000E+00 0. -1.
         21   -1    0    0  501  503 -0.00000000000E+00 -0.00000000000E+00 -0.51658423225E+02  0.51658423225E+02  0.00000000000E+00 0.  1.
          6    1    1    2  501    0  0.11974250717E+03 -0.11306497942E+03  0.32934005568E+03  0.40641214287E+03  0.17200000000E+03 0.  1.
         -6    1    1    2    0  502 -0.11974250717E+03  0.11306497942E+03  0.10672067831E+04  0.10934515424E+04  0.17200000000E+03 0. -1.
</event>
<event>
 4    1  0.5718861E+000  0.1961917E+03  0.7818608E-02  0.1152992E+00
         21   -1    0    0  501  502  0.00000000000E+00  0.00000000000E+00  0.88940984085E+02  0.88940984085E+02  0.00000000000E+00 0. -1.
         21   -1    0    0  502  503 -0.00000000000E+00 -0.00000000000E+00 -0.51745101713E+03  0.51745101713E+03  0.00000000000E+00 0.  1.
          6    1    1    2  501    0  0.91288734317E+02 -0.23948927623E+02 -0.91602554027E+02  0.21652300583E+03  0.17200000000E+03 0. -1.
         -6    1    1    2    0  503 -0.91288734317E+02  0.23948927623E+02 -0.33690747901E+03  0.38986899539E+03  0.17200000000E+03 0.  1.
</event>
<event>
 4    1  0.5718861E+000  0.2566738E+03  0.7818608E-02  0.1109158E+00
         21   -1    0    0  503  502  0.00000000000E+00  0.00000000000E+00  0.13559647422E+03  0.13559647422E+03  0.00000000000E+00 0.  1.
         21   -1    0    0  501  503 -0.00000000000E+00 -0.00000000000E+00 -0.67511456299E+03  0.67511456299E+03  0.00000000000E+00 0. -1.
          6    1    1    2  501    0 -0.79541273739E+01 -0.19035272550E+03 -0.48437701631E+03  0.54818110345E+03  0.17200000000E+03 0. -1.
         -6    1    1    2    0  502  0.79541273739E+01  0.19035272550E+03 -0.55141072455E+02  0.26252993376E+03  0.17200000000E+03 0.  1.
</event>
<event>
 4    1  0.5718861E+000  0.1832686E+03  0.7818608E-02  0.1164677E+00
         21   -1    0    0  503  502  0.00000000000E+00  0.00000000000E+00  0.10773363625E+03  0.10773363625E+03  0.00000000000E+00 0.  1.
         21   -1    0    0  501  503 -0.00000000000E+00 -0.00000000000E+00 -0.89369102311E+03  0.89369102311E+03  0.00000000000E+00 0.  1.
          6    1    1    2  501    0 -0.30231961123E+02  0.55582571735E+02 -0.79702311252E+03  0.81782225186E+03  0.17200000000E+03 0.  1.
         -6    1    1    2    0  502  0.30231961123E+02 -0.55582571735E+02  0.11065725666E+02  0.18360240750E+03  0.17200000000E+03 0.  1.
</event>
<event>
 4    1  0.5718861E+000  0.2087706E+03  0.7818608E-02  0.1142543E+00
         21   -1    0    0  503  502  0.00000000000E+00  0.00000000000E+00  0.14383467162E+03  0.14383467162E+03  0.00000000000E+00 0. -1.
         21   -1    0    0  501  503 -0.00000000000E+00 -0.00000000000E+00 -0.59600545546E+03  0.59600545546E+03  0.00000000000E+00 0. -1.
          6    1    1    2  501    0 -0.63663461852E+02  0.99740195606E+02 -0.48544595541E+03  0.52843440332E+03  0.17200000000E+03 0. -1.
         -6    1    1    2    0  502  0.63663461852E+02 -0.99740195606E+02  0.33275171564E+02  0.21140572376E+03  0.17200000000E+03 0. -1.
</event>
<event>
 4    1  0.5718861E+000  0.1944082E+03  0.7818608E-02  0.1154544E+00
         21   -1    0    0  501  502  0.00000000000E+00  0.00000000000E+00  0.56183890201E+03  0.56183890201E+03  0.00000000000E+00 0.  1.
         21   -1    0    0  502  503 -0.00000000000E+00 -0.00000000000E+00 -0.97287727316E+02  0.97287727316E+02  0.00000000000E+00 0. -1.
          6    1    1    2  501    0  0.88832530714E+02 -0.17870172644E+02  0.41533966519E+03  0.45858652299E+03  0.17200000000E+03 0.  1.
         -6    1    1    2    0  503 -0.88832530714E+02  0.17870172644E+02  0.49211509502E+02  0.20054010634E+03  0.17200000000E+03 0. -1.
</event>
<event>
 4    1  0.5718861E+000  0.2101405E+03  0.7818608E-02  0.1141455E+00
         21   -1    0    0  503  502  0.00000000000E+00  0.00000000000E+00  0.88992620729E+03  0.88992620729E+03  0.00000000000E+00 0.  1.
         21   -1    0    0  501  503 -0.00000000000E+00 -0.00000000000E+00 -0.67400039858E+02  0.67400039858E+02  0.00000000000E+00 0.  1.
          6    1    1    2  501    0  0.11632292307E+03  0.32311102024E+02  0.16542224651E+03  0.26743887037E+03  0.17200000000E+03 0.  1.
         -6    1    1    2    0  502 -0.11632292307E+03 -0.32311102024E+02  0.65710392092E+03  0.68988737677E+03  0.17200000000E+03 0.  1.
</event>
<event>
 4    1  0.5718861E+000  0.1754394E+03  0.7818608E-02  0.1172291E+00
         21   -1    0    0  503  502  0.00000000000E+00  0.00000000000E+00  0.53342516574E+03  0.53342516574E+03  0.00000000000E+00 0.  1.
         21   -1    0    0  501  503 -0.00000000000E+00 -0.00000000000E+00 -0.60864901658E+02  0.60864901658E+02  0.00000000000E+00 0.  1.
          6    1    1    2  501    0  0.34071648406E+02  0.58412446345E+01  0.16852875411E+03  0.24327132656E+03  0.17200000000E+03 0. -1.
         -6    1    1    2    0  502 -0.34071648406E+02 -0.58412446345E+01  0.30403150998E+03  0.35101874084E+03  0.17200000000E+03 0. -1.
</event>
<event>
 4    1  0.5718861E+000  0.1954848E+03  0.7818608E-02  0.1153605E+00
         21   -1    0    0  503  502  0.00000000000E+00  0.00000000000E+00  0.25581423807E+03  0.25581423807E+03  0.00000000000E+00 0.  1.
         21   -1    0    0  501  503 -0.00000000000E+00 -0.00000000000E+00 -0.15639869117E+03  0.15639869117E+03  0.00000000000E+00 0. -1.
          6    1    1    2  501    0  0.85589672632E+02 -0.36120836392E+02  0.60552601754E+01  0.19557855981E+03  0.17200000000E+03 0. -1.
         -6    1    1    2    0  502 -0.85589672632E+02  0.36120836392E+02  0.93360286726E+02  0.21663436943E+03  0.17200000000E+03 0. -1.
</event>
<event>
 4    1  0.5718861E+000  0.2466681E+03  0.7818608E-02  0.1115429E+00
         21   -1    0    0  503  502  0.00000000000E+00  0.00000000000E+00  0.51453156581E+03  0.51453156581E+03  0.00000000000E+00 0. -1.
         21   -1    0    0  501  503 -0.00000000000E+00 -0.00000000000E+00 -0.12738987286E+03  0.12738987286E+03  0.00000000000E+00 0. -1.
          6    1    1    2  501    0 -0.48511883705E+02 -0.17002276706E+03  0.10761567672E+03  0.26912130733E+03  0.17200000000E+03 0. -1.
         -6    1    1    2    0  502  0.48511883705E+02  0.17002276706E+03  0.27952601623E+03  0.37280013134E+03  0.17200000000E+03 0. -1.
</event>
<event>
 4    1  0.5718861E+000  0.1929212E+03  0.7818608E-02  0.1155853E+00
         21   -1    0    0  503  502  0.00000000000E+00  0.00000000000E+00  0.49896688926E+02  0.49896688926E+02  0.00000000000E+00 0.  1.
         21   -1    0    0  501  503 -0.00000000000E+00 -0.00000000000E+00 -0.10166595148E+04  0.10166595148E+04  0.00000000000E+00 0.  1.
          6    1    1    2  501    0  0.43767393101E+02  0.75624139959E+02 -0.75858071091E+03  0.78272810746E+03  0.17200000000E+03 0.  1.
         -6    1    1    2    0  502 -0.43767393101E+02 -0.75624139959E+02 -0.20818211499E+03  0.28382809629E+03  0.17200000000E+03 0.  1.
</event>
<event>
 4    1  0.5718861E+000  0.2594620E+03  0.7818608E-02  0.1107467E+00
         21   -1    0    0  503  502  0.00000000000E+00  0.00000000000E+00  0.63283015481E+03  0.63283015481E+03  0.00000000000E+00 0.  1.
         21   -1    0    0  501  503 -0.00000000000E+00 -0.00000000000E+00 -0.13762726248E+03  0.13762726248E+03  0.00000000000E+00 0.  1.
          6    1    1    2  501    0 -0.10533783341E+03  0.16321915767E+03  0.64044209701E+02  0.26724934682E+03  0.17200000000E+03 0.  1.
         -6    1    1    2    0  502  0.10533783341E+03 -0.16321915767E+03  0.43115868263E+03  0.50320807047E+03  0.17200000000E+03 0.  1.
</event>
<event>
 4    1  0.5718861E+000  0.2444847E+03  0.7818608E-02  0.1116841E+00
         21   -1    0    0  503  502  0.00000000000E+00  0.00000000000E+00  0.15680218691E+03  0.15680218691E+03  0.00000000000E+00 0. -1.
         21   -1    0    0  501  503 -0.00000000000E+00 -0.00000000000E+00 -0.78005866450E+03  0.78005866450E+03  0.00000000000E+00 0. -1.
          6    1    1    2  501    0  0.10570862452E+03 -0.13789290579E+03 -0.64658732753E+03  0.69126546195E+03  0.17200000000E+03 0. -1.
         -6    1    1    2    0  502 -0.10570862452E+03  0.13789290579E+03  0.23330849940E+02  0.24559538946E+03  0.17200000000E+03 0. -1.
</event>
<event>
 4    1  0.5718861E+000  0.2129759E+03  0.7818608E-02  0.1139231E+00
         21   -1    0    0  503  502  0.00000000000E+00  0.00000000000E+00  0.16385387921E+03  0.16385387921E+03  0.00000000000E+00 0. -1.
         21   -1    0    0  501  503 -0.00000000000E+00 -0.00000000000E+00 -0.27684549445E+03  0.27684549445E+03  0.00000000000E+00 0. -1.
          6    1    1    2  501    0 -0.12399644354E+03 -0.19990838277E+02 -0.58419292021E+02  0.22084285206E+03  0.17200000000E+03 0. -1.
         -6    1    1    2    0  502  0.12399644354E+03  0.19990838277E+02 -0.54572323219E+02  0.21985652160E+03  0.17200000000E+03 0. -1.
</event>
<event>
 4    1  0.5718861E+000  0.3934722E+03  0.7818608E-02  0.1046064E+00
         21   -1    0    0  501  502  0.00000000000E+00  0.00000000000E+00  0.22816995005E+03  0.22816995005E+03  0.00000000000E+00 0.  1.
         21   -1    0    0  502  503 -0.00000000000E+00 -0.00000000000E+00 -0.70833722167E+03  0.70833722167E+03  0.00000000000E+00 0. -1.
          6    1    1    2  501    0  0.78444585492E+02 -0.34508373765E+03 -0.14402951687E+03  0.41900458317E+03  0.17200000000E+03 0. -1.
         -6    1    1    2    0  503 -0.78444585492E+02  0.34508373765E+03 -0.33613775475E+03  0.51750258855E+03  0.17200000000E+03 0.  1.
</event>
<event>
 4    1  0.5718861E+000  0.2880445E+03  0.7818608E-02  0.1091375E+00
         21   -1    0    0  501  502  0.00000000000E+00  0.00000000000E+00  0.35156082936E+02  0.35156082936E+02  0.00000000000E+00 0. -1.
         21   -1    0    0  502  503 -0.00000000000E+00 -0.00000000000E+00 -0.23971254486E+04  0.23971254486E+04  0.00000000000E+00 0.  1.
          6    1    1    2  501    0  0.76020133451E+02 -0.21818924427E+03 -0.10297100728E+04  0.10692391879E+04  0.17200000000E+03 0. -1.
         -6    1    1    2    0  503 -0.76020133451E+02  0.21818924427E+03 -0.13322592929E+04  0.13630423436E+04  0.17200000000E+03 0. -1.
</event>
<event>
 4    1  0.5718861E+000  0.2712524E+03  0.7818608E-02  0.1100565E+00
         21   -1    0    0  501  502  0.00000000000E+00  0.00000000000E+00  0.84245264400E+03  0.84245264400E+03  0.00000000000E+00 0. -1.
         21   -1    0    0  502  503 -0.00000000000E+00 -0.00000000000E+00 -0.12776313579E+03  0.12776313579E+03  0.00000000000E+00 0.  1.
          6    1    1    2  501    0 -0.43148791786E+01 -0.20970275786E+03  0.63021927429E+03  0.68611529536E+03  0.17200000000E+03 0. -1.
         -6    1    1    2    0  503  0.43148791786E+01  0.20970275786E+03  0.84470233913E+02  0.28410048443E+03  0.17200000000E+03 0.  1.
</event>
<event>
 4    1  0.5718861E+000  0.1863044E+03  0.7818608E-02  0.1161837E+00
         21   -1    0    0  503  502  0.00000000000E+00  0.00000000000E+00  0.90731249111E+03  0.90731249111E+03  0.00000000000E+00 0. -1.
         21   -1    0    0  501  503 -0.00000000000E+00 -0.00000000000E+00 -0.47832015506E+02  0.47832015506E+02  0.00000000000E+00 0. -1.
          6    1    1    2  501    0 -0.70499011869E+02  0.12458522092E+02  0.21604606008E+03  0.28528095892E+03  0.17200000000E+03 0. -1.
         -6    1    1    2    0  502  0.70499011869E+02 -0.12458522092E+02  0.64343441552E+03  0.66986354769E+03  0.17200000000E+03 0. -1.
</event>
<event>
 4    1  0.5718861E+000  0.1938960E+03  0.7818608E-02  0.1154994E+00
         21   -1    0    0  503  502  0.00000000000E+00  0.00000000000E+00  0.14961398335E+03  0.14961398335E+03  0.00000000000E+00 0.  1.
         21   -1    0    0  501  503 -0.00000000000E+00 -0.00000000000E+00 -0.26597989661E+03  0.26597989661E+03  0.00000000000E+00 0.  1.
          6    1    1    2  501    0  0.67553840443E+02  0.58720965485E+02 -0.10702632205E+03  0.22147303844E+03  0.17200000000E+03 0.  1.
         -6    1    1    2    0  502 -0.67553840443E+02 -0.58720965485E+02 -0.93395912189E+01  0.19412084151E+03  0.17200000000E+03 0.  1.
</event>
<event>
 4    1  0.5718861E+000  0.2017704E+03  0.7818608E-02  0.1148254E+00
         21   -1    0    0  503  502  0.00000000000E+00  0.00000000000E+00  0.12158904245E+03  0.12158904245E+03  0.00000000000E+00 0.  1.
         21   -1    0    0  501  503 -0.00000000000E+00 -0.00000000000E+00 -0.42538973456E+03  0.42538973456E+03  0.00000000000E+00 0.  1.
          6    1    1    2  501    0  0.36039851818E+02 -0.99138331378E+02 -0.27808950048E+03  0.34357684722E+03  0.17200000000E+03 0.  1.
         -6    1    1    2    0  502 -0.36039851818E+02  0.99138331378E+02 -0.25711191638E+02  0.20340192979E+03  0.17200000000E+03 0.  1.
</event>
<event>
 4    1  0.5718861E+000  0.2383186E+03  0.7818608E-02  0.1120918E+00
         21   -1    0    0  503  502  0.00000000000E+00  0.00000000000E+00  0.32242218829E+03  0.32242218829E+03  0.00000000000E+00 0. -1.
         21   -1    0    0  501  503 -0.00000000000E+00 -0.00000000000E+00 -0.17625025279E+03  0.17625025279E+03  0.00000000000E+00 0. -1.
          6    1    1    2  501    0  0.13187799538E+03 -0.99095752902E+02  0.67241936522E+02  0.24762320557E+03  0.17200000000E+03 0.  1.
         -6    1    1    2    0  502 -0.13187799538E+03  0.99095752902E+02  0.78929998982E+02  0.25104923551E+03  0.17200000000E+03 0.  1.
</event>
<event>
 4    1  0.5718861E+000  0.1753116E+03  0.7818608E-02  0.1172419E+00
         21   -1    0    0  503  502  0.00000000000E+00  0.00000000000E+00  0.27719714489E+03  0.27719714489E+03  0.00000000000E+00 0.  1.
         21   -1    0    0  501  503 -0.00000000000E+00 -0.00000000000E+00 -0.19091332183E+03  0.19091332183E+03  0.00000000000E+00 0. -1.
          6    1    1    2  501    0 -0.22457416057E+02 -0.25413039250E+02 -0.10840600270E+03  0.20612137085E+03  0.17200000000E+03 0. -1.
         -6    1    1    2    0  502  0.22457416057E+02  0.25413039250E+02  0.19468982576E+03  0.26198909587E+03  0.17200000000E+03 0.  1.
</event>
<event>
 4    1  0.5718861E+000  0.3090210E+03  0.7818608E-02  0.1080816E+00
         21   -1    0    0  501  502  0.00000000000E+00  0.00000000000E+00  0.84193886382E+02  0.84193886382E+02  0.00000000000E+00 0. -1.
         21   -1    0    0  502  503 -0.00000000000E+00 -0.00000000000E+00 -0.12818166593E+04  0.12818166593E+04  0.00000000000E+00 0.  1.
          6    1    1    2  501    0 -0.24792685633E+03  0.66650227213E+02 -0.36704174697E+03  0.47980581791E+03  0.17200000000E+03 0. -1.
         -6    1    1    2    0  503  0.24792685633E+03 -0.66650227213E+02 -0.83058102599E+03  0.88620472782E+03  0.17200000000E+03 0.  1.
</event>
<event>
 4    1  0.5718861E+000  0.1767546E+03  0.7818608E-02  0.1170981E+00
         21   -1    0    0  503  502  0.00000000000E+00  0.00000000000E+00  0.15274526063E+03  0.15274526063E+03  0.00000000000E+00 0. -1.
         21   -1    0    0  501  503 -0.00000000000E+00 -0.00000000000E+00 -0.20498720568E+03  0.20498720568E+03  0.00000000000E+00 0. -1.
          6    1    1    2  501    0 -0.36991373128E+02 -0.17023949540E+02 -0.17745798648E+02  0.17764315330E+03  0.17200000000E+03 0.  1.
         -6    1    1    2    0  502  0.36991373128E+02  0.17023949540E+02 -0.34496146397E+02  0.18008931301E+03  0.17200000000E+03 0.  1.
</event>
<event>
 4    1  0.5718861E+000  0.2587992E+03  0.7818608E-02  0.1107867E+00
         21   -1    0    0  503  502  0.00000000000E+00  0.00000000000E+00  0.23610486034E+02  0.23610486034E+02  0.00000000000E+00 0. -1.
         21   -1    0    0  501  503 -0.00000000000E+00 -0.00000000000E+00 -0.28768684809E+04  0.28768684809E+04  0.00000000000E+00 0. -1.
          6    1    1    2  501    0 -0.19326001568E+03  0.66026479683E+01 -0.12553689720E+04  0.12817676406E+04  0.17200000000E+03 0. -1.
         -6    1    1    2    0  502  0.19326001568E+03 -0.66026479683E+01 -0.15978890229E+04  0.16187113264E+04  0.17200000000E+03 0. -1.
</event>
<event>
 4    1  0.5718861E+000  0.1845137E+03  0.7818608E-02  0.1163505E+00
         21   -1    0    0  501  502  0.00000000000E+00  0.00000000000E+00  0.67911293565E+03  0.67911293565E+03  0.00000000000E+00 0.  1.
         21   -1    0    0  502  503 -0.00000000000E+00 -0.00000000000E+00 -0.14446771983E+03  0.14446771983E+03  0.00000000000E+00 0.  1.
          6    1    1    2  501    0  0.59604538371E+02  0.30143122548E+02  0.60008079642E+03  0.62780751115E+03  0.17200000000E+03 0.  1.
         -6    1    1    2    0  503 -0.59604538371E+02 -0.30143122548E+02 -0.65435580594E+02  0.19577314433E+03  0.17200000000E+03 0.  1.
</event>
<event>
 4    1  0.5718861E+000  0.1740667E+03  0.7818608E-02  0.1173672E+00
         21   -1    0    0  503  502  0.00000000000E+00  0.00000000000E+00  0.40924072561E+03  0.40924072561E+03  0.00000000000E+00 0.  1.
         21   -1    0    0  501  503 -0.00000000000E+00 -0.00000000000E+00 -0.85902020769E+02  0.85902020769E+02  0.00000000000E+00 0.  1.
          6    1    1    2  501    0 -0.25384498115E+02  0.84166336979E+01  0.69662219152E+02  0.18748876565E+03  0.17200000000E+03 0.  1.
         -6    1    1    2    0  502  0.25384498115E+02 -0.84166336979E+01  0.25367648569E+03  0.30765398073E+03  0.17200000000E+03 0.  1.
</event>
<event>
 4    1  0.5718861E+000  0.1952731E+03  0.7818608E-02  0.1153790E+00
         21   -1    0    0  501  502  0.00000000000E+00  0.00000000000E+00  0.61704877085E+03  0.61704877085E+03  0.00000000000E+00 0.  1.
         21   -1    0    0  502  503 -0.00000000000E+00 -0.00000000000E+00 -0.83556815033E+02  0.83556815033E+02  0.00000000000E+00 0.  1.
          6    1    1    2  501    0 -0.39118211880E+02  0.83769605363E+02  0.44551126799E+03  0.48642766285E+03  0.17200000000E+03 0.  1.
         -6    1    1    2    0  503  0.39118211880E+02 -0.83769605363E+02  0.87980687830E+02  0.21417792303E+03  0.17200000000E+03 0.  1.
</event>
<event>
 4    1  0.5718861E+000  0.1770082E+03  0.7818608E-02  0.1170730E+00
         21   -1    0    0  501  502  0.00000000000E+00  0.00000000000E+00  0.10727349302E+04  0.10727349302E+04  0.00000000000E+00 0. -1.
         21   -1    0    0  502  503 -0.00000000000E+00 -0.00000000000E+00 -0.36270193039E+02  0.36270193039E+02  0.00000000000E+00 0. -1.
          6    1    1    2  501    0  0.11789787553E+02  0.40111177073E+02  0.76292099595E+03  0.78318602623E+03  0.17200000000E+03 0. -1.
         -6    1    1    2    0  503 -0.11789787553E+02 -0.40111177073E+02  0.27354374117E+03  0.32581909697E+03  0.17200000000E+03 0. -1.
</event>
<event>
 4    1  0.5718861E+000  0.1846389E+03  0.7818608E-02  0.1163388E+00
         21   -1    0    0  501  502  0.00000000000E+00  0.00000000000E+00  0.19498351510E+03  0.19498351510E+03  0.00000000000E+00 0. -1.
         21   -1    0    0  502  503 -0.00000000000E+00 -0.00000000000E+00 -0.24483265361E+03  0.24483265361E+03  0.00000000000E+00 0. -1.
          6    1    1    2  501    0  0.65718791954E+02 -0.13731257290E+02  0.92652702588E+02  0.20658177640E+03  0.17200000000E+03 0. -1.
         -6    1    1    2    0  503 -0.65718791954E+02  0.13731257290E+02 -0.14250184110E+03  0.23323439232E+03  0.17200000000E+03 0. -1.
</event>
<event>
 4    1  0.5718861E+000  0.2233415E+03  0.7818608E-02  0.1131416E+00
         21   -1    0    0  503  502  0.00000000000E+00  0.00000000000E+00  0.71408349996E+02  0.71408349996E+02  0.00000000000E+00 0.  1.
         21   -1    0    0  501  503 -0.00000000000E+00 -0.00000000000E+00 -0.83869058088E+03  0.83869058088E+03  0.00000000000E+00 0.  1.
          6    1    1    2  501    0  0.20447154481E+02 -0.14099410531E+03 -0.19762149422E+03  0.29822085580E+03  0.17200000000E+03 0.  1.
         -6    1    1    2    0  502 -0.20447154481E+02  0.14099410531E+03 -0.56966073667E+03  0.61187807508E+03  0.17200000000E+03 0.  1.
</event>
<event>
 4    1  0.5718861E+000  0.2132088E+03  0.7818608E-02  0.1139050E+00
         21   -1    0    0  501  502  0.00000000000E+00  0.00000000000E+00  0.24111816200E+03  0.24111816200E+03  0.00000000000E+00 0.  1.
         21   -1    0    0  502  503 -0.00000000000E+00 -0.00000000000E+00 -0.22490367366E+03  0.22490367366E+03  0.00000000000E+00 0. -1.
          6    1    1    2  501    0  0.68686123789E+02  0.10562298054E+03  0.10181419646E+03  0.23627130215E+03  0.17200000000E+03 0.  1.
         -6    1    1    2    0  503 -0.68686123789E+02 -0.10562298054E+03 -0.85599708111E+02  0.22975053351E+03  0.17200000000E+03 0. -1.
</event>
<event>
 4    1  0.5718861E+000  0.1999581E+03  0.7818608E-02  0.1149774E+00
         21   -1    0    0  503  502  0.00000000000E+00  0.00000000000E+00  0.42174800375E+02  0.42174800375E+02  0.00000000000E+00 0.  1.
         21   -1    0    0  501  503 -0.00000000000E+00 -0.00000000000E+00 -0.10573108431E+04  0.10573108431E+04  0.00000000000E+00 0.  1.
          6    1    1    2  501    0  0.99909404681E+02 -0.20429373814E+02 -0.68430092200E+03  0.71291724647E+03  0.17200000000E+03 0.  1.
         -6    1    1    2    0  502 -0.99909404681E+02  0.20429373814E+02 -0.33083512070E+03  0.38656839698E+03  0.17200000000E+03 0.  1.
</event>
<event>
 4    1  0.5718861E+000  0.1747645E+03  0.7818608E-02  0.1172968E+00
         21   -1    0    0  501  502  0.00000000000E+00  0.00000000000E+00  0.10471364361E+04  0.10471364361E+04  0.00000000000E+00 0. -1.
         21   -1    0    0  502  503 -0.00000000000E+00 -0.00000000000E+00 -0.41453641361E+02  0.41453641361E+02  0.00000000000E+00 0. -1.
          6    1    1    2  501    0 -0.25020960652E+02  0.18236432384E+02  0.79915823613E+03  0.81804431562E+03  0.17200000000E+03 0. -1.
         -6    1    1    2    0  503  0.25020960652E+02 -0.18236432384E+02  0.20652455857E+03  0.27054576180E+03  0.17200000000E+03 0. -1.
</event>
<event>
 4    1  0.5718861E+000  0.2029367E+03  0.7818608E-02  0.1147285E+00
         21   -1    0    0  501  502  0.00000000000E+00  0.00000000000E+00  0.33443868599E+03  0.33443868599E+03  0.00000000000E+00 0. -1.
         21   -1    0    0  502  503 -0.00000000000E+00 -0.00000000000E+00 -0.19636522637E+03  0.19636522637E+03  0.00000000000E+00 0.  1.
          6    1    1    2  501    0 -0.98399295580E+02 -0.43782412184E+02 -0.93031314293E+02  0.22324458880E+03  0.17200000000E+03 0.  1.
         -6    1    1    2    0  503  0.98399295580E+02  0.43782412184E+02  0.23110477392E+03  0.30755932357E+03  0.17200000000E+03 0. -1.
</event>
<event>
 4    1  0.5718861E+000  0.1870532E+03  0.7818608E-02  0.1161146E+00
         21   -1    0    0  501  502  0.00000000000E+00  0.00000000000E+00  0.15677951404E+03  0.15677951404E+03  0.00000000000E+00 0.  1.
         21   -1    0    0  502  503 -0.00000000000E+00 -0.00000000000E+00 -0.24189247776E+03  0.24189247776E+03  0.00000000000E+00 0.  1.
          6    1    1    2  501    0 -0.29565409149E+02  0.67310997195E+02  0.12896722374E+02  0.18749722454E+03  0.17200000000E+03 0.  1.
         -6    1    1    2    0  503  0.29565409149E+02 -0.67310997195E+02 -0.98009686089E+02  0.21117476726E+03  0.17200000000E+03 0.  1.
</event>
<event>
 4    1  0.5718861E+000  0.1774646E+03  0.7818608E-02  0.1170280E+00
         21   -1    0    0  503  502  0.00000000000E+00  0.00000000000E+00  0.27980756821E+03  0.27980756821E+03  0.00000000000E+00 0.  1.
         21   -1    0    0  501  503 -0.00000000000E+00 -0.00000000000E+00 -0.11268526768E+03  0.11268526768E+03  0.00000000000E+00 0. -1.
          6    1    1    2  501    0 -0.92219396919E+01  0.42715922537E+02  0.90237884961E+02  0.19908935203E+03  0.17200000000E+03 0. -1.
         -6    1    1    2    0  502  0.92219396919E+01 -0.42715922537E+02  0.76884415565E+02  0.19340348385E+03  0.17200000000E+03 0. -1.
</event>
<event>
 4    1  0.5718861E+000  0.1969220E+03  0.7818608E-02  0.1152362E+00
         21   -1    0    0  501  502  0.00000000000E+00  0.00000000000E+00  0.43801276791E+03  0.43801276791E+03  0.00000000000E+00 0.  1.
         21   -1    0    0  502  503 -0.00000000000E+00 -0.00000000000E+00 -0.15610408621E+03  0.15610408621E+03  0.00000000000E+00 0.  1.
          6    1    1    2  501    0 -0.62910350029E+02  0.72364145308E+02  0.33639612228E+03  0.38979562946E+03  0.17200000000E+03 0.  1.
         -6    1    1    2    0  503  0.62910350029E+02 -0.72364145308E+02 -0.54487440573E+02  0.20432122466E+03  0.17200000000E+03 0.  1.
</event>
<event>
 4    1  0.5718861E+000  0.2151413E+03  0.7818608E-02  0.1137558E+00
         21   -1    0    0  501  502  0.00000000000E+00  0.00000000000E+00  0.66270173950E+02  0.66270173950E+02  0.00000000000E+00 0.  1.
         21   -1    0    0  502  503 -0.00000000000E+00 -0.00000000000E+00 -0.89420887543E+03  0.89420887543E+03  0.00000000000E+00 0. -1.
          6    1    1    2  501    0  0.84313507204E+02  0.97943979343E+02 -0.18926608014E+03  0.28654395767E+03  0.17200000000E+03 0. -1.
         -6    1    1    2    0  503 -0.84313507204E+02 -0.97943979343E+02 -0.63867262134E+03  0.67393509171E+03  0.17200000000E+03 0. -1.
</event>
<event>
 4    1  0.5718861E+000  0.2015997E+03  0.7818608E-02  0.1148396E+00
         21   -1    0    0  501  502  0.00000000000E+00  0.00000000000E+00  0.82461634175E+02  0.82461634175E+02  0.00000000000E+00 0.  1.
         21   -1    0    0  502  503 -0.00000000000E+00 -0.00000000000E+00 -0.85236015098E+03  0.85236015098E+03  0.00000000000E+00 0.  1.
          6    1    1    2  501    0 -0.10354214850E+03  0.18370247901E+02 -0.81396727831E+02  0.21741175181E+03  0.17200000000E+03 0.  1.
         -6    1    1    2    0  503  0.10354214850E+03 -0.18370247901E+02 -0.68850178898E+03  0.71741003335E+03  0.17200000000E+03 0.  1.
</event>
<event>
 4    1  0.5718861E+000  0.1875224E+03  0.7818608E-02  0.1160715E+00
         21   -1    0    0  503  502  0.00000000000E+00  0.00000000000E+00  0.17384480340E+03  0.17384480340E+03  0.00000000000E+00 0. -1.
         21   -1    0    0  501  503 -0.00000000000E+00 -0.00000000000E+00 -0.20560293101E+03  0.20560293101E+03  0.00000000000E+00 0. -1.
          6    1    1    2  501    0 -0.63301446694E+02 -0.39668379227E+02 -0.40012599370E+02  0.19174373933E+03  0.17200000000E+03 0. -1.
         -6    1    1    2    0  502  0.63301446694E+02  0.39668379227E+02  0.82544717646E+01  0.18770399508E+03  0.17200000000E+03 0. -1.
</event>
<event>
 4    1  0.5718861E+000  0.2057844E+03  0.7818608E-02  0.1144948E+00
         21   -1    0    0  503  502  0.00000000000E+00  0.00000000000E+00  0.22414586612E+03  0.22414586612E+03  0.00000000000E+00 0.  1.
         21   -1    0    0  501  503 -0.00000000000E+00 -0.00000000000E+00 -0.23037602931E+03  0.23037602931E+03  0.00000000000E+00 0.  1.
          6    1    1    2  501    0  0.36623716571E+01  0.11291510513E+03 -0.99511899851E+02  0.22858226559E+03  0.17200000000E+03 0.  1.
         -6    1    1    2    0  502 -0.36623716571E+01 -0.11291510513E+03  0.93281736661E+02  0.22593962983E+03  0.17200000000E+03 0.  1.
</event>
<event>
 4    1  0.5718861E+000  0.2340132E+03  0.7818608E-02  0.1123847E+00
         21   -1    0    0  501  502  0.00000000000E+00  0.00000000000E+00  0.54483788277E+02  0.54483788277E+02  0.00000000000E+00 0.  1.
         21   -1    0    0  502  503 -0.00000000000E+00 -0.00000000000E+00 -0.10091530842E+04  0.10091530842E+04  0.00000000000E+00 0. -1.
          6    1    1    2  501    0 -0.10806882159E+03  0.11618650388E+03 -0.44367051533E+03  0.50160313003E+03  0.17200000000E+03 0.  1.
         -6    1    1    2    0  503  0.10806882159E+03 -0.11618650388E+03 -0.51099878062E+03  0.56203374247E+03  0.17200000000E+03 0. -1.
</event>
<event>
 4    1  0.5718861E+000  0.2082511E+03  0.7818608E-02  0.1142958E+00
         21   -1    0    0  503  502  0.00000000000E+00  0.00000000000E+00  0.65573291272E+03  0.65573291272E+03  0.00000000000E+00 0. -1.
         21   -1    0    0  501  503 -0.00000000000E+00 -0.00000000000E+00 -0.87339565390E+02  0.87339565390E+02  0.00000000000E+00 0. -1.
          6    1    1    2  501    0  0.56838584439E+02  0.10273224447E+03  0.10114036447E+03  0.23151222875E+03  0.17200000000E+03 0. -1.
         -6    1    1    2    0  502 -0.56838584439E+02 -0.10273224447E+03  0.46725298287E+03  0.51156024937E+03  0.17200000000E+03 0. -1.
</event>
<event>
 4    1  0.5718861E+000  0.2087033E+03  0.7818608E-02  0.1142597E+00
         21   -1    0    0  501  502  0.00000000000E+00  0.00000000000E+00  0.84168117756E+02  0.84168117756E+02  0.00000000000E+00 0. -1.
         21   -1    0    0  502  503 -0.00000000000E+00 -0.00000000000E+00 -0.52320242532E+03  0.52320242532E+03  0.00000000000E+00 0. -1.
          6    1    1    2  501    0  0.11435592371E+03 -0.29929457157E+02 -0.18781442832E+03  0.28076913858E+03  0.17200000000E+03 0.  1.
         -6    1    1    2    0  503 -0.11435592371E+03  0.29929457157E+02 -0.25121987924E+03  0.32660140450E+03  0.17200000000E+03 0.  1.
</event>
<event>
 4    1  0.5718861E+000  0.1908482E+03  0.7818608E-02  0.1157699E+00
         21   -1    0    0  503  502  0.00000000000E+00  0.00000000000E+00  0.13412858346E+03  0.13412858346E+03  0.00000000000E+00 0.  1.
         21   -1    0    0  501  503 -0.00000000000E+00 -0.00000000000E+00 -0.36671316524E+03  0.36671316524E+03  0.00000000000E+00 0. -1.
          6    1    1    2  501    0  0.10714507008E+02 -0.82001349575E+02 -0.24385825726E+03  0.30966089780E+03  0.17200000000E+03 0. -1.
         -6    1    1    2    0  502 -0.10714507008E+02  0.82001349575E+02  0.11273675486E+02  0.19118085090E+03  0.17200000000E+03 0.  1.
</event>
<event>
 4    1  0.5718861E+000  0.2069934E+03  0.7818608E-02  0.1143969E+00
         21   -1    0    0  501  502  0.00000000000E+00  0.00000000000E+00  0.32709549692E+03  0.32709549692E+03  0.00000000000E+00 0. -1.
         21   -1    0    0  502  503 -0.00000000000E+00 -0.00000000000E+00 -0.65934813071E+03  0.65934813071E+03  0.00000000000E+00 0.  1.
          6    1    1    2  501    0 -0.10662019046E+03  0.43524773898E+02  0.27539232367E+03  0.34451009113E+03  0.17200000000E+03 0. -1.
         -6    1    1    2    0  503  0.10662019046E+03 -0.43524773898E+02 -0.60764495746E+03  0.64193353650E+03  0.17200000000E+03 0.  1.
</event>
<event>
 4    1  0.5718861E+000  0.2143674E+03  0.7818608E-02  0.1138153E+00
         21   -1    0    0  503  502  0.00000000000E+00  0.00000000000E+00  0.86097989884E+03  0.86097989884E+03  0.00000000000E+00 0.  1.
         21   -1    0    0  501  503 -0.00000000000E+00 -0.00000000000E+00 -0.23948712241E+03  0.23948712241E+03  0.00000000000E+00 0. -1.
          6    1    1    2  501    0  0.10709933103E+03 -0.69993594101E+02 -0.17431334700E+03  0.27629425051E+03  0.17200000000E+03 0. -1.
         -6    1    1    2    0  502 -0.10709933103E+03  0.69993594101E+02  0.79580612344E+03  0.82417277074E+03  0.17200000000E+03 0.  1.
</event>
<event>
 4    1  0.5718861E+000  0.2959733E+03  0.7818608E-02  0.1087271E+00
         21   -1    0    0  501  502  0.00000000000E+00  0.00000000000E+00  0.15082246378E+03  0.15082246378E+03  0.00000000000E+00 0. -1.
         21   -1    0    0  502  503 -0.00000000000E+00 -0.00000000000E+00 -0.58291168620E+03  0.58291168620E+03  0.00000000000E+00 0.  1.
          6    1    1    2  501    0 -0.24042439419E+03  0.14569825415E+02 -0.23803956569E+03  0.37981969929E+03  0.17200000000E+03 0. -1.
         -6    1    1    2    0  503  0.24042439419E+03 -0.14569825415E+02 -0.19404965673E+03  0.35391445069E+03  0.17200000000E+03 0.  1.
</event>
<event>
 4    1  0.5718861E+000  0.1903759E+03  0.7818608E-02  0.1158123E+00
         21   -1    0    0  501  502  0.00000000000E+00  0.00000000000E+00  0.22915865144E+03  0.22915865144E+03  0.00000000000E+00 0. -1.
         21   -1    0    0  502  503 -0.00000000000E+00 -0.00000000000E+00 -0.16609638360E+03  0.16609638360E+03  0.00000000000E+00 0. -1.
          6    1    1    2  501    0  0.62710413360E+02  0.52214878977E+02  0.74739447959E+02  0.20452133046E+03  0.17200000000E+03 0. -1.
         -6    1    1    2    0  503 -0.62710413360E+02 -0.52214878977E+02 -0.11677180116E+02  0.19073370459E+03  0.17200000000E+03 0. -1.
</event>
<event>
 4    1  0.5718861E+000  0.1874950E+03  0.7818608E-02  0.1160740E+00
         21   -1    0    0  503  502  0.00000000000E+00  0.00000000000E+00  0.99262795249E+03  0.99262795249E+03  0.00000000000E+00 0.  1.
         21   -1    0    0  501  503 -0.00000000000E+00 -0.00000000000E+00 -0.50197598956E+02  0.50197598956E+02  0.00000000000E+00 0.  1.
          6    1    1    2  501    0  0.39402083043E+02  0.63386413974E+02  0.18826560428E+03  0.26570340491E+03  0.17200000000E+03 0.  1.
         -6    1    1    2    0  502 -0.39402083043E+02 -0.63386413974E+02  0.75416474925E+03  0.77712214654E+03  0.17200000000E+03 0.  1.
</event>
<event>
 4    1  0.5718861E+000  0.1769323E+03  0.7818608E-02  0.1170805E+00
         21   -1    0    0  503  502  0.00000000000E+00  0.00000000000E+00  0.13743579668E+03  0.13743579668E+03  0.00000000000E+00 0. -1.
         21   -1    0    0  501  503 -0.00000000000E+00 -0.00000000000E+00 -0.25175919642E+03  0.25175919642E+03  0.00000000000E+00 0. -1.
          6    1    1    2  501    0  0.37518642829E+02 -0.17702449774E+02  0.28959744061E+01  0.17695596050E+03  0.17200000000E+03 0. -1.
         -6    1    1    2    0  502 -0.37518642829E+02  0.17702449774E+02 -0.11721937414E+03  0.21223903261E+03  0.17200000000E+03 0. -1.
</event>
<event>
 4    1  0.5718861E+000  0.2170167E+03  0.7818608E-02  0.1136127E+00
         21   -1    0    0  501  502  0.00000000000E+00  0.00000000000E+00  0.97772772318E+03  0.97772772318E+03  0.00000000000E+00 0. -1.
         21   -1    0    0  502  503 -0.00000000000E+00 -0.00000000000E+00 -0.49464809869E+02  0.49464809869E+02  0.00000000000E+00 0.  1.
          6    1    1    2  501    0  0.98240705484E+02  0.88662425300E+02  0.54725575918E+03  0.58871481027E+03  0.17200000000E+03 0.  1.
         -6    1    1    2    0  503 -0.98240705484E+02 -0.88662425300E+02  0.38100715413E+03  0.43847772277E+03  0.17200000000E+03 0. -1.
</event>
<event>
 4    1  0.5718861E+000  0.2201444E+03  0.7818608E-02  0.1133775E+00
         21   -1    0    0  503  502  0.00000000000E+00  0.00000000000E+00  0.38081062416E+03  0.38081062416E+03  0.00000000000E+00 0.  1.
         21   -1    0    0  501  503 -0.00000000000E+00 -0.00000000000E+00 -0.13092156746E+03  0.13092156746E+03  0.00000000000E+00 0.  1.
          6    1    1    2  501    0  0.99996686538E+00 -0.13739919911E+03  0.16771012113E+03  0.27674938948E+03  0.17200000000E+03 0.  1.
         -6    1    1    2    0  502 -0.99996686538E+00  0.13739919911E+03  0.82178935575E+02  0.23498280214E+03  0.17200000000E+03 0.  1.
</event>
<event>
 4    1  0.5718861E+000  0.2538078E+03  0.7818608E-02  0.1110922E+00
         21   -1    0    0  503  502  0.00000000000E+00  0.00000000000E+00  0.13398025407E+03  0.13398025407E+03  0.00000000000E+00 0. -1.
         21   -1    0    0  501  503 -0.00000000000E+00 -0.00000000000E+00 -0.52046323791E+03  0.52046323791E+03  0.00000000000E+00 0. -1.
          6    1    1    2  501    0  0.10506879432E+02 -0.18634380956E+03 -0.10291555960E+03  0.27387957625E+03  0.17200000000E+03 0. -1.
         -6    1    1    2    0  502 -0.10506879432E+02  0.18634380956E+03 -0.28356742424E+03  0.38056391574E+03  0.17200000000E+03 0. -1.
</event>
<event>
 4    1  0.5718861E+000  0.2383401E+03  0.7818608E-02  0.1120904E+00
         21   -1    0    0  503  502  0.00000000000E+00  0.00000000000E+00  0.13958568739E+04  0.13958568739E+04  0.00000000000E+00 0.  1.
         21   -1    0    0  501  503 -0.00000000000E+00 -0.00000000000E+00 -0.40704233968E+02  0.40704233968E+02  0.00000000000E+00 0. -1.
          6    1    1    2  501    0 -0.13086223143E+03  0.10048415470E+03  0.66744857565E+03  0.70872673866E+03  0.17200000000E+03 0. -1.
         -6    1    1    2    0  502  0.13086223143E+03 -0.10048415470E+03  0.68770406428E+03  0.72783436920E+03  0.17200000000E+03 0.  1.
</event>
<event>
 4    1  0.5718861E+000  0.1885737E+03  0.7818608E-02  0.1159754E+00
         21   -1    0    0  503  502  0.00000000000E+00  0.00000000000E+00  0.13888437085E+03  0.13888437085E+03  0.00000000000E+00 0.  1.
         21   -1    0    0  501  503 -0.00000000000E+00 -0.00000000000E+00 -0.29022222862E+03  0.29022222862E+03  0.00000000000E+00 0.  1.
          6    1    1    2  501    0  0.27534951141E+01 -0.77255794929E+02 -0.14930085286E+03  0.24052189973E+03  0.17200000000E+03 0.  1.
         -6    1    1    2    0  502 -0.27534951141E+01  0.77255794929E+02 -0.20370049164E+01  0.18858469974E+03  0.17200000000E+03 0.  1.
</event>
<event>
 4    1  0.5718861E+000  0.2246509E+03  0.7818608E-02  0.1130462E+00
         21   -1    0    0  501  502  0.00000000000E+00  0.00000000000E+00  0.71625203433E+02  0.71625203433E+02  0.00000000000E+00 0.  1.
         21   -1    0    0  502  503 -0.00000000000E+00 -0.00000000000E+00 -0.74471158425E+03  0.74471158425E+03  0.00000000000E+00 0.  1.
          6    1    1    2  501    0  0.80032023692E+02 -0.12032828738E+03 -0.24182967694E+03  0.33007516448E+03  0.17200000000E+03 0.  1.
         -6    1    1    2    0  503 -0.80032023692E+02  0.12032828738E+03 -0.43125670388E+03  0.48626162320E+03  0.17200000000E+03 0.  1.
</event>
<event>
 4    1  0.5718861E+000  0.2410344E+03  0.7818608E-02  0.1119106E+00
         21   -1    0    0  503  502  0.00000000000E+00  0.00000000000E+00  0.44257398754E+03  0.44257398754E+03  0.00000000000E+00 0.  1.
         21   -1    0    0  501  503 -0.00000000000E+00 -0.00000000000E+00 -0.16448363464E+03  0.16448363464E+03  0.00000000000E+00 0. -1.
          6    1    1    2  501    0 -0.16664273258E+03 -0.27272557869E+02  0.26549028869E+01  0.24104904324E+03  0.17200000000E+03 0. -1.
         -6    1    1    2    0  502  0.16664273258E+03  0.27272557869E+02  0.27543545001E+03  0.36600857894E+03  0.17200000000E+03 0.  1.
</event>
<event>
 4    1  0.5718861E+000  0.3979523E+03  0.7818608E-02  0.1044491E+00
         21   -1    0    0  501  502  0.00000000000E+00  0.00000000000E+00  0.68713391008E+03  0.68713391008E+03  0.00000000000E+00 0. -1.
         21   -1    0    0  502  503 -0.00000000000E+00 -0.00000000000E+00 -0.28090845752E+03  0.28090845752E+03  0.00000000000E+00 0.  1.
          6    1    1    2  501    0 -0.90210707508E+02  0.34733848681E+03 -0.19793117803E+01  0.39795717589E+03  0.17200000000E+03 0.  1.
         -6    1    1    2    0  503  0.90210707508E+02 -0.34733848681E+03  0.40820476434E+03  0.57008519171E+03  0.17200000000E+03 0. -1.
</event>
<event>
 4    1  0.5718861E+000  0.1878920E+03  0.7818608E-02  0.1160377E+00
         21   -1    0    0  501  502  0.00000000000E+00  0.00000000000E+00  0.24669966553E+03  0.24669966553E+03  0.00000000000E+00 0. -1.
         21   -1    0    0  502  503 -0.00000000000E+00 -0.00000000000E+00 -0.14893161217E+03  0.14893161217E+03  0.00000000000E+00 0. -1.
          6    1    1    2  501    0 -0.52042959613E+02 -0.54871808457E+02  0.88018673555E+02  0.20748655837E+03  0.17200000000E+03 0. -1.
         -6    1    1    2    0  503  0.52042959613E+02  0.54871808457E+02  0.97493798083E+01  0.18814471934E+03  0.17200000000E+03 0. -1.
</event>
<event>
 4    1  0.5718861E+000  0.2753842E+03  0.7818608E-02  0.1098237E+00
         21   -1    0    0  501  502  0.00000000000E+00  0.00000000000E+00  0.68355783008E+03  0.68355783008E+03  0.00000000000E+00 0. -1.
         21   -1    0    0  502  503 -0.00000000000E+00 -0.00000000000E+00 -0.12060686730E+03  0.12060686730E+03  0.00000000000E+00 0. -1.
          6    1    1    2  501    0  0.19375449633E+03 -0.93336112554E+02  0.39528766124E+03  0.48175592356E+03  0.17200000000E+03 0. -1.
         -6    1    1    2    0  503 -0.19375449633E+03  0.93336112554E+02  0.16766330154E+03  0.32240877383E+03  0.17200000000E+03 0. -1.
</event>
<event>
 4    1  0.5718861E+000  0.2246014E+03  0.7818608E-02  0.1130498E+00
         21   -1    0    0  501  502  0.00000000000E+00  0.00000000000E+00  0.57865388990E+03  0.57865388990E+03  0.00000000000E+00 0.  1.
         21   -1    0    0  502  503 -0.00000000000E+00 -0.00000000000E+00 -0.95005915227E+02  0.95005915227E+02  0.00000000000E+00 0. -1.
          6    1    1    2  501    0  0.13057520882E+03  0.61740512687E+02  0.33851002856E+03  0.40624477289E+03  0.17200000000E+03 0.  1.
         -6    1    1    2    0  503 -0.13057520882E+03 -0.61740512687E+02  0.14513794612E+03  0.26741503224E+03  0.17200000000E+03 0. -1.
</event>
<event>
 4    1  0.5718861E+000  0.1770376E+03  0.7818608E-02  0.1170701E+00
         21   -1    0    0  503  502  0.00000000000E+00  0.00000000000E+00  0.99098454365E+02  0.99098454365E+02  0.00000000000E+00 0. -1.
         21   -1    0    0  501  503 -0.00000000000E+00 -0.00000000000E+00 -0.55110219147E+03  0.55110219147E+03  0.00000000000E+00 0. -1.
          6    1    1    2  501    0 -0.41855057143E+02  0.25442992632E+01 -0.43821680022E+03  0.47262700225E+03  0.17200000000E+03 0. -1.
         -6    1    1    2    0  502  0.41855057143E+02 -0.25442992632E+01 -0.13786936892E+02  0.17757364358E+03  0.17200000000E+03 0. -1.
</event>
<event>
 4    1  0.5718861E+000  0.3202997E+03  0.7818608E-02  0.1075511E+00
         21   -1    0    0  501  502  0.00000000000E+00  0.00000000000E+00  0.12811696331E+03  0.12811696331E+03  0.00000000000E+00 0. -1.
         21   -1    0    0  502  503 -0.00000000000E+00 -0.00000000000E+00 -0.10648315651E+04  0.10648315651E+04  0.00000000000E+00 0.  1.
          6    1    1    2  501    0 -0.18736203534E+03  0.19468793799E+03 -0.17132358847E+03  0.36324055040E+03  0.17200000000E+03 0. -1.
         -6    1    1    2    0  503  0.18736203534E+03 -0.19468793799E+03 -0.76539101331E+03  0.82970797799E+03  0.17200000000E+03 0.  1.
</event>
<event>
 4    1  0.5718861E+000  0.1823303E+03  0.7818608E-02  0.1165567E+00
         21   -1    0    0  503  502  0.00000000000E+00  0.00000000000E+00  0.82116165167E+02  0.82116165167E+02  0.00000000000E+00 0. -1.
         21   -1    0    0  501  503 -0.00000000000E+00 -0.00000000000E+00 -0.42802508977E+03  0.42802508977E+03  0.00000000000E+00 0. -1.
          6    1    1    2  501    0 -0.59656805990E+02 -0.10070193150E+02 -0.23231264685E+03  0.29531933425E+03  0.17200000000E+03 0. -1.
         -6    1    1    2    0  502  0.59656805990E+02  0.10070193150E+02 -0.11359627775E+03  0.21482192069E+03  0.17200000000E+03 0. -1.
</event>
<event>
 4    1  0.5718861E+000  0.2493512E+03  0.7818608E-02  0.1113716E+00
         21   -1    0    0  503  502  0.00000000000E+00  0.00000000000E+00  0.50429785414E+03  0.50429785414E+03  0.00000000000E+00 0.  1.
         21   -1    0    0  501  503 -0.00000000000E+00 -0.00000000000E+00 -0.14565973499E+03  0.14565973499E+03  0.00000000000E+00 0.  1.
          6    1    1    2  501    0  0.94049760020E+02  0.15409946253E+03  0.30666764914E+03  0.39524808505E+03  0.17200000000E+03 0. -1.
         -6    1    1    2    0  502 -0.94049760020E+02 -0.15409946253E+03  0.51970470016E+02  0.25470950408E+03  0.17200000000E+03 0. -1.
</event>
<event>
 4    1  0.5718861E+000  0.2138334E+03  0.7818608E-02  0.1138566E+00
         21   -1    0    0  503  502  0.00000000000E+00  0.00000000000E+00  0.14918901347E+03  0.14918901347E+03  0.00000000000E+00 0. -1.
         21   -1    0    0  501  503 -0.00000000000E+00 -0.00000000000E+00 -0.31542132923E+03  0.31542132923E+03  0.00000000000E+00 0. -1.
          6    1    1    2  501    0 -0.54506270336E+02  0.11475962196E+03 -0.12221014095E+03  0.24629255549E+03  0.17200000000E+03 0. -1.
         -6    1    1    2    0  502  0.54506270336E+02 -0.11475962196E+03 -0.44022174811E+02  0.21831778721E+03  0.17200000000E+03 0. -1.
</event>
<event>
 4    1  0.5718861E+000  0.1810292E+03  0.7818608E-02  0.1166811E+00
         21   -1    0    0  503  502  0.00000000000E+00  0.00000000000E+00  0.40173436144E+03  0.40173436144E+03  0.00000000000E+00 0. -1.
         21   -1    0    0  501  503 -0.00000000000E+00 -0.00000000000E+00 -0.82206265514E+02  0.82206265514E+02  0.00000000000E+00 0. -1.
          6    1    1    2  501    0  0.46546433794E+02  0.31952984854E+02  0.18096446495E+03  0.25596816465E+03  0.17200000000E+03 0. -1.
         -6    1    1    2    0  502 -0.46546433794E+02 -0.31952984854E+02  0.13856363098E+03  0.22797246231E+03  0.17200000000E+03 0. -1.
</event>
<event>
 4    1  0.5718861E+000  0.2348655E+03  0.7818608E-02  0.1123261E+00
         21   -1    0    0  501  502  0.00000000000E+00  0.00000000000E+00  0.36210867505E+03  0.36210867505E+03  0.00000000000E+00 0. -1.
         21   -1    0    0  502  503 -0.00000000000E+00 -0.00000000000E+00 -0.21761006291E+03  0.21761006291E+03  0.00000000000E+00 0.  1.
          6    1    1    2  501    0 -0.85969776396E+02 -0.13485922376E+03  0.23100218797E+03  0.32942954259E+03  0.17200000000E+03 0. -1.
         -6    1    1    2    0  503  0.85969776396E+02  0.13485922376E+03 -0.86503575836E+02  0.25028919537E+03  0.17200000000E+03 0.  1.
</event>
<event>
 4    1  0.5718861E+000  0.2468898E+03  0.7818608E-02  0.1115286E+00
         21   -1    0    0  501  502  0.00000000000E+00  0.00000000000E+00  0.26505380835E+03  0.26505380835E+03  0.00000000000E+00 0.  1.
         21   -1    0    0  502  503 -0.00000000000E+00 -0.00000000000E+00 -0.30245048278E+03  0.30245048278E+03  0.00000000000E+00 0. -1.
          6    1    1    2  501    0 -0.73600198728E+01 -0.17696446753E+03 -0.15760422318E+03  0.29290558859E+03  0.17200000000E+03 0. -1.
         -6    1    1    2    0  503  0.73600198728E+01  0.17696446753E+03  0.12020754876E+03  0.27459870254E+03  0.17200000000E+03 0.  1.
</event>
<event>
 4    1  0.5718861E+000  0.1978826E+03  0.7818608E-02  0.1151538E+00
         21   -1    0    0  501  502  0.00000000000E+00  0.00000000000E+00  0.37964416526E+03  0.37964416526E+03  0.00000000000E+00 0.  1.
         21   -1    0    0  502  503 -0.00000000000E+00 -0.00000000000E+00 -0.19338893966E+03  0.19338893966E+03  0.00000000000E+00 0. -1.
          6    1    1    2  501    0  0.78471565245E+02  0.58444352620E+02  0.28885357136E+03  0.35013413800E+03  0.17200000000E+03 0.  1.
         -6    1    1    2    0  503 -0.78471565245E+02 -0.58444352620E+02 -0.10259834575E+03  0.22289896692E+03  0.17200000000E+03 0. -1.
</event>
<event>
 4    1  0.5718861E+000  0.2005655E+03  0.7818608E-02  0.1149263E+00
         21   -1    0    0  503  502  0.00000000000E+00  0.00000000000E+00  0.86241626576E+02  0.86241626576E+02  0.00000000000E+00 0.  1.
         21   -1    0    0  501  503 -0.00000000000E+00 -0.00000000000E+00 -0.47309281506E+03  0.47309281506E+03  0.00000000000E+00 0.  1.
          6    1    1    2  501    0 -0.32769702309E+02  0.97819525987E+02 -0.22659081873E+03  0.30260520846E+03  0.17200000000E+03 0.  1.
         -6    1    1    2    0  502  0.32769702309E+02 -0.97819525987E+02 -0.16026036975E+03  0.25672923318E+03  0.17200000000E+03 0.  1.
</event>
<event>
 4    1  0.5718861E+000  0.1883731E+03  0.7818608E-02  0.1159937E+00
         21   -1    0    0  501  502  0.00000000000E+00  0.00000000000E+00  0.55720405752E+03  0.55720405752E+03  0.00000000000E+00 0.  1.
         21   -1    0    0  502  503 -0.00000000000E+00 -0.00000000000E+00 -0.64165341155E+02  0.64165341155E+02  0.00000000000E+00 0.  1.
          6    1    1    2  501    0 -0.59951699439E+01 -0.76579915754E+02  0.21958248863E+03  0.28931106939E+03  0.17200000000E+03 0.  1.
         -6    1    1    2    0  503  0.59951699439E+01  0.76579915754E+02  0.27345622774E+03  0.33205832928E+03  0.17200000000E+03 0.  1.
</event>
<event>
 4    1  0.5718861E+000  0.1850712E+03  0.7818608E-02  0.1162983E+00
         21   -1    0    0  501  502  0.00000000000E+00  0.00000000000E+00  0.31573097824E+03  0.31573097824E+03  0.00000000000E+00 0. -1.
         21   -1    0    0  502  503 -0.00000000000E+00 -0.00000000000E+00 -0.11280825978E+03  0.11280825978E+03  0.00000000000E+00 0. -1.
          6    1    1    2  501    0  0.37563168567E+02 -0.57064589078E+02  0.14341887073E+03  0.23413741999E+03  0.17200000000E+03 0.  1.
         -6    1    1    2    0  503 -0.37563168567E+02  0.57064589078E+02  0.59503847727E+02  0.19440181803E+03  0.17200000000E+03 0.  1.
</event>
<event>
 4    1  0.5718861E+000  0.1893353E+03  0.7818608E-02  0.1159062E+00
         21   -1    0    0  503  502  0.00000000000E+00  0.00000000000E+00  0.14399737864E+02  0.14399737864E+02  0.00000000000E+00 0.  1.
         21   -1    0    0  501  503 -0.00000000000E+00 -0.00000000000E+00 -0.25880228751E+04  0.25880228751E+04  0.00000000000E+00 0.  1.
          6    1    1    2  501    0 -0.41970436227E+01  0.79033190284E+02 -0.15407194876E+04  0.15523093763E+04  0.17200000000E+03 0.  1.
         -6    1    1    2    0  502  0.41970436227E+01 -0.79033190284E+02 -0.10329036496E+04  0.10501132366E+04  0.17200000000E+03 0.  1.
</event>
<event>
 4    1  0.5718861E+000  0.4796287E+03  0.7818608E-02  0.1019237E+00
         21   -1    0    0  503  502  0.00000000000E+00  0.00000000000E+00  0.47328036316E+03  0.47328036316E+03  0.00000000000E+00 0. -1.
         21   -1    0    0  501  503 -0.00000000000E+00 -0.00000000000E+00 -0.54629583440E+03  0.54629583440E+03  0.00000000000E+00 0.  1.
          6    1    1    2  501    0 -0.12230558582E+03 -0.43069831828E+03 -0.20578368500E+03  0.52191055049E+03  0.17200000000E+03 0.  1.
         -6    1    1    2    0  502  0.12230558582E+03  0.43069831828E+03  0.13276821377E+03  0.49766564708E+03  0.17200000000E+03 0. -1.
</event>
<event>
 4    1  0.5718861E+000  0.2141372E+03  0.7818608E-02  0.1138331E+00
         21   -1    0    0  503  502  0.00000000000E+00  0.00000000000E+00  0.17421478520E+04  0.17421478520E+04  0.00000000000E+00 0.  1.
         21   -1    0    0  501  503 -0.00000000000E+00 -0.00000000000E+00 -0.48494721502E+02  0.48494721502E+02  0.00000000000E+00 0.  1.
          6    1    1    2  501    0  0.84197843374E+02  0.95820042165E+02  0.24141216371E+03  0.32269891555E+03  0.17200000000E+03 0.  1.
         -6    1    1    2    0  502 -0.84197843374E+02 -0.95820042165E+02  0.14522409668E+04  0.14679436579E+04  0.17200000000E+03 0.  1.
</event>
<event>
 4    1  0.5718861E+000  0.2819103E+03  0.7818608E-02  0.1094650E+00
         21   -1    0    0  501  502  0.00000000000E+00  0.00000000000E+00  0.23757385832E+03  0.23757385832E+03  0.00000000000E+00 0. -1.
         21   -1    0    0  502  503 -0.00000000000E+00 -0.00000000000E+00 -0.73378363866E+03  0.73378363866E+03  0.00000000000E+00 0.  1.
          6    1    1    2  501    0  0.21411464063E+03  0.63595219192E+02  0.11015192090E+03  0.30266627978E+03  0.17200000000E+03 0. -1.
         -6    1    1    2    0  503 -0.21411464063E+03 -0.63595219192E+02 -0.60636170125E+03  0.66869121721E+03  0.17200000000E+03 0.  1.
</event>
<event>
 4    1  0.5718861E+000  0.3006692E+03  0.7818608E-02  0.1084907E+00
         21   -1    0    0  503  502  0.00000000000E+00  0.00000000000E+00  0.60323052543E+03  0.60323052543E+03  0.00000000000E+00 0.  1.
         21   -1    0    0  501  503 -0.00000000000E+00 -0.00000000000E+00 -0.15609300806E+03  0.15609300806E+03  0.00000000000E+00 0. -1.
          6    1    1    2  501    0  0.43760816080E+02  0.24269937383E+03  0.14772042513E+03  0.33499749116E+03  0.17200000000E+03 0.  1.
         -6    1    1    2    0  502 -0.43760816080E+02 -0.24269937383E+03  0.29941709224E+03  0.42432604234E+03  0.17200000000E+03 0.  1.
</event>
<event>
 4    1  0.5718861E+000  0.2258482E+03  0.7818608E-02  0.1129597E+00
         21   -1    0    0  503  502  0.00000000000E+00  0.00000000000E+00  0.57336671692E+02  0.57336671692E+02  0.00000000000E+00 0. -1.
         21   -1    0    0  501  503 -0.00000000000E+00 -0.00000000000E+00 -0.19664649036E+04  0.19664649036E+04  0.00000000000E+00 0. -1.
          6    1    1    2  501    0  0.14519102916E+03  0.18520098512E+02 -0.17033762836E+04  0.17182835018E+04  0.17200000000E+03 0. -1.
         -6    1    1    2    0  502 -0.14519102916E+03 -0.18520098512E+02 -0.20575194828E+03  0.30551807347E+03  0.17200000000E+03 0. -1.
</event>
<event>
 4    1  0.5718861E+000  0.1929375E+03  0.7818608E-02  0.1155838E+00
         21   -1    0    0  501  502  0.00000000000E+00  0.00000000000E+00  0.12596227298E+04  0.12596227298E+04  0.00000000000E+00 0.  1.
         21   -1    0    0  502  503 -0.00000000000E+00 -0.00000000000E+00 -0.65243971607E+02  0.65243971607E+02  0.00000000000E+00 0.  1.
          6    1    1    2  501    0  0.79504705296E+02 -0.36330204326E+02  0.10871428013E+04  0.11041305866E+04  0.17200000000E+03 0.  1.
         -6    1    1    2    0  503 -0.79504705296E+02  0.36330204326E+02  0.10723595687E+03  0.22073611475E+03  0.17200000000E+03 0.  1.
</event>
<event>
 4    1  0.5718861E+000  0.1851819E+03  0.7818608E-02  0.1162880E+00
         21   -1    0    0  501  502  0.00000000000E+00  0.00000000000E+00  0.32682799381E+02  0.32682799381E+02  0.00000000000E+00 0. -1.
         21   -1    0    0  502  503 -0.00000000000E+00 -0.00000000000E+00 -0.11136634641E+04  0.11136634641E+04  0.00000000000E+00 0. -1.
          6    1    1    2  501    0  0.57368739141E+02 -0.37645448159E+02 -0.40264091717E+03  0.44318400262E+03  0.17200000000E+03 0.  1.
         -6    1    1    2    0  503 -0.57368739141E+02  0.37645448159E+02 -0.67833974757E+03  0.70316226088E+03  0.17200000000E+03 0.  1.
</event>
<event>
 4    1  0.5718861E+000  0.2353102E+03  0.7818608E-02  0.1122957E+00
         21   -1    0    0  501  502  0.00000000000E+00  0.00000000000E+00  0.17224362158E+03  0.17224362158E+03  0.00000000000E+00 0.  1.
         21   -1    0    0  502  503 -0.00000000000E+00 -0.00000000000E+00 -0.59760521807E+03  0.59760521807E+03  0.00000000000E+00 0.  1.
          6    1    1    2  501    0 -0.21505683684E+02 -0.15913644459E+03  0.48974983474E+02  0.24035276457E+03  0.17200000000E+03 0.  1.
         -6    1    1    2    0  503  0.21505683684E+02  0.15913644459E+03 -0.47433657997E+03  0.52949607508E+03  0.17200000000E+03 0.  1.
</event>
<event>
 4    1  0.5718861E+000  0.2755739E+03  0.7818608E-02  0.1098131E+00
         21   -1    0    0  501  502  0.00000000000E+00  0.00000000000E+00  0.31006583627E+02  0.31006583627E+02  0.00000000000E+00 0. -1.
         21   -1    0    0  502  503 -0.00000000000E+00 -0.00000000000E+00 -0.29850940425E+04  0.29850940425E+04  0.00000000000E+00 0.  1.
          6    1    1    2  501    0  0.47970823163E+02 -0.20989470373E+03 -0.83807338104E+03  0.88221764806E+03  0.17200000000E+03 0. -1.
         -6    1    1    2    0  503 -0.47970823163E+02  0.20989470373E+03 -0.21160140779E+04  0.21338829781E+04  0.17200000000E+03 0. -1.
</event>
<event>
 4    1  0.5718861E+000  0.4070065E+03  0.7818608E-02  0.1041380E+00
         21   -1    0    0  503  502  0.00000000000E+00  0.00000000000E+00  0.18336606525E+04  0.18336606525E+04  0.00000000000E+00 0.  1.
         21   -1    0    0  501  503 -0.00000000000E+00 -0.00000000000E+00 -0.10727827419E+03  0.10727827419E+03  0.00000000000E+00 0. -1.
          6    1    1    2  501    0 -0.57585521648E+02 -0.36435453189E+03  0.47757906555E+03  0.62748392893E+03  0.17200000000E+03 0. -1.
         -6    1    1    2    0  502  0.57585521648E+02  0.36435453189E+03  0.12488033127E+04  0.13134549977E+04  0.17200000000E+03 0.  1.
</event>
<event>
 4    1  0.5718861E+000  0.1763376E+03  0.7818608E-02  0.1171395E+00
         21   -1    0    0  503  502  0.00000000000E+00  0.00000000000E+00  0.43942356753E+02  0.43942356753E+02  0.00000000000E+00 0.  1.
         21   -1    0    0  501  503 -0.00000000000E+00 -0.00000000000E+00 -0.76993056700E+03  0.76993056700E+03  0.00000000000E+00 0.  1.
          6    1    1    2  501    0  0.36881224896E+02 -0.12277162701E+02 -0.47875048979E+03  0.51019308594E+03  0.17200000000E+03 0.  1.
         -6    1    1    2    0  502 -0.36881224896E+02  0.12277162701E+02 -0.24723772046E+03  0.30367983781E+03  0.17200000000E+03 0.  1.
</event>
<event>
 4    1  0.5718861E+000  0.1859321E+03  0.7818608E-02  0.1162182E+00
         21   -1    0    0  501  502  0.00000000000E+00  0.00000000000E+00  0.11453855345E+03  0.11453855345E+03  0.00000000000E+00 0. -1.
         21   -1    0    0  502  503 -0.00000000000E+00 -0.00000000000E+00 -0.33193717574E+03  0.33193717574E+03  0.00000000000E+00 0. -1.
          6    1    1    2  501    0 -0.67861443451E+02  0.19533601447E+02 -0.41463247514E+02  0.19049918107E+03  0.17200000000E+03 0. -1.
         -6    1    1    2    0  503  0.67861443451E+02 -0.19533601447E+02 -0.17593537477E+03  0.25597654812E+03  0.17200000000E+03 0. -1.
</event>
<event>
 4    1  0.5718861E+000  0.1791456E+03  0.7818608E-02  0.1168633E+00
         21   -1    0    0  503  502  0.00000000000E+00  0.00000000000E+00  0.85469668881E+02  0.85469668881E+02  0.00000000000E+00 0. -1.
         21   -1    0    0  501  503 -0.00000000000E+00 -0.00000000000E+00 -0.40981462578E+03  0.40981462578E+03  0.00000000000E+00 0. -1.
          6    1    1    2  501    0  0.46235058091E+02  0.19273094568E+02 -0.23384032480E+03  0.29457499940E+03  0.17200000000E+03 0. -1.
         -6    1    1    2    0  502 -0.46235058091E+02 -0.19273094568E+02 -0.90504632097E+02  0.20070929526E+03  0.17200000000E+03 0. -1.
</event>
<event>
 4    1  0.5718861E+000  0.2266187E+03  0.7818608E-02  0.1129043E+00
         21   -1    0    0  501  502  0.00000000000E+00  0.00000000000E+00  0.41525616729E+03  0.41525616729E+03  0.00000000000E+00 0. -1.
         21   -1    0    0  502  503 -0.00000000000E+00 -0.00000000000E+00 -0.27627154179E+03  0.27627154179E+03  0.00000000000E+00 0.  1.
          6    1    1    2  501    0  0.14527480381E+03 -0.25831737075E+02  0.32646470224E+03  0.39741068061E+03  0.17200000000E+03 0. -1.
         -6    1    1    2    0  503 -0.14527480381E+03  0.25831737075E+02 -0.18748007674E+03  0.29411702847E+03  0.17200000000E+03 0.  1.
</event>
<event>
 4    1  0.5718861E+000  0.1955500E+03  0.7818608E-02  0.1153549E+00
         21   -1    0    0  501  502  0.00000000000E+00  0.00000000000E+00  0.13512300406E+03  0.13512300406E+03  0.00000000000E+00 0.  1.
         21   -1    0    0  502  503 -0.00000000000E+00 -0.00000000000E+00 -0.28810619277E+03  0.28810619277E+03  0.00000000000E+00 0.  1.
          6    1    1    2  501    0  0.92791466296E+02  0.67489189503E+01 -0.48319455040E+02  0.20143131301E+03  0.17200000000E+03 0.  1.
         -6    1    1    2    0  503 -0.92791466296E+02 -0.67489189503E+01 -0.10466373367E+03  0.22179788383E+03  0.17200000000E+03 0.  1.
</event>
<event>
 4    1  0.5718861E+000  0.2385381E+03  0.7818608E-02  0.1120771E+00
         21   -1    0    0  501  502  0.00000000000E+00  0.00000000000E+00  0.11977863702E+03  0.11977863702E+03  0.00000000000E+00 0.  1.
         21   -1    0    0  502  503 -0.00000000000E+00 -0.00000000000E+00 -0.49278560716E+03  0.49278560716E+03  0.00000000000E+00 0. -1.
          6    1    1    2  501    0  0.13025680501E+03 -0.10173284077E+03 -0.12839224158E+03  0.27089661098E+03  0.17200000000E+03 0.  1.
         -6    1    1    2    0  503 -0.13025680501E+03  0.10173284077E+03 -0.24461472856E+03  0.34166763320E+03  0.17200000000E+03 0.  1.
</event>
<event>
 4    1  0.5718861E+000  0.2138109E+03  0.7818608E-02  0.1138583E+00
         21   -1    0    0  501  502  0.00000000000E+00  0.00000000000E+00  0.11931397173E+03  0.11931397173E+03  0.00000000000E+00 0.  1.
         21   -1    0    0  502  503 -0.00000000000E+00 -0.00000000000E+00 -0.46744402402E+03  0.46744402402E+03  0.00000000000E+00 0. -1.
          6    1    1    2  501    0  0.39331175632E+02 -0.12076493110E+03 -0.49480692057E+02  0.21946172524E+03  0.17200000000E+03 0.  1.
         -6    1    1    2    0  503 -0.39331175632E+02  0.12076493110E+03 -0.29864936023E+03  0.36729627050E+03  0.17200000000E+03 0. -1.
</event>
<event>
 4    1  0.5718861E+000  0.1805566E+03  0.7818608E-02  0.1167265E+00
         21   -1    0    0  501  502  0.00000000000E+00  0.00000000000E+00  0.42596641211E+03  0.42596641211E+03  0.00000000000E+00 0. -1.
         21   -1    0    0  502  503 -0.00000000000E+00 -0.00000000000E+00 -0.22031058212E+03  0.22031058212E+03  0.00000000000E+00 0. -1.
          6    1    1    2  501    0 -0.38725658855E+00  0.54922946700E+02  0.36387324410E+03  0.40620735815E+03  0.17200000000E+03 0. -1.
         -6    1    1    2    0  503  0.38725658855E+00 -0.54922946700E+02 -0.15821741411E+03  0.24006963609E+03  0.17200000000E+03 0. -1.
</event>
<event>
 4    1  0.5718861E+000  0.1833436E+03  0.7818608E-02  0.1164606E+00
         21   -1    0    0  501  502  0.00000000000E+00  0.00000000000E+00  0.94728939004E+02  0.94728939004E+02  0.00000000000E+00 0. -1.
         21   -1    0    0  502  503 -0.00000000000E+00 -0.00000000000E+00 -0.49881114531E+03  0.49881114531E+03  0.00000000000E+00 0. -1.
          6    1    1    2  501    0  0.52817226589E+02  0.35230901890E+02 -0.36147096313E+03  0.40530992223E+03  0.17200000000E+03 0. -1.
         -6    1    1    2    0  503 -0.52817226589E+02 -0.35230901890E+02 -0.42611243175E+02  0.18823016208E+03  0.17200000000E+03 0. -1.
</event>
<event>
 4    1  0.5718861E+000  0.1734612E+03  0.7818608E-02  0.1174286E+00
         21   -1    0    0  503  502  0.00000000000E+00  0.00000000000E+00  0.70822461447E+03  0.70822461447E+03  0.00000000000E+00 0. -1.
         21   -1    0    0  501  503 -0.00000000000E+00 -0.00000000000E+00 -0.80653250451E+02  0.80653250451E+02  0.00000000000E+00 0. -1.
          6    1    1    2  501    0  0.21722348477E+00  0.22466484034E+02  0.42441177958E+02  0.17857783647E+03  0.17200000000E+03 0. -1.
         -6    1    1    2    0  502 -0.21722348477E+00 -0.22466484034E+02  0.58513018606E+03  0.61030002845E+03  0.17200000000E+03 0. -1.
</event>
<event>
 4    1  0.5718861E+000  0.1736959E+03  0.7818608E-02  0.1174048E+00
         21   -1    0    0  501  502  0.00000000000E+00  0.00000000000E+00  0.28937568746E+03  0.28937568746E+03  0.00000000000E+00 0.  1.
         21   -1    0    0  502  503 -0.00000000000E+00 -0.00000000000E+00 -0.11826866798E+03  0.11826866798E+03  0.00000000000E+00 0.  1.
          6    1    1    2  501    0  0.19443618824E+02  0.14429121737E+02  0.15405077659E+02  0.17437766567E+03  0.17200000000E+03 0.  1.
         -6    1    1    2    0  503 -0.19443618824E+02 -0.14429121737E+02  0.15570194182E+03  0.23326668977E+03  0.17200000000E+03 0.  1.
</event>
<event>
 4    1  0.5718861E+000  0.2073442E+03  0.7818608E-02  0.1143686E+00
         21   -1    0    0  501  502  0.00000000000E+00  0.00000000000E+00  0.16832890552E+03  0.16832890552E+03  0.00000000000E+00 0.  1.
         21   -1    0    0  502  503 -0.00000000000E+00 -0.00000000000E+00 -0.27866682549E+03  0.27866682549E+03  0.00000000000E+00 0.  1.
          6    1    1    2  501    0 -0.11039712750E+03 -0.34930015555E+02  0.94076895677E+01  0.20755754954E+03  0.17200000000E+03 0.  1.
         -6    1    1    2    0  503  0.11039712750E+03  0.34930015555E+02 -0.11974560954E+03  0.23943818148E+03  0.17200000000E+03 0.  1.
</event>
<event>
 4    1  0.5718861E+000  0.2325762E+03  0.7818608E-02  0.1124840E+00
         21   -1    0    0  503  502  0.00000000000E+00  0.00000000000E+00  0.94501301886E+03  0.94501301886E+03  0.00000000000E+00 0.  1.
         21   -1    0    0  501  503 -0.00000000000E+00 -0.00000000000E+00 -0.58682420013E+02  0.58682420013E+02  0.00000000000E+00 0.  1.
          6    1    1    2  501    0 -0.89436848961E+02  0.12848630380E+03  0.52187016257E+03  0.57134940867E+03  0.17200000000E+03 0.  1.
         -6    1    1    2    0  502  0.89436848961E+02 -0.12848630380E+03  0.36446043628E+03  0.43234603020E+03  0.17200000000E+03 0.  1.
</event>
<event>
 4    1  0.5718861E+000  0.2286578E+03  0.7818608E-02  0.1127588E+00
         21   -1    0    0  503  502  0.00000000000E+00  0.00000000000E+00  0.20012516921E+03  0.20012516921E+03  0.00000000000E+00 0.  1.
         21   -1    0    0  501  503 -0.00000000000E+00 -0.00000000000E+00 -0.28658390430E+03  0.28658390430E+03  0.00000000000E+00 0. -1.
          6    1    1    2  501    0  0.33508189714E+02 -0.14689316491E+03 -0.11557157877E+03  0.25620536781E+03  0.17200000000E+03 0. -1.
         -6    1    1    2    0  502 -0.33508189714E+02  0.14689316491E+03  0.29112843679E+02  0.23050370570E+03  0.17200000000E+03 0.  1.
</event>
<event>
 4    1  0.5718861E+000  0.2482582E+03  0.7818608E-02  0.1114411E+00
         21   -1    0    0  503  502  0.00000000000E+00  0.00000000000E+00  0.16800620858E+03  0.16800620858E+03  0.00000000000E+00 0.  1.
         21   -1    0    0  501  503 -0.00000000000E+00 -0.00000000000E+00 -0.36868032511E+03  0.36868032511E+03  0.00000000000E+00 0. -1.
          6    1    1    2  501    0  0.60002105130E+02 -0.16866505891E+03 -0.11927272388E+03  0.27542355995E+03  0.17200000000E+03 0. -1.
         -6    1    1    2    0  502 -0.60002105130E+02  0.16866505891E+03 -0.81401392662E+02  0.26126297373E+03  0.17200000000E+03 0. -1.
</event>
<event>
 4    1  0.5718861E+000  0.1926026E+03  0.7818608E-02  0.1156135E+00
         21   -1    0    0  501  502  0.00000000000E+00  0.00000000000E+00  0.23423309292E+02  0.23423309292E+02  0.00000000000E+00 0. -1.
         21   -1    0    0  502  503 -0.00000000000E+00 -0.00000000000E+00 -0.15895094615E+04  0.15895094615E+04  0.00000000000E+00 0.  1.
          6    1    1    2  501    0  0.37055505181E+02 -0.78349652100E+02 -0.83174764946E+03  0.85375636503E+03  0.17200000000E+03 0.  1.
         -6    1    1    2    0  503 -0.37055505181E+02  0.78349652100E+02 -0.73433850280E+03  0.75917640581E+03  0.17200000000E+03 0.  1.
</event>
<event>
 4    1  0.5718861E+000  0.1768341E+03  0.7818608E-02  0.1170903E+00
         21   -1    0    0  501  502  0.00000000000E+00  0.00000000000E+00  0.19100511047E+03  0.19100511047E+03  0.00000000000E+00 0.  1.
         21   -1    0    0  502  503 -0.00000000000E+00 -0.00000000000E+00 -0.23342122647E+03  0.23342122647E+03  0.00000000000E+00 0.  1.
          6    1    1    2  501    0  0.19700396884E+02  0.36030576482E+02  0.94760289604E+02  0.20062357928E+03  0.17200000000E+03 0.  1.
         -6    1    1    2    0  503 -0.19700396884E+02 -0.36030576482E+02 -0.13717640560E+03  0.22380275765E+03  0.17200000000E+03 0.  1.
</event>
<event>
 4    1  0.5718861E+000  0.1858007E+03  0.7818608E-02  0.1162304E+00
         21   -1    0    0  503  502  0.00000000000E+00  0.00000000000E+00  0.36636108346E+03  0.36636108346E+03  0.00000000000E+00 0. -1.
         21   -1    0    0  501  503 -0.00000000000E+00 -0.00000000000E+00 -0.17152429815E+03  0.17152429815E+03  0.00000000000E+00 0. -1.
          6    1    1    2  501    0 -0.18638904311E+02 -0.67753045622E+02 -0.83121471111E+02  0.20354621810E+03  0.17200000000E+03 0.  1.
         -6    1    1    2    0  502  0.18638904311E+02  0.67753045622E+02  0.27795825642E+03  0.33433916351E+03  0.17200000000E+03 0.  1.
</event>
<event>
 4    1  0.5718861E+000  0.3789651E+03  0.7818608E-02  0.1051317E+00
         21   -1    0    0  501  502  0.00000000000E+00  0.00000000000E+00  0.45576484484E+03  0.45576484484E+03  0.00000000000E+00 0.  1.
         21   -1    0    0  502  503 -0.00000000000E+00 -0.00000000000E+00 -0.40664473198E+03  0.40664473198E+03  0.00000000000E+00 0. -1.
          6    1    1    2  501    0 -0.18427709941E+03 -0.28297083995E+03  0.22914649416E+03  0.44285738270E+03  0.17200000000E+03 0.  1.
         -6    1    1    2    0  503  0.18427709941E+03  0.28297083995E+03 -0.18002638129E+03  0.41955219412E+03  0.17200000000E+03 0. -1.
</event>
<event>
 4    1  0.5718861E+000  0.2035918E+03  0.7818608E-02  0.1146744E+00
         21   -1    0    0  503  502  0.00000000000E+00  0.00000000000E+00  0.28491218826E+02  0.28491218826E+02  0.00000000000E+00 0.  1.
         21   -1    0    0  501  503 -0.00000000000E+00 -0.00000000000E+00 -0.17175169777E+04  0.17175169777E+04  0.00000000000E+00 0.  1.
          6    1    1    2  501    0  0.88796556673E+02  0.63093467845E+02 -0.50308990265E+03  0.54272374585E+03  0.17200000000E+03 0.  1.
         -6    1    1    2    0  502 -0.88796556673E+02 -0.63093467845E+02 -0.11859358562E+04  0.12032844507E+04  0.17200000000E+03 0.  1.
</event>
<event>
 4    1  0.5718861E+000  0.3124503E+03  0.7818608E-02  0.1079177E+00
         21   -1    0    0  503  502  0.00000000000E+00  0.00000000000E+00  0.42688362458E+03  0.42688362458E+03  0.00000000000E+00 0.  1.
         21   -1    0    0  501  503 -0.00000000000E+00 -0.00000000000E+00 -0.35734886182E+03  0.35734886182E+03  0.00000000000E+00 0. -1.
          6    1    1    2  501    0  0.65111152833E+02  0.25259006085E+03 -0.20051196176E+03  0.37125496343E+03  0.17200000000E+03 0.  1.
         -6    1    1    2    0  502 -0.65111152833E+02 -0.25259006085E+03  0.27004672452E+03  0.41297752298E+03  0.17200000000E+03 0. -1.
</event>
<event>
 4    1  0.5718861E+000  0.2084420E+03  0.7818608E-02  0.1142806E+00
         21   -1    0    0  501  502  0.00000000000E+00  0.00000000000E+00  0.81183569849E+02  0.81183569849E+02  0.00000000000E+00 0. -1.
         21   -1    0    0  502  503 -0.00000000000E+00 -0.00000000000E+00 -0.10134033345E+04  0.10134033345E+04  0.00000000000E+00 0. -1.
          6    1    1    2  501    0 -0.11560262878E+03 -0.22362452192E+02 -0.90148518978E+02  0.22710086421E+03  0.17200000000E+03 0. -1.
         -6    1    1    2    0  503  0.11560262878E+03  0.22362452192E+02 -0.84207124567E+03  0.86748604014E+03  0.17200000000E+03 0. -1.
</event>
<event>
 4    1  0.5718861E+000  0.3596721E+03  0.7818608E-02  0.1058714E+00
         21   -1    0    0  503  502  0.00000000000E+00  0.00000000000E+00  0.62115533301E+03  0.62115533301E+03  0.00000000000E+00 0. -1.
         21   -1    0    0  501  503 -0.00000000000E+00 -0.00000000000E+00 -0.49461038522E+03  0.49461038522E+03  0.00000000000E+00 0.  1.
          6    1    1    2  501    0 -0.31549659496E+03  0.15554367079E+02 -0.36120785169E+03  0.50974027886E+03  0.17200000000E+03 0.  1.
         -6    1    1    2    0  502  0.31549659496E+03 -0.15554367079E+02  0.48775279948E+03  0.60602543938E+03  0.17200000000E+03 0. -1.
</event>
<event>
 4    1  0.5718861E+000  0.1723015E+03  0.7818608E-02  0.1175469E+00
         21   -1    0    0  501  502  0.00000000000E+00  0.00000000000E+00  0.17540645437E+03  0.17540645437E+03  0.00000000000E+00 0.  1.
         21   -1    0    0  502  503 -0.00000000000E+00 -0.00000000000E+00 -0.22802089594E+03  0.22802089594E+03  0.00000000000E+00 0.  1.
          6    1    1    2  501    0 -0.45657212017E+01 -0.91075078815E+01  0.76098426172E+02  0.18835807117E+03  0.17200000000E+03 0.  1.
         -6    1    1    2    0  503  0.45657212017E+01  0.91075078815E+01 -0.12871286774E+03  0.21506927914E+03  0.17200000000E+03 0.  1.
</event>
<event>
 4    1  0.5718861E+000  0.3025849E+03  0.7818608E-02  0.1083956E+00
         21   -1    0    0  501  502  0.00000000000E+00  0.00000000000E+00  0.26271895220E+03  0.26271895220E+03  0.00000000000E+00 0. -1.
         21   -1    0    0  502  503 -0.00000000000E+00 -0.00000000000E+00 -0.49683261545E+03  0.49683261545E+03  0.00000000000E+00 0.  1.
          6    1    1    2  501    0  0.76828901169E+02  0.23679304988E+03  0.90453696800E+02  0.31581561043E+03  0.17200000000E+03 0.  1.
         -6    1    1    2    0  503 -0.76828901169E+02 -0.23679304988E+03 -0.32456736005E+03  0.44373595722E+03  0.17200000000E+03 0.  1.
</event>
<event>
 4    1  0.5718861E+000  0.3174049E+03  0.7818608E-02  0.1076850E+00
         21   -1    0    0  503  502  0.00000000000E+00  0.00000000000E+00  0.37560024017E+03  0.37560024017E+03  0.00000000000E+00 0. -1.
         21   -1    0    0  501  503 -0.00000000000E+00 -0.00000000000E+00 -0.55394296025E+03  0.55394296025E+03  0.00000000000E+00 0.  1.
          6    1    1    2  501    0 -0.21948602118E+02 -0.26585739635E+03 -0.42296247592E+03  0.52881296539E+03  0.17200000000E+03 0.  1.
         -6    1    1    2    0  502  0.21948602118E+02  0.26585739635E+03  0.24461975583E+03  0.40073023503E+03  0.17200000000E+03 0. -1.
</event>
<event>
 4    1  0.5718861E+000  0.3558424E+03  0.7818608E-02  0.1060242E+00
         21   -1    0    0  503  502  0.00000000000E+00  0.00000000000E+00  0.54974440462E+03  0.54974440462E+03  0.00000000000E+00 0. -1.
         21   -1    0    0  501  503 -0.00000000000E+00 -0.00000000000E+00 -0.31946490706E+03  0.31946490706E+03  0.00000000000E+00 0.  1.
          6    1    1    2  501    0  0.78938886342E+02 -0.30134448805E+03 -0.11442293797E+03  0.37378664635E+03  0.17200000000E+03 0.  1.
         -6    1    1    2    0  502 -0.78938886342E+02  0.30134448805E+03  0.34470243554E+03  0.49542266533E+03  0.17200000000E+03 0. -1.
</event>
<event>
 4    1  0.5718861E+000  0.1912433E+03  0.7818608E-02  0.1157345E+00
         21   -1    0    0  501  502  0.00000000000E+00  0.00000000000E+00  0.21923520497E+03  0.21923520497E+03  0.00000000000E+00 0.  1.
         21   -1    0    0  502  503 -0.00000000000E+00 -0.00000000000E+00 -0.18094657231E+03  0.18094657231E+03  0.00000000000E+00 0.  1.
          6    1    1    2  501    0  0.69329073017E+02  0.46727794316E+02  0.75041131326E+02  0.20543898977E+03  0.17200000000E+03 0.  1.
         -6    1    1    2    0  503 -0.69329073017E+02 -0.46727794316E+02 -0.36752498665E+02  0.19474278750E+03  0.17200000000E+03 0.  1.
</event>
<event>
 4    1  0.5718861E+000  0.1775496E+03  0.7818608E-02  0.1170196E+00
         21   -1    0    0  503  502  0.00000000000E+00  0.00000000000E+00  0.27138578644E+04  0.27138578644E+04  0.00000000000E+00 0.  1.
         21   -1    0    0  501  503 -0.00000000000E+00 -0.00000000000E+00 -0.12343278402E+02  0.12343278402E+02  0.00000000000E+00 0.  1.
          6    1    1    2  501    0 -0.26101604232E+02  0.35476442542E+02  0.10198577849E+04  0.10351974561E+04  0.17200000000E+03 0.  1.
         -6    1    1    2    0  502  0.26101604232E+02 -0.35476442542E+02  0.16816568011E+04  0.16910036867E+04  0.17200000000E+03 0.  1.
</event>
<event>
 4    1  0.5718861E+000  0.2209071E+03  0.7818608E-02  0.1133209E+00
         21   -1    0    0  503  502  0.00000000000E+00  0.00000000000E+00  0.12072026234E+04  0.12072026234E+04  0.00000000000E+00 0.  1.
         21   -1    0    0  501  503 -0.00000000000E+00 -0.00000000000E+00 -0.40657820206E+02  0.40657820206E+02  0.00000000000E+00 0.  1.
          6    1    1    2  501    0  0.12313160424E+03 -0.63675275060E+02  0.63059027036E+03  0.66816466659E+03  0.17200000000E+03 0.  1.
         -6    1    1    2    0  502 -0.12313160424E+03  0.63675275060E+02  0.53595453284E+03  0.57969577702E+03  0.17200000000E+03 0.  1.
</event>
<event>
 4    1  0.5718861E+000  0.2622423E+03  0.7818608E-02  0.1105803E+00
         21   -1    0    0  503  502  0.00000000000E+00  0.00000000000E+00  0.19948068448E+03  0.19948068448E+03  0.00000000000E+00 0.  1.
         21   -1    0    0  501  503 -0.00000000000E+00 -0.00000000000E+00 -0.80542073942E+03  0.80542073942E+03  0.00000000000E+00 0.  1.
          6    1    1    2  501    0 -0.11010904084E+03 -0.16450837232E+03  0.77024447772E+02  0.27331990596E+03  0.17200000000E+03 0.  1.
         -6    1    1    2    0  502  0.11010904084E+03  0.16450837232E+03 -0.68296450271E+03  0.73158151794E+03  0.17200000000E+03 0.  1.
</event>
<event>
 4    1  0.5718861E+000  0.2042259E+03  0.7818608E-02  0.1146222E+00
         21   -1    0    0  503  502  0.00000000000E+00  0.00000000000E+00  0.14689890525E+03  0.14689890525E+03  0.00000000000E+00 0.  1.
         21   -1    0    0  501  503 -0.00000000000E+00 -0.00000000000E+00 -0.37714702142E+03  0.37714702142E+03  0.00000000000E+00 0. -1.
          6    1    1    2  501    0 -0.58814598942E+02 -0.93086323379E+02 -0.24539395813E+03  0.31925916641E+03  0.17200000000E+03 0. -1.
         -6    1    1    2    0  502  0.58814598942E+02  0.93086323379E+02  0.15145841954E+02  0.20478676026E+03  0.17200000000E+03 0.  1.
</event>
<event>
 4    1  0.5718861E+000  0.3423108E+03  0.7818608E-02  0.1065816E+00
         21   -1    0    0  501  502  0.00000000000E+00  0.00000000000E+00  0.24140051041E+03  0.24140051041E+03  0.00000000000E+00 0.  1.
         21   -1    0    0  502  503 -0.00000000000E+00 -0.00000000000E+00 -0.65145151792E+03  0.65145151792E+03  0.00000000000E+00 0.  1.
          6    1    1    2  501    0  0.14007421249E+03  0.26071419130E+03  0.20359581298E+02  0.34291571428E+03  0.17200000000E+03 0.  1.
         -6    1    1    2    0  503 -0.14007421249E+03 -0.26071419130E+03 -0.43041058881E+03  0.54993631405E+03  0.17200000000E+03 0.  1.
</event>
<event>
 4    1  0.5718861E+000  0.1883866E+03  0.7818608E-02  0.1159925E+00
         21   -1    0    0  501  502  0.00000000000E+00  0.00000000000E+00  0.57314593120E+02  0.57314593120E+02  0.00000000000E+00 0.  1.
         21   -1    0    0  502  503 -0.00000000000E+00 -0.00000000000E+00 -0.62141453445E+03  0.62141453445E+03  0.00000000000E+00 0.  1.
          6    1    1    2  501    0  0.49184815049E+02 -0.59045542169E+02 -0.30228288880E+03  0.35618038540E+03  0.17200000000E+03 0.  1.
         -6    1    1    2    0  503 -0.49184815049E+02  0.59045542169E+02 -0.26181705253E+03  0.32254874217E+03  0.17200000000E+03 0.  1.
</event>
<event>
 4    1  0.5718861E+000  0.2113509E+03  0.7818608E-02  0.1140501E+00
         21   -1    0    0  503  502  0.00000000000E+00  0.00000000000E+00  0.27618053142E+03  0.27618053142E+03  0.00000000000E+00 0.  1.
         21   -1    0    0  501  503 -0.00000000000E+00 -0.00000000000E+00 -0.17563801540E+03  0.17563801540E+03  0.00000000000E+00 0.  1.
          6    1    1    2  501    0 -0.12140677735E+03 -0.18589682452E+02 -0.13278770049E+02  0.21176757923E+03  0.17200000000E+03 0.  1.
         -6    1    1    2    0  502  0.12140677735E+03  0.18589682452E+02  0.11382128607E+03  0.24005096759E+03  0.17200000000E+03 0.  1.
</event>
<event>
 4    1  0.5718861E+000  0.1757171E+03  0.7818608E-02  0.1172014E+00
         21   -1    0    0  501  502  0.00000000000E+00  0.00000000000E+00  0.35374226012E+03  0.35374226012E+03  0.00000000000E+00 0. -1.
         21   -1    0    0  502  503 -0.00000000000E+00 -0.00000000000E+00 -0.41653957087E+03  0.41653957087E+03  0.00000000000E+00 0. -1.
          6    1    1    2  501    0 -0.12827053971E+02  0.33585141975E+02  0.31101986173E+03  0.35722520833E+03  0.17200000000E+03 0. -1.
         -6    1    1    2    0  503  0.12827053971E+02 -0.33585141975E+02 -0.37381717248E+03  0.41305662265E+03  0.17200000000E+03 0. -1.
</event>
<event>
 4    1  0.5718861E+000  0.2365928E+03  0.7818608E-02  0.1122084E+00
         21   -1    0    0  503  502  0.00000000000E+00  0.00000000000E+00  0.10448458025E+04  0.10448458025E+04  0.00000000000E+00 0.  1.
         21   -1    0    0  501  503 -0.00000000000E+00 -0.00000000000E+00 -0.61244084636E+02  0.61244084636E+02  0.00000000000E+00 0.  1.
          6    1    1    2  501    0 -0.44698382297E+02 -0.15618640468E+03  0.29607865467E+03  0.37899697642E+03  0.17200000000E+03 0.  1.
         -6    1    1    2    0  502  0.44698382297E+02  0.15618640468E+03  0.68752306317E+03  0.72709291069E+03  0.17200000000E+03 0.  1.
</event>
<event>
 4    1  0.5718861E+000  0.2680499E+03  0.7818608E-02  0.1102401E+00
         21   -1    0    0  501  502  0.00000000000E+00  0.00000000000E+00  0.51468128670E+03  0.51468128670E+03  0.00000000000E+00 0.  1.
         21   -1    0    0  502  503 -0.00000000000E+00 -0.00000000000E+00 -0.16976401386E+03  0.16976401386E+03  0.00000000000E+00 0. -1.
          6    1    1    2  501    0 -0.17104137249E+03  0.11406850083E+03  0.31670762781E+03  0.41491504612E+03  0.17200000000E+03 0.  1.
         -6    1    1    2    0  503  0.17104137249E+03 -0.11406850083E+03  0.28209645036E+02  0.26953025444E+03  0.17200000000E+03 0. -1.
</event>
<event>
 4    1  0.5718861E+000  0.1799323E+03  0.7818608E-02  0.1167869E+00
         21   -1    0    0  501  502  0.00000000000E+00  0.00000000000E+00  0.10130354299E+03  0.10130354299E+03  0.00000000000E+00 0.  1.
         21   -1    0    0  502  503 -0.00000000000E+00 -0.00000000000E+00 -0.47957256137E+03  0.47957256137E+03  0.00000000000E+00 0. -1.
          6    1    1    2  501    0 -0.47069516413E+02  0.24001988504E+02 -0.21384636655E+02  0.18119861344E+03  0.17200000000E+03 0.  1.
         -6    1    1    2    0  503  0.47069516413E+02 -0.24001988504E+02 -0.35688438173E+03  0.39967749092E+03  0.17200000000E+03 0. -1.
</event>
<event>
 4    1  0.5718861E+000  0.1899908E+03  0.7818608E-02  0.1158470E+00
         21   -1    0    0  503  502  0.00000000000E+00  0.00000000000E+00  0.18227235153E+04  0.18227235153E+04  0.00000000000E+00 0.  1.
         21   -1    0    0  501  503 -0.00000000000E+00 -0.00000000000E+00 -0.27077859216E+02  0.27077859216E+02  0.00000000000E+00 0.  1.
          6    1    1    2  501    0  0.60214416210E+02  0.53728361200E+02  0.41844062030E+03  0.45955311492E+03  0.17200000000E+03 0.  1.
         -6    1    1    2    0  502 -0.60214416210E+02 -0.53728361200E+02  0.13772050358E+04  0.13902482596E+04  0.17200000000E+03 0.  1.
</event>
<event>
 4    1  0.5718861E+000  0.1753772E+03  0.7818608E-02  0.1172353E+00
         21   -1    0    0  501  502  0.00000000000E+00  0.00000000000E+00  0.21205312414E+02  0.21205312414E+02  0.00000000000E+00 0. -1.
         21   -1    0    0  502  503 -0.00000000000E+00 -0.00000000000E+00 -0.16500709173E+04  0.16500709173E+04  0.00000000000E+00 0. -1.
          6    1    1    2  501    0 -0.15654813870E+02  0.30464824978E+02 -0.52378076120E+03  0.55236171533E+03  0.17200000000E+03 0. -1.
         -6    1    1    2    0  503  0.15654813870E+02 -0.30464824978E+02 -0.11050848437E+04  0.11189145144E+04  0.17200000000E+03 0. -1.
</event>
<event>
 4    1  0.5718861E+000  0.1793669E+03  0.7818608E-02  0.1168417E+00
         21   -1    0    0  501  502  0.00000000000E+00  0.00000000000E+00  0.22054102767E+03  0.22054102767E+03  0.00000000000E+00 0.  1.
         21   -1    0    0  502  503 -0.00000000000E+00 -0.00000000000E+00 -0.16449628279E+03  0.16449628279E+03  0.00000000000E+00 0.  1.
          6    1    1    2  501    0 -0.50080104223E+02 -0.89701067182E+01  0.92787863607E+02  0.20194570381E+03  0.17200000000E+03 0.  1.
         -6    1    1    2    0  503  0.50080104223E+02  0.89701067182E+01 -0.36743118727E+02  0.18309160665E+03  0.17200000000E+03 0.  1.
</event>
<event>
 4    1  0.5718861E+000  0.2623858E+03  0.7818608E-02  0.1105718E+00
         21   -1    0    0  501  502  0.00000000000E+00  0.00000000000E+00  0.36430011689E+03  0.36430011689E+03  0.00000000000E+00 0.  1.
         21   -1    0    0  502  503 -0.00000000000E+00 -0.00000000000E+00 -0.18952823552E+03  0.18952823552E+03  0.00000000000E+00 0.  1.
          6    1    1    2  501    0 -0.16219451183E+03  0.11382105374E+03  0.10224732592E+03  0.28160399074E+03  0.17200000000E+03 0.  1.
         -6    1    1    2    0  503  0.16219451183E+03 -0.11382105374E+03  0.72524555454E+02  0.27222436167E+03  0.17200000000E+03 0.  1.
</event>
<event>
 4    1  0.5718861E+000  0.2339435E+03  0.7818608E-02  0.1123895E+00
         21   -1    0    0  501  502  0.00000000000E+00  0.00000000000E+00  0.10825063394E+04  0.10825063394E+04  0.00000000000E+00 0.  1.
         21   -1    0    0  502  503 -0.00000000000E+00 -0.00000000000E+00 -0.52549841643E+02  0.52549841643E+02  0.00000000000E+00 0.  1.
          6    1    1    2  501    0  0.70644088044E+02 -0.14196825901E+03  0.62546420564E+03  0.66778368225E+03  0.17200000000E+03 0.  1.
         -6    1    1    2    0  503 -0.70644088044E+02  0.14196825901E+03  0.40449229207E+03  0.46727249874E+03  0.17200000000E+03 0.  1.
</event>
<event>
 4    1  0.5718861E+000  0.1831168E+03  0.7818608E-02  0.1164820E+00
         21   -1    0    0  501  502  0.00000000000E+00  0.00000000000E+00  0.44945684877E+02  0.44945684877E+02  0.00000000000E+00 0.  1.
         21   -1    0    0  502  503 -0.00000000000E+00 -0.00000000000E+00 -0.79702353598E+03  0.79702353598E+03  0.00000000000E+00 0.  1.
          6    1    1    2  501    0 -0.29663657997E+02 -0.55388142737E+02 -0.48250180703E+03  0.51608116876E+03  0.17200000000E+03 0. -1.
         -6    1    1    2    0  503  0.29663657997E+02  0.55388142737E+02 -0.26957604407E+03  0.32588805210E+03  0.17200000000E+03 0. -1.
</event>
<event>
 4    1  0.5718861E+000  0.2019090E+03  0.7818608E-02  0.1148138E+00
         21   -1    0    0  501  502  0.00000000000E+00  0.00000000000E+00  0.47438696360E+02  0.47438696360E+02  0.00000000000E+00 0.  1.
         21   -1    0    0  502  503 -0.00000000000E+00 -0.00000000000E+00 -0.13094923933E+04  0.13094923933E+04  0.00000000000E+00 0.  1.
          6    1    1    2  501    0 -0.47155459384E+02 -0.94655299876E+02 -0.23324685858E+03  0.30849855782E+03  0.17200000000E+03 0.  1.
         -6    1    1    2    0  503  0.47155459384E+02  0.94655299876E+02 -0.10288068383E+04  0.10484325318E+04  0.17200000000E+03 0.  1.
</event>
<event>
 4    1  0.5718861E+000  0.1818550E+03  0.7818608E-02  0.1166020E+00
         21   -1    0    0  501  502  0.00000000000E+00  0.00000000000E+00  0.36841177880E+02  0.36841177880E+02  0.00000000000E+00 0. -1.
         21   -1    0    0  502  503 -0.00000000000E+00 -0.00000000000E+00 -0.92864783548E+03  0.92864783548E+03  0.00000000000E+00 0. -1.
          6    1    1    2  501    0  0.13907452740E+02  0.57391845528E+02 -0.35773484981E+03  0.40130470212E+03  0.17200000000E+03 0. -1.
         -6    1    1    2    0  503 -0.13907452740E+02 -0.57391845528E+02 -0.53407180779E+03  0.56418431124E+03  0.17200000000E+03 0. -1.
</event>
<event>
 4    1  0.5718861E+000  0.1882691E+03  0.7818608E-02  0.1160032E+00
         21   -1    0    0  501  502  0.00000000000E+00  0.00000000000E+00  0.18826173440E+04  0.18826173440E+04  0.00000000000E+00 0. -1.
         21   -1    0    0  502  503 -0.00000000000E+00 -0.00000000000E+00 -0.24106894035E+02  0.24106894035E+02  0.00000000000E+00 0. -1.
          6    1    1    2  501    0  0.50561782165E+02  0.57487073968E+02  0.48311313694E+03  0.51850126381E+03  0.17200000000E+03 0. -1.
         -6    1    1    2    0  503 -0.50561782165E+02 -0.57487073968E+02  0.13753973130E+04  0.13882229742E+04  0.17200000000E+03 0. -1.
</event>
<event>
 4    1  0.5718861E+000  0.2040728E+03  0.7818608E-02  0.1146348E+00
         21   -1    0    0  501  502  0.00000000000E+00  0.00000000000E+00  0.64626819393E+02  0.64626819393E+02  0.00000000000E+00 0. -1.
         21   -1    0    0  502  503 -0.00000000000E+00 -0.00000000000E+00 -0.82921670737E+03  0.82921670737E+03  0.00000000000E+00 0.  1.
          6    1    1    2  501    0  0.21523014584E+02 -0.10769621538E+03 -0.17130362090E+03  0.26644069790E+03  0.17200000000E+03 0. -1.
         -6    1    1    2    0  503 -0.21523014584E+02  0.10769621538E+03 -0.59328626708E+03  0.62740282886E+03  0.17200000000E+03 0. -1.
</event>
<event>
 4    1  0.5718861E+000  0.2521947E+03  0.7818608E-02  0.1111926E+00
         21   -1    0    0  501  502  0.00000000000E+00  0.00000000000E+00  0.47546381976E+03  0.47546381976E+03  0.00000000000E+00 0. -1.
         21   -1    0    0  502  503 -0.00000000000E+00 -0.00000000000E+00 -0.13403889780E+03  0.13403889780E+03  0.00000000000E+00 0.  1.
          6    1    1    2  501    0 -0.35574662587E+02  0.18097681937E+03  0.18439574140E+03  0.31241631714E+03  0.17200000000E+03 0. -1.
         -6    1    1    2    0  503  0.35574662587E+02 -0.18097681937E+03  0.15702918055E+03  0.29708640042E+03  0.17200000000E+03 0. -1.
</event>
<event>
 4    1  0.5718861E+000  0.2123642E+03  0.7818608E-02  0.1139707E+00
         21   -1    0    0  503  502  0.00000000000E+00  0.00000000000E+00  0.19547839385E+03  0.19547839385E+03  0.00000000000E+00 0. -1.
         21   -1    0    0  501  503 -0.00000000000E+00 -0.00000000000E+00 -0.26216054345E+03  0.26216054345E+03  0.00000000000E+00 0. -1.
          6    1    1    2  501    0 -0.12448691966E+03 -0.41923796196E+01 -0.11259709342E+03  0.24036779039E+03  0.17200000000E+03 0. -1.
         -6    1    1    2    0  502  0.12448691966E+03  0.41923796196E+01  0.45914943813E+02  0.21727114691E+03  0.17200000000E+03 0. -1.
</event>
<event>
 4    1  0.5718861E+000  0.2609366E+03  0.7818608E-02  0.1106582E+00
         21   -1    0    0  503  502  0.00000000000E+00  0.00000000000E+00  0.58379610973E+02  0.58379610973E+02  0.00000000000E+00 0. -1.
         21   -1    0    0  501  503 -0.00000000000E+00 -0.00000000000E+00 -0.19373302120E+04  0.19373302120E+04  0.00000000000E+00 0.  1.
          6    1    1    2  501    0  0.41073259334E+02 -0.19187729830E+03 -0.15689849351E+04  0.15905350159E+04  0.17200000000E+03 0.  1.
         -6    1    1    2    0  502 -0.41073259334E+02  0.19187729830E+03 -0.30996566594E+03  0.40517480709E+03  0.17200000000E+03 0. -1.
</event>
<event>
 4    1  0.5718861E+000  0.1752225E+03  0.7818608E-02  0.1172508E+00
         21   -1    0    0  501  502  0.00000000000E+00  0.00000000000E+00  0.35607807104E+03  0.35607807104E+03  0.00000000000E+00 0. -1.
         21   -1    0    0  502  503 -0.00000000000E+00 -0.00000000000E+00 -0.34196911285E+03  0.34196911285E+03  0.00000000000E+00 0.  1.
          6    1    1    2  501    0 -0.32266348779E+02 -0.88218109127E+01  0.30888552128E+03  0.35512421330E+03  0.17200000000E+03 0. -1.
         -6    1    1    2    0  503  0.32266348779E+02  0.88218109127E+01 -0.29477656309E+03  0.34292297059E+03  0.17200000000E+03 0.  1.
</event>
<event>
 4    1  0.5718861E+000  0.2465916E+03  0.7818608E-02  0.1115478E+00
         21   -1    0    0  503  502  0.00000000000E+00  0.00000000000E+00  0.15475891914E+03  0.15475891914E+03  0.00000000000E+00 0. -1.
         21   -1    0    0  501  503 -0.00000000000E+00 -0.00000000000E+00 -0.81698684595E+03  0.81698684595E+03  0.00000000000E+00 0.  1.
          6    1    1    2  501    0 -0.17390198810E+03  0.31329382971E+02 -0.68116692321E+03  0.72442791841E+03  0.17200000000E+03 0.  1.
         -6    1    1    2    0  502  0.17390198810E+03 -0.31329382971E+02  0.18938996397E+02  0.24731784668E+03  0.17200000000E+03 0. -1.
</event>
<event>
 4    1  0.5718861E+000  0.2056381E+03  0.7818608E-02  0.1145067E+00
         21   -1    0    0  503  502  0.00000000000E+00  0.00000000000E+00  0.54486132699E+03  0.54486132699E+03  0.00000000000E+00 0. -1.
         21   -1    0    0  501  503 -0.00000000000E+00 -0.00000000000E+00 -0.81788090589E+02  0.81788090589E+02  0.00000000000E+00 0. -1.
          6    1    1    2  501    0 -0.70831313637E+02  0.87669487877E+02  0.16072453204E+03  0.26099691434E+03  0.17200000000E+03 0. -1.
         -6    1    1    2    0  502  0.70831313637E+02 -0.87669487877E+02  0.30234870436E+03  0.36565250324E+03  0.17200000000E+03 0. -1.
</event>
<event>
 4    1  0.5718861E+000  0.1796207E+03  0.7818608E-02  0.1168171E+00
         21   -1    0    0  503  502  0.00000000000E+00  0.00000000000E+00  0.28364629762E+03  0.28364629762E+03  0.00000000000E+00 0. -1.
         21   -1    0    0  501  503 -0.00000000000E+00 -0.00000000000E+00 -0.38866659839E+03  0.38866659839E+03  0.00000000000E+00 0. -1.
          6    1    1    2  501    0 -0.45641933312E+02 -0.24421741703E+02 -0.33523015818E+03  0.38031942693E+03  0.17200000000E+03 0. -1.
         -6    1    1    2    0  502  0.45641933312E+02  0.24421741703E+02  0.23020985741E+03  0.29199346909E+03  0.17200000000E+03 0. -1.
</event>
<event>
 4    1  0.5718861E+000  0.3064011E+03  0.7818608E-02  0.1082084E+00
         21   -1    0    0  503  502  0.00000000000E+00  0.00000000000E+00  0.11308765067E+03  0.11308765067E+03  0.00000000000E+00 0. -1.
         21   -1    0    0  501  503 -0.00000000000E+00 -0.00000000000E+00 -0.11597406866E+04  0.11597406866E+04  0.00000000000E+00 0.  1.
          6    1    1    2  501    0  0.17626936934E+03  0.18228197088E+03 -0.86258899022E+03  0.91539137724E+03  0.17200000000E+03 0.  1.
         -6    1    1    2    0  502 -0.17626936934E+03 -0.18228197088E+03 -0.18406404573E+03  0.35743696005E+03  0.17200000000E+03 0. -1.
</event>
<event>
 4    1  0.5718861E+000  0.1902878E+03  0.7818608E-02  0.1158202E+00
         21   -1    0    0  501  502  0.00000000000E+00  0.00000000000E+00  0.57500668525E+02  0.57500668525E+02  0.00000000000E+00 0. -1.
         21   -1    0    0  502  503 -0.00000000000E+00 -0.00000000000E+00 -0.68577688151E+03  0.68577688151E+03  0.00000000000E+00 0.  1.
          6    1    1    2  501    0 -0.25454952583E+02 -0.77314123381E+02 -0.20788617395E+03  0.28182634654E+03  0.17200000000E+03 0. -1.
         -6    1    1    2    0  503  0.25454952583E+02  0.77314123381E+02 -0.42039003904E+03  0.46145120350E+03  0.17200000000E+03 0.  1.
</event>
<event>
 4    1  0.5718861E+000  0.1938510E+03  0.7818608E-02  0.1155033E+00
         21   -1    0    0  503  502  0.00000000000E+00  0.00000000000E+00  0.40002728664E+03  0.40002728664E+03  0.00000000000E+00 0. -1.
         21   -1    0    0  501  503 -0.00000000000E+00 -0.00000000000E+00 -0.27784801464E+03  0.27784801464E+03  0.00000000000E+00 0. -1.
          6    1    1    2  501    0  0.54835560134E+02  0.70620645461E+02 -0.21466163587E+03  0.28923663692E+03  0.17200000000E+03 0. -1.
         -6    1    1    2    0  502 -0.54835560134E+02 -0.70620645461E+02  0.33684090788E+03  0.38863866436E+03  0.17200000000E+03 0. -1.
</event>
<event>
 4    1  0.5718861E+000  0.2619251E+03  0.7818608E-02  0.1105992E+00
         21   -1    0    0  503  502  0.00000000000E+00  0.00000000000E+00  0.43795120442E+03  0.43795120442E+03  0.00000000000E+00 0.  1.
         21   -1    0    0  501  503 -0.00000000000E+00 -0.00000000000E+00 -0.23736297550E+03  0.23736297550E+03  0.00000000000E+00 0.  1.
          6    1    1    2  501    0  0.15495610501E+03 -0.12251262671E+03  0.29719289069E+03  0.39614183376E+03  0.17200000000E+03 0. -1.
         -6    1    1    2    0  502 -0.15495610501E+03  0.12251262671E+03 -0.96604661764E+02  0.27917234616E+03  0.17200000000E+03 0. -1.
</event>
<event>
 4    1  0.5718861E+000  0.1936592E+03  0.7818608E-02  0.1155202E+00
         21   -1    0    0  501  502  0.00000000000E+00  0.00000000000E+00  0.18237317786E+03  0.18237317786E+03  0.00000000000E+00 0.  1.
         21   -1    0    0  502  503 -0.00000000000E+00 -0.00000000000E+00 -0.30322697270E+03  0.30322697270E+03  0.00000000000E+00 0.  1.
          6    1    1    2  501    0  0.79269092977E+02  0.40451372073E+02 -0.19816449372E+03  0.27707953583E+03  0.17200000000E+03 0.  1.
         -6    1    1    2    0  503 -0.79269092977E+02 -0.40451372073E+02  0.77310698886E+02  0.20852061473E+03  0.17200000000E+03 0.  1.
</event>
<event>
 4    1  0.5718861E+000  0.1820508E+03  0.7818608E-02  0.1165833E+00
         21   -1    0    0  503  502  0.00000000000E+00  0.00000000000E+00  0.75192308240E+03  0.75192308240E+03  0.00000000000E+00 0.  1.
         21   -1    0    0  501  503 -0.00000000000E+00 -0.00000000000E+00 -0.20210818601E+03  0.20210818601E+03  0.00000000000E+00 0.  1.
          6    1    1    2  501    0  0.59644106973E+02 -0.10313899429E+01 -0.14689793359E+03  0.23392624084E+03  0.17200000000E+03 0.  1.
         -6    1    1    2    0  502 -0.59644106973E+02  0.10313899429E+01  0.69671282998E+03  0.72010502756E+03  0.17200000000E+03 0.  1.
</event>
<event>
 4    1  0.5718861E+000  0.1724512E+03  0.7818608E-02  0.1175315E+00
         21   -1    0    0  501  502  0.00000000000E+00  0.00000000000E+00  0.24869295710E+03  0.24869295710E+03  0.00000000000E+00 0.  1.
         21   -1    0    0  502  503 -0.00000000000E+00 -0.00000000000E+00 -0.29913247521E+03  0.29913247521E+03  0.00000000000E+00 0.  1.
          6    1    1    2  501    0  0.16326221548E+01  0.12359423943E+02  0.18699355302E+03  0.25437375982E+03  0.17200000000E+03 0.  1.
         -6    1    1    2    0  503 -0.16326221548E+01 -0.12359423943E+02 -0.23743307114E+03  0.29345167249E+03  0.17200000000E+03 0.  1.
</event>
<event>
 4    1  0.5718861E+000  0.1770050E+03  0.7818608E-02  0.1170733E+00
         21   -1    0    0  503  502  0.00000000000E+00  0.00000000000E+00  0.68628161910E+03  0.68628161910E+03  0.00000000000E+00 0. -1.
         21   -1    0    0  501  503 -0.00000000000E+00 -0.00000000000E+00 -0.66255023078E+02  0.66255023078E+02  0.00000000000E+00 0. -1.
          6    1    1    2  501    0 -0.41774398905E+02 -0.12921344942E+01  0.10019475226E+03  0.20339557123E+03  0.17200000000E+03 0. -1.
         -6    1    1    2    0  502  0.41774398905E+02  0.12921344942E+01  0.51983184376E+03  0.54914107095E+03  0.17200000000E+03 0. -1.
</event>
<event>
 4    1  0.5718861E+000  0.3156670E+03  0.7818608E-02  0.1077661E+00
         21   -1    0    0  501  502  0.00000000000E+00  0.00000000000E+00  0.13414015395E+03  0.13414015395E+03  0.00000000000E+00 0. -1.
         21   -1    0    0  502  503 -0.00000000000E+00 -0.00000000000E+00 -0.76240179450E+03  0.76240179450E+03  0.00000000000E+00 0. -1.
          6    1    1    2  501    0 -0.58854867251E+02 -0.25806540371E+03 -0.24233945289E+03  0.39796238317E+03  0.17200000000E+03 0. -1.
         -6    1    1    2    0  503  0.58854867251E+02  0.25806540371E+03 -0.38592218766E+03  0.49857956529E+03  0.17200000000E+03 0. -1.
</event>
<event>
 4    1  0.5718861E+000  0.1918065E+03  0.7818608E-02  0.1156842E+00
         21   -1    0    0  503  502  0.00000000000E+00  0.00000000000E+00  0.65332358845E+03  0.65332358845E+03  0.00000000000E+00 0. -1.
         21   -1    0    0  501  503 -0.00000000000E+00 -0.00000000000E+00 -0.24358316188E+03  0.24358316188E+03  0.00000000000E+00 0. -1.
          6    1    1    2  501    0 -0.33548360497E+02  0.77975913117E+02 -0.18834427590E+03  0.26881834346E+03  0.17200000000E+03 0. -1.
         -6    1    1    2    0  502  0.33548360497E+02 -0.77975913117E+02  0.59808470247E+03  0.62808840687E+03  0.17200000000E+03 0. -1.
</event>
<event>
 4    1  0.5718861E+000  0.2399174E+03  0.7818608E-02  0.1119848E+00
         21   -1    0    0  501  502  0.00000000000E+00  0.00000000000E+00  0.94763261590E+02  0.94763261590E+02  0.00000000000E+00 0.  1.
         21   -1    0    0  502  503 -0.00000000000E+00 -0.00000000000E+00 -0.60820192732E+03  0.60820192732E+03  0.00000000000E+00 0.  1.
          6    1    1    2  501    0 -0.15285168834E+03  0.67916921625E+02 -0.24405273211E+03  0.34223103735E+03  0.17200000000E+03 0.  1.
         -6    1    1    2    0  503  0.15285168834E+03 -0.67916921625E+02 -0.26938593362E+03  0.36073415157E+03  0.17200000000E+03 0.  1.
</event>
<event>
 4    1  0.5718861E+000  0.2135133E+03  0.7818608E-02  0.1138814E+00
         21   -1    0    0  501  502  0.00000000000E+00  0.00000000000E+00  0.46402252447E+03  0.46402252447E+03  0.00000000000E+00 0. -1.
         21   -1    0    0  502  503 -0.00000000000E+00 -0.00000000000E+00 -0.16737439716E+03  0.16737439716E+03  0.00000000000E+00 0. -1.
          6    1    1    2  501    0 -0.48548796846E+02  0.11682011950E+03  0.35121334905E+03  0.41102158404E+03  0.17200000000E+03 0. -1.
         -6    1    1    2    0  503  0.48548796846E+02 -0.11682011950E+03 -0.54565221737E+02  0.22037533759E+03  0.17200000000E+03 0. -1.
</event>
<event>
 4    1  0.5718861E+000  0.2429563E+03  0.7818608E-02  0.1117839E+00
         21   -1    0    0  501  502  0.00000000000E+00  0.00000000000E+00  0.22368997407E+03  0.22368997407E+03  0.00000000000E+00 0.  1.
         21   -1    0    0  502  503 -0.00000000000E+00 -0.00000000000E+00 -0.38112837343E+03  0.38112837343E+03  0.00000000000E+00 0. -1.
          6    1    1    2  501    0  0.42550238972E+01 -0.17153902090E+03  0.89010191010E+02  0.25874805318E+03  0.17200000000E+03 0.  1.
         -6    1    1    2    0  503 -0.42550238972E+01  0.17153902090E+03 -0.24644859037E+03  0.34607029433E+03  0.17200000000E+03 0. -1.
</event>
<event>
 4    1  0.5718861E+000  0.2262396E+03  0.7818608E-02  0.1129315E+00
         21   -1    0    0  501  502  0.00000000000E+00  0.00000000000E+00  0.42193209576E+02  0.42193209576E+02  0.00000000000E+00 0. -1.
         21   -1    0    0  502  503 -0.00000000000E+00 -0.00000000000E+00 -0.13668311123E+04  0.13668311123E+04  0.00000000000E+00 0. -1.
          6    1    1    2  501    0  0.64648390852E+02  0.13198838698E+03 -0.42604286006E+03  0.48238663679E+03  0.17200000000E+03 0.  1.
         -6    1    1    2    0  503 -0.64648390852E+02 -0.13198838698E+03 -0.89859504264E+03  0.92663768508E+03  0.17200000000E+03 0.  1.
</event>
<event>
 4    1  0.5718861E+000  0.1798974E+03  0.7818608E-02  0.1167902E+00
         21   -1    0    0  501  502  0.00000000000E+00  0.00000000000E+00  0.18948216901E+03  0.18948216901E+03  0.00000000000E+00 0. -1.
         21   -1    0    0  502  503 -0.00000000000E+00 -0.00000000000E+00 -0.28989583540E+03  0.28989583540E+03  0.00000000000E+00 0. -1.
          6    1    1    2  501    0 -0.58818300594E+01 -0.52387683797E+02  0.10342461113E+03  0.20750835050E+03  0.17200000000E+03 0. -1.
         -6    1    1    2    0  503  0.58818300594E+01  0.52387683797E+02 -0.20383827752E+03  0.27186965392E+03  0.17200000000E+03 0. -1.
</event>
<event>
 4    1  0.5718861E+000  0.2316993E+03  0.7818608E-02  0.1125449E+00
         21   -1    0    0  503  502  0.00000000000E+00  0.00000000000E+00  0.29320754676E+03  0.29320754676E+03  0.00000000000E+00 0. -1.
         21   -1    0    0  501  503 -0.00000000000E+00 -0.00000000000E+00 -0.18461849114E+03  0.18461849114E+03  0.00000000000E+00 0.  1.
          6    1    1    2  501    0 -0.15144660813E+03 -0.34124676493E+02  0.76004136429E+02  0.24384666783E+03  0.17200000000E+03 0.  1.
         -6    1    1    2    0  502  0.15144660813E+03  0.34124676493E+02  0.32584919195E+02  0.23397937007E+03  0.17200000000E+03 0.  1.
</event>
<event>
 4    1  0.5718861E+000  0.2301961E+03  0.7818608E-02  0.1126502E+00
         21   -1    0    0  503  502  0.00000000000E+00  0.00000000000E+00  0.85345754585E+03  0.85345754585E+03  0.00000000000E+00 0.  1.
         21   -1    0    0  501  503 -0.00000000000E+00 -0.00000000000E+00 -0.79349141850E+02  0.79349141850E+02  0.00000000000E+00 0.  1.
          6    1    1    2  501    0  0.12741349505E+03 -0.84687954821E+02  0.16952685866E+03  0.28588389990E+03  0.17200000000E+03 0. -1.
         -6    1    1    2    0  502 -0.12741349505E+03  0.84687954821E+02  0.60458154534E+03  0.64692278780E+03  0.17200000000E+03 0. -1.
</event>
<event>
 4    1  0.5718861E+000  0.1808250E+03  0.7818608E-02  0.1167007E+00
         21   -1    0    0  501  502  0.00000000000E+00  0.00000000000E+00  0.23262651245E+02  0.23262651245E+02  0.00000000000E+00 0.  1.
         21   -1    0    0  502  503 -0.00000000000E+00 -0.00000000000E+00 -0.25844157869E+04  0.25844157869E+04  0.00000000000E+00 0.  1.
          6    1    1    2  501    0 -0.45493362618E+02 -0.32311343399E+02 -0.39999761099E+03  0.43897124934E+03  0.17200000000E+03 0.  1.
         -6    1    1    2    0  503  0.45493362618E+02  0.32311343399E+02 -0.21611555247E+04  0.21687071888E+04  0.17200000000E+03 0.  1.
</event>
<event>
 4    1  0.5718861E+000  0.2041806E+03  0.7818608E-02  0.1146259E+00
         21   -1    0    0  503  502  0.00000000000E+00  0.00000000000E+00  0.14289708362E+03  0.14289708362E+03  0.00000000000E+00 0.  1.
         21   -1    0    0  501  503 -0.00000000000E+00 -0.00000000000E+00 -0.32818712150E+03  0.32818712150E+03  0.00000000000E+00 0. -1.
          6    1    1    2  501    0 -0.10677919760E+03  0.26531365919E+02 -0.14157385508E+02  0.20467081371E+03  0.17200000000E+03 0. -1.
         -6    1    1    2    0  502  0.10677919760E+03 -0.26531365919E+02 -0.17113265237E+03  0.26641339142E+03  0.17200000000E+03 0.  1.
</event>
<event>
 4    1  0.5718861E+000  0.2005486E+03  0.7818608E-02  0.1149277E+00
         21   -1    0    0  503  502  0.00000000000E+00  0.00000000000E+00  0.23428977820E+02  0.23428977820E+02  0.00000000000E+00 0.  1.
         21   -1    0    0  501  503 -0.00000000000E+00 -0.00000000000E+00 -0.18221072606E+04  0.18221072606E+04  0.00000000000E+00 0. -1.
          6    1    1    2  501    0 -0.15277059722E+02  0.10199195731E+03 -0.67736146504E+03  0.70642643087E+03  0.17200000000E+03 0. -1.
         -6    1    1    2    0  502  0.15277059722E+02 -0.10199195731E+03 -0.11213168177E+04  0.11391098075E+04  0.17200000000E+03 0.  1.
</event>
<event>
 4    1  0.5718861E+000  0.1823922E+03  0.7818608E-02  0.1165508E+00
         21   -1    0    0  503  502  0.00000000000E+00  0.00000000000E+00  0.83795695925E+02  0.83795695925E+02  0.00000000000E+00 0. -1.
         21   -1    0    0  501  503 -0.00000000000E+00 -0.00000000000E+00 -0.40048566219E+03  0.40048566219E+03  0.00000000000E+00 0. -1.
          6    1    1    2  501    0 -0.83271478654E+01 -0.60112910912E+02 -0.13575541796E+03  0.22736850476E+03  0.17200000000E+03 0. -1.
         -6    1    1    2    0  502  0.83271478654E+01  0.60112910912E+02 -0.18093454830E+03  0.25691285335E+03  0.17200000000E+03 0. -1.
</event>
<event>
 4    1  0.5718861E+000  0.1915405E+03  0.7818608E-02  0.1157079E+00
         21   -1    0    0  501  502  0.00000000000E+00  0.00000000000E+00  0.45352280229E+03  0.45352280229E+03  0.00000000000E+00 0.  1.
         21   -1    0    0  502  503 -0.00000000000E+00 -0.00000000000E+00 -0.84327325549E+02  0.84327325549E+02  0.00000000000E+00 0.  1.
          6    1    1    2  501    0  0.81222061319E+02 -0.22511120884E+02  0.23885212234E+03  0.30616680120E+03  0.17200000000E+03 0.  1.
         -6    1    1    2    0  503 -0.81222061319E+02  0.22511120884E+02  0.13034335440E+03  0.23168332664E+03  0.17200000000E+03 0.  1.
</event>
<event>
 4    1  0.5718861E+000  0.1746067E+03  0.7818608E-02  0.1173127E+00
         21   -1    0    0  503  502  0.00000000000E+00  0.00000000000E+00  0.25358381580E+03  0.25358381580E+03  0.00000000000E+00 0.  1.
         21   -1    0    0  501  503 -0.00000000000E+00 -0.00000000000E+00 -0.23487232334E+03  0.23487232334E+03  0.00000000000E+00 0. -1.
          6    1    1    2  501    0 -0.16601574818E+02  0.25057785146E+02 -0.16127555277E+03  0.23769162544E+03  0.17200000000E+03 0. -1.
         -6    1    1    2    0  502  0.16601574818E+02 -0.25057785146E+02  0.17998704523E+03  0.25076451370E+03  0.17200000000E+03 0.  1.
</event>
<event>
 4    1  0.5718861E+000  0.1737411E+03  0.7818608E-02  0.1174002E+00
         21   -1    0    0  501  502  0.00000000000E+00  0.00000000000E+00  0.78092423815E+02  0.78092423815E+02  0.00000000000E+00 0.  1.
         21   -1    0    0  502  503 -0.00000000000E+00 -0.00000000000E+00 -0.40098628509E+03  0.40098628509E+03  0.00000000000E+00 0.  1.
          6    1    1    2  501    0 -0.17898046223E+02 -0.16781615751E+02 -0.11598293001E+03  0.20889711041E+03  0.17200000000E+03 0. -1.
         -6    1    1    2    0  503  0.17898046223E+02  0.16781615751E+02 -0.20691093127E+03  0.27018159849E+03  0.17200000000E+03 0. -1.
</event>
<event>
 4    1  0.5718861E+000  0.2329366E+03  0.7818608E-02  0.1124590E+00
         21   -1    0    0  503  502  0.00000000000E+00  0.00000000000E+00  0.92504015769E+02  0.92504015769E+02  0.00000000000E+00 0. -1.
         21   -1    0    0  501  503 -0.00000000000E+00 -0.00000000000E+00 -0.82225136161E+03  0.82225136161E+03  0.00000000000E+00 0.  1.
          6    1    1    2  501    0 -0.11817173975E+03  0.10349337973E+03 -0.60974710972E+03  0.65272580578E+03  0.17200000000E+03 0. -1.
         -6    1    1    2    0  502  0.11817173975E+03 -0.10349337973E+03 -0.12000023612E+03  0.26202957160E+03  0.17200000000E+03 0.  1.
</event>
<event>
 4    1  0.5718861E+000  0.5273643E+03  0.7818608E-02  0.1006873E+00
         21   -1    0    0  501  502  0.00000000000E+00  0.00000000000E+00  0.10111296135E+04  0.10111296135E+04  0.00000000000E+00 0. -1.
         21   -1    0    0  502  503 -0.00000000000E+00 -0.00000000000E+00 -0.31674370816E+03  0.31674370816E+03  0.00000000000E+00 0.  1.
          6    1    1    2  501    0  0.21460963198E+03  0.44996866184E+03  0.58807152831E+03  0.78989949562E+03  0.17200000000E+03 0. -1.
         -6    1    1    2    0  503 -0.21460963198E+03 -0.44996866184E+03  0.10631437708E+03  0.53797382608E+03  0.17200000000E+03 0.  1.
</event>
<event>
 4    1  0.5718861E+000  0.1736015E+03  0.7818608E-02  0.1174143E+00
         21   -1    0    0  501  502  0.00000000000E+00  0.00000000000E+00  0.42712318165E+03  0.42712318165E+03  0.00000000000E+00 0. -1.
         21   -1    0    0  502  503 -0.00000000000E+00 -0.00000000000E+00 -0.79891459353E+02  0.79891459353E+02  0.00000000000E+00 0. -1.
          6    1    1    2  501    0 -0.23414635810E+02  0.22871889300E+01  0.26025884070E+03  0.31284523420E+03  0.17200000000E+03 0. -1.
         -6    1    1    2    0  503  0.23414635810E+02 -0.22871889300E+01  0.86972881603E+02  0.19416940680E+03  0.17200000000E+03 0. -1.
</event>
<event>
 4    1  0.5718861E+000  0.1815302E+03  0.7818608E-02  0.1166330E+00
         21   -1    0    0  503  502  0.00000000000E+00  0.00000000000E+00  0.15576580715E+03  0.15576580715E+03  0.00000000000E+00 0.  1.
         21   -1    0    0  501  503 -0.00000000000E+00 -0.00000000000E+00 -0.21280612159E+03  0.21280612159E+03  0.00000000000E+00 0.  1.
          6    1    1    2  501    0 -0.54819554284E+02 -0.19079544134E+02 -0.42643985216E+02  0.18647177269E+03  0.17200000000E+03 0.  1.
         -6    1    1    2    0  502  0.54819554284E+02  0.19079544134E+02 -0.14396329225E+02  0.18210015604E+03  0.17200000000E+03 0.  1.
</event>
<event>
 4    1  0.5718861E+000  0.4205160E+03  0.7818608E-02  0.1036898E+00
         21   -1    0    0  503  502  0.00000000000E+00  0.00000000000E+00  0.10256760635E+04  0.10256760635E+04  0.00000000000E+00 0.  1.
         21   -1    0    0  501  503 -0.00000000000E+00 -0.00000000000E+00 -0.31769373670E+03  0.31769373670E+03  0.00000000000E+00 0. -1.
          6    1    1    2  501    0  0.27724817655E+03  0.26529831649E+03 -0.10023717072E+03  0.43229762725E+03  0.17200000000E+03 0. -1.
         -6    1    1    2    0  502 -0.27724817655E+03 -0.26529831649E+03  0.80821949754E+03  0.91107217295E+03  0.17200000000E+03 0.  1.
</event>
<event>
 4    1  0.5718861E+000  0.2912038E+03  0.7818608E-02  0.1089722E+00
         21   -1    0    0  501  502  0.00000000000E+00  0.00000000000E+00  0.64102436914E+03  0.64102436914E+03  0.00000000000E+00 0. -1.
         21   -1    0    0  502  503 -0.00000000000E+00 -0.00000000000E+00 -0.25997885860E+03  0.25997885860E+03  0.00000000000E+00 0. -1.
          6    1    1    2  501    0  0.22997807744E+03  0.48225862946E+02 -0.12520133506E+03  0.31697795548E+03  0.17200000000E+03 0. -1.
         -6    1    1    2    0  503 -0.22997807744E+03 -0.48225862946E+02  0.50624684560E+03  0.58402527226E+03  0.17200000000E+03 0. -1.
</event>
<event>
 4    1  0.5718861E+000  0.1924176E+03  0.7818608E-02  0.1156299E+00
         21   -1    0    0  501  502  0.00000000000E+00  0.00000000000E+00  0.35630333985E+03  0.35630333985E+03  0.00000000000E+00 0.  1.
         21   -1    0    0  502  503 -0.00000000000E+00 -0.00000000000E+00 -0.16222644902E+03  0.16222644902E+03  0.00000000000E+00 0.  1.
          6    1    1    2  501    0 -0.18862369511E+02 -0.84170995315E+02  0.25248005537E+03  0.31744404829E+03  0.17200000000E+03 0.  1.
         -6    1    1    2    0  503  0.18862369511E+02  0.84170995315E+02 -0.58403164540E+02  0.20108574058E+03  0.17200000000E+03 0.  1.
</event>
<event>
 4    1  0.5718861E+000  0.1960428E+03  0.7818608E-02  0.1153121E+00
         21   -1    0    0  501  502  0.00000000000E+00  0.00000000000E+00  0.18437141024E+03  0.18437141024E+03  0.00000000000E+00 0. -1.
         21   -1    0    0  502  503 -0.00000000000E+00 -0.00000000000E+00 -0.21429914078E+03  0.21429914078E+03  0.00000000000E+00 0. -1.
          6    1    1    2  501    0  0.63354215379E+00  0.94065741549E+02  0.17959959879E+02  0.19686372258E+03  0.17200000000E+03 0. -1.
         -6    1    1    2    0  503 -0.63354215379E+00 -0.94065741549E+02 -0.47887690419E+02  0.20180682843E+03  0.17200000000E+03 0. -1.
</event>
<event>
 4    1  0.5718861E+000  0.2407487E+03  0.7818608E-02  0.1119295E+00
         21   -1    0    0  503  502  0.00000000000E+00  0.00000000000E+00  0.47288399343E+03  0.47288399343E+03  0.00000000000E+00 0.  1.
         21   -1    0    0  501  503 -0.00000000000E+00 -0.00000000000E+00 -0.14405504483E+03  0.14405504483E+03  0.00000000000E+00 0.  1.
          6    1    1    2  501    0  0.59017514475E+02  0.15777474648E+03  0.45277322162E+02  0.24496933184E+03  0.17200000000E+03 0.  1.
         -6    1    1    2    0  502 -0.59017514475E+02 -0.15777474648E+03  0.28355162643E+03  0.37196970642E+03  0.17200000000E+03 0.  1.
</event>
<event>
 4    1  0.5718861E+000  0.1896071E+03  0.7818608E-02  0.1158816E+00
         21   -1    0    0  501  502  0.00000000000E+00  0.00000000000E+00  0.12522524274E+03  0.12522524274E+03  0.00000000000E+00 0. -1.
         21   -1    0    0  502  503 -0.00000000000E+00 -0.00000000000E+00 -0.28902944170E+03  0.28902944170E+03  0.00000000000E+00 0. -1.
          6    1    1    2  501    0 -0.59140152777E+02  0.53565800320E+02 -0.64932935237E+02  0.20041741120E+03  0.17200000000E+03 0. -1.
         -6    1    1    2    0  503  0.59140152777E+02 -0.53565800320E+02 -0.98871263721E+02  0.21383727323E+03  0.17200000000E+03 0. -1.
</event>
<event>
 4    1  0.5718861E+000  0.1881741E+03  0.7818608E-02  0.1160119E+00
         21   -1    0    0  503  502  0.00000000000E+00  0.00000000000E+00  0.53457831587E+03  0.53457831587E+03  0.00000000000E+00 0. -1.
         21   -1    0    0  501  503 -0.00000000000E+00 -0.00000000000E+00 -0.10705816758E+03  0.10705816758E+03  0.00000000000E+00 0. -1.
          6    1    1    2  501    0  0.73037994319E+02 -0.22157613020E+02  0.15659630066E+02  0.18882460762E+03  0.17200000000E+03 0. -1.
         -6    1    1    2    0  502 -0.73037994319E+02  0.22157613020E+02  0.41186051822E+03  0.45281187583E+03  0.17200000000E+03 0. -1.
</event>
<event>
 4    1  0.5718861E+000  0.2716257E+03  0.7818608E-02  0.1100353E+00
         21   -1    0    0  503  502  0.00000000000E+00  0.00000000000E+00  0.25444772394E+03  0.25444772394E+03  0.00000000000E+00 0. -1.
         21   -1    0    0  501  503 -0.00000000000E+00 -0.00000000000E+00 -0.35293497581E+03  0.35293497581E+03  0.00000000000E+00 0.  1.
          6    1    1    2  501    0 -0.20038765766E+03  0.63571260626E+02 -0.17752318846E+03  0.32449191201E+03  0.17200000000E+03 0.  1.
         -6    1    1    2    0  502  0.20038765766E+03 -0.63571260626E+02  0.79035936578E+02  0.28289078774E+03  0.17200000000E+03 0. -1.
</event>
<event>
 4    1  0.5718861E+000  0.1833998E+03  0.7818608E-02  0.1164553E+00
         21   -1    0    0  501  502  0.00000000000E+00  0.00000000000E+00  0.44503840938E+03  0.44503840938E+03  0.00000000000E+00 0.  1.
         21   -1    0    0  502  503 -0.00000000000E+00 -0.00000000000E+00 -0.92172737513E+02  0.92172737513E+02  0.00000000000E+00 0.  1.
          6    1    1    2  501    0 -0.77624544976E+00  0.63646593058E+02  0.29040212585E+03  0.34346598968E+03  0.17200000000E+03 0.  1.
         -6    1    1    2    0  503  0.77624544976E+00 -0.63646593058E+02  0.62463546017E+02  0.19374515722E+03  0.17200000000E+03 0.  1.
</event>
<event>
 4    1  0.5718861E+000  0.3503840E+03  0.7818608E-02  0.1062458E+00
         21   -1    0    0  503  502  0.00000000000E+00  0.00000000000E+00  0.23103610990E+03  0.23103610990E+03  0.00000000000E+00 0. -1.
         21   -1    0    0  501  503 -0.00000000000E+00 -0.00000000000E+00 -0.69024912648E+03  0.69024912648E+03  0.00000000000E+00 0.  1.
          6    1    1    2  501    0 -0.16738610518E+03 -0.25527796310E+03 -0.45059779347E+03  0.57079533821E+03  0.17200000000E+03 0.  1.
         -6    1    1    2    0  502  0.16738610518E+03  0.25527796310E+03 -0.86152231180E+01  0.35048989817E+03  0.17200000000E+03 0. -1.
</event>
<event>
 4    1  0.5718861E+000  0.1795736E+03  0.7818608E-02  0.1168216E+00
         21   -1    0    0  503  502  0.00000000000E+00  0.00000000000E+00  0.70404684178E+03  0.70404684178E+03  0.00000000000E+00 0. -1.
         21   -1    0    0  501  503 -0.00000000000E+00 -0.00000000000E+00 -0.16762573582E+03  0.16762573582E+03  0.00000000000E+00 0. -1.
          6    1    1    2  501    0  0.50331208040E+02  0.11376864113E+02 -0.10334112202E+03  0.20718603003E+03  0.17200000000E+03 0. -1.
         -6    1    1    2    0  502 -0.50331208040E+02 -0.11376864113E+02  0.63976222799E+03  0.66448654757E+03  0.17200000000E+03 0. -1.
</event>
<event>
 4    1  0.5718861E+000  0.1898396E+03  0.7818608E-02  0.1158606E+00
         21   -1    0    0  503  502  0.00000000000E+00  0.00000000000E+00  0.12842784230E+03  0.12842784230E+03  0.00000000000E+00 0.  1.
         21   -1    0    0  501  503 -0.00000000000E+00 -0.00000000000E+00 -0.53853065800E+03  0.53853065800E+03  0.00000000000E+00 0.  1.
          6    1    1    2  501    0 -0.18983614352E+02  0.78068559288E+02 -0.43583264496E+03  0.47538318436E+03  0.17200000000E+03 0.  1.
         -6    1    1    2    0  502  0.18983614352E+02 -0.78068559288E+02  0.25729829259E+02  0.19157531594E+03  0.17200000000E+03 0.  1.
</event>
<event>
 4    1  0.5718861E+000  0.2802525E+03  0.7818608E-02  0.1095551E+00
         21   -1    0    0  503  502  0.00000000000E+00  0.00000000000E+00  0.82532988726E+02  0.82532988726E+02  0.00000000000E+00 0. -1.
         21   -1    0    0  501  503 -0.00000000000E+00 -0.00000000000E+00 -0.96347740901E+03  0.96347740901E+03  0.00000000000E+00 0.  1.
          6    1    1    2  501    0 -0.13841847771E+03 -0.17262041587E+03 -0.49844982356E+03  0.57183363800E+03  0.17200000000E+03 0.  1.
         -6    1    1    2    0  502  0.13841847771E+03  0.17262041587E+03 -0.38249459672E+03  0.47417675973E+03  0.17200000000E+03 0. -1.
</event>
<event>
 4    1  0.5718861E+000  0.2032921E+03  0.7818608E-02  0.1146991E+00
         21   -1    0    0  501  502  0.00000000000E+00  0.00000000000E+00  0.92294489548E+03  0.92294489548E+03  0.00000000000E+00 0. -1.
         21   -1    0    0  502  503 -0.00000000000E+00 -0.00000000000E+00 -0.49414838663E+02  0.49414838663E+02  0.00000000000E+00 0. -1.
          6    1    1    2  501    0 -0.91554688782E+02 -0.57977674268E+02  0.58569324114E+03  0.61997116422E+03  0.17200000000E+03 0. -1.
         -6    1    1    2    0  503  0.91554688782E+02  0.57977674268E+02  0.28783681568E+03  0.35238856993E+03  0.17200000000E+03 0. -1.
</event>
<event>
 4    1  0.5718861E+000  0.1800681E+03  0.7818608E-02  0.1167737E+00
         21   -1    0    0  501  502  0.00000000000E+00  0.00000000000E+00  0.46937612675E+02  0.46937612675E+02  0.00000000000E+00 0. -1.
         21   -1    0    0  502  503 -0.00000000000E+00 -0.00000000000E+00 -0.10108953468E+04  0.10108953468E+04  0.00000000000E+00 0. -1.
          6    1    1    2  501    0 -0.11189170715E+02 -0.52108768435E+02 -0.18435112214E+03  0.25770110113E+03  0.17200000000E+03 0. -1.
         -6    1    1    2    0  503  0.11189170715E+02  0.52108768435E+02 -0.77960661202E+03  0.80013185838E+03  0.17200000000E+03 0. -1.
</event>
<event>
 4    1  0.5718861E+000  0.2434478E+03  0.7818608E-02  0.1117517E+00
         21   -1    0    0  503  502  0.00000000000E+00  0.00000000000E+00  0.87517053678E+02  0.87517053678E+02  0.00000000000E+00 0.  1.
         21   -1    0    0  501  503 -0.00000000000E+00 -0.00000000000E+00 -0.20508928876E+04  0.20508928876E+04  0.00000000000E+00 0. -1.
          6    1    1    2  501    0  0.26228097688E+01 -0.17226705817E+03 -0.18567398273E+04  0.18726317323E+04  0.17200000000E+03 0. -1.
         -6    1    1    2    0  502 -0.26228097688E+01  0.17226705817E+03 -0.10663600660E+03  0.26577820897E+03  0.17200000000E+03 0.  1.
</event>
<event>
 4    1  0.5718861E+000  0.2811757E+03  0.7818608E-02  0.1095049E+00
         21   -1    0    0  501  502  0.00000000000E+00  0.00000000000E+00  0.94047826403E+03  0.94047826403E+03  0.00000000000E+00 0.  1.
         21   -1    0    0  502  503 -0.00000000000E+00 -0.00000000000E+00 -0.84849554866E+02  0.84849554866E+02  0.00000000000E+00 0. -1.
          6    1    1    2  501    0  0.77403479625E+02 -0.20852926809E+03  0.47716303911E+03  0.55384503266E+03  0.17200000000E+03 0. -1.
         -6    1    1    2    0  503 -0.77403479625E+02  0.20852926809E+03  0.37846567005E+03  0.47148278624E+03  0.17200000000E+03 0.  1.
</event>
<event>
 4    1  0.5718861E+000  0.1973580E+03  0.7818608E-02  0.1151987E+00
         21   -1    0    0  503  502  0.00000000000E+00  0.00000000000E+00  0.13377998426E+04  0.13377998426E+04  0.00000000000E+00 0. -1.
         21   -1    0    0  501  503 -0.00000000000E+00 -0.00000000000E+00 -0.38992937563E+02  0.38992937563E+02  0.00000000000E+00 0. -1.
          6    1    1    2  501    0 -0.90125478315E+02  0.35264372576E+02  0.30292476902E+03  0.36154334941E+03  0.17200000000E+03 0. -1.
         -6    1    1    2    0  502  0.90125478315E+02 -0.35264372576E+02  0.99588213604E+03  0.10152494308E+04  0.17200000000E+03 0. -1.
</event>
<event>
 4    1  0.5718861E+000  0.2412792E+03  0.7818608E-02  0.1118944E+00
         21   -1    0    0  503  502  0.00000000000E+00  0.00000000000E+00  0.10574437202E+03  0.10574437202E+03  0.00000000000E+00 0. -1.
         21   -1    0    0  501  503 -0.00000000000E+00 -0.00000000000E+00 -0.85278495638E+03  0.85278495638E+03  0.00000000000E+00 0.  1.
          6    1    1    2  501    0 -0.66652511755E+02 -0.15552848971E+03 -0.65884597833E+03  0.70163643833E+03  0.17200000000E+03 0.  1.
         -6    1    1    2    0  502  0.66652511755E+02  0.15552848971E+03 -0.88194606023E+02  0.25689289007E+03  0.17200000000E+03 0. -1.
</event>
<event>
 4    1  0.5718861E+000  0.1836030E+03  0.7818608E-02  0.1164361E+00
         21   -1    0    0  501  502  0.00000000000E+00  0.00000000000E+00  0.83393977217E+03  0.83393977217E+03  0.00000000000E+00 0. -1.
         21   -1    0    0  502  503 -0.00000000000E+00 -0.00000000000E+00 -0.52510103912E+02  0.52510103912E+02  0.00000000000E+00 0. -1.
          6    1    1    2  501    0 -0.33360568302E+02  0.54892122697E+02  0.60336699291E+03  0.63068359800E+03  0.17200000000E+03 0. -1.
         -6    1    1    2    0  503  0.33360568302E+02 -0.54892122697E+02  0.17806267534E+03  0.25576627808E+03  0.17200000000E+03 0. -1.
</event>
<event>
 4    1  0.5718861E+000  0.1734957E+03  0.7818608E-02  0.1174251E+00
         21   -1    0    0  503  502  0.00000000000E+00  0.00000000000E+00  0.82476313218E+03  0.82476313218E+03  0.00000000000E+00 0. -1.
         21   -1    0    0  501  503 -0.00000000000E+00 -0.00000000000E+00 -0.51016714216E+02  0.51016714216E+02  0.00000000000E+00 0.  1.
          6    1    1    2  501    0  0.18089091462E+02  0.13767046958E+02  0.15325901547E+03  0.23149313734E+03  0.17200000000E+03 0.  1.
         -6    1    1    2    0  502 -0.18089091462E+02 -0.13767046958E+02  0.62048740250E+03  0.64428670906E+03  0.17200000000E+03 0. -1.
</event>
<event>
 4    1  0.5718861E+000  0.1830070E+03  0.7818608E-02  0.1164924E+00
         21   -1    0    0  503  502  0.00000000000E+00  0.00000000000E+00  0.10097058954E+04  0.10097058954E+04  0.00000000000E+00 0.  1.
         21   -1    0    0  501  503 -0.00000000000E+00 -0.00000000000E+00 -0.32692228579E+03  0.32692228579E+03  0.00000000000E+00 0.  1.
          6    1    1    2  501    0 -0.14724170585E+02 -0.60751751577E+02 -0.29211203443E+03  0.34470424595E+03  0.17200000000E+03 0.  1.
         -6    1    1    2    0  502  0.14724170585E+02  0.60751751577E+02  0.97489564401E+03  0.99192393521E+03  0.17200000000E+03 0.  1.
</event>
<event>
 4    1  0.5718861E+000  0.1919013E+03  0.7818608E-02  0.1156758E+00
         21   -1    0    0  503  502  0.00000000000E+00  0.00000000000E+00  0.36071451873E+03  0.36071451873E+03  0.00000000000E+00 0. -1.
         21   -1    0    0  501  503 -0.00000000000E+00 -0.00000000000E+00 -0.16086980764E+03  0.16086980764E+03  0.00000000000E+00 0. -1.
          6    1    1    2  501    0 -0.84205883923E+02 -0.12307688773E+02 -0.57716586705E+02  0.20039290025E+03  0.17200000000E+03 0. -1.
         -6    1    1    2    0  502  0.84205883923E+02  0.12307688773E+02  0.25756129780E+03  0.32119142612E+03  0.17200000000E+03 0. -1.
</event>
<event>
 4    1  0.5718861E+000  0.1734925E+03  0.7818608E-02  0.1174254E+00
         21   -1    0    0  503  502  0.00000000000E+00  0.00000000000E+00  0.56007703544E+03  0.56007703544E+03  0.00000000000E+00 0.  1.
         21   -1    0    0  501  503 -0.00000000000E+00 -0.00000000000E+00 -0.73121424332E+02  0.73121424332E+02  0.00000000000E+00 0.  1.
          6    1    1    2  501    0  0.17813188285E+02  0.14082899259E+02  0.80488760470E+02  0.19125396281E+03  0.17200000000E+03 0.  1.
         -6    1    1    2    0  502 -0.17813188285E+02 -0.14082899259E+02  0.40646685064E+03  0.44194449697E+03  0.17200000000E+03 0.  1.
</event>
<event>
 4    1  0.5718861E+000  0.2750859E+03  0.7818608E-02  0.1098404E+00
         21   -1    0    0  503  502  0.00000000000E+00  0.00000000000E+00  0.23406920309E+03  0.23406920309E+03  0.00000000000E+00 0.  1.
         21   -1    0    0  501  503 -0.00000000000E+00 -0.00000000000E+00 -0.42132059898E+03  0.42132059898E+03  0.00000000000E+00 0.  1.
          6    1    1    2  501    0 -0.21034556705E+03  0.42930406656E+02 -0.25169361928E+03  0.37285648094E+03  0.17200000000E+03 0.  1.
         -6    1    1    2    0  502  0.21034556705E+03 -0.42930406656E+02  0.64442223380E+02  0.28253332113E+03  0.17200000000E+03 0.  1.
</event>
<event>
 4    1  0.5718861E+000  0.2090631E+03  0.7818608E-02  0.1142310E+00
         21   -1    0    0  501  502  0.00000000000E+00  0.00000000000E+00  0.44728288632E+03  0.44728288632E+03  0.00000000000E+00 0. -1.
         21   -1    0    0  502  503 -0.00000000000E+00 -0.00000000000E+00 -0.37663247205E+03  0.37663247205E+03  0.00000000000E+00 0. -1.
          6    1    1    2  501    0 -0.11880724805E+02  0.11824642851E+03 -0.31918572261E+03  0.38155850796E+03  0.17200000000E+03 0. -1.
         -6    1    1    2    0  503  0.11880724805E+02 -0.11824642851E+03  0.38983613688E+03  0.44235685040E+03  0.17200000000E+03 0. -1.
</event>
<event>
 4    1  0.5718861E+000  0.2045812E+03  0.7818608E-02  0.1145930E+00
         21   -1    0    0  501  502  0.00000000000E+00  0.00000000000E+00  0.52674148365E+03  0.52674148365E+03  0.00000000000E+00 0. -1.
         21   -1    0    0  502  503 -0.00000000000E+00 -0.00000000000E+00 -0.96835659355E+02  0.96835659355E+02  0.00000000000E+00 0. -1.
          6    1    1    2  501    0  0.11056762245E+03 -0.66525837981E+01  0.34703591198E+03  0.40284907870E+03  0.17200000000E+03 0. -1.
         -6    1    1    2    0  503 -0.11056762245E+03  0.66525837981E+01  0.82869912317E+02  0.22072806431E+03  0.17200000000E+03 0. -1.
</event>
<event>
 4    1  0.5718861E+000  0.2172303E+03  0.7818608E-02  0.1135965E+00
         21   -1    0    0  503  502  0.00000000000E+00  0.00000000000E+00  0.81440143383E+02  0.81440143383E+02  0.00000000000E+00 0.  1.
         21   -1    0    0  501  503 -0.00000000000E+00 -0.00000000000E+00 -0.60983814695E+03  0.60983814695E+03  0.00000000000E+00 0.  1.
          6    1    1    2  501    0 -0.60538011205E+02  0.11806834160E+03 -0.34137814010E+03  0.40463319022E+03  0.17200000000E+03 0.  1.
         -6    1    1    2    0  502  0.60538011205E+02 -0.11806834160E+03 -0.18701986346E+03  0.28664510011E+03  0.17200000000E+03 0.  1.
</event>
<event>
 4    1  0.5718861E+000  0.1761243E+03  0.7818608E-02  0.1171608E+00
         21   -1    0    0  501  502  0.00000000000E+00  0.00000000000E+00  0.27323184963E+03  0.27323184963E+03  0.00000000000E+00 0.  1.
         21   -1    0    0  502  503 -0.00000000000E+00 -0.00000000000E+00 -0.16342106418E+03  0.16342106418E+03  0.00000000000E+00 0.  1.
          6    1    1    2  501    0 -0.29753437587E+02 -0.23462824242E+02  0.17553879262E+03  0.24866370641E+03  0.17200000000E+03 0.  1.
         -6    1    1    2    0  503  0.29753437587E+02  0.23462824242E+02 -0.65728007176E+02  0.18798920739E+03  0.17200000000E+03 0.  1.
</event>
<event>
 4    1  0.5718861E+000  0.1868728E+03  0.7818608E-02  0.1161312E+00
         21   -1    0    0  501  502  0.00000000000E+00  0.00000000000E+00  0.29934524824E+02  0.29934524824E+02  0.00000000000E+00 0.  1.
         21   -1    0    0  502  503 -0.00000000000E+00 -0.00000000000E+00 -0.17341281099E+04  0.17341281099E+04  0.00000000000E+00 0.  1.
          6    1    1    2  501    0 -0.63936502121E+02  0.35349361013E+02 -0.34750615418E+03  0.39456555960E+03  0.17200000000E+03 0.  1.
         -6    1    1    2    0  503  0.63936502121E+02 -0.35349361013E+02 -0.13566874309E+04  0.13694970751E+04  0.17200000000E+03 0.  1.
</event>
<event>
 4    1  0.5718861E+000  0.1726638E+03  0.7818608E-02  0.1175098E+00
         21   -1    0    0  501  502  0.00000000000E+00  0.00000000000E+00  0.19254846008E+03  0.19254846008E+03  0.00000000000E+00 0.  1.
         21   -1    0    0  502  503 -0.00000000000E+00 -0.00000000000E+00 -0.28698900998E+03  0.28698900998E+03  0.00000000000E+00 0.  1.
          6    1    1    2  501    0  0.12821201545E+02 -0.80263243840E+01  0.11548581558E+03  0.20772524809E+03  0.17200000000E+03 0. -1.
         -6    1    1    2    0  503 -0.12821201545E+02  0.80263243840E+01 -0.20992636549E+03  0.27181222198E+03  0.17200000000E+03 0. -1.
</event>
<event>
 4    1  0.5718861E+000  0.3066409E+03  0.7818608E-02  0.1081967E+00
         21   -1    0    0  503  502  0.00000000000E+00  0.00000000000E+00  0.15791838248E+03  0.15791838248E+03  0.00000000000E+00 0. -1.
         21   -1    0    0  501  503 -0.00000000000E+00 -0.00000000000E+00 -0.74409386983E+03  0.74409386983E+03  0.00000000000E+00 0. -1.
          6    1    1    2  501    0 -0.24881780582E+03 -0.50342499496E+02 -0.49468171268E+03  0.58201259832E+03  0.17200000000E+03 0. -1.
         -6    1    1    2    0  502  0.24881780582E+03  0.50342499496E+02 -0.91493774673E+02  0.31999965399E+03  0.17200000000E+03 0. -1.
</event>
<event>
 4    1  0.5718861E+000  0.2161997E+03  0.7818608E-02  0.1136748E+00
         21   -1    0    0  501  502  0.00000000000E+00  0.00000000000E+00  0.63727847298E+03  0.63727847298E+03  0.00000000000E+00 0.  1.
         21   -1    0    0  502  503 -0.00000000000E+00 -0.00000000000E+00 -0.11513863517E+03  0.11513863517E+03  0.00000000000E+00 0. -1.
          6    1    1    2  501    0 -0.11878157645E+03  0.55220138306E+02  0.48772420250E+03  0.53349528984E+03  0.17200000000E+03 0.  1.
         -6    1    1    2    0  503  0.11878157645E+03 -0.55220138306E+02  0.34415635297E+02  0.21892181831E+03  0.17200000000E+03 0. -1.
</event>
<event>
 4    1  0.5718861E+000  0.2571623E+03  0.7818608E-02  0.1108860E+00
         21   -1    0    0  503  502  0.00000000000E+00  0.00000000000E+00  0.71382368561E+03  0.71382368561E+03  0.00000000000E+00 0. -1.
         21   -1    0    0  501  503 -0.00000000000E+00 -0.00000000000E+00 -0.96811776092E+02  0.96811776092E+02  0.00000000000E+00 0.  1.
          6    1    1    2  501    0  0.19065814773E+03  0.14068966091E+02  0.22442223888E+03  0.34131774992E+03  0.17200000000E+03 0.  1.
         -6    1    1    2    0  502 -0.19065814773E+03 -0.14068966091E+02  0.39258967063E+03  0.46931771178E+03  0.17200000000E+03 0.  1.
</event>
<event>
 4    1  0.5718861E+000  0.2349899E+03  0.7818608E-02  0.1123176E+00
         21   -1    0    0  503  502  0.00000000000E+00  0.00000000000E+00  0.19440806230E+03  0.19440806230E+03  0.00000000000E+00 0.  1.
         21   -1    0    0  501  503 -0.00000000000E+00 -0.00000000000E+00 -0.49198112757E+03  0.49198112757E+03  0.00000000000E+00 0. -1.
          6    1    1    2  501    0 -0.15448873738E+03  0.42065493699E+02 -0.37190377818E+03  0.43992351149E+03  0.17200000000E+03 0. -1.
         -6    1    1    2    0  502  0.15448873738E+03 -0.42065493699E+02  0.74330712907E+02  0.24646567838E+03  0.17200000000E+03 0.  1.
</event>
<event>
 4    1  0.5718861E+000  0.2071158E+03  0.7818608E-02  0.1143871E+00
         21   -1    0    0  501  502  0.00000000000E+00  0.00000000000E+00  0.23558518120E+02  0.23558518120E+02  0.00000000000E+00 0.  1.
         21   -1    0    0  502  503 -0.00000000000E+00 -0.00000000000E+00 -0.24433869728E+04  0.24433869728E+04  0.00000000000E+00 0. -1.
          6    1    1    2  501    0 -0.46286653555E+02 -0.10569058600E+03 -0.58731340497E+03  0.62276318928E+03  0.17200000000E+03 0.  1.
         -6    1    1    2    0  503  0.46286653555E+02  0.10569058600E+03 -0.18325150498E+04  0.18441823017E+04  0.17200000000E+03 0. -1.
</event>
<event>
 4    1  0.5718861E+000  0.2559606E+03  0.7818608E-02  0.1109595E+00
         21   -1    0    0  503  502  0.00000000000E+00  0.00000000000E+00  0.30750244305E+03  0.30750244305E+03  0.00000000000E+00 0.  1.
         21   -1    0    0  501  503 -0.00000000000E+00 -0.00000000000E+00 -0.21997616558E+03  0.21997616558E+03  0.00000000000E+00 0. -1.
          6    1    1    2  501    0 -0.15394115492E+03 -0.11060711908E+03  0.90535226821E+02  0.27150035224E+03  0.17200000000E+03 0.  1.
         -6    1    1    2    0  502  0.15394115492E+03  0.11060711908E+03 -0.30089493518E+01  0.25597825639E+03  0.17200000000E+03 0. -1.
</event>
<event>
 4    1  0.5718861E+000  0.3896049E+03  0.7818608E-02  0.1047440E+00
         21   -1    0    0  503  502  0.00000000000E+00  0.00000000000E+00  0.48001750435E+03  0.48001750435E+03  0.00000000000E+00 0.  1.
         21   -1    0    0  501  503 -0.00000000000E+00 -0.00000000000E+00 -0.42644134017E+03  0.42644134017E+03  0.00000000000E+00 0. -1.
          6    1    1    2  501    0  0.23328651719E+03 -0.26035623259E+03  0.25720686346E+03  0.46684830252E+03  0.17200000000E+03 0.  1.
         -6    1    1    2    0  502 -0.23328651719E+03  0.26035623259E+03 -0.20363069928E+03  0.43961054201E+03  0.17200000000E+03 0. -1.
</event>
<event>
 4    1  0.5718861E+000  0.2788404E+03  0.7818608E-02  0.1096324E+00
         21   -1    0    0  501  502  0.00000000000E+00  0.00000000000E+00  0.83461922826E+02  0.83461922826E+02  0.00000000000E+00 0.  1.
         21   -1    0    0  502  503 -0.00000000000E+00 -0.00000000000E+00 -0.96654767708E+03  0.96654767708E+03  0.00000000000E+00 0. -1.
          6    1    1    2  501    0  0.19520690077E+03  0.10031072806E+03 -0.34169324609E+03  0.44102862798E+03  0.17200000000E+03 0. -1.
         -6    1    1    2    0  503 -0.19520690077E+03 -0.10031072806E+03 -0.54139250816E+03  0.60898097192E+03  0.17200000000E+03 0.  1.
</event>
<event>
 4    1  0.5718861E+000  0.2677467E+03  0.7818608E-02  0.1102576E+00
         21   -1    0    0  503  502  0.00000000000E+00  0.00000000000E+00  0.16374334341E+04  0.16374334341E+04  0.00000000000E+00 0. -1.
         21   -1    0    0  501  503 -0.00000000000E+00 -0.00000000000E+00 -0.54920213461E+02  0.54920213461E+02  0.00000000000E+00 0.  1.
          6    1    1    2  501    0  0.50824419179E+02  0.19879937891E+03  0.41016958005E+03  0.48982384491E+03  0.17200000000E+03 0.  1.
         -6    1    1    2    0  502 -0.50824419179E+02 -0.19879937891E+03  0.11723436406E+04  0.12025298027E+04  0.17200000000E+03 0. -1.
</event>
<event>
 4    1  0.5718861E+000  0.1860386E+03  0.7818608E-02  0.1162084E+00
         21   -1    0    0  501  502  0.00000000000E+00  0.00000000000E+00  0.50661842251E+03  0.50661842251E+03  0.00000000000E+00 0. -1.
         21   -1    0    0  502  503 -0.00000000000E+00 -0.00000000000E+00 -0.15037981674E+03  0.15037981674E+03  0.00000000000E+00 0. -1.
          6    1    1    2  501    0  0.23023138471E+01 -0.70859518410E+02  0.42078819101E+03  0.46007942107E+03  0.17200000000E+03 0. -1.
         -6    1    1    2    0  503 -0.23023138471E+01  0.70859518410E+02 -0.64549585241E+02  0.19691881818E+03  0.17200000000E+03 0. -1.
</event>
<event>
 4    1  0.5718861E+000  0.2054671E+03  0.7818608E-02  0.1145207E+00
         21   -1    0    0  503  502  0.00000000000E+00  0.00000000000E+00  0.10235361166E+03  0.10235361166E+03  0.00000000000E+00 0. -1.
         21   -1    0    0  501  503 -0.00000000000E+00 -0.00000000000E+00 -0.72559797687E+03  0.72559797687E+03  0.00000000000E+00 0. -1.
          6    1    1    2  501    0  0.10315310869E+03 -0.44633902874E+02 -0.58357585835E+03  0.61869017414E+03  0.17200000000E+03 0. -1.
         -6    1    1    2    0  502 -0.10315310869E+03  0.44633902874E+02 -0.39668506862E+02  0.20926141440E+03  0.17200000000E+03 0. -1.
</event>
<event>
 4    1  0.5718861E+000  0.2105300E+03  0.7818608E-02  0.1141147E+00
         21   -1    0    0  503  502  0.00000000000E+00  0.00000000000E+00  0.81593404565E+02  0.81593404565E+02  0.00000000000E+00 0.  1.
         21   -1    0    0  501  503 -0.00000000000E+00 -0.00000000000E+00 -0.65992683443E+03  0.65992683443E+03  0.00000000000E+00 0.  1.
          6    1    1    2  501    0 -0.75439008121E+02  0.95120118385E+02 -0.44508600172E+03  0.49236615419E+03  0.17200000000E+03 0.  1.
         -6    1    1    2    0  502  0.75439008121E+02 -0.95120118385E+02 -0.13324742815E+03  0.24915408481E+03  0.17200000000E+03 0.  1.
</event>
<event>
 4    1  0.5718861E+000  0.2411779E+03  0.7818608E-02  0.1119011E+00
         21   -1    0    0  501  502  0.00000000000E+00  0.00000000000E+00  0.25746782729E+03  0.25746782729E+03  0.00000000000E+00 0.  1.
         21   -1    0    0  502  503 -0.00000000000E+00 -0.00000000000E+00 -0.22733411894E+03  0.22733411894E+03  0.00000000000E+00 0. -1.
          6    1    1    2  501    0  0.90980973844E+02  0.14249651625E+03  0.34193807303E+02  0.24358984216E+03  0.17200000000E+03 0.  1.
         -6    1    1    2    0  503 -0.90980973844E+02 -0.14249651625E+03 -0.40600989521E+01  0.24121210407E+03  0.17200000000E+03 0. -1.
</event>
<event>
 4    1  0.5718861E+000  0.2832293E+03  0.7818608E-02  0.1093938E+00
         21   -1    0    0  503  502  0.00000000000E+00  0.00000000000E+00  0.17110764280E+03  0.17110764280E+03  0.00000000000E+00 0.  1.
         21   -1    0    0  501  503 -0.00000000000E+00 -0.00000000000E+00 -0.47903768761E+03  0.47903768761E+03  0.00000000000E+00 0.  1.
          6    1    1    2  501    0 -0.11027850847E+03  0.19614661051E+03 -0.20143864819E+03  0.34755772359E+03  0.17200000000E+03 0.  1.
         -6    1    1    2    0  502  0.11027850847E+03 -0.19614661051E+03 -0.10649139662E+03  0.30258760682E+03  0.17200000000E+03 0.  1.
</event>
<event>
 4    1  0.5718861E+000  0.1731524E+03  0.7818608E-02  0.1174600E+00
         21   -1    0    0  503  502  0.00000000000E+00  0.00000000000E+00  0.34486793884E+02  0.34486793884E+02  0.00000000000E+00 0.  1.
         21   -1    0    0  501  503 -0.00000000000E+00 -0.00000000000E+00 -0.88798488158E+03  0.88798488158E+03  0.00000000000E+00 0.  1.
          6    1    1    2  501    0  0.19338192950E+02  0.48779953853E+01 -0.35996721159E+03  0.39944731063E+03  0.17200000000E+03 0. -1.
         -6    1    1    2    0  502 -0.19338192950E+02 -0.48779953853E+01 -0.49353087610E+03  0.52302436483E+03  0.17200000000E+03 0. -1.
</event>
<event>
 4    1  0.5718861E+000  0.1762560E+03  0.7818608E-02  0.1171476E+00
         21   -1    0    0  501  502  0.00000000000E+00  0.00000000000E+00  0.11193097778E+04  0.11193097778E+04  0.00000000000E+00 0.  1.
         21   -1    0    0  502  503 -0.00000000000E+00 -0.00000000000E+00 -0.97441740287E+02  0.97441740287E+02  0.00000000000E+00 0.  1.
          6    1    1    2  501    0 -0.18388011900E+02 -0.33824103026E+02 -0.35538836533E+01  0.17629185749E+03  0.17200000000E+03 0.  1.
         -6    1    1    2    0  503  0.18388011900E+02  0.33824103026E+02  0.10254219211E+04  0.10404596606E+04  0.17200000000E+03 0.  1.
</event>
<event>
 4    1  0.5718861E+000  0.1848029E+03  0.7818608E-02  0.1163234E+00
         21   -1    0    0  503  502  0.00000000000E+00  0.00000000000E+00  0.28011480244E+03  0.28011480244E+03  0.00000000000E+00 0. -1.
         21   -1    0    0  501  503 -0.00000000000E+00 -0.00000000000E+00 -0.14313574051E+03  0.14313574051E+03  0.00000000000E+00 0. -1.
          6    1    1    2  501    0 -0.51989571510E+02  0.43187915272E+02 -0.12981604249E+02  0.18525828894E+03  0.17200000000E+03 0. -1.
         -6    1    1    2    0  502  0.51989571510E+02 -0.43187915272E+02  0.14996066618E+03  0.23799225402E+03  0.17200000000E+03 0. -1.
</event>
<event>
 4    1  0.5718861E+000  0.1929416E+03  0.7818608E-02  0.1155835E+00
         21   -1    0    0  501  502  0.00000000000E+00  0.00000000000E+00  0.13555355031E+04  0.13555355031E+04  0.00000000000E+00 0.  1.
         21   -1    0    0  502  503 -0.00000000000E+00 -0.00000000000E+00 -0.48086910732E+02  0.48086910732E+02  0.00000000000E+00 0.  1.
          6    1    1    2  501    0 -0.85290218934E+02  0.19184237259E+02  0.11133424227E+04  0.11299370808E+04  0.17200000000E+03 0.  1.
         -6    1    1    2    0  503  0.85290218934E+02 -0.19184237259E+02  0.19410616965E+03  0.27368533300E+03  0.17200000000E+03 0.  1.
</event>
<event>
 4    1  0.5718861E+000  0.2125158E+03  0.7818608E-02  0.1139589E+00
         21   -1    0    0  503  502  0.00000000000E+00  0.00000000000E+00  0.31650500761E+03  0.31650500761E+03  0.00000000000E+00 0.  1.
         21   -1    0    0  501  503 -0.00000000000E+00 -0.00000000000E+00 -0.23071933363E+03  0.23071933363E+03  0.00000000000E+00 0.  1.
          6    1    1    2  501    0  0.10645851319E+03  0.65157851545E+02 -0.12611249748E+03  0.24711803388E+03  0.17200000000E+03 0.  1.
         -6    1    1    2    0  502 -0.10645851319E+03 -0.65157851545E+02  0.21189817146E+03  0.30010630736E+03  0.17200000000E+03 0.  1.
</event>
<event>
 4    1  0.5718861E+000  0.2055745E+03  0.7818608E-02  0.1145119E+00
         21   -1    0    0  503  502  0.00000000000E+00  0.00000000000E+00  0.30444283172E+03  0.30444283172E+03  0.00000000000E+00 0.  1.
         21   -1    0    0  501  503 -0.00000000000E+00 -0.00000000000E+00 -0.14127425606E+03  0.14127425606E+03  0.00000000000E+00 0.  1.
          6    1    1    2  501    0  0.10705931861E+03 -0.34859446783E+02  0.52173815923E+02  0.21209192771E+03  0.17200000000E+03 0.  1.
         -6    1    1    2    0  502 -0.10705931861E+03  0.34859446783E+02  0.11099475973E+03  0.23362516007E+03  0.17200000000E+03 0.  1.
</event>
<event>
 4    1  0.5718861E+000  0.2041273E+03  0.7818608E-02  0.1146303E+00
         21   -1    0    0  503  502  0.00000000000E+00  0.00000000000E+00  0.26985702828E+03  0.26985702828E+03  0.00000000000E+00 0.  1.
         21   -1    0    0  501  503 -0.00000000000E+00 -0.00000000000E+00 -0.15708190255E+03  0.15708190255E+03  0.00000000000E+00 0. -1.
          6    1    1    2  501    0 -0.92954143442E+02 -0.58681120717E+02  0.28533612864E+02  0.20611189625E+03  0.17200000000E+03 0.  1.
         -6    1    1    2    0  502  0.92954143442E+02  0.58681120717E+02  0.84241512861E+02  0.22082703458E+03  0.17200000000E+03 0.  1.
</event>
<event>
 4    1  0.5718861E+000  0.2075146E+03  0.7818608E-02  0.1143549E+00
         21   -1    0    0  501  502  0.00000000000E+00  0.00000000000E+00  0.20437299811E+03  0.20437299811E+03  0.00000000000E+00 0.  1.
         21   -1    0    0  502  503 -0.00000000000E+00 -0.00000000000E+00 -0.26446787508E+03  0.26446787508E+03  0.00000000000E+00 0. -1.
          6    1    1    2  501    0 -0.10978206090E+03  0.37765160065E+02  0.75647043035E+02  0.22087277634E+03  0.17200000000E+03 0.  1.
         -6    1    1    2    0  503  0.10978206090E+03 -0.37765160065E+02 -0.13574192001E+03  0.24796809685E+03  0.17200000000E+03 0. -1.
</event>
<event>
 4    1  0.5718861E+000  0.2448464E+03  0.7818608E-02  0.1116606E+00
         21   -1    0    0  501  502  0.00000000000E+00  0.00000000000E+00  0.15317299424E+03  0.15317299424E+03  0.00000000000E+00 0.  1.
         21   -1    0    0  502  503 -0.00000000000E+00 -0.00000000000E+00 -0.51321036144E+03  0.51321036144E+03  0.00000000000E+00 0.  1.
          6    1    1    2  501    0 -0.61127086050E+02 -0.16318462373E+03 -0.34235428796E+03  0.42089927602E+03  0.17200000000E+03 0.  1.
         -6    1    1    2    0  503  0.61127086050E+02  0.16318462373E+03 -0.17683079241E+02  0.24548407965E+03  0.17200000000E+03 0.  1.
</event>
<event>
 4    1  0.5718861E+000  0.2294663E+03  0.7818608E-02  0.1127016E+00
         21   -1    0    0  501  502  0.00000000000E+00  0.00000000000E+00  0.58759385011E+03  0.58759385011E+03  0.00000000000E+00 0.  1.
         21   -1    0    0  502  503 -0.00000000000E+00 -0.00000000000E+00 -0.12721530154E+03  0.12721530154E+03  0.00000000000E+00 0.  1.
          6    1    1    2  501    0 -0.10348378689E+01 -0.15188720045E+03  0.42450590948E+03  0.48255575816E+03  0.17200000000E+03 0.  1.
         -6    1    1    2    0  503  0.10348378689E+01  0.15188720045E+03  0.35872639091E+02  0.23225339349E+03  0.17200000000E+03 0.  1.
</event>
<event>
 4    1  0.5718861E+000  0.3140286E+03  0.7818608E-02  0.1078431E+00
         21   -1    0    0  503  502  0.00000000000E+00  0.00000000000E+00  0.23710624862E+03  0.23710624862E+03  0.00000000000E+00 0. -1.
         21   -1    0    0  501  503 -0.00000000000E+00 -0.00000000000E+00 -0.42813691205E+03  0.42813691205E+03  0.00000000000E+00 0. -1.
          6    1    1    2  501    0 -0.63953265613E+02  0.25483313823E+03 -0.39295993177E+02  0.31647768263E+03  0.17200000000E+03 0. -1.
         -6    1    1    2    0  502  0.63953265613E+02 -0.25483313823E+03 -0.15173467025E+03  0.34876547805E+03  0.17200000000E+03 0. -1.
</event>
<event>
 4    1  0.5718861E+000  0.2952394E+03  0.7818608E-02  0.1087645E+00
         21   -1    0    0  501  502  0.00000000000E+00  0.00000000000E+00  0.27208278355E+03  0.27208278355E+03  0.00000000000E+00 0. -1.
         21   -1    0    0  502  503 -0.00000000000E+00 -0.00000000000E+00 -0.88220107422E+03  0.88220107422E+03  0.00000000000E+00 0. -1.
          6    1    1    2  501    0  0.14207252830E+03  0.19338483708E+03  0.15551858900E+03  0.33369496555E+03  0.17200000000E+03 0. -1.
         -6    1    1    2    0  503 -0.14207252830E+03 -0.19338483708E+03 -0.76563687967E+03  0.82058889221E+03  0.17200000000E+03 0. -1.
</event>
<event>
 4    1  0.5718861E+000  0.2313865E+03  0.7818608E-02  0.1125668E+00
         21   -1    0    0  501  502  0.00000000000E+00  0.00000000000E+00  0.24348626299E+03  0.24348626299E+03  0.00000000000E+00 0.  1.
         21   -1    0    0  502  503 -0.00000000000E+00 -0.00000000000E+00 -0.29846578453E+03  0.29846578453E+03  0.00000000000E+00 0.  1.
          6    1    1    2  501    0 -0.12965124081E+03 -0.84535597371E+02  0.11154821413E+03  0.25687100954E+03  0.17200000000E+03 0.  1.
         -6    1    1    2    0  503  0.12965124081E+03  0.84535597371E+02 -0.16652773567E+03  0.28508103798E+03  0.17200000000E+03 0.  1.
</event>
<event>
 4    1  0.5718861E+000  0.1739881E+03  0.7818608E-02  0.1173752E+00
         21   -1    0    0  503  502  0.00000000000E+00  0.00000000000E+00  0.79628367240E+02  0.79628367240E+02  0.00000000000E+00 0. -1.
         21   -1    0    0  501  503 -0.00000000000E+00 -0.00000000000E+00 -0.58388618280E+03  0.58388618280E+03  0.00000000000E+00 0. -1.
          6    1    1    2  501    0 -0.14651756645E+02  0.21752582231E+02 -0.44809249459E+03  0.48068568994E+03  0.17200000000E+03 0. -1.
         -6    1    1    2    0  502  0.14651756645E+02 -0.21752582231E+02 -0.56165320976E+02  0.18282886010E+03  0.17200000000E+03 0. -1.
</event>
<event>
 4    1  0.5718861E+000  0.1844389E+03  0.7818608E-02  0.1163575E+00
         21   -1    0    0  501  502  0.00000000000E+00  0.00000000000E+00  0.12302517108E+03  0.12302517108E+03  0.00000000000E+00 0.  1.
         21   -1    0    0  502  503 -0.00000000000E+00 -0.00000000000E+00 -0.38481712225E+03  0.38481712225E+03  0.00000000000E+00 0.  1.
          6    1    1    2  501    0  0.19897913111E+02 -0.63543406209E+02  0.38141257892E+01  0.18447828863E+03  0.17200000000E+03 0.  1.
         -6    1    1    2    0  503 -0.19897913111E+02  0.63543406209E+02 -0.26560607696E+03  0.32336400470E+03  0.17200000000E+03 0.  1.
</event>
<event>
 4    1  0.5718861E+000  0.2961484E+03  0.7818608E-02  0.1087182E+00
         21   -1    0    0  503  502  0.00000000000E+00  0.00000000000E+00  0.19386687478E+03  0.19386687478E+03  0.00000000000E+00 0.  1.
         21   -1    0    0  501  503 -0.00000000000E+00 -0.00000000000E+00 -0.46987389966E+03  0.46987389966E+03  0.00000000000E+00 0. -1.
          6    1    1    2  501    0  0.21457554082E+03  0.10989638404E+03 -0.20201658100E+03  0.35848929822E+03  0.17200000000E+03 0.  1.
         -6    1    1    2    0  502 -0.21457554082E+03 -0.10989638404E+03 -0.73990443880E+02  0.30525147621E+03  0.17200000000E+03 0.  1.
</event>
<event>
 4    1  0.5718861E+000  0.2276714E+03  0.7818608E-02  0.1128290E+00
         21   -1    0    0  503  502  0.00000000000E+00  0.00000000000E+00  0.69560079589E+02  0.69560079589E+02  0.00000000000E+00 0. -1.
         21   -1    0    0  501  503 -0.00000000000E+00 -0.00000000000E+00 -0.79280257991E+03  0.79280257991E+03  0.00000000000E+00 0. -1.
          6    1    1    2  501    0  0.14726499968E+03  0.23733495662E+02 -0.46730739100E+03  0.51981771481E+03  0.17200000000E+03 0. -1.
         -6    1    1    2    0  502 -0.14726499968E+03 -0.23733495662E+02 -0.25593510932E+03  0.34254494469E+03  0.17200000000E+03 0. -1.
</event>
<event>
 4    1  0.5718861E+000  0.1846642E+03  0.7818608E-02  0.1163364E+00
         21   -1    0    0  503  502  0.00000000000E+00  0.00000000000E+00  0.36443122169E+02  0.36443122169E+02  0.00000000000E+00 0. -1.
         21   -1    0    0  501  503 -0.00000000000E+00 -0.00000000000E+00 -0.12312468513E+04  0.12312468513E+04  0.00000000000E+00 0. -1.
          6    1    1    2  501    0  0.61494847609E+00 -0.67204728932E+02 -0.90793146824E+03  0.92652059058E+03  0.17200000000E+03 0. -1.
         -6    1    1    2    0  502 -0.61494847609E+00  0.67204728932E+02 -0.28687226090E+03  0.34116938290E+03  0.17200000000E+03 0. -1.
</event>
<event>
 4    1  0.5718861E+000  0.1937858E+03  0.7818608E-02  0.1155090E+00
         21   -1    0    0  501  502  0.00000000000E+00  0.00000000000E+00  0.58189921253E+02  0.58189921253E+02  0.00000000000E+00 0.  1.
         21   -1    0    0  502  503 -0.00000000000E+00 -0.00000000000E+00 -0.69058673290E+03  0.69058673290E+03  0.00000000000E+00 0. -1.
          6    1    1    2  501    0 -0.22045582786E+02  0.86503823425E+02 -0.22037879865E+03  0.29346163988E+03  0.17200000000E+03 0.  1.
         -6    1    1    2    0  503  0.22045582786E+02 -0.86503823425E+02 -0.41201801299E+03  0.45531501427E+03  0.17200000000E+03 0. -1.
</event>
<event>
 4    1  0.5718861E+000  0.1790883E+03  0.7818608E-02  0.1168688E+00
         21   -1    0    0  501  502  0.00000000000E+00  0.00000000000E+00  0.22980818028E+02  0.22980818028E+02  0.00000000000E+00 0.  1.
         21   -1    0    0  502  503 -0.00000000000E+00 -0.00000000000E+00 -0.14087073145E+04  0.14087073145E+04  0.00000000000E+00 0. -1.
          6    1    1    2  501    0  0.28931286679E+02 -0.40640021423E+02 -0.62388198001E+03  0.64907731101E+03  0.17200000000E+03 0. -1.
         -6    1    1    2    0  503 -0.28931286679E+02  0.40640021423E+02 -0.76184451651E+03  0.78261082156E+03  0.17200000000E+03 0. -1.
</event>
<event>
 4    1  0.5718861E+000  0.2018896E+03  0.7818608E-02  0.1148154E+00
         21   -1    0    0  501  502  0.00000000000E+00  0.00000000000E+00  0.17059638240E+03  0.17059638240E+03  0.00000000000E+00 0.  1.
         21   -1    0    0  502  503 -0.00000000000E+00 -0.00000000000E+00 -0.48734825475E+03  0.48734825475E+03  0.00000000000E+00 0. -1.
          6    1    1    2  501    0 -0.54462815747E+02 -0.90604704243E+02  0.76499425784E+02  0.21589713494E+03  0.17200000000E+03 0.  1.
         -6    1    1    2    0  503  0.54462815747E+02  0.90604704243E+02 -0.39325129813E+03  0.44204750221E+03  0.17200000000E+03 0. -1.
</event>
<event>
 4    1  0.5718861E+000  0.2698505E+03  0.7818608E-02  0.1101365E+00
         21   -1    0    0  503  502  0.00000000000E+00  0.00000000000E+00  0.12213829333E+03  0.12213829333E+03  0.00000000000E+00 0.  1.
         21   -1    0    0  501  503 -0.00000000000E+00 -0.00000000000E+00 -0.62658841869E+03  0.62658841869E+03  0.00000000000E+00 0. -1.
          6    1    1    2  501    0  0.16988843275E+03 -0.11988834510E+03 -0.33466358531E+03  0.42990581551E+03  0.17200000000E+03 0. -1.
         -6    1    1    2    0  502 -0.16988843275E+03  0.11988834510E+03 -0.16978654005E+03  0.31882089652E+03  0.17200000000E+03 0.  1.
</event>
<event>
 4    1  0.5718861E+000  0.1776372E+03  0.7818608E-02  0.1170110E+00
         21   -1    0    0  503  502  0.00000000000E+00  0.00000000000E+00  0.27918010590E+03  0.27918010590E+03  0.00000000000E+00 0.  1.
         21   -1    0    0  501  503 -0.00000000000E+00 -0.00000000000E+00 -0.14409923992E+03  0.14409923992E+03  0.00000000000E+00 0.  1.
          6    1    1    2  501    0  0.38775540499E+02  0.21619925594E+02 -0.30736290238E+02  0.18027668530E+03  0.17200000000E+03 0.  1.
         -6    1    1    2    0  502 -0.38775540499E+02 -0.21619925594E+02  0.16581715622E+03  0.24300266052E+03  0.17200000000E+03 0.  1.
</event>
<event>
 4    1  0.5718861E+000  0.1856521E+03  0.7818608E-02  0.1162442E+00
         21   -1    0    0  501  502  0.00000000000E+00  0.00000000000E+00  0.43758215347E+03  0.43758215347E+03  0.00000000000E+00 0.  1.
         21   -1    0    0  502  503 -0.00000000000E+00 -0.00000000000E+00 -0.20703771225E+03  0.20703771225E+03  0.00000000000E+00 0.  1.
          6    1    1    2  501    0  0.45715366431E+02  0.52847052923E+02  0.36896843146E+03  0.41304286599E+03  0.17200000000E+03 0.  1.
         -6    1    1    2    0  503 -0.45715366431E+02 -0.52847052923E+02 -0.13842399024E+03  0.23157699973E+03  0.17200000000E+03 0.  1.
</event>
<event>
 4    1  0.5718861E+000  0.1996757E+03  0.7818608E-02  0.1150013E+00
         21   -1    0    0  503  502  0.00000000000E+00  0.00000000000E+00  0.50974913610E+03  0.50974913610E+03  0.00000000000E+00 0.  1.
         21   -1    0    0  501  503 -0.00000000000E+00 -0.00000000000E+00 -0.78769180400E+02  0.78769180400E+02  0.00000000000E+00 0.  1.
          6    1    1    2  501    0 -0.52418192548E+02  0.86825834673E+02  0.19082404289E+03  0.27619595909E+03  0.17200000000E+03 0.  1.
         -6    1    1    2    0  502  0.52418192548E+02 -0.86825834673E+02  0.24015591282E+03  0.31232235741E+03  0.17200000000E+03 0.  1.
</event>
<event>
 4    1  0.5718861E+000  0.1877425E+03  0.7818608E-02  0.1160513E+00
         21   -1    0    0  501  502  0.00000000000E+00  0.00000000000E+00  0.93345576141E+03  0.93345576141E+03  0.00000000000E+00 0.  1.
         21   -1    0    0  502  503 -0.00000000000E+00 -0.00000000000E+00 -0.38274979101E+02  0.38274979101E+02  0.00000000000E+00 0.  1.
          6    1    1    2  501    0 -0.64738759747E+02 -0.38368503455E+02  0.39123031748E+03  0.43394516979E+03  0.17200000000E+03 0.  1.
         -6    1    1    2    0  503  0.64738759747E+02  0.38368503455E+02  0.50395046483E+03  0.53778557072E+03  0.17200000000E+03 0.  1.
</event>
<event>
 4    1  0.5718861E+000  0.1774658E+03  0.7818608E-02  0.1170278E+00
         21   -1    0    0  503  502  0.00000000000E+00  0.00000000000E+00  0.12354799570E+03  0.12354799570E+03  0.00000000000E+00 0.  1.
         21   -1    0    0  501  503 -0.00000000000E+00 -0.00000000000E+00 -0.45156051524E+03  0.45156051524E+03  0.00000000000E+00 0.  1.
          6    1    1    2  501    0  0.23596647482E+02  0.36787123618E+02 -0.35376645612E+03  0.39578377899E+03  0.17200000000E+03 0.  1.
         -6    1    1    2    0  502 -0.23596647482E+02 -0.36787123618E+02  0.25753936581E+02  0.17932473194E+03  0.17200000000E+03 0.  1.
</event>
<event>
 4    1  0.5718861E+000  0.1953917E+03  0.7818608E-02  0.1153686E+00
         21   -1    0    0  501  502  0.00000000000E+00  0.00000000000E+00  0.62108210680E+03  0.62108210680E+03  0.00000000000E+00 0. -1.
         21   -1    0    0  502  503 -0.00000000000E+00 -0.00000000000E+00 -0.72651627062E+02  0.72651627062E+02  0.00000000000E+00 0. -1.
          6    1    1    2  501    0  0.26231927872E+02  0.88914534118E+02  0.41029480677E+03  0.45444442661E+03  0.17200000000E+03 0. -1.
         -6    1    1    2    0  503 -0.26231927872E+02 -0.88914534118E+02  0.13813567297E+03  0.23928930725E+03  0.17200000000E+03 0. -1.
</event>
<event>
 4    1  0.5718861E+000  0.1859468E+03  0.7818608E-02  0.1162169E+00
         21   -1    0    0  501  502  0.00000000000E+00  0.00000000000E+00  0.18926178227E+03  0.18926178227E+03  0.00000000000E+00 0.  1.
         21   -1    0    0  502  503 -0.00000000000E+00 -0.00000000000E+00 -0.18805571161E+03  0.18805571161E+03  0.00000000000E+00 0.  1.
          6    1    1    2  501    0  0.54136047180E+02  0.45403734323E+02  0.32470869068E+02  0.18876061038E+03  0.17200000000E+03 0.  1.
         -6    1    1    2    0  503 -0.54136047180E+02 -0.45403734323E+02 -0.31264798413E+02  0.18855688350E+03  0.17200000000E+03 0.  1.
</event>
<event>
 4    1  0.5718861E+000  0.1918228E+03  0.7818608E-02  0.1156828E+00
         21   -1    0    0  503  502  0.00000000000E+00  0.00000000000E+00  0.18736115170E+03  0.18736115170E+03  0.00000000000E+00 0. -1.
         21   -1    0    0  501  503 -0.00000000000E+00 -0.00000000000E+00 -0.20895396182E+03  0.20895396182E+03  0.00000000000E+00 0. -1.
          6    1    1    2  501    0 -0.11902722705E+02  0.84085116566E+02 -0.59385308936E+02  0.20080487184E+03  0.17200000000E+03 0. -1.
         -6    1    1    2    0  502  0.11902722705E+02 -0.84085116566E+02  0.37792498822E+02  0.19551024168E+03  0.17200000000E+03 0. -1.
</event>
<event>
 4    1  0.5718861E+000  0.2197367E+03  0.7818608E-02  0.1134079E+00
         21   -1    0    0  501  502  0.00000000000E+00  0.00000000000E+00  0.38061059892E+02  0.38061059892E+02  0.00000000000E+00 0.  1.
         21   -1    0    0  502  503 -0.00000000000E+00 -0.00000000000E+00 -0.14452739853E+04  0.14452739853E+04  0.00000000000E+00 0. -1.
          6    1    1    2  501    0 -0.11416205012E+03  0.75281147565E+02 -0.44429505363E+03  0.49566351444E+03  0.17200000000E+03 0.  1.
         -6    1    1    2    0  503  0.11416205012E+03 -0.75281147565E+02 -0.96291787175E+03  0.98767153072E+03  0.17200000000E+03 0. -1.
</event>
<event>
 4    1  0.5718861E+000  0.1805922E+03  0.7818608E-02  0.1167231E+00
         21   -1    0    0  503  502  0.00000000000E+00  0.00000000000E+00  0.40733434613E+03  0.40733434613E+03  0.00000000000E+00 0. -1.
         21   -1    0    0  501  503 -0.00000000000E+00 -0.00000000000E+00 -0.12569272643E+03  0.12569272643E+03  0.00000000000E+00 0. -1.
          6    1    1    2  501    0 -0.53629368334E+01  0.54779503659E+02 -0.19753013880E+02  0.18166930580E+03  0.17200000000E+03 0. -1.
         -6    1    1    2    0  502  0.53629368334E+01 -0.54779503659E+02  0.30139463358E+03  0.35135776676E+03  0.17200000000E+03 0. -1.
</event>
<event>
 4    1  0.5718861E+000  0.2369162E+03  0.7818608E-02  0.1121864E+00
         21   -1    0    0  503  502  0.00000000000E+00  0.00000000000E+00  0.95936334682E+02  0.95936334682E+02  0.00000000000E+00 0. -1.
         21   -1    0    0  501  503 -0.00000000000E+00 -0.00000000000E+00 -0.81866824518E+03  0.81866824518E+03  0.00000000000E+00 0.  1.
          6    1    1    2  501    0 -0.75368336110E+02  0.14444682346E+03 -0.60564495535E+03  0.65033459299E+03  0.17200000000E+03 0.  1.
         -6    1    1    2    0  502  0.75368336110E+02 -0.14444682346E+03 -0.11708695514E+03  0.26426998687E+03  0.17200000000E+03 0. -1.
</event>
<event>
 4    1  0.5718861E+000  0.2643756E+03  0.7818608E-02  0.1104542E+00
         21   -1    0    0  501  502  0.00000000000E+00  0.00000000000E+00  0.12141000611E+04  0.12141000611E+04  0.00000000000E+00 0.  1.
         21   -1    0    0  502  503 -0.00000000000E+00 -0.00000000000E+00 -0.75842311555E+02  0.75842311555E+02  0.00000000000E+00 0.  1.
          6    1    1    2  501    0  0.19749586975E+03  0.36136294217E+02  0.88571647933E+03  0.92433118096E+03  0.17200000000E+03 0.  1.
         -6    1    1    2    0  503 -0.19749586975E+03 -0.36136294217E+02  0.25254127017E+03  0.36561119166E+03  0.17200000000E+03 0.  1.
</event>
<event>
 4    1  0.5718861E+000  0.1775730E+03  0.7818608E-02  0.1170173E+00
         21   -1    0    0  501  502  0.00000000000E+00  0.00000000000E+00  0.12407351475E+03  0.12407351475E+03  0.00000000000E+00 0.  1.
         21   -1    0    0  502  503 -0.00000000000E+00 -0.00000000000E+00 -0.48912864940E+03  0.48912864940E+03  0.00000000000E+00 0.  1.
          6    1    1    2  501    0 -0.43732893630E+00 -0.44135934892E+02 -0.39504013306E+03  0.43311531806E+03  0.17200000000E+03 0.  1.
         -6    1    1    2    0  503  0.43732893630E+00  0.44135934892E+02  0.29984998415E+02  0.18008684609E+03  0.17200000000E+03 0.  1.
</event>
<event>
 4    1  0.5718861E+000  0.1912351E+03  0.7818608E-02  0.1157352E+00
         21   -1    0    0  501  502  0.00000000000E+00  0.00000000000E+00  0.10438632973E+04  0.10438632973E+04  0.00000000000E+00 0. -1.
         21   -1    0    0  502  503 -0.00000000000E+00 -0.00000000000E+00 -0.41093044819E+02  0.41093044819E+02  0.00000000000E+00 0.  1.
          6    1    1    2  501    0  0.57468330797E+02  0.60697955914E+02  0.29308226279E+03  0.34995437368E+03  0.17200000000E+03 0.  1.
         -6    1    1    2    0  503 -0.57468330797E+02 -0.60697955914E+02  0.70968798969E+03  0.73500196844E+03  0.17200000000E+03 0. -1.
</event>
<event>
 4    1  0.5718861E+000  0.2493304E+03  0.7818608E-02  0.1113729E+00
         21   -1    0    0  501  502  0.00000000000E+00  0.00000000000E+00  0.70462791898E+03  0.70462791898E+03  0.00000000000E+00 0. -1.
         21   -1    0    0  502  503 -0.00000000000E+00 -0.00000000000E+00 -0.97421801247E+02  0.97421801247E+02  0.00000000000E+00 0.  1.
          6    1    1    2  501    0  0.14404665551E+03 -0.10877589956E+03  0.42681905042E+03  0.49430773521E+03  0.17200000000E+03 0. -1.
         -6    1    1    2    0  503 -0.14404665551E+03  0.10877589956E+03  0.18038706731E+03  0.30774198501E+03  0.17200000000E+03 0. -1.
</event>
<event>
 4    1  0.5718861E+000  0.1790872E+03  0.7818608E-02  0.1168689E+00
         21   -1    0    0  501  502  0.00000000000E+00  0.00000000000E+00  0.50374020149E+02  0.50374020149E+02  0.00000000000E+00 0.  1.
         21   -1    0    0  502  503 -0.00000000000E+00 -0.00000000000E+00 -0.64134692513E+03  0.64134692513E+03  0.00000000000E+00 0.  1.
          6    1    1    2  501    0  0.49540696768E+02 -0.58265474884E+01 -0.26598936288E+03  0.32065958656E+03  0.17200000000E+03 0. -1.
         -6    1    1    2    0  503 -0.49540696768E+02  0.58265474884E+01 -0.32498354210E+03  0.37106135871E+03  0.17200000000E+03 0. -1.
</event>
<event>
 4    1  0.5718861E+000  0.2037767E+03  0.7818608E-02  0.1146591E+00
         21   -1    0    0  501  502  0.00000000000E+00  0.00000000000E+00  0.15462060189E+03  0.15462060189E+03  0.00000000000E+00 0.  1.
         21   -1    0    0  502  503 -0.00000000000E+00 -0.00000000000E+00 -0.27164027033E+03  0.27164027033E+03  0.00000000000E+00 0.  1.
          6    1    1    2  501    0 -0.83557239309E+02 -0.70421202047E+02 -0.35815344214E+02  0.20690020981E+03  0.17200000000E+03 0.  1.
         -6    1    1    2    0  503  0.83557239309E+02  0.70421202047E+02 -0.81204324223E+02  0.21936066241E+03  0.17200000000E+03 0.  1.
</event>
<event>
 4    1  0.5718861E+000  0.2059340E+03  0.7818608E-02  0.1144827E+00
         21   -1    0    0  501  502  0.00000000000E+00  0.00000000000E+00  0.11009926144E+04  0.11009926144E+04  0.00000000000E+00 0. -1.
         21   -1    0    0  502  503 -0.00000000000E+00 -0.00000000000E+00 -0.39353901010E+02  0.39353901010E+02  0.00000000000E+00 0. -1.
          6    1    1    2  501    0  0.66593096533E+02  0.91597909439E+02  0.44775679633E+03  0.49284375432E+03  0.17200000000E+03 0. -1.
         -6    1    1    2    0  503 -0.66593096533E+02 -0.91597909439E+02  0.61388191711E+03  0.64750276113E+03  0.17200000000E+03 0. -1.
</event>
<event>
 4    1  0.5718861E+000  0.1770703E+03  0.7818608E-02  0.1170669E+00
         21   -1    0    0  501  502  0.00000000000E+00  0.00000000000E+00  0.98956895705E+02  0.98956895705E+02  0.00000000000E+00 0.  1.
         21   -1    0    0  502  503 -0.00000000000E+00 -0.00000000000E+00 -0.67330223571E+03  0.67330223571E+03  0.00000000000E+00 0.  1.
          6    1    1    2  501    0  0.40037560589E+02  0.12917709151E+02 -0.62204229015E+01  0.17717947717E+03  0.17200000000E+03 0.  1.
         -6    1    1    2    0  503 -0.40037560589E+02 -0.12917709151E+02 -0.56812491711E+03  0.59507965425E+03  0.17200000000E+03 0.  1.
</event>
<event>
 4    1  0.5718861E+000  0.1962361E+03  0.7818608E-02  0.1152954E+00
         21   -1    0    0  501  502  0.00000000000E+00  0.00000000000E+00  0.25834118645E+03  0.25834118645E+03  0.00000000000E+00 0.  1.
         21   -1    0    0  502  503 -0.00000000000E+00 -0.00000000000E+00 -0.15064779047E+03  0.15064779047E+03  0.00000000000E+00 0. -1.
          6    1    1    2  501    0  0.79458139110E+02  0.51097895652E+02  0.32859109094E+02  0.19896811770E+03  0.17200000000E+03 0. -1.
         -6    1    1    2    0  503 -0.79458139110E+02 -0.51097895652E+02  0.74834286883E+02  0.21002085921E+03  0.17200000000E+03 0.  1.
</event>
<event>
 4    1  0.5718861E+000  0.3188272E+03  0.7818608E-02  0.1076190E+00
         21   -1    0    0  501  502  0.00000000000E+00  0.00000000000E+00  0.18998745012E+03  0.18998745012E+03  0.00000000000E+00 0.  1.
         21   -1    0    0  502  503 -0.00000000000E+00 -0.00000000000E+00 -0.55708854261E+03  0.55708854261E+03  0.00000000000E+00 0. -1.
          6    1    1    2  501    0 -0.23640282668E+03 -0.12720266294E+03 -0.10923728575E+03  0.33702165883E+03  0.17200000000E+03 0.  1.
         -6    1    1    2    0  503  0.23640282668E+03  0.12720266294E+03 -0.25786380674E+03  0.41005433389E+03  0.17200000000E+03 0. -1.
</event>
<event>
 4    1  0.5718861E+000  0.1854529E+03  0.7818608E-02  0.1162628E+00
         21   -1    0    0  503  502  0.00000000000E+00  0.00000000000E+00  0.39974966650E+03  0.39974966650E+03  0.00000000000E+00 0.  1.
         21   -1    0    0  501  503 -0.00000000000E+00 -0.00000000000E+00 -0.86903312058E+02  0.86903312058E+02  0.00000000000E+00 0.  1.
          6    1    1    2  501    0 -0.40127705844E+02 -0.56555807012E+02  0.18073418129E+03  0.25895489254E+03  0.17200000000E+03 0.  1.
         -6    1    1    2    0  502  0.40127705844E+02  0.56555807012E+02  0.13211217316E+03  0.22769808602E+03  0.17200000000E+03 0.  1.
</event>
<event>
 4    1  0.5718861E+000  0.2701417E+03  0.7818608E-02  0.1101199E+00
         21   -1    0    0  501  502  0.00000000000E+00  0.00000000000E+00  0.43478485435E+02  0.43478485435E+02  0.00000000000E+00 0.  1.
         21   -1    0    0  502  503 -0.00000000000E+00 -0.00000000000E+00 -0.19468765945E+04  0.19468765945E+04  0.00000000000E+00 0. -1.
          6    1    1    2  501    0 -0.76563158707E+02  0.19372826434E+03 -0.58217528500E+03  0.64179795897E+03  0.17200000000E+03 0. -1.
         -6    1    1    2    0  503  0.76563158707E+02 -0.19372826434E+03 -0.13212228241E+04  0.13485571210E+04  0.17200000000E+03 0.  1.
</event>
<event>
 4    1  0.5718861E+000  0.2105827E+03  0.7818608E-02  0.1141105E+00
         21   -1    0    0  503  502  0.00000000000E+00  0.00000000000E+00  0.99306885597E+03  0.99306885597E+03  0.00000000000E+00 0.  1.
         21   -1    0    0  501  503 -0.00000000000E+00 -0.00000000000E+00 -0.58724862261E+02  0.58724862261E+02  0.00000000000E+00 0.  1.
          6    1    1    2  501    0  0.27826705095E+01  0.12146331778E+03  0.72459114684E+03  0.75457101118E+03  0.17200000000E+03 0.  1.
         -6    1    1    2    0  502 -0.27826705095E+01 -0.12146331778E+03  0.20975284687E+03  0.29722270706E+03  0.17200000000E+03 0.  1.
</event>
<event>
 4    1  0.5718861E+000  0.2057823E+03  0.7818608E-02  0.1144950E+00
         21   -1    0    0  503  502  0.00000000000E+00  0.00000000000E+00  0.60477584181E+03  0.60477584181E+03  0.00000000000E+00 0. -1.
         21   -1    0    0  501  503 -0.00000000000E+00 -0.00000000000E+00 -0.15201936689E+03  0.15201936689E+03  0.00000000000E+00 0. -1.
          6    1    1    2  501    0  0.86075567273E+01 -0.11264226096E+03 -0.51531857948E+02  0.21213651588E+03  0.17200000000E+03 0. -1.
         -6    1    1    2    0  502 -0.86075567273E+01  0.11264226096E+03  0.50428833287E+03  0.54465869281E+03  0.17200000000E+03 0. -1.
</event>
<event>
 4    1  0.5718861E+000  0.1791273E+03  0.7818608E-02  0.1168650E+00
         21   -1    0    0  503  502  0.00000000000E+00  0.00000000000E+00  0.29684050537E+03  0.29684050537E+03  0.00000000000E+00 0. -1.
         21   -1    0    0  501  503 -0.00000000000E+00 -0.00000000000E+00 -0.10814573251E+03  0.10814573251E+03  0.00000000000E+00 0. -1.
          6    1    1    2  501    0  0.48372576152E+01 -0.49791438340E+02  0.98789330294E+02  0.20456274874E+03  0.17200000000E+03 0. -1.
         -6    1    1    2    0  502 -0.48372576152E+01  0.49791438340E+02  0.89905442570E+02  0.20042348913E+03  0.17200000000E+03 0. -1.
</event>
<event>
 4    1  0.5718861E+000  0.2159340E+03  0.7818608E-02  0.1136951E+00
         21   -1    0    0  503  502  0.00000000000E+00  0.00000000000E+00  0.61507600067E+03  0.61507600067E+03  0.00000000000E+00 0.  1.
         21   -1    0    0  501  503 -0.00000000000E+00 -0.00000000000E+00 -0.12542309931E+03  0.12542309931E+03  0.00000000000E+00 0.  1.
          6    1    1    2  501    0  0.12181468027E+03 -0.46954201474E+02  0.11956257349E+02  0.21626480401E+03  0.17200000000E+03 0.  1.
         -6    1    1    2    0  502 -0.12181468027E+03  0.46954201474E+02  0.47769664401E+03  0.52423429597E+03  0.17200000000E+03 0.  1.
</event>
<event>
 4    1  0.5718861E+000  0.2067707E+03  0.7818608E-02  0.1144149E+00
         21   -1    0    0  503  502  0.00000000000E+00  0.00000000000E+00  0.11544530710E+04  0.11544530710E+04  0.00000000000E+00 0. -1.
         21   -1    0    0  501  503 -0.00000000000E+00 -0.00000000000E+00 -0.37348388561E+02  0.37348388561E+02  0.00000000000E+00 0. -1.
          6    1    1    2  501    0  0.95361488891E+02  0.63845997571E+02  0.61321686474E+03  0.64713912582E+03  0.17200000000E+03 0. -1.
         -6    1    1    2    0  502 -0.95361488891E+02 -0.63845997571E+02  0.50388781773E+03  0.54466233377E+03  0.17200000000E+03 0. -1.
</event>
<event>
 4    1  0.5718861E+000  0.1864584E+03  0.7818608E-02  0.1161695E+00
         21   -1    0    0  503  502  0.00000000000E+00  0.00000000000E+00  0.22381443115E+04  0.22381443115E+04  0.00000000000E+00 0.  1.
         21   -1    0    0  501  503 -0.00000000000E+00 -0.00000000000E+00 -0.20176245162E+02  0.20176245162E+02  0.00000000000E+00 0.  1.
          6    1    1    2  501    0 -0.38286384574E+02 -0.60966370241E+02  0.56734276325E+03  0.59719725096E+03  0.17200000000E+03 0.  1.
         -6    1    1    2    0  502  0.38286384574E+02  0.60966370241E+02  0.16506253031E+04  0.16611233057E+04  0.17200000000E+03 0.  1.
</event>
<event>
 4    1  0.5718861E+000  0.2032929E+03  0.7818608E-02  0.1146990E+00
         21   -1    0    0  503  502  0.00000000000E+00  0.00000000000E+00  0.48902933842E+02  0.48902933842E+02  0.00000000000E+00 0.  1.
         21   -1    0    0  501  503 -0.00000000000E+00 -0.00000000000E+00 -0.16088945900E+04  0.16088945900E+04  0.00000000000E+00 0.  1.
          6    1    1    2  501    0 -0.23545288511E+02 -0.10578094085E+03 -0.13511130998E+04  0.13663215568E+04  0.17200000000E+03 0.  1.
         -6    1    1    2    0  502  0.23545288511E+02  0.10578094085E+03 -0.20887855629E+03  0.29147596699E+03  0.17200000000E+03 0.  1.
</event>
<event>
 4    1  0.5718861E+000  0.1999244E+03  0.7818608E-02  0.1149803E+00
         21   -1    0    0  503  502  0.00000000000E+00  0.00000000000E+00  0.20921549363E+03  0.20921549363E+03  0.00000000000E+00 0. -1.
         21   -1    0    0  501  503 -0.00000000000E+00 -0.00000000000E+00 -0.34764776210E+03  0.34764776210E+03  0.00000000000E+00 0. -1.
          6    1    1    2  501    0 -0.85500691544E+02  0.55456363259E+02 -0.25608941675E+03  0.32488700475E+03  0.17200000000E+03 0. -1.
         -6    1    1    2    0  502  0.85500691544E+02 -0.55456363259E+02  0.11765714829E+03  0.23197625099E+03  0.17200000000E+03 0. -1.
</event>
<event>
 4    1  0.5718861E+000  0.2439188E+03  0.7818608E-02  0.1117209E+00
         21   -1    0    0  503  502  0.00000000000E+00  0.00000000000E+00  0.52048378020E+03  0.52048378020E+03  0.00000000000E+00 0. -1.
         21   -1    0    0  501  503 -0.00000000000E+00 -0.00000000000E+00 -0.25885930449E+03  0.25885930449E+03  0.00000000000E+00 0.  1.
          6    1    1    2  501    0 -0.13913907247E+03 -0.10272638558E+03 -0.16037686520E+03  0.29191973327E+03  0.17200000000E+03 0.  1.
         -6    1    1    2    0  502  0.13913907247E+03  0.10272638558E+03  0.42200134091E+03  0.48742335142E+03  0.17200000000E+03 0. -1.
</event>
<event>
 4    1  0.5718861E+000  0.1845386E+03  0.7818608E-02  0.1163481E+00
         21   -1    0    0  501  502  0.00000000000E+00  0.00000000000E+00  0.81374307088E+03  0.81374307088E+03  0.00000000000E+00 0.  1.
         21   -1    0    0  502  503 -0.00000000000E+00 -0.00000000000E+00 -0.76483791373E+02  0.76483791373E+02  0.00000000000E+00 0.  1.
          6    1    1    2  501    0  0.27467531925E+02  0.60959124980E+02  0.66816021092E+03  0.69317569756E+03  0.17200000000E+03 0.  1.
         -6    1    1    2    0  503 -0.27467531925E+02 -0.60959124980E+02  0.69099068587E+02  0.19705116470E+03  0.17200000000E+03 0.  1.
</event>
<event>
 4    1  0.5718861E+000  0.1853743E+03  0.7818608E-02  0.1162701E+00
         21   -1    0    0  503  502  0.00000000000E+00  0.00000000000E+00  0.40022031693E+03  0.40022031693E+03  0.00000000000E+00 0.  1.
         21   -1    0    0  501  503 -0.00000000000E+00 -0.00000000000E+00 -0.86593621939E+02  0.86593621939E+02  0.00000000000E+00 0.  1.
          6    1    1    2  501    0  0.43559210110E+02 -0.53686507271E+02  0.13443716131E+03  0.22899125789E+03  0.17200000000E+03 0.  1.
         -6    1    1    2    0  502 -0.43559210110E+02  0.53686507271E+02  0.17918953368E+03  0.25782268098E+03  0.17200000000E+03 0.  1.
</event>
<event>
 4    1  0.5718861E+000  0.1889925E+03  0.7818608E-02  0.1159373E+00
         21   -1    0    0  501  502  0.00000000000E+00  0.00000000000E+00  0.53681587161E+03  0.53681587161E+03  0.00000000000E+00 0. -1.
         21   -1    0    0  502  503 -0.00000000000E+00 -0.00000000000E+00 -0.94225038497E+02  0.94225038497E+02  0.00000000000E+00 0. -1.
          6    1    1    2  501    0 -0.70974205335E+02  0.33118305281E+02  0.39233232371E+03  0.43547997910E+03  0.17200000000E+03 0. -1.
         -6    1    1    2    0  503  0.70974205335E+02 -0.33118305281E+02  0.50258509396E+02  0.19556093100E+03  0.17200000000E+03 0. -1.
</event>
<event>
 4    1  0.5718861E+000  0.1827651E+03  0.7818608E-02  0.1165153E+00
         21   -1    0    0  501  502  0.00000000000E+00  0.00000000000E+00  0.68826115820E+02  0.68826115820E+02  0.00000000000E+00 0.  1.
         21   -1    0    0  502  503 -0.00000000000E+00 -0.00000000000E+00 -0.56684957275E+03  0.56684957275E+03  0.00000000000E+00 0.  1.
          6    1    1    2  501    0 -0.31877946679E+02 -0.52942259915E+02 -0.12847651003E+03  0.22340389432E+03  0.17200000000E+03 0.  1.
         -6    1    1    2    0  503  0.31877946679E+02  0.52942259915E+02 -0.36954694690E+03  0.41227179425E+03  0.17200000000E+03 0.  1.
</event>
<event>
 4    1  0.5718861E+000  0.1986675E+03  0.7818608E-02  0.1150868E+00
         21   -1    0    0  501  502  0.00000000000E+00  0.00000000000E+00  0.44984582178E+02  0.44984582178E+02  0.00000000000E+00 0. -1.
         21   -1    0    0  502  503 -0.00000000000E+00 -0.00000000000E+00 -0.87894598929E+03  0.87894598929E+03  0.00000000000E+00 0. -1.
          6    1    1    2  501    0 -0.45854297460E+02 -0.88216553146E+02 -0.39750951378E+03  0.44439013310E+03  0.17200000000E+03 0. -1.
         -6    1    1    2    0  503  0.45854297460E+02  0.88216553146E+02 -0.43645189332E+03  0.47954043837E+03  0.17200000000E+03 0. -1.
</event>
<event>
 4    1  0.5718861E+000  0.1958654E+03  0.7818608E-02  0.1153275E+00
         21   -1    0    0  503  502  0.00000000000E+00  0.00000000000E+00  0.35309106610E+03  0.35309106610E+03  0.00000000000E+00 0. -1.
         21   -1    0    0  501  503 -0.00000000000E+00 -0.00000000000E+00 -0.11968388206E+03  0.11968388206E+03  0.00000000000E+00 0. -1.
          6    1    1    2  501    0  0.71291921451E+02  0.60800703539E+02  0.44928246176E+02  0.20095226030E+03  0.17200000000E+03 0.  1.
         -6    1    1    2    0  502 -0.71291921451E+02 -0.60800703539E+02  0.18847893787E+03  0.27182268786E+03  0.17200000000E+03 0.  1.
</event>
<event>
 4    1  0.5718861E+000  0.2716853E+03  0.7818608E-02  0.1100319E+00
         21   -1    0    0  503  502  0.00000000000E+00  0.00000000000E+00  0.15611348941E+04  0.15611348941E+04  0.00000000000E+00 0.  1.
         21   -1    0    0  501  503 -0.00000000000E+00 -0.00000000000E+00 -0.48752438545E+02  0.48752438545E+02  0.00000000000E+00 0. -1.
          6    1    1    2  501    0  0.67339830126E+02  0.19923421328E+03  0.61637655122E+03  0.67359704375E+03  0.17200000000E+03 0.  1.
         -6    1    1    2    0  502 -0.67339830126E+02 -0.19923421328E+03  0.89600590436E+03  0.93629028892E+03  0.17200000000E+03 0.  1.
</event>
<event>
 4    1  0.5718861E+000  0.2275130E+03  0.7818608E-02  0.1128403E+00
         21   -1    0    0  503  502  0.00000000000E+00  0.00000000000E+00  0.17968985614E+04  0.17968985614E+04  0.00000000000E+00 0.  1.
         21   -1    0    0  501  503 -0.00000000000E+00 -0.00000000000E+00 -0.17047506759E+03  0.17047506759E+03  0.00000000000E+00 0. -1.
          6    1    1    2  501    0 -0.69585013511E+02 -0.13166656967E+03 -0.83521631229E+02  0.24235928403E+03  0.17200000000E+03 0. -1.
         -6    1    1    2    0  502  0.69585013511E+02  0.13166656967E+03  0.17099451251E+04  0.17250143450E+04  0.17200000000E+03 0.  1.
</event>
<event>
 4    1  0.5718861E+000  0.2285633E+03  0.7818608E-02  0.1127655E+00
         21   -1    0    0  503  502  0.00000000000E+00  0.00000000000E+00  0.30115778771E+03  0.30115778771E+03  0.00000000000E+00 0.  1.
         21   -1    0    0  501  503 -0.00000000000E+00 -0.00000000000E+00 -0.43296373979E+03  0.43296373979E+03  0.00000000000E+00 0.  1.
          6    1    1    2  501    0 -0.52018347532E+02 -0.14124900194E+03  0.21826651939E+03  0.31604028622E+03  0.17200000000E+03 0.  1.
         -6    1    1    2    0  502  0.52018347532E+02  0.14124900194E+03 -0.35007247146E+03  0.41808124128E+03  0.17200000000E+03 0.  1.
</event>
<event>
 4    1  0.5718861E+000  0.1862527E+03  0.7818608E-02  0.1161885E+00
         21   -1    0    0  501  502  0.00000000000E+00  0.00000000000E+00  0.41634141737E+02  0.41634141737E+02  0.00000000000E+00 0. -1.
         21   -1    0    0  502  503 -0.00000000000E+00 -0.00000000000E+00 -0.14889499755E+04  0.14889499755E+04  0.00000000000E+00 0.  1.
          6    1    1    2  501    0 -0.52797193947E+02 -0.48151033966E+02 -0.21578818910E+03  0.28505193968E+03  0.17200000000E+03 0. -1.
         -6    1    1    2    0  503  0.52797193947E+02  0.48151033966E+02 -0.12315276447E+04  0.12455321775E+04  0.17200000000E+03 0.  1.
</event>
<event>
 4    1  0.5718861E+000  0.2059979E+03  0.7818608E-02  0.1144775E+00
         21   -1    0    0  503  502  0.00000000000E+00  0.00000000000E+00  0.55168226833E+02  0.55168226833E+02  0.00000000000E+00 0.  1.
         21   -1    0    0  501  503 -0.00000000000E+00 -0.00000000000E+00 -0.79881437743E+03  0.79881437743E+03  0.00000000000E+00 0.  1.
          6    1    1    2  501    0  0.10950736064E+03 -0.29313496895E+02 -0.28960230450E+03  0.35539363796E+03  0.17200000000E+03 0.  1.
         -6    1    1    2    0  502 -0.10950736064E+03  0.29313496895E+02 -0.45404384610E+03  0.49858896630E+03  0.17200000000E+03 0.  1.
</event>
<event>
 4    1  0.5718861E+000  0.2000988E+03  0.7818608E-02  0.1149656E+00
         21   -1    0    0  503  502  0.00000000000E+00  0.00000000000E+00  0.55226987964E+03  0.55226987964E+03  0.00000000000E+00 0. -1.
         21   -1    0    0  501  503 -0.00000000000E+00 -0.00000000000E+00 -0.74611529328E+02  0.74611529328E+02  0.00000000000E+00 0. -1.
          6    1    1    2  501    0 -0.76423121300E+02 -0.67934194716E+02  0.29155875772E+03  0.35361851971E+03  0.17200000000E+03 0. -1.
         -6    1    1    2    0  502  0.76423121300E+02  0.67934194716E+02  0.18609959259E+03  0.27326288926E+03  0.17200000000E+03 0. -1.
</event>
<event>
 4    1  0.5718861E+000  0.2745867E+03  0.7818608E-02  0.1098683E+00
         21   -1    0    0  501  502  0.00000000000E+00  0.00000000000E+00  0.41561289659E+03  0.41561289659E+03  0.00000000000E+00 0.  1.
         21   -1    0    0  502  503 -0.00000000000E+00 -0.00000000000E+00 -0.18155737522E+03  0.18155737522E+03  0.00000000000E+00 0.  1.
          6    1    1    2  501    0  0.14711374145E+03  0.15547155400E+03  0.12542838352E+03  0.30187768453E+03  0.17200000000E+03 0.  1.
         -6    1    1    2    0  503 -0.14711374145E+03 -0.15547155400E+03  0.10862713784E+03  0.29529258728E+03  0.17200000000E+03 0.  1.
</event>
<event>
 4    1  0.5718861E+000  0.2003179E+03  0.7818608E-02  0.1149471E+00
         21   -1    0    0  503  502  0.00000000000E+00  0.00000000000E+00  0.93020826504E+03  0.93020826504E+03  0.00000000000E+00 0. -1.
         21   -1    0    0  501  503 -0.00000000000E+00 -0.00000000000E+00 -0.43155050789E+02  0.43155050789E+02  0.00000000000E+00 0.  1.
          6    1    1    2  501    0  0.84329194454E+02  0.58582021077E+02  0.43383506815E+03  0.47784948738E+03  0.17200000000E+03 0.  1.
         -6    1    1    2    0  502 -0.84329194454E+02 -0.58582021077E+02  0.45321814610E+03  0.49551382845E+03  0.17200000000E+03 0.  1.
</event>
<event>
 4    1  0.5718861E+000  0.1960153E+03  0.7818608E-02  0.1153145E+00
         21   -1    0    0  503  502  0.00000000000E+00  0.00000000000E+00  0.24860536349E+03  0.24860536349E+03  0.00000000000E+00 0. -1.
         21   -1    0    0  501  503 -0.00000000000E+00 -0.00000000000E+00 -0.16206265855E+03  0.16206265855E+03  0.00000000000E+00 0. -1.
          6    1    1    2  501    0  0.93963097801E+02 -0.29915845505E+01 -0.93756816491E+00  0.19601758176E+03  0.17200000000E+03 0. -1.
         -6    1    1    2    0  502 -0.93963097801E+02  0.29915845505E+01  0.87480273112E+02  0.21465044027E+03  0.17200000000E+03 0. -1.
</event>
<event>
 4    1  0.5718861E+000  0.4284494E+03  0.7818608E-02  0.1034351E+00
         21   -1    0    0  503  502  0.00000000000E+00  0.00000000000E+00  0.77626299209E+03  0.77626299209E+03  0.00000000000E+00 0.  1.
         21   -1    0    0  501  503 -0.00000000000E+00 -0.00000000000E+00 -0.37835702112E+03  0.37835702112E+03  0.00000000000E+00 0. -1.
          6    1    1    2  501    0  0.38958120998E+03  0.47025271906E+02 -0.15457005260E+03  0.45547864553E+03  0.17200000000E+03 0. -1.
         -6    1    1    2    0  502 -0.38958120998E+03 -0.47025271906E+02  0.55247602357E+03  0.69914136767E+03  0.17200000000E+03 0.  1.
</event>
<event>
 4    1  0.5718861E+000  0.2062143E+03  0.7818608E-02  0.1144599E+00
         21   -1    0    0  501  502  0.00000000000E+00  0.00000000000E+00  0.38267847868E+03  0.38267847868E+03  0.00000000000E+00 0. -1.
         21   -1    0    0  502  503 -0.00000000000E+00 -0.00000000000E+00 -0.11209639902E+03  0.11209639902E+03  0.00000000000E+00 0. -1.
          6    1    1    2  501    0 -0.10009649510E+03 -0.54046484410E+02  0.11223650936E+03  0.23477939612E+03  0.17200000000E+03 0. -1.
         -6    1    1    2    0  503  0.10009649510E+03  0.54046484410E+02  0.15834557029E+03  0.25999548158E+03  0.17200000000E+03 0. -1.
</event>
<event>
 4    1  0.5718861E+000  0.1780405E+03  0.7818608E-02  0.1169713E+00
         21   -1    0    0  501  502  0.00000000000E+00  0.00000000000E+00  0.17092864006E+03  0.17092864006E+03  0.00000000000E+00 0. -1.
         21   -1    0    0  502  503 -0.00000000000E+00 -0.00000000000E+00 -0.27221042393E+03  0.27221042393E+03  0.00000000000E+00 0. -1.
          6    1    1    2  501    0  0.27829759062E+02  0.36605065276E+02  0.74449151559E+02  0.19297953897E+03  0.17200000000E+03 0. -1.
         -6    1    1    2    0  503 -0.27829759062E+02 -0.36605065276E+02 -0.17573093542E+03  0.25015952502E+03  0.17200000000E+03 0. -1.
</event>
<event>
 4    1  0.5718861E+000  0.2098874E+03  0.7818608E-02  0.1141655E+00
         21   -1    0    0  503  502  0.00000000000E+00  0.00000000000E+00  0.31245591290E+03  0.31245591290E+03  0.00000000000E+00 0. -1.
         21   -1    0    0  501  503 -0.00000000000E+00 -0.00000000000E+00 -0.15776068371E+03  0.15776068371E+03  0.00000000000E+00 0. -1.
          6    1    1    2  501    0 -0.10190449488E+03 -0.63907818827E+02  0.68890352423E+00  0.20988856561E+03  0.17200000000E+03 0. -1.
         -6    1    1    2    0  502  0.10190449488E+03  0.63907818827E+02  0.15400632566E+03  0.26032803101E+03  0.17200000000E+03 0. -1.
</event>
<event>
 4    1  0.5718861E+000  0.2143278E+03  0.7818608E-02  0.1138184E+00
         21   -1    0    0  501  502  0.00000000000E+00  0.00000000000E+00  0.82371910058E+02  0.82371910058E+02  0.00000000000E+00 0. -1.
         21   -1    0    0  502  503 -0.00000000000E+00 -0.00000000000E+00 -0.84546892703E+03  0.84546892703E+03  0.00000000000E+00 0.  1.
          6    1    1    2  501    0  0.25698565993E+02 -0.12526759101E+03 -0.11087929721E+03  0.24131018254E+03  0.17200000000E+03 0. -1.
         -6    1    1    2    0  503 -0.25698565993E+02  0.12526759101E+03 -0.65221771977E+03  0.68653065454E+03  0.17200000000E+03 0.  1.
</event>
<event>
 4    1  0.5718861E+000  0.2261934E+03  0.7818608E-02  0.1129348E+00
         21   -1    0    0  503  502  0.00000000000E+00  0.00000000000E+00  0.10402990592E+03  0.10402990592E+03  0.00000000000E+00 0.  1.
         21   -1    0    0  501  503 -0.00000000000E+00 -0.00000000000E+00 -0.49453193898E+03  0.49453193898E+03  0.00000000000E+00 0. -1.
          6    1    1    2  501    0 -0.12609029467E+03  0.75370489581E+02 -0.21743390084E+03  0.31375304675E+03  0.17200000000E+03 0. -1.
         -6    1    1    2    0  502  0.12609029467E+03 -0.75370489581E+02 -0.17306813222E+03  0.28480879814E+03  0.17200000000E+03 0.  1.
</event>
<event>
 4    1  0.5718861E+000  0.2135743E+03  0.7818608E-02  0.1138766E+00
         21   -1    0    0  501  502  0.00000000000E+00  0.00000000000E+00  0.25878564974E+03  0.25878564974E+03  0.00000000000E+00 0. -1.
         21   -1    0    0  502  503 -0.00000000000E+00 -0.00000000000E+00 -0.18520034946E+03  0.18520034946E+03  0.00000000000E+00 0. -1.
          6    1    1    2  501    0 -0.12651444958E+03 -0.49059548663E+01  0.85563082373E+02  0.23007610787E+03  0.17200000000E+03 0. -1.
         -6    1    1    2    0  503  0.12651444958E+03  0.49059548663E+01 -0.11977782091E+02  0.21390989133E+03  0.17200000000E+03 0. -1.
</event>
<event>
 4    1  0.5718861E+000  0.1961642E+03  0.7818608E-02  0.1153016E+00
         21   -1    0    0  501  502  0.00000000000E+00  0.00000000000E+00  0.10613776728E+04  0.10613776728E+04  0.00000000000E+00 0.  1.
         21   -1    0    0  502  503 -0.00000000000E+00 -0.00000000000E+00 -0.56270419101E+02  0.56270419101E+02  0.00000000000E+00 0. -1.
          6    1    1    2  501    0  0.76058218600E+02 -0.55781287825E+02  0.83583861160E+03  0.85854911877E+03  0.17200000000E+03 0.  1.
         -6    1    1    2    0  503 -0.76058218600E+02  0.55781287825E+02  0.16926864212E+03  0.25909897316E+03  0.17200000000E+03 0. -1.
</event>
<event>
 4    1  0.5718861E+000  0.1987583E+03  0.7818608E-02  0.1150791E+00
         21   -1    0    0  503  502  0.00000000000E+00  0.00000000000E+00  0.27599273472E+03  0.27599273472E+03  0.00000000000E+00 0.  1.
         21   -1    0    0  501  503 -0.00000000000E+00 -0.00000000000E+00 -0.20185692862E+03  0.20185692862E+03  0.00000000000E+00 0.  1.
          6    1    1    2  501    0  0.76072851487E+02 -0.64294417592E+02 -0.91795964624E+02  0.21893229544E+03  0.17200000000E+03 0.  1.
         -6    1    1    2    0  502 -0.76072851487E+02  0.64294417592E+02  0.16593177072E+03  0.25891736790E+03  0.17200000000E+03 0.  1.
</event>
<event>
 4    1  0.5718861E+000  0.1804676E+03  0.7818608E-02  0.1167351E+00
         21   -1    0    0  501  502  0.00000000000E+00  0.00000000000E+00  0.54840442745E+03  0.54840442745E+03  0.00000000000E+00 0.  1.
         21   -1    0    0  502  503 -0.00000000000E+00 -0.00000000000E+00 -0.63694914216E+02  0.63694914216E+02  0.00000000000E+00 0.  1.
          6    1    1    2  501    0 -0.49199687010E+02  0.23747901234E+02  0.16277014600E+03  0.24302817212E+03  0.17200000000E+03 0. -1.
         -6    1    1    2    0  503  0.49199687010E+02 -0.23747901234E+02  0.32193936723E+03  0.36907116954E+03  0.17200000000E+03 0. -1.
</event>
<event>
 4    1  0.5718861E+000  0.2057641E+03  0.7818608E-02  0.1144965E+00
         21   -1    0    0  503  502  0.00000000000E+00  0.00000000000E+00  0.78101612107E+02  0.78101612107E+02  0.00000000000E+00 0.  1.
         21   -1    0    0  501  503 -0.00000000000E+00 -0.00000000000E+00 -0.69700067522E+03  0.69700067522E+03  0.00000000000E+00 0. -1.
          6    1    1    2  501    0 -0.52006130572E+02  0.10025089226E+03 -0.49214979221E+03  0.53343256086E+03  0.17200000000E+03 0. -1.
         -6    1    1    2    0  502  0.52006130572E+02 -0.10025089226E+03 -0.12674927091E+03  0.24166972647E+03  0.17200000000E+03 0.  1.
</event>
<event>
 4    1  0.5718861E+000  0.2046978E+03  0.7818608E-02  0.1145835E+00
         21   -1    0    0  503  502  0.00000000000E+00  0.00000000000E+00  0.20067061288E+03  0.20067061288E+03  0.00000000000E+00 0. -1.
         21   -1    0    0  501  503 -0.00000000000E+00 -0.00000000000E+00 -0.22648667213E+03  0.22648667213E+03  0.00000000000E+00 0.  1.
          6    1    1    2  501    0  0.20081966680E+02  0.10915077554E+03 -0.72582557448E+02  0.21718518557E+03  0.17200000000E+03 0.  1.
         -6    1    1    2    0  502 -0.20081966680E+02 -0.10915077554E+03  0.46766498203E+02  0.20997209943E+03  0.17200000000E+03 0. -1.
</event>
<event>
 4    1  0.5718861E+000  0.2027228E+03  0.7818608E-02  0.1147462E+00
         21   -1    0    0  503  502  0.00000000000E+00  0.00000000000E+00  0.63125062104E+02  0.63125062104E+02  0.00000000000E+00 0. -1.
         21   -1    0    0  501  503 -0.00000000000E+00 -0.00000000000E+00 -0.65182694009E+03  0.65182694009E+03  0.00000000000E+00 0.  1.
          6    1    1    2  501    0  0.21426614750E+02  0.10513524267E+03 -0.30682436347E+03  0.36774680024E+03  0.17200000000E+03 0. -1.
         -6    1    1    2    0  502 -0.21426614750E+02 -0.10513524267E+03 -0.28187751452E+03  0.34720520195E+03  0.17200000000E+03 0. -1.
</event>
<event>
 4    1  0.5718861E+000  0.1868037E+03  0.7818608E-02  0.1161376E+00
         21   -1    0    0  503  502  0.00000000000E+00  0.00000000000E+00  0.10057865909E+04  0.10057865909E+04  0.00000000000E+00 0. -1.
         21   -1    0    0  501  503 -0.00000000000E+00 -0.00000000000E+00 -0.48200908151E+02  0.48200908151E+02  0.00000000000E+00 0. -1.
          6    1    1    2  501    0  0.66169590623E+02  0.30548472052E+02  0.19983278756E+03  0.27354847258E+03  0.17200000000E+03 0. -1.
         -6    1    1    2    0  502 -0.66169590623E+02 -0.30548472052E+02  0.75775289517E+03  0.78043902645E+03  0.17200000000E+03 0. -1.
</event>
<event>
 4    1  0.5718861E+000  0.1828491E+03  0.7818608E-02  0.1165074E+00
         21   -1    0    0  503  502  0.00000000000E+00  0.00000000000E+00  0.17140197617E+03  0.17140197617E+03  0.00000000000E+00 0. -1.
         21   -1    0    0  501  503 -0.00000000000E+00 -0.00000000000E+00 -0.22192047171E+03  0.22192047171E+03  0.00000000000E+00 0. -1.
          6    1    1    2  501    0 -0.28805769261E+02  0.54954791245E+02 -0.93677290870E+02  0.20544886529E+03  0.17200000000E+03 0. -1.
         -6    1    1    2    0  502  0.28805769261E+02 -0.54954791245E+02  0.43158795325E+02  0.18787358260E+03  0.17200000000E+03 0. -1.
</event>
<event>
 4    1  0.5718861E+000  0.1933254E+03  0.7818608E-02  0.1155496E+00
         21   -1    0    0  503  502  0.00000000000E+00  0.00000000000E+00  0.20520941005E+03  0.20520941005E+03  0.00000000000E+00 0.  1.
         21   -1    0    0  501  503 -0.00000000000E+00 -0.00000000000E+00 -0.19674913309E+03  0.19674913309E+03  0.00000000000E+00 0.  1.
          6    1    1    2  501    0  0.85678648649E+02 -0.21210023839E+02 -0.50554961837E+02  0.19982617474E+03  0.17200000000E+03 0.  1.
         -6    1    1    2    0  502 -0.85678648649E+02  0.21210023839E+02  0.59015238793E+02  0.20213236840E+03  0.17200000000E+03 0.  1.
</event>
<event>
 4    1  0.5718861E+000  0.1804210E+03  0.7818608E-02  0.1167396E+00
         21   -1    0    0  503  502  0.00000000000E+00  0.00000000000E+00  0.33231700249E+03  0.33231700249E+03  0.00000000000E+00 0. -1.
         21   -1    0    0  501  503 -0.00000000000E+00 -0.00000000000E+00 -0.22979424441E+03  0.22979424441E+03  0.00000000000E+00 0. -1.
          6    1    1    2  501    0 -0.16224091541E+02 -0.52004813545E+02 -0.16162456729E+03  0.24222762544E+03  0.17200000000E+03 0. -1.
         -6    1    1    2    0  502  0.16224091541E+02  0.52004813545E+02  0.26414732537E+03  0.31988362146E+03  0.17200000000E+03 0. -1.
</event>
<event>
 4    1  0.5718861E+000  0.1824333E+03  0.7818608E-02  0.1165469E+00
         21   -1    0    0  501  502  0.00000000000E+00  0.00000000000E+00  0.14392361768E+03  0.14392361768E+03  0.00000000000E+00 0. -1.
         21   -1    0    0  502  503 -0.00000000000E+00 -0.00000000000E+00 -0.42291871744E+03  0.42291871744E+03  0.00000000000E+00 0. -1.
          6    1    1    2  501    0 -0.13250586249E+02 -0.59349079770E+02  0.51304463453E+02  0.18950999783E+03  0.17200000000E+03 0. -1.
         -6    1    1    2    0  503  0.13250586249E+02  0.59349079770E+02 -0.33029956322E+03  0.37733233730E+03  0.17200000000E+03 0. -1.
</event>
<event>
 4    1  0.5718861E+000  0.1779938E+03  0.7818608E-02  0.1169759E+00
         21   -1    0    0  501  502  0.00000000000E+00  0.00000000000E+00  0.31863759282E+03  0.31863759282E+03  0.00000000000E+00 0. -1.
         21   -1    0    0  502  503 -0.00000000000E+00 -0.00000000000E+00 -0.10733582854E+03  0.10733582854E+03  0.00000000000E+00 0. -1.
          6    1    1    2  501    0 -0.38696405035E+01 -0.45637811692E+02  0.16345838053E+03  0.24166180116E+03  0.17200000000E+03 0. -1.
         -6    1    1    2    0  503  0.38696405035E+01  0.45637811692E+02  0.47843383753E+02  0.18431162020E+03  0.17200000000E+03 0. -1.
</event>
<event>
 4    1  0.5718861E+000  0.1953785E+03  0.7818608E-02  0.1153698E+00
         21   -1    0    0  503  502  0.00000000000E+00  0.00000000000E+00  0.16303406807E+03  0.16303406807E+03  0.00000000000E+00 0. -1.
         21   -1    0    0  501  503 -0.00000000000E+00 -0.00000000000E+00 -0.23442372300E+03  0.23442372300E+03  0.00000000000E+00 0. -1.
          6    1    1    2  501    0 -0.49586781294E+02  0.78293677826E+02 -0.42612052999E+02  0.19997133776E+03  0.17200000000E+03 0. -1.
         -6    1    1    2    0  502  0.49586781294E+02 -0.78293677826E+02 -0.28777601932E+02  0.19748645331E+03  0.17200000000E+03 0. -1.
</event>
<event>
 4    1  0.5718861E+000  0.1907542E+03  0.7818608E-02  0.1157783E+00
         21   -1    0    0  503  502  0.00000000000E+00  0.00000000000E+00  0.23171043576E+02  0.23171043576E+02  0.00000000000E+00 0.  1.
         21   -1    0    0  501  503 -0.00000000000E+00 -0.00000000000E+00 -0.20325607481E+04  0.20325607481E+04  0.00000000000E+00 0.  1.
          6    1    1    2  501    0 -0.56539409228E+02  0.60053700633E+02 -0.14948397669E+04  0.15069615391E+04  0.17200000000E+03 0.  1.
         -6    1    1    2    0  502  0.56539409228E+02 -0.60053700633E+02 -0.51454993764E+03  0.54877025255E+03  0.17200000000E+03 0.  1.
</event>
<event>
 4    1  0.5718861E+000  0.2449504E+03  0.7818608E-02  0.1116538E+00
         21   -1    0    0  503  502  0.00000000000E+00  0.00000000000E+00  0.14046421931E+04  0.14046421931E+04  0.00000000000E+00 0. -1.
         21   -1    0    0  501  503 -0.00000000000E+00 -0.00000000000E+00 -0.45083577343E+02  0.45083577343E+02  0.00000000000E+00 0. -1.
          6    1    1    2  501    0 -0.15173868422E+03  0.85977065884E+02  0.51366787094E+03  0.56908291644E+03  0.17200000000E+03 0. -1.
         -6    1    1    2    0  502  0.15173868422E+03 -0.85977065884E+02  0.84589074486E+03  0.88064285405E+03  0.17200000000E+03 0. -1.
</event>
<event>
 4    1  0.5718861E+000  0.2044949E+03  0.7818608E-02  0.1146001E+00
         21   -1    0    0  503  502  0.00000000000E+00  0.00000000000E+00  0.89094988154E+02  0.89094988154E+02  0.00000000000E+00 0.  1.
         21   -1    0    0  501  503 -0.00000000000E+00 -0.00000000000E+00 -0.46937593855E+03  0.46937593855E+03  0.00000000000E+00 0. -1.
          6    1    1    2  501    0  0.88558120913E+02  0.66269264926E+02 -0.18885414976E+03  0.27835956268E+03  0.17200000000E+03 0. -1.
         -6    1    1    2    0  502 -0.88558120913E+02 -0.66269264926E+02 -0.19142680064E+03  0.28011136403E+03  0.17200000000E+03 0. -1.
</event>
<event>
 4    1  0.5718861E+000  0.1835809E+03  0.7818608E-02  0.1164382E+00
         21   -1    0    0  501  502  0.00000000000E+00  0.00000000000E+00  0.49646258175E+02  0.49646258175E+02  0.00000000000E+00 0.  1.
         21   -1    0    0  502  503 -0.00000000000E+00 -0.00000000000E+00 -0.10729029025E+04  0.10729029025E+04  0.00000000000E+00 0. -1.
          6    1    1    2  501    0 -0.19984798387E+02 -0.60979898277E+02 -0.17147312143E+03  0.25120702923E+03  0.17200000000E+03 0.  1.
         -6    1    1    2    0  503  0.19984798387E+02  0.60979898277E+02 -0.85178352292E+03  0.87134213147E+03  0.17200000000E+03 0. -1.
</event>
<event>
 4    1  0.5718861E+000  0.1882561E+03  0.7818608E-02  0.1160044E+00
         21   -1    0    0  503  502  0.00000000000E+00  0.00000000000E+00  0.39704822976E+02  0.39704822976E+02  0.00000000000E+00 0.  1.
         21   -1    0    0  501  503 -0.00000000000E+00 -0.00000000000E+00 -0.90975021644E+03  0.90975021644E+03  0.00000000000E+00 0.  1.
          6    1    1    2  501    0 -0.40325184942E+02  0.65040344116E+02 -0.50021082827E+03  0.53446350635E+03  0.17200000000E+03 0. -1.
         -6    1    1    2    0  502  0.40325184942E+02 -0.65040344116E+02 -0.36983456520E+03  0.41499153307E+03  0.17200000000E+03 0. -1.
</event>
<event>
 4    1  0.5718861E+000  0.1910533E+03  0.7818608E-02  0.1157515E+00
         21   -1    0    0  501  502  0.00000000000E+00  0.00000000000E+00  0.13810932927E+04  0.13810932927E+04  0.00000000000E+00 0.  1.
         21   -1    0    0  502  503 -0.00000000000E+00 -0.00000000000E+00 -0.27026226503E+02  0.27026226503E+02  0.00000000000E+00 0.  1.
          6    1    1    2  501    0  0.50895743315E+01  0.83014751514E+02  0.78166708910E+03  0.80467682390E+03  0.17200000000E+03 0.  1.
         -6    1    1    2    0  503 -0.50895743315E+01 -0.83014751514E+02  0.57239997707E+03  0.60344269528E+03  0.17200000000E+03 0.  1.
</event>
<event>
 4    1  0.5718861E+000  0.2008606E+03  0.7818608E-02  0.1149015E+00
         21   -1    0    0  503  502  0.00000000000E+00  0.00000000000E+00  0.13408420168E+03  0.13408420168E+03  0.00000000000E+00 0.  1.
         21   -1    0    0  501  503 -0.00000000000E+00 -0.00000000000E+00 -0.30111684318E+03  0.30111684318E+03  0.00000000000E+00 0. -1.
          6    1    1    2  501    0 -0.73640597904E+02  0.73061804424E+02 -0.89452422183E+02  0.21987883200E+03  0.17200000000E+03 0. -1.
         -6    1    1    2    0  502  0.73640597904E+02 -0.73061804424E+02 -0.77580219312E+02  0.21532221287E+03  0.17200000000E+03 0. -1.
</event>
<event>
 4    1  0.5718861E+000  0.1855362E+03  0.7818608E-02  0.1162550E+00
         21   -1    0    0  503  502  0.00000000000E+00  0.00000000000E+00  0.79918776968E+03  0.79918776968E+03  0.00000000000E+00 0.  1.
         21   -1    0    0  501  503 -0.00000000000E+00 -0.00000000000E+00 -0.47051056609E+02  0.47051056609E+02  0.00000000000E+00 0.  1.
          6    1    1    2  501    0 -0.52037300480E+02  0.46171473555E+02  0.25304282694E+03  0.31377437416E+03  0.17200000000E+03 0.  1.
         -6    1    1    2    0  502  0.52037300480E+02 -0.46171473555E+02  0.49909388613E+03  0.53246445214E+03  0.17200000000E+03 0.  1.
</event>
<event>
 4    1  0.5718861E+000  0.1941155E+03  0.7818608E-02  0.1154801E+00
         21   -1    0    0  501  502  0.00000000000E+00  0.00000000000E+00  0.53140003732E+03  0.53140003732E+03  0.00000000000E+00 0. -1.
         21   -1    0    0  502  503 -0.00000000000E+00 -0.00000000000E+00 -0.59323124259E+03  0.59323124259E+03  0.00000000000E+00 0. -1.
          6    1    1    2  501    0  0.82647213506E+02 -0.35584478778E+02  0.49672425443E+03  0.53330648033E+03  0.17200000000E+03 0. -1.
         -6    1    1    2    0  503 -0.82647213506E+02  0.35584478778E+02 -0.55855545970E+03  0.59132479957E+03  0.17200000000E+03 0. -1.
</event>
<event>
 4    1  0.5718861E+000  0.1767167E+03  0.7818608E-02  0.1171019E+00
         21   -1    0    0  501  502  0.00000000000E+00  0.00000000000E+00  0.11888710501E+03  0.11888710501E+03  0.00000000000E+00 0. -1.
         21   -1    0    0  502  503 -0.00000000000E+00 -0.00000000000E+00 -0.43993985860E+03  0.43993985860E+03  0.00000000000E+00 0.  1.
          6    1    1    2  501    0  0.34851878356E+02  0.20739889576E+02  0.16835684030E+02  0.17751686315E+03  0.17200000000E+03 0. -1.
         -6    1    1    2    0  503 -0.34851878356E+02 -0.20739889576E+02 -0.33788843762E+03  0.38131010047E+03  0.17200000000E+03 0.  1.
</event>
<event>
 4    1  0.5718861E+000  0.2864134E+03  0.7818608E-02  0.1092237E+00
         21   -1    0    0  501  502  0.00000000000E+00  0.00000000000E+00  0.40115655676E+03  0.40115655676E+03  0.00000000000E+00 0. -1.
         21   -1    0    0  502  503 -0.00000000000E+00 -0.00000000000E+00 -0.46858729104E+03  0.46858729104E+03  0.00000000000E+00 0.  1.
          6    1    1    2  501    0  0.57498293231E+02 -0.22168123908E+03  0.29275806268E+03  0.40956062891E+03  0.17200000000E+03 0. -1.
         -6    1    1    2    0  503 -0.57498293231E+02  0.22168123908E+03 -0.36018879696E+03  0.46018321888E+03  0.17200000000E+03 0.  1.
</event>
<event>
 4    1  0.5718861E+000  0.1880832E+03  0.7818608E-02  0.1160202E+00
         21   -1    0    0  503  502  0.00000000000E+00  0.00000000000E+00  0.62195498695E+03  0.62195498695E+03  0.00000000000E+00 0.  1.
         21   -1    0    0  501  503 -0.00000000000E+00 -0.00000000000E+00 -0.59008902236E+02  0.59008902236E+02  0.00000000000E+00 0. -1.
          6    1    1    2  501    0  0.75933573346E+02  0.50380932294E+01  0.34618143730E+03  0.39397573209E+03  0.17200000000E+03 0. -1.
         -6    1    1    2    0  502 -0.75933573346E+02 -0.50380932294E+01  0.21676464741E+03  0.28698815709E+03  0.17200000000E+03 0.  1.
</event>
<event>
 4    1  0.5718861E+000  0.1880015E+03  0.7818608E-02  0.1160276E+00
         21   -1    0    0  501  502  0.00000000000E+00  0.00000000000E+00  0.33549136116E+03  0.33549136116E+03  0.00000000000E+00 0.  1.
         21   -1    0    0  502  503 -0.00000000000E+00 -0.00000000000E+00 -0.11635121997E+03  0.11635121997E+03  0.00000000000E+00 0.  1.
          6    1    1    2  501    0  0.50429540433E+02  0.56722373123E+02  0.40106088151E+02  0.19223179879E+03  0.17200000000E+03 0.  1.
         -6    1    1    2    0  503 -0.50429540433E+02 -0.56722373123E+02  0.17903405303E+03  0.25961078234E+03  0.17200000000E+03 0.  1.
</event>
<event>
 4    1  0.5718861E+000  0.1954762E+03  0.7818608E-02  0.1153613E+00
         21   -1    0    0  501  502  0.00000000000E+00  0.00000000000E+00  0.21882856588E+02  0.21882856588E+02  0.00000000000E+00 0. -1.
         21   -1    0    0  502  503 -0.00000000000E+00 -0.00000000000E+00 -0.28955829877E+04  0.28955829877E+04  0.00000000000E+00 0. -1.
          6    1    1    2  501    0 -0.54335348303E+02  0.75330071302E+02 -0.51778156651E+03  0.55345162420E+03  0.17200000000E+03 0. -1.
         -6    1    1    2    0  503  0.54335348303E+02 -0.75330071302E+02 -0.23559185646E+04  0.23640142201E+04  0.17200000000E+03 0. -1.
</event>
<event>
 4    1  0.5718861E+000  0.2797781E+03  0.7818608E-02  0.1095810E+00
         21   -1    0    0  503  502  0.00000000000E+00  0.00000000000E+00  0.32319963736E+03  0.32319963736E+03  0.00000000000E+00 0.  1.
         21   -1    0    0  501  503 -0.00000000000E+00 -0.00000000000E+00 -0.32341334313E+03  0.32341334313E+03  0.00000000000E+00 0.  1.
          6    1    1    2  501    0 -0.12391924343E+03  0.18258099674E+03 -0.16212931683E+03  0.32336003871E+03  0.17200000000E+03 0.  1.
         -6    1    1    2    0  502  0.12391924343E+03 -0.18258099674E+03  0.16191561106E+03  0.32325294177E+03  0.17200000000E+03 0.  1.
</event>
<event>
 4    1  0.5718861E+000  0.1779372E+03  0.7818608E-02  0.1169815E+00
         21   -1    0    0  501  502  0.00000000000E+00  0.00000000000E+00  0.78500191976E+02  0.78500191976E+02  0.00000000000E+00 0.  1.
         21   -1    0    0  502  503 -0.00000000000E+00 -0.00000000000E+00 -0.55473334084E+03  0.55473334084E+03  0.00000000000E+00 0.  1.
          6    1    1    2  501    0 -0.56600472252E+01 -0.45228384520E+02 -0.72708550997E+02  0.19221908409E+03  0.17200000000E+03 0.  1.
         -6    1    1    2    0  503  0.56600472252E+01  0.45228384520E+02 -0.40352459787E+03  0.44101444873E+03  0.17200000000E+03 0.  1.
</event>
<event>
 4    1  0.5718861E+000  0.2032322E+03  0.7818608E-02  0.1147040E+00
         21   -1    0    0  501  502  0.00000000000E+00  0.00000000000E+00  0.19387841460E+03  0.19387841460E+03  0.00000000000E+00 0. -1.
         21   -1    0    0  502  503 -0.00000000000E+00 -0.00000000000E+00 -0.22481838958E+03  0.22481838958E+03  0.00000000000E+00 0.  1.
          6    1    1    2  501    0 -0.96407818794E+02 -0.49242797760E+02  0.32453424357E+02  0.20580705869E+03  0.17200000000E+03 0. -1.
         -6    1    1    2    0  503  0.96407818794E+02  0.49242797760E+02 -0.63393399332E+02  0.21288974549E+03  0.17200000000E+03 0.  1.
</event>
<event>
 4    1  0.5718861E+000  0.2056351E+03  0.7818608E-02  0.1145070E+00
         21   -1    0    0  501  502  0.00000000000E+00  0.00000000000E+00  0.11218885814E+04  0.11218885814E+04  0.00000000000E+00 0. -1.
         21   -1    0    0  502  503 -0.00000000000E+00 -0.00000000000E+00 -0.42712752562E+02  0.42712752562E+02  0.00000000000E+00 0. -1.
          6    1    1    2  501    0 -0.10725433554E+02  0.11219079048E+03  0.73923774881E+03  0.76730584362E+03  0.17200000000E+03 0. -1.
         -6    1    1    2    0  503  0.10725433554E+02 -0.11219079048E+03  0.33993808006E+03  0.39729549037E+03  0.17200000000E+03 0. -1.
</event>
<event>
 4    1  0.5718861E+000  0.1871003E+03  0.7818608E-02  0.1161103E+00
         21   -1    0    0  501  502  0.00000000000E+00  0.00000000000E+00  0.19260237272E+03  0.19260237272E+03  0.00000000000E+00 0. -1.
         21   -1    0    0  502  503 -0.00000000000E+00 -0.00000000000E+00 -0.22468006254E+03  0.22468006254E+03  0.00000000000E+00 0. -1.
          6    1    1    2  501    0  0.18944257675E+02 -0.71159285213E+02  0.75156167957E+02  0.20163079713E+03  0.17200000000E+03 0. -1.
         -6    1    1    2    0  503 -0.18944257675E+02  0.71159285213E+02 -0.10723385778E+03  0.21565163812E+03  0.17200000000E+03 0. -1.
</event>
<event>
 4    1  0.5718861E+000  0.1926098E+03  0.7818608E-02  0.1156128E+00
         21   -1    0    0  501  502  0.00000000000E+00  0.00000000000E+00  0.40114050332E+03  0.40114050332E+03  0.00000000000E+00 0. -1.
         21   -1    0    0  502  503 -0.00000000000E+00 -0.00000000000E+00 -0.12248924991E+03  0.12248924991E+03  0.00000000000E+00 0. -1.
          6    1    1    2  501    0  0.28136889699E+02  0.81993075062E+02  0.26891026091E+03  0.33077375552E+03  0.17200000000E+03 0.  1.
         -6    1    1    2    0  503 -0.28136889699E+02 -0.81993075062E+02  0.97409925033E+01  0.19285599772E+03  0.17200000000E+03 0.  1.
</event>
<event>
 4    1  0.5718861E+000  0.1840493E+03  0.7818608E-02  0.1163941E+00
         21   -1    0    0  503  502  0.00000000000E+00  0.00000000000E+00  0.28647902813E+03  0.28647902813E+03  0.00000000000E+00 0.  1.
         21   -1    0    0  501  503 -0.00000000000E+00 -0.00000000000E+00 -0.49663947933E+03  0.49663947933E+03  0.00000000000E+00 0.  1.
          6    1    1    2  501    0  0.64909316194E+02  0.87715049343E+01 -0.44686316288E+03  0.48328133108E+03  0.17200000000E+03 0.  1.
         -6    1    1    2    0  502 -0.64909316194E+02 -0.87715049343E+01  0.23670271167E+03  0.29983717638E+03  0.17200000000E+03 0.  1.
</event>
<event>
 4    1  0.5718861E+000  0.1957040E+03  0.7818608E-02  0.1153415E+00
         21   -1    0    0  503  502  0.00000000000E+00  0.00000000000E+00  0.13539201769E+03  0.13539201769E+03  0.00000000000E+00 0. -1.
         21   -1    0    0  501  503 -0.00000000000E+00 -0.00000000000E+00 -0.28525224155E+03  0.28525224155E+03  0.00000000000E+00 0. -1.
          6    1    1    2  501    0  0.89394176675E+02 -0.26920856273E+02 -0.94099495582E+02  0.21715148260E+03  0.17200000000E+03 0.  1.
         -6    1    1    2    0  502 -0.89394176675E+02  0.26920856273E+02 -0.55760728286E+02  0.20349277664E+03  0.17200000000E+03 0.  1.
</event>
<event>
 4    1  0.5718861E+000  0.2861776E+03  0.7818608E-02  0.1092362E+00
         21   -1    0    0  503  502  0.00000000000E+00  0.00000000000E+00  0.44847098580E+03  0.44847098580E+03  0.00000000000E+00 0.  1.
         21   -1    0    0  501  503 -0.00000000000E+00 -0.00000000000E+00 -0.26509659022E+03  0.26509659022E+03  0.00000000000E+00 0. -1.
          6    1    1    2  501    0 -0.18965070438E+03 -0.12785237654E+03 -0.10732560725E+03  0.30564097538E+03  0.17200000000E+03 0. -1.
         -6    1    1    2    0  502  0.18965070438E+03  0.12785237654E+03  0.29070000283E+03  0.40792660063E+03  0.17200000000E+03 0.  1.
</event>
<event>
 4    1  0.5718861E+000  0.2219271E+03  0.7818608E-02  0.1132454E+00
         21   -1    0    0  501  502  0.00000000000E+00  0.00000000000E+00  0.18096589273E+03  0.18096589273E+03  0.00000000000E+00 0. -1.
         21   -1    0    0  502  503 -0.00000000000E+00 -0.00000000000E+00 -0.27624035517E+03  0.27624035517E+03  0.00000000000E+00 0. -1.
          6    1    1    2  501    0 -0.86452572032E+02 -0.11042466240E+03 -0.75421224558E+02  0.23439286335E+03  0.17200000000E+03 0. -1.
         -6    1    1    2    0  503  0.86452572032E+02  0.11042466240E+03 -0.19853237880E+02  0.22281338454E+03  0.17200000000E+03 0. -1.
</event>
<event>
 4    1  0.5718861E+000  0.1975431E+03  0.7818608E-02  0.1151829E+00
         21   -1    0    0  501  502  0.00000000000E+00  0.00000000000E+00  0.41553004287E+03  0.41553004287E+03  0.00000000000E+00 0. -1.
         21   -1    0    0  502  503 -0.00000000000E+00 -0.00000000000E+00 -0.12082866890E+03  0.12082866890E+03  0.00000000000E+00 0. -1.
          6    1    1    2  501    0 -0.31912590909E+02  0.91765237101E+02  0.27392649731E+03  0.33772621771E+03  0.17200000000E+03 0. -1.
         -6    1    1    2    0  503  0.31912590909E+02 -0.91765237101E+02  0.20774876668E+02  0.19863249407E+03  0.17200000000E+03 0. -1.
</event>
<event>
 4    1  0.5718861E+000  0.1985393E+03  0.7818608E-02  0.1150977E+00
         21   -1    0    0  501  502  0.00000000000E+00  0.00000000000E+00  0.28032181655E+04  0.28032181655E+04  0.00000000000E+00 0. -1.
         21   -1    0    0  502  503 -0.00000000000E+00 -0.00000000000E+00 -0.14165632187E+02  0.14165632187E+02  0.00000000000E+00 0.  1.
          6    1    1    2  501    0 -0.80763098637E+02 -0.57542675244E+02  0.15152252714E+04  0.15281771692E+04  0.17200000000E+03 0. -1.
         -6    1    1    2    0  503  0.80763098637E+02  0.57542675244E+02  0.12738272620E+04  0.12892066285E+04  0.17200000000E+03 0.  1.
</event>
<event>
 4    1  0.5718861E+000  0.2020151E+03  0.7818608E-02  0.1148050E+00
         21   -1    0    0  501  502  0.00000000000E+00  0.00000000000E+00  0.42611174564E+03  0.42611174564E+03  0.00000000000E+00 0.  1.
         21   -1    0    0  502  503 -0.00000000000E+00 -0.00000000000E+00 -0.13334922476E+03  0.13334922476E+03  0.00000000000E+00 0. -1.
          6    1    1    2  501    0  0.10571051089E+03 -0.71681910266E+01  0.29487215957E+03  0.35743486898E+03  0.17200000000E+03 0.  1.
         -6    1    1    2    0  503 -0.10571051089E+03  0.71681910266E+01 -0.21096386920E+01  0.20202610141E+03  0.17200000000E+03 0. -1.
</event>
<event>
 4    1  0.5718861E+000  0.2026348E+03  0.7818608E-02  0.1147535E+00
         21   -1    0    0  501  502  0.00000000000E+00  0.00000000000E+00  0.12823678276E+03  0.12823678276E+03  0.00000000000E+00 0.  1.
         21   -1    0    0  502  503 -0.00000000000E+00 -0.00000000000E+00 -0.51605960727E+03  0.51605960727E+03  0.00000000000E+00 0. -1.
          6    1    1    2  501    0 -0.27547618047E+02  0.10352772146E+03  0.45531761773E+01  0.20268594373E+03  0.17200000000E+03 0.  1.
         -6    1    1    2    0  503  0.27547618047E+02 -0.10352772146E+03 -0.39237600069E+03  0.44161044631E+03  0.17200000000E+03 0. -1.
</event>
<event>
 4    1  0.5718861E+000  0.1802246E+03  0.7818608E-02  0.1167586E+00
         21   -1    0    0  503  502  0.00000000000E+00  0.00000000000E+00  0.24826472568E+02  0.24826472568E+02  0.00000000000E+00 0.  1.
         21   -1    0    0  501  503 -0.00000000000E+00 -0.00000000000E+00 -0.13306804920E+04  0.13306804920E+04  0.00000000000E+00 0.  1.
          6    1    1    2  501    0 -0.75790438619E+01 -0.53286488483E+02 -0.74079007959E+03  0.76239808091E+03  0.17200000000E+03 0.  1.
         -6    1    1    2    0  502  0.75790438619E+01  0.53286488483E+02 -0.56506393982E+03  0.59310888364E+03  0.17200000000E+03 0.  1.
</event>
<event>
 4    1  0.5718861E+000  0.2445337E+03  0.7818608E-02  0.1116809E+00
         21   -1    0    0  501  502  0.00000000000E+00  0.00000000000E+00  0.10213096578E+04  0.10213096578E+04  0.00000000000E+00 0. -1.
         21   -1    0    0  502  503 -0.00000000000E+00 -0.00000000000E+00 -0.65365488554E+02  0.65365488554E+02  0.00000000000E+00 0.  1.
          6    1    1    2  501    0 -0.17847171881E+02  0.17289947194E+03  0.65343002907E+03  0.69768728800E+03  0.17200000000E+03 0.  1.
         -6    1    1    2    0  503  0.17847171881E+02 -0.17289947194E+03  0.30251414015E+03  0.38898785833E+03  0.17200000000E+03 0. -1.
</event>
<event>
 4    1  0.5718861E+000  0.1807149E+03  0.7818608E-02  0.1167113E+00
         21   -1    0    0  501  502  0.00000000000E+00  0.00000000000E+00  0.45279044050E+02  0.45279044050E+02  0.00000000000E+00 0. -1.
         21   -1    0    0  502  503 -0.00000000000E+00 -0.00000000000E+00 -0.86468474710E+03  0.86468474710E+03  0.00000000000E+00 0. -1.
          6    1    1    2  501    0  0.54748186904E+02  0.87469520025E+01 -0.59500492466E+03  0.62184301356E+03  0.17200000000E+03 0. -1.
         -6    1    1    2    0  503 -0.54748186904E+02 -0.87469520025E+01 -0.22440077838E+03  0.28812077759E+03  0.17200000000E+03 0. -1.
</event>
<event>
 4    1  0.5718861E+000  0.1829859E+03  0.7818608E-02  0.1164944E+00
         21   -1    0    0  501  502  0.00000000000E+00  0.00000000000E+00  0.23535697016E+03  0.23535697016E+03  0.00000000000E+00 0.  1.
         21   -1    0    0  502  503 -0.00000000000E+00 -0.00000000000E+00 -0.44169408501E+03  0.44169408501E+03  0.00000000000E+00 0.  1.
          6    1    1    2  501    0 -0.10115175964E+02 -0.61624069284E+02  0.17555598411E+03  0.25358183345E+03  0.17200000000E+03 0.  1.
         -6    1    1    2    0  503  0.10115175964E+02  0.61624069284E+02 -0.38189309897E+03  0.42346922172E+03  0.17200000000E+03 0.  1.
</event>
<event>
 4    1  0.5718861E+000  0.2469378E+03  0.7818608E-02  0.1115255E+00
         21   -1    0    0  501  502  0.00000000000E+00  0.00000000000E+00  0.40029702933E+03  0.40029702933E+03  0.00000000000E+00 0.  1.
         21   -1    0    0  502  503 -0.00000000000E+00 -0.00000000000E+00 -0.15624623342E+03  0.15624623342E+03  0.00000000000E+00 0. -1.
          6    1    1    2  501    0  0.16695334613E+02  0.17639602237E+03  0.16606604806E+03  0.29758397676E+03  0.17200000000E+03 0.  1.
         -6    1    1    2    0  503 -0.16695334613E+02 -0.17639602237E+03  0.77984747848E+02  0.25895928599E+03  0.17200000000E+03 0.  1.
</event>
<event>
 4    1  0.5718861E+000  0.1831101E+03  0.7818608E-02  0.1164827E+00
         21   -1    0    0  503  502  0.00000000000E+00  0.00000000000E+00  0.18921309271E+03  0.18921309271E+03  0.00000000000E+00 0. -1.
         21   -1    0    0  501  503 -0.00000000000E+00 -0.00000000000E+00 -0.20063052030E+03  0.20063052030E+03  0.00000000000E+00 0. -1.
          6    1    1    2  501    0 -0.51451934770E+02 -0.36027680456E+02  0.60897826356E+02  0.19297108749E+03  0.17200000000E+03 0. -1.
         -6    1    1    2    0  502  0.51451934770E+02  0.36027680456E+02 -0.72315253948E+02  0.19687252552E+03  0.17200000000E+03 0. -1.
</event>
<event>
 4    1  0.5718861E+000  0.1999142E+03  0.7818608E-02  0.1149811E+00
         21   -1    0    0  503  502  0.00000000000E+00  0.00000000000E+00  0.20067850093E+03  0.20067850093E+03  0.00000000000E+00 0. -1.
         21   -1    0    0  501  503 -0.00000000000E+00 -0.00000000000E+00 -0.23631530611E+03  0.23631530611E+03  0.00000000000E+00 0.  1.
          6    1    1    2  501    0 -0.24535787327E+02 -0.98892182886E+02 -0.10446516561E+03  0.22556293916E+03  0.17200000000E+03 0. -1.
         -6    1    1    2    0  502  0.24535787327E+02  0.98892182886E+02  0.68828360426E+02  0.21143086789E+03  0.17200000000E+03 0. -1.
</event>
<event>
 4    1  0.5718861E+000  0.2477556E+03  0.7818608E-02  0.1114731E+00
         21   -1    0    0  503  502  0.00000000000E+00  0.00000000000E+00  0.32639892451E+03  0.32639892451E+03  0.00000000000E+00 0.  1.
         21   -1    0    0  501  503 -0.00000000000E+00 -0.00000000000E+00 -0.18914865495E+03  0.18914865495E+03  0.00000000000E+00 0.  1.
          6    1    1    2  501    0 -0.17415878937E+03 -0.38308967364E+02  0.49076717752E+02  0.25256956491E+03  0.17200000000E+03 0.  1.
         -6    1    1    2    0  502  0.17415878937E+03  0.38308967364E+02  0.88173551813E+02  0.26297801455E+03  0.17200000000E+03 0.  1.
</event>
<event>
 4    1  0.5718861E+000  0.2383189E+03  0.7818608E-02  0.1120918E+00
         21   -1    0    0  501  502  0.00000000000E+00  0.00000000000E+00  0.44279091034E+03  0.44279091034E+03  0.00000000000E+00 0. -1.
         21   -1    0    0  502  503 -0.00000000000E+00 -0.00000000000E+00 -0.37483252838E+03  0.37483252838E+03  0.00000000000E+00 0.  1.
          6    1    1    2  501    0 -0.14380361750E+03 -0.80823396250E+02  0.36554520256E+03  0.43637048124E+03  0.17200000000E+03 0. -1.
         -6    1    1    2    0  503  0.14380361750E+03  0.80823396250E+02 -0.29758682060E+03  0.38125295748E+03  0.17200000000E+03 0.  1.
</event>
<event>
 4    1  0.5718861E+000  0.1799339E+03  0.7818608E-02  0.1167867E+00
         21   -1    0    0  501  502  0.00000000000E+00  0.00000000000E+00  0.79394705798E+03  0.79394705798E+03  0.00000000000E+00 0. -1.
         21   -1    0    0  502  503 -0.00000000000E+00 -0.00000000000E+00 -0.92139571390E+02  0.92139571390E+02  0.00000000000E+00 0. -1.
          6    1    1    2  501    0  0.51805743443E+02 -0.10410622912E+02  0.68168342196E+03  0.70503085316E+03  0.17200000000E+03 0. -1.
         -6    1    1    2    0  503 -0.51805743443E+02  0.10410622912E+02  0.20124064626E+02  0.18105577621E+03  0.17200000000E+03 0. -1.
</event>
<event>
 4    1  0.5718861E+000  0.2901186E+03  0.7818608E-02  0.1090287E+00
         21   -1    0    0  501  502  0.00000000000E+00  0.00000000000E+00  0.31382969306E+03  0.31382969306E+03  0.00000000000E+00 0. -1.
         21   -1    0    0  502  503 -0.00000000000E+00 -0.00000000000E+00 -0.37371034415E+03  0.37371034415E+03  0.00000000000E+00 0.  1.
          6    1    1    2  501    0  0.21864518485E+03  0.82335125371E+02 -0.21260314125E+03  0.35967886426E+03  0.17200000000E+03 0.  1.
         -6    1    1    2    0  503 -0.21864518485E+03 -0.82335125371E+02  0.15272249016E+03  0.32786117295E+03  0.17200000000E+03 0. -1.
</event>
<event>
 4    1  0.5718861E+000  0.2274324E+03  0.7818608E-02  0.1128460E+00
         21   -1    0    0  501  502  0.00000000000E+00  0.00000000000E+00  0.14537834206E+03  0.14537834206E+03  0.00000000000E+00 0.  1.
         21   -1    0    0  502  503 -0.00000000000E+00 -0.00000000000E+00 -0.65924988599E+03  0.65924988599E+03  0.00000000000E+00 0. -1.
          6    1    1    2  501    0 -0.64644271448E+02  0.13402470407E+03  0.16014965907E+02  0.22799557510E+03  0.17200000000E+03 0.  1.
         -6    1    1    2    0  503  0.64644271448E+02 -0.13402470407E+03 -0.52988650984E+03  0.57663265295E+03  0.17200000000E+03 0. -1.
</event>
<event>
 4    1  0.5718861E+000  0.2041054E+03  0.7818608E-02  0.1146321E+00
         21   -1    0    0  503  502  0.00000000000E+00  0.00000000000E+00  0.44667580629E+03  0.44667580629E+03  0.00000000000E+00 0.  1.
         21   -1    0    0  501  503 -0.00000000000E+00 -0.00000000000E+00 -0.12523688250E+03  0.12523688250E+03  0.00000000000E+00 0. -1.
          6    1    1    2  501    0 -0.94304733162E+02  0.56405886416E+02  0.16235066368E+02  0.20475005274E+03  0.17200000000E+03 0. -1.
         -6    1    1    2    0  502  0.94304733162E+02 -0.56405886416E+02  0.30520385743E+03  0.36716263604E+03  0.17200000000E+03 0.  1.
</event>
<event>
 4    1  0.5718861E+000  0.2319383E+03  0.7818608E-02  0.1125283E+00
         21   -1    0    0  501  502  0.00000000000E+00  0.00000000000E+00  0.49875861799E+03  0.49875861799E+03  0.00000000000E+00 0. -1.
         21   -1    0    0  502  503 -0.00000000000E+00 -0.00000000000E+00 -0.13069676979E+03  0.13069676979E+03  0.00000000000E+00 0. -1.
          6    1    1    2  501    0 -0.14983532735E+03  0.41961179952E+02  0.31559397922E+03  0.39165664257E+03  0.17200000000E+03 0. -1.
         -6    1    1    2    0  503  0.14983532735E+03 -0.41961179952E+02  0.52467868980E+02  0.23779874521E+03  0.17200000000E+03 0. -1.
</event>
<event>
 4    1  0.5718861E+000  0.2435101E+03  0.7818608E-02  0.1117476E+00
         21   -1    0    0  501  502  0.00000000000E+00  0.00000000000E+00  0.21890470704E+03  0.21890470704E+03  0.00000000000E+00 0.  1.
         21   -1    0    0  502  503 -0.00000000000E+00 -0.00000000000E+00 -0.38012641148E+03  0.38012641148E+03  0.00000000000E+00 0. -1.
          6    1    1    2  501    0 -0.16339071974E+03 -0.54924096663E+02  0.79956203265E+02  0.25630095226E+03  0.17200000000E+03 0.  1.
         -6    1    1    2    0  503  0.16339071974E+03  0.54924096663E+02 -0.24117790770E+03  0.34273016625E+03  0.17200000000E+03 0. -1.
</event>
<event>
 4    1  0.5718861E+000  0.1958001E+03  0.7818608E-02  0.1153332E+00
         21   -1    0    0  501  502  0.00000000000E+00  0.00000000000E+00  0.27096594162E+03  0.27096594162E+03  0.00000000000E+00 0. -1.
         21   -1    0    0  502  503 -0.00000000000E+00 -0.00000000000E+00 -0.14963335874E+03  0.14963335874E+03  0.00000000000E+00 0. -1.
          6    1    1    2  501    0 -0.25522511873E+02  0.90012759863E+02  0.10974030848E+03  0.22445630055E+03  0.17200000000E+03 0. -1.
         -6    1    1    2    0  503  0.25522511873E+02 -0.90012759863E+02  0.11592274409E+02  0.19614299981E+03  0.17200000000E+03 0. -1.
</event>
<event>
 4    1  0.5718861E+000  0.1764564E+03  0.7818608E-02  0.1171277E+00
         21   -1    0    0  503  502  0.00000000000E+00  0.00000000000E+00  0.16042815086E+03  0.16042815086E+03  0.00000000000E+00 0.  1.
         21   -1    0    0  501  503 -0.00000000000E+00 -0.00000000000E+00 -0.58561100242E+03  0.58561100242E+03  0.00000000000E+00 0.  1.
          6    1    1    2  501    0 -0.38078343175E+02 -0.10143891150E+02 -0.51759628556E+03  0.54684803517E+03  0.17200000000E+03 0.  1.
         -6    1    1    2    0  502  0.38078343175E+02  0.10143891150E+02  0.92413434001E+02  0.19919111810E+03  0.17200000000E+03 0.  1.
</event>
<event>
 4    1  0.5718861E+000  0.2864695E+03  0.7818608E-02  0.1092207E+00
         21   -1    0    0  501  502  0.00000000000E+00  0.00000000000E+00  0.10855473647E+04  0.10855473647E+04  0.00000000000E+00 0. -1.
         21   -1    0    0  502  503 -0.00000000000E+00 -0.00000000000E+00 -0.82290196954E+02  0.82290196954E+02  0.00000000000E+00 0. -1.
          6    1    1    2  501    0  0.22664032924E+03 -0.33390749530E+02  0.66815209654E+03  0.72697455602E+03  0.17200000000E+03 0. -1.
         -6    1    1    2    0  503 -0.22664032924E+03  0.33390749530E+02  0.33510507123E+03  0.44086300566E+03  0.17200000000E+03 0. -1.
</event>
<event>
 4    1  0.5718861E+000  0.3074372E+03  0.7818608E-02  0.1081581E+00
         21   -1    0    0  501  502  0.00000000000E+00  0.00000000000E+00  0.75840077699E+02  0.75840077699E+02  0.00000000000E+00 0. -1.
         21   -1    0    0  502  503 -0.00000000000E+00 -0.00000000000E+00 -0.16457717650E+04  0.16457717650E+04  0.00000000000E+00 0.  1.
          6    1    1    2  501    0 -0.80628526325E+02 -0.24172855559E+03 -0.36085767410E+03  0.47406319706E+03  0.17200000000E+03 0. -1.
         -6    1    1    2    0  503  0.80628526325E+02  0.24172855559E+03 -0.12090740132E+04  0.12475486456E+04  0.17200000000E+03 0.  1.
</event>
<event>
 4    1  0.5718861E+000  0.2092713E+03  0.7818608E-02  0.1142144E+00
         21   -1    0    0  501  502  0.00000000000E+00  0.00000000000E+00  0.80860050890E+03  0.80860050890E+03  0.00000000000E+00 0.  1.
         21   -1    0    0  502  503 -0.00000000000E+00 -0.00000000000E+00 -0.12344811366E+03  0.12344811366E+03  0.00000000000E+00 0. -1.
          6    1    1    2  501    0 -0.10909150515E+03 -0.48057287156E+02  0.69171102358E+03  0.72267461522E+03  0.17200000000E+03 0.  1.
         -6    1    1    2    0  503  0.10909150515E+03  0.48057287156E+02 -0.65586283342E+01  0.20937400734E+03  0.17200000000E+03 0. -1.
</event>
<event>
 4    1  0.5718861E+000  0.3120433E+03  0.7818608E-02  0.1079371E+00
         21   -1    0    0  501  502  0.00000000000E+00  0.00000000000E+00  0.38887528757E+02  0.38887528757E+02  0.00000000000E+00 0.  1.
         21   -1    0    0  502  503 -0.00000000000E+00 -0.00000000000E+00 -0.25051662221E+04  0.25051662221E+04  0.00000000000E+00 0.  1.
          6    1    1    2  501    0 -0.57386790238E+02  0.25395627759E+03 -0.12615766057E+04  0.12995947701E+04  0.17200000000E+03 0.  1.
         -6    1    1    2    0  503  0.57386790238E+02 -0.25395627759E+03 -0.12047020876E+04  0.12444589807E+04  0.17200000000E+03 0.  1.
</event>
<event>
 4    1  0.5718861E+000  0.2064840E+03  0.7818608E-02  0.1144381E+00
         21   -1    0    0  503  502  0.00000000000E+00  0.00000000000E+00  0.15863924398E+03  0.15863924398E+03  0.00000000000E+00 0. -1.
         21   -1    0    0  501  503 -0.00000000000E+00 -0.00000000000E+00 -0.35159040662E+03  0.35159040662E+03  0.00000000000E+00 0. -1.
          6    1    1    2  501    0  0.11148288028E+03  0.24964133940E+02 -0.22030279342E+03  0.30194198345E+03  0.17200000000E+03 0.  1.
         -6    1    1    2    0  502 -0.11148288028E+03 -0.24964133940E+02  0.27351630782E+02  0.20828766715E+03  0.17200000000E+03 0.  1.
</event>
<event>
 4    1  0.5718861E+000  0.4070413E+03  0.7818608E-02  0.1041368E+00
         21   -1    0    0  501  502  0.00000000000E+00  0.00000000000E+00  0.25385421585E+03  0.25385421585E+03  0.00000000000E+00 0.  1.
         21   -1    0    0  502  503 -0.00000000000E+00 -0.00000000000E+00 -0.12562257373E+04  0.12562257373E+04  0.00000000000E+00 0. -1.
          6    1    1    2  501    0 -0.35843253575E+03  0.87319585593E+02 -0.10245396014E+04  0.11024354800E+04  0.17200000000E+03 0. -1.
         -6    1    1    2    0  503  0.35843253575E+03 -0.87319585593E+02  0.22168079976E+02  0.40764447314E+03  0.17200000000E+03 0.  1.
</event>
<event>
 4    1  0.5718861E+000  0.2009350E+03  0.7818608E-02  0.1148953E+00
         21   -1    0    0  501  502  0.00000000000E+00  0.00000000000E+00  0.34280543102E+03  0.34280543102E+03  0.00000000000E+00 0.  1.
         21   -1    0    0  502  503 -0.00000000000E+00 -0.00000000000E+00 -0.12101034793E+03  0.12101034793E+03  0.00000000000E+00 0.  1.
          6    1    1    2  501    0 -0.71824871842E+02 -0.75047104970E+02  0.14880063543E+03  0.25003301639E+03  0.17200000000E+03 0.  1.
         -6    1    1    2    0  503  0.71824871842E+02  0.75047104970E+02  0.72994447664E+02  0.21378276256E+03  0.17200000000E+03 0.  1.
</event>
<event>
 4    1  0.5718861E+000  0.2161288E+03  0.7818608E-02  0.1136802E+00
         21   -1    0    0  501  502  0.00000000000E+00  0.00000000000E+00  0.53032848323E+03  0.53032848323E+03  0.00000000000E+00 0. -1.
         21   -1    0    0  502  503 -0.00000000000E+00 -0.00000000000E+00 -0.29098628671E+03  0.29098628671E+03  0.00000000000E+00 0. -1.
          6    1    1    2  501    0  0.85168101094E+02 -0.99368366068E+02  0.46258921641E+03  0.51058834765E+03  0.17200000000E+03 0. -1.
         -6    1    1    2    0  503 -0.85168101094E+02  0.99368366068E+02 -0.22324701989E+03  0.31072642229E+03  0.17200000000E+03 0. -1.
</event>
<event>
 4    1  0.5718861E+000  0.1980530E+03  0.7818608E-02  0.1151392E+00
         21   -1    0    0  501  502  0.00000000000E+00  0.00000000000E+00  0.92493240926E+03  0.92493240926E+03  0.00000000000E+00 0. -1.
         21   -1    0    0  502  503 -0.00000000000E+00 -0.00000000000E+00 -0.53472699462E+02  0.53472699462E+02  0.00000000000E+00 0.  1.
          6    1    1    2  501    0  0.15792864922E+02  0.96910204153E+02  0.65825676046E+03  0.68740596808E+03  0.17200000000E+03 0. -1.
         -6    1    1    2    0  503 -0.15792864922E+02 -0.96910204153E+02  0.21320294933E+03  0.29099914065E+03  0.17200000000E+03 0.  1.
</event>
<event>
 4    1  0.5718861E+000  0.3031326E+03  0.7818608E-02  0.1083685E+00
         21   -1    0    0  503  502  0.00000000000E+00  0.00000000000E+00  0.13621578851E+03  0.13621578851E+03  0.00000000000E+00 0.  1.
         21   -1    0    0  501  503 -0.00000000000E+00 -0.00000000000E+00 -0.76383152389E+03  0.76383152389E+03  0.00000000000E+00 0.  1.
          6    1    1    2  501    0 -0.12656323279E+03 -0.21514445584E+03 -0.46763308806E+03  0.55728816049E+03  0.17200000000E+03 0.  1.
         -6    1    1    2    0  502  0.12656323279E+03  0.21514445584E+03 -0.15998264733E+03  0.34275915191E+03  0.17200000000E+03 0.  1.
</event>
<event>
 4    1  0.5718861E+000  0.2660836E+03  0.7818608E-02  0.1103542E+00
         21   -1    0    0  501  502  0.00000000000E+00  0.00000000000E+00  0.30485454657E+04  0.30485454657E+04  0.00000000000E+00 0.  1.
         21   -1    0    0  502  503 -0.00000000000E+00 -0.00000000000E+00 -0.23252341128E+02  0.23252341128E+02  0.00000000000E+00 0. -1.
          6    1    1    2  501    0  0.19946742282E+03  0.37805489596E+02  0.15659292637E+04  0.15883749453E+04  0.17200000000E+03 0.  1.
         -6    1    1    2    0  503 -0.19946742282E+03 -0.37805489596E+02  0.14593638609E+04  0.14834228616E+04  0.17200000000E+03 0. -1.
</event>
<event>
 4    1  0.5718861E+000  0.2687067E+03  0.7818608E-02  0.1102022E+00
         21   -1    0    0  503  502  0.00000000000E+00  0.00000000000E+00  0.27282557161E+03  0.27282557161E+03  0.00000000000E+00 0.  1.
         21   -1    0    0  501  503 -0.00000000000E+00 -0.00000000000E+00 -0.27873782380E+03  0.27873782380E+03  0.00000000000E+00 0.  1.
          6    1    1    2  501    0 -0.96522974123E+02 -0.18248997798E+03 -0.64955893673E+02  0.27644627818E+03  0.17200000000E+03 0.  1.
         -6    1    1    2    0  502  0.96522974123E+02  0.18248997798E+03  0.59043641479E+02  0.27511711723E+03  0.17200000000E+03 0.  1.
</event>
<event>
 4    1  0.5718861E+000  0.1949965E+03  0.7818608E-02  0.1154030E+00
         21   -1    0    0  503  502  0.00000000000E+00  0.00000000000E+00  0.58672368621E+03  0.58672368621E+03  0.00000000000E+00 0. -1.
         21   -1    0    0  501  503 -0.00000000000E+00 -0.00000000000E+00 -0.14956180080E+03  0.14956180080E+03  0.00000000000E+00 0. -1.
          6    1    1    2  501    0 -0.79408797037E+02  0.46194055919E+02 -0.58552366888E+02  0.20359771000E+03  0.17200000000E+03 0. -1.
         -6    1    1    2    0  502  0.79408797037E+02 -0.46194055919E+02  0.49571425230E+03  0.53268777702E+03  0.17200000000E+03 0. -1.
</event>
<event>
 4    1  0.5718861E+000  0.2054021E+03  0.7818608E-02  0.1145260E+00
         21   -1    0    0  503  502  0.00000000000E+00  0.00000000000E+00  0.66967381337E+03  0.66967381337E+03  0.00000000000E+00 0.  1.
         21   -1    0    0  501  503 -0.00000000000E+00 -0.00000000000E+00 -0.58444687139E+03  0.58444687139E+03  0.00000000000E+00 0.  1.
          6    1    1    2  501    0 -0.61630521331E+02  0.93849390882E+02 -0.54968619690E+03  0.58680912092E+03  0.17200000000E+03 0.  1.
         -6    1    1    2    0  502  0.61630521331E+02 -0.93849390882E+02  0.63491313888E+03  0.66731156385E+03  0.17200000000E+03 0.  1.
</event>
<event>
 4    1  0.5718861E+000  0.1827215E+03  0.7818608E-02  0.1165195E+00
         21   -1    0    0  503  502  0.00000000000E+00  0.00000000000E+00  0.21990664211E+04  0.21990664211E+04  0.00000000000E+00 0. -1.
         21   -1    0    0  501  503 -0.00000000000E+00 -0.00000000000E+00 -0.23521203789E+02  0.23521203789E+02  0.00000000000E+00 0. -1.
          6    1    1    2  501    0 -0.22647004351E+02  0.57360793438E+02  0.42608879451E+03  0.46361493530E+03  0.17200000000E+03 0. -1.
         -6    1    1    2    0  502  0.22647004351E+02 -0.57360793438E+02  0.17494564228E+04  0.17589726896E+04  0.17200000000E+03 0. -1.
</event>
<event>
 4    1  0.5718861E+000  0.2365348E+03  0.7818608E-02  0.1122123E+00
         21   -1    0    0  501  502  0.00000000000E+00  0.00000000000E+00  0.11420925935E+03  0.11420925935E+03  0.00000000000E+00 0.  1.
         21   -1    0    0  502  503 -0.00000000000E+00 -0.00000000000E+00 -0.52188214074E+03  0.52188214074E+03  0.00000000000E+00 0.  1.
          6    1    1    2  501    0  0.79215293475E+02  0.14173801664E+03 -0.12507765739E+03  0.26756896020E+03  0.17200000000E+03 0. -1.
         -6    1    1    2    0  503 -0.79215293475E+02 -0.14173801664E+03 -0.28259522399E+03  0.36852243989E+03  0.17200000000E+03 0. -1.
</event>
<event>
 4    1  0.5718861E+000  0.1811997E+03  0.7818608E-02  0.1166647E+00
         21   -1    0    0  501  502  0.00000000000E+00  0.00000000000E+00  0.17706366880E+02  0.17706366880E+02  0.00000000000E+00 0.  1.
         21   -1    0    0  502  503 -0.00000000000E+00 -0.00000000000E+00 -0.26761271533E+04  0.26761271533E+04  0.00000000000E+00 0.  1.
          6    1    1    2  501    0 -0.46649393209E+02  0.32759101992E+02 -0.58281056424E+03  0.61032899197E+03  0.17200000000E+03 0.  1.
         -6    1    1    2    0  503  0.46649393209E+02 -0.32759101992E+02 -0.20756102222E+04  0.20835045282E+04  0.17200000000E+03 0.  1.
</event>
<event>
 4    1  0.5718861E+000  0.1773560E+03  0.7818608E-02  0.1170387E+00
         21   -1    0    0  501  502  0.00000000000E+00  0.00000000000E+00  0.15911640566E+04  0.15911640566E+04  0.00000000000E+00 0. -1.
         21   -1    0    0  502  503 -0.00000000000E+00 -0.00000000000E+00 -0.19770724943E+02  0.19770724943E+02  0.00000000000E+00 0. -1.
          6    1    1    2  501    0  0.43232928055E+02 -0.14414734154E+01  0.79395006338E+03  0.81351820327E+03  0.17200000000E+03 0.  1.
         -6    1    1    2    0  503 -0.43232928055E+02  0.14414734154E+01  0.77744326829E+03  0.79741657829E+03  0.17200000000E+03 0.  1.
</event>
<event>
 4    1  0.5718861E+000  0.2133694E+03  0.7818608E-02  0.1138925E+00
         21   -1    0    0  501  502  0.00000000000E+00  0.00000000000E+00  0.44369077831E+03  0.44369077831E+03  0.00000000000E+00 0.  1.
         21   -1    0    0  502  503 -0.00000000000E+00 -0.00000000000E+00 -0.10826335796E+03  0.10826335796E+03  0.00000000000E+00 0.  1.
          6    1    1    2  501    0 -0.79097238918E+02 -0.98418166258E+02  0.23078585660E+03  0.31430657050E+03  0.17200000000E+03 0.  1.
         -6    1    1    2    0  503  0.79097238918E+02  0.98418166258E+02  0.10464156375E+03  0.23764756577E+03  0.17200000000E+03 0.  1.
</event>
<event>
 4    1  0.5718861E+000  0.2063030E+03  0.7818608E-02  0.1144527E+00
         21   -1    0    0  501  502  0.00000000000E+00  0.00000000000E+00  0.24781976006E+03  0.24781976006E+03  0.00000000000E+00 0. -1.
         21   -1    0    0  502  503 -0.00000000000E+00 -0.00000000000E+00 -0.30121831894E+03  0.30121831894E+03  0.00000000000E+00 0. -1.
          6    1    1    2  501    0 -0.98919431988E+02  0.56496839311E+02  0.15328216223E+03  0.25701433450E+03  0.17200000000E+03 0. -1.
         -6    1    1    2    0  503  0.98919431988E+02 -0.56496839311E+02 -0.20668072112E+03  0.29202374451E+03  0.17200000000E+03 0. -1.
</event>
<event>
 4    1  0.5718861E+000  0.2541594E+03  0.7818608E-02  0.1110704E+00
         21   -1    0    0  501  502  0.00000000000E+00  0.00000000000E+00  0.26360901697E+03  0.26360901697E+03  0.00000000000E+00 0. -1.
         21   -1    0    0  502  503 -0.00000000000E+00 -0.00000000000E+00 -0.25628965516E+03  0.25628965516E+03  0.00000000000E+00 0.  1.
          6    1    1    2  501    0  0.17668841403E+03  0.61596964030E+02  0.58101116178E+02  0.26071578650E+03  0.17200000000E+03 0. -1.
         -6    1    1    2    0  503 -0.17668841403E+03 -0.61596964030E+02 -0.50781754364E+02  0.25918288563E+03  0.17200000000E+03 0.  1.
</event>
<event>
 4    1  0.5718861E+000  0.1958006E+03  0.7818608E-02  0.1153331E+00
         21   -1    0    0  501  502  0.00000000000E+00  0.00000000000E+00  0.39089394389E+03  0.39089394389E+03  0.00000000000E+00 0.  1.
         21   -1    0    0  502  503 -0.00000000000E+00 -0.00000000000E+00 -0.98108632763E+02  0.98108632763E+02  0.00000000000E+00 0.  1.
          6    1    1    2  501    0 -0.80077388413E+02 -0.48388933684E+02  0.15075238585E+03  0.24711163242E+03  0.17200000000E+03 0.  1.
         -6    1    1    2    0  503  0.80077388413E+02  0.48388933684E+02  0.14203292528E+03  0.24189094423E+03  0.17200000000E+03 0.  1.
</event>
<event>
 4    1  0.5718861E+000  0.2356339E+03  0.7818608E-02  0.1122736E+00
         21   -1    0    0  503  502  0.00000000000E+00  0.00000000000E+00  0.25072607648E+04  0.25072607648E+04  0.00000000000E+00 0.  1.
         21   -1    0    0  501  503 -0.00000000000E+00 -0.00000000000E+00 -0.22753929009E+02  0.22753929009E+02  0.00000000000E+00 0. -1.
          6    1    1    2  501    0  0.84515442846E+02  0.13710028228E+03  0.14491912778E+04  0.14682229759E+04  0.17200000000E+03 0.  1.
         -6    1    1    2    0  502 -0.84515442846E+02 -0.13710028228E+03  0.10353155580E+04  0.10617917179E+04  0.17200000000E+03 0.  1.
</event>
<event>
 4    1  0.5718861E+000  0.1941539E+03  0.7818608E-02  0.1154767E+00
         21   -1    0    0  503  502  0.00000000000E+00  0.00000000000E+00  0.20265888339E+03  0.20265888339E+03  0.00000000000E+00 0.  1.
         21   -1    0    0  501  503 -0.00000000000E+00 -0.00000000000E+00 -0.35823955240E+03  0.35823955240E+03  0.00000000000E+00 0. -1.
          6    1    1    2  501    0 -0.84286717254E+02  0.31741087580E+02 -0.27224863066E+03  0.33438759582E+03  0.17200000000E+03 0. -1.
         -6    1    1    2    0  502  0.84286717254E+02 -0.31741087580E+02  0.11666796165E+03  0.22651083996E+03  0.17200000000E+03 0. -1.
</event>
<event>
 4    1  0.5718861E+000  0.1994531E+03  0.7818608E-02  0.1150201E+00
         21   -1    0    0  503  502  0.00000000000E+00  0.00000000000E+00  0.19292777351E+03  0.19292777351E+03  0.00000000000E+00 0.  1.
         21   -1    0    0  501  503 -0.00000000000E+00 -0.00000000000E+00 -0.27941335269E+03  0.27941335269E+03  0.00000000000E+00 0.  1.
          6    1    1    2  501    0 -0.60885761843E+02 -0.80563344444E+02 -0.16413548969E+03  0.25830599575E+03  0.17200000000E+03 0. -1.
         -6    1    1    2    0  502  0.60885761843E+02  0.80563344444E+02  0.77649910519E+02  0.21403513045E+03  0.17200000000E+03 0. -1.
</event>
<event>
 4    1  0.5718861E+000  0.1755836E+03  0.7818608E-02  0.1172147E+00
         21   -1    0    0  501  502  0.00000000000E+00  0.00000000000E+00  0.95474797985E+02  0.95474797985E+02  0.00000000000E+00 0. -1.
         21   -1    0    0  502  503 -0.00000000000E+00 -0.00000000000E+00 -0.36403537742E+03  0.36403537742E+03  0.00000000000E+00 0. -1.
          6    1    1    2  501    0  0.86846564275E+00 -0.35282416340E+02 -0.57055389979E+02  0.18462101901E+03  0.17200000000E+03 0. -1.
         -6    1    1    2    0  503 -0.86846564275E+00  0.35282416340E+02 -0.21150518945E+03  0.27488915639E+03  0.17200000000E+03 0. -1.
</event>
<event>
 4    1  0.5718861E+000  0.2478726E+03  0.7818608E-02  0.1114657E+00
         21   -1    0    0  501  502  0.00000000000E+00  0.00000000000E+00  0.13422921958E+03  0.13422921958E+03  0.00000000000E+00 0.  1.
         21   -1    0    0  502  503 -0.00000000000E+00 -0.00000000000E+00 -0.72121440367E+03  0.72121440367E+03  0.00000000000E+00 0. -1.
          6    1    1    2  501    0  0.14470415838E+03 -0.10448703077E+03 -0.34965482086E+02  0.25032662261E+03  0.17200000000E+03 0.  1.
         -6    1    1    2    0  503 -0.14470415838E+03  0.10448703077E+03 -0.55201970201E+03  0.60511700064E+03  0.17200000000E+03 0. -1.
</event>
<event>
 4    1  0.5718861E+000  0.2364755E+03  0.7818608E-02  0.1122163E+00
         21   -1    0    0  501  502  0.00000000000E+00  0.00000000000E+00  0.12504664155E+03  0.12504664155E+03  0.00000000000E+00 0.  1.
         21   -1    0    0  502  503 -0.00000000000E+00 -0.00000000000E+00 -0.59287992725E+03  0.59287992725E+03  0.00000000000E+00 0. -1.
          6    1    1    2  501    0 -0.15788586813E+02  0.16151596167E+03 -0.55978696510E+02  0.24301090472E+03  0.17200000000E+03 0.  1.
         -6    1    1    2    0  503  0.15788586813E+02 -0.16151596167E+03 -0.41185458919E+03  0.47491566408E+03  0.17200000000E+03 0. -1.
</event>
<event>
 4    1  0.5718861E+000  0.1984185E+03  0.7818608E-02  0.1151080E+00
         21   -1    0    0  501  502  0.00000000000E+00  0.00000000000E+00  0.24900994967E+03  0.24900994967E+03  0.00000000000E+00 0. -1.
         21   -1    0    0  502  503 -0.00000000000E+00 -0.00000000000E+00 -0.15841899689E+03  0.15841899689E+03  0.00000000000E+00 0. -1.
          6    1    1    2  501    0  0.72466424816E+02  0.67338873603E+02  0.54353985044E+02  0.20572861326E+03  0.17200000000E+03 0. -1.
         -6    1    1    2    0  503 -0.72466424816E+02 -0.67338873603E+02  0.36236967735E+02  0.20170033330E+03  0.17200000000E+03 0. -1.
</event>
<event>
 4    1  0.5718861E+000  0.1851621E+03  0.7818608E-02  0.1162899E+00
         21   -1    0    0  501  502  0.00000000000E+00  0.00000000000E+00  0.12502724679E+04  0.12502724679E+04  0.00000000000E+00 0. -1.
         21   -1    0    0  502  503 -0.00000000000E+00 -0.00000000000E+00 -0.48830534150E+02  0.48830534150E+02  0.00000000000E+00 0. -1.
          6    1    1    2  501    0  0.45642864887E+02 -0.51163771363E+02  0.10308126730E+04  0.10473107320E+04  0.17200000000E+03 0. -1.
         -6    1    1    2    0  503 -0.45642864887E+02  0.51163771363E+02  0.17062926074E+03  0.25179227001E+03  0.17200000000E+03 0. -1.
</event>
<event>
 4    1  0.5718861E+000  0.1824789E+03  0.7818608E-02  0.1165425E+00
         21   -1    0    0  501  502  0.00000000000E+00  0.00000000000E+00  0.34123004022E+02  0.34123004022E+02  0.00000000000E+00 0. -1.
         21   -1    0    0  502  503 -0.00000000000E+00 -0.00000000000E+00 -0.11817818008E+04  0.11817818008E+04  0.00000000000E+00 0. -1.
          6    1    1    2  501    0  0.50532783222E+02  0.34073439661E+02 -0.32003961557E+03  0.36840727057E+03  0.17200000000E+03 0. -1.
         -6    1    1    2    0  503 -0.50532783222E+02 -0.34073439661E+02 -0.82761918124E+03  0.84749753429E+03  0.17200000000E+03 0. -1.
</event>
<event>
 4    1  0.5718861E+000  0.1988806E+03  0.7818608E-02  0.1150687E+00
         21   -1    0    0  501  502  0.00000000000E+00  0.00000000000E+00  0.19458112643E+03  0.19458112643E+03  0.00000000000E+00 0.  1.
         21   -1    0    0  502  503 -0.00000000000E+00 -0.00000000000E+00 -0.20338254125E+03  0.20338254125E+03  0.00000000000E+00 0.  1.
          6    1    1    2  501    0 -0.97749722101E+02  0.20358810578E+02 -0.89750780824E+01  0.19908300120E+03  0.17200000000E+03 0.  1.
         -6    1    1    2    0  503  0.97749722101E+02 -0.20358810578E+02  0.17366326030E+00  0.19888066648E+03  0.17200000000E+03 0.  1.
</event>
<event>
 4    1  0.5718861E+000  0.1833254E+03  0.7818608E-02  0.1164623E+00
         21   -1    0    0  501  502  0.00000000000E+00  0.00000000000E+00  0.15026569504E+03  0.15026569504E+03  0.00000000000E+00 0.  1.
         21   -1    0    0  502  503 -0.00000000000E+00 -0.00000000000E+00 -0.22583269948E+03  0.22583269948E+03  0.00000000000E+00 0.  1.
          6    1    1    2  501    0  0.62915966903E+02 -0.81099953549E+01 -0.56235091169E+02  0.19175655502E+03  0.17200000000E+03 0. -1.
         -6    1    1    2    0  503 -0.62915966903E+02  0.81099953549E+01 -0.19331913270E+02  0.18434183949E+03  0.17200000000E+03 0. -1.
</event>
<event>
 4    1  0.5718861E+000  0.1858561E+03  0.7818608E-02  0.1162253E+00
         21   -1    0    0  503  502  0.00000000000E+00  0.00000000000E+00  0.84173144145E+02  0.84173144145E+02  0.00000000000E+00 0. -1.
         21   -1    0    0  501  503 -0.00000000000E+00 -0.00000000000E+00 -0.13292671281E+04  0.13292671281E+04  0.00000000000E+00 0. -1.
          6    1    1    2  501    0  0.67134584952E-01 -0.70416584859E+02 -0.12101361184E+04  0.12243250896E+04  0.17200000000E+03 0.  1.
         -6    1    1    2    0  502 -0.67134584952E-01  0.70416584859E+02 -0.34957865495E+02  0.18911518260E+03  0.17200000000E+03 0.  1.
</event>
<event>
 4    1  0.5718861E+000  0.2162419E+03  0.7818608E-02  0.1136716E+00
         21   -1    0    0  503  502  0.00000000000E+00  0.00000000000E+00  0.71154239248E+03  0.71154239248E+03  0.00000000000E+00 0.  1.
         21   -1    0    0  501  503 -0.00000000000E+00 -0.00000000000E+00 -0.10323637401E+03  0.10323637401E+03  0.00000000000E+00 0.  1.
          6    1    1    2  501    0 -0.12054496961E+03 -0.51434011143E+02  0.58557633223E+02  0.22403022923E+03  0.17200000000E+03 0.  1.
         -6    1    1    2    0  502  0.12054496961E+03  0.51434011143E+02  0.54974838524E+03  0.59074853726E+03  0.17200000000E+03 0.  1.
</event>
<event>
 4    1  0.5718861E+000  0.1931056E+03  0.7818608E-02  0.1155690E+00
         21   -1    0    0  501  502  0.00000000000E+00  0.00000000000E+00  0.17585155105E+03  0.17585155105E+03  0.00000000000E+00 0.  1.
         21   -1    0    0  502  503 -0.00000000000E+00 -0.00000000000E+00 -0.33569893318E+03  0.33569893318E+03  0.00000000000E+00 0.  1.
          6    1    1    2  501    0 -0.87094220055E+02 -0.10971304599E+02  0.75305789348E+02  0.20726971463E+03  0.17200000000E+03 0. -1.
         -6    1    1    2    0  503  0.87094220055E+02  0.10971304599E+02 -0.23515317148E+03  0.30428076960E+03  0.17200000000E+03 0. -1.
</event>
<event>
 4    1  0.5718861E+000  0.1997967E+03  0.7818608E-02  0.1149911E+00
         21   -1    0    0  501  502  0.00000000000E+00  0.00000000000E+00  0.34165798265E+03  0.34165798265E+03  0.00000000000E+00 0.  1.
         21   -1    0    0  502  503 -0.00000000000E+00 -0.00000000000E+00 -0.16972250172E+03  0.16972250172E+03  0.00000000000E+00 0.  1.
          6    1    1    2  501    0 -0.59400152681E+02  0.82500509027E+02  0.22869526326E+03  0.30367784833E+03  0.17200000000E+03 0.  1.
         -6    1    1    2    0  503  0.59400152681E+02 -0.82500509027E+02 -0.56759782334E+02  0.20770263604E+03  0.17200000000E+03 0.  1.
</event>
<event>
 4    1  0.5718861E+000  0.2021792E+03  0.7818608E-02  0.1147913E+00
         21   -1    0    0  501  502  0.00000000000E+00  0.00000000000E+00  0.85808585266E+02  0.85808585266E+02  0.00000000000E+00 0.  1.
         21   -1    0    0  502  503 -0.00000000000E+00 -0.00000000000E+00 -0.61021905397E+03  0.61021905397E+03  0.00000000000E+00 0.  1.
          6    1    1    2  501    0 -0.45610235386E+02 -0.95979952299E+02 -0.99213766435E+02  0.22521060425E+03  0.17200000000E+03 0.  1.
         -6    1    1    2    0  503  0.45610235386E+02  0.95979952299E+02 -0.42519670227E+03  0.47081703499E+03  0.17200000000E+03 0.  1.
</event>
<event>
 4    1  0.5718861E+000  0.1921837E+03  0.7818608E-02  0.1156506E+00
         21   -1    0    0  501  502  0.00000000000E+00  0.00000000000E+00  0.30127805159E+03  0.30127805159E+03  0.00000000000E+00 0. -1.
         21   -1    0    0  502  503 -0.00000000000E+00 -0.00000000000E+00 -0.16272309091E+03  0.16272309091E+03  0.00000000000E+00 0. -1.
          6    1    1    2  501    0  0.82008283771E+02  0.25004313294E+02  0.18448999063E+03  0.26640407454E+03  0.17200000000E+03 0. -1.
         -6    1    1    2    0  503 -0.82008283771E+02 -0.25004313294E+02 -0.45935029943E+02  0.19759706796E+03  0.17200000000E+03 0. -1.
</event>
<event>
 4    1  0.5718861E+000  0.3573371E+03  0.7818608E-02  0.1059643E+00
         21   -1    0    0  501  502  0.00000000000E+00  0.00000000000E+00  0.80936156998E+03  0.80936156998E+03  0.00000000000E+00 0. -1.
         21   -1    0    0  502  503 -0.00000000000E+00 -0.00000000000E+00 -0.15788873415E+03  0.15788873415E+03  0.00000000000E+00 0.  1.
          6    1    1    2  501    0 -0.12535700924E+03 -0.28703908915E+03  0.31225800175E+03  0.47454702414E+03  0.17200000000E+03 0. -1.
         -6    1    1    2    0  503  0.12535700924E+03  0.28703908915E+03  0.33921483408E+03  0.49270328000E+03  0.17200000000E+03 0.  1.
</event>
<event>
 4    1  0.5718861E+000  0.2120018E+03  0.7818608E-02  0.1139991E+00
         21   -1    0    0  501  502  0.00000000000E+00  0.00000000000E+00  0.45093224719E+03  0.45093224719E+03  0.00000000000E+00 0. -1.
         21   -1    0    0  502  503 -0.00000000000E+00 -0.00000000000E+00 -0.23961545915E+03  0.23961545915E+03  0.00000000000E+00 0. -1.
          6    1    1    2  501    0  0.92938783705E+02  0.81994782016E+02  0.36952503835E+03  0.42602055791E+03  0.17200000000E+03 0. -1.
         -6    1    1    2    0  503 -0.92938783705E+02 -0.81994782016E+02 -0.15820825031E+03  0.26452714844E+03  0.17200000000E+03 0. -1.
</event>
<event>
 4    1  0.5718861E+000  0.2190287E+03  0.7818608E-02  0.1134609E+00
         21   -1    0    0  501  502  0.00000000000E+00  0.00000000000E+00  0.81302383851E+03  0.81302383851E+03  0.00000000000E+00 0.  1.
         21   -1    0    0  502  503 -0.00000000000E+00 -0.00000000000E+00 -0.75479583539E+02  0.75479583539E+02  0.00000000000E+00 0.  1.
          6    1    1    2  501    0 -0.12771772757E+03 -0.45582585923E+02  0.57631291023E+03  0.61653074584E+03  0.17200000000E+03 0.  1.
         -6    1    1    2    0  503  0.12771772757E+03  0.45582585923E+02  0.16123134475E+03  0.27197267621E+03  0.17200000000E+03 0.  1.
</event>
<event>
 4    1  0.5718861E+000  0.1774929E+03  0.7818608E-02  0.1170252E+00
         21   -1    0    0  501  502  0.00000000000E+00  0.00000000000E+00  0.57625342888E+03  0.57625342888E+03  0.00000000000E+00 0.  1.
         21   -1    0    0  502  503 -0.00000000000E+00 -0.00000000000E+00 -0.67628178152E+02  0.67628178152E+02  0.00000000000E+00 0.  1.
          6    1    1    2  501    0  0.35496619500E+02 -0.25685349421E+02  0.39523662508E+03  0.43326174188E+03  0.17200000000E+03 0.  1.
         -6    1    1    2    0  503 -0.35496619500E+02  0.25685349421E+02  0.11338862565E+03  0.21061986515E+03  0.17200000000E+03 0.  1.
</event>
<event>
 4    1  0.5718861E+000  0.1791542E+03  0.7818608E-02  0.1168624E+00
         21   -1    0    0  501  502  0.00000000000E+00  0.00000000000E+00  0.13175369558E+03  0.13175369558E+03  0.00000000000E+00 0.  1.
         21   -1    0    0  502  503 -0.00000000000E+00 -0.00000000000E+00 -0.27223818244E+03  0.27223818244E+03  0.00000000000E+00 0.  1.
          6    1    1    2  501    0  0.45326634412E+02 -0.21394651706E+02 -0.13574827534E+03  0.22477506349E+03  0.17200000000E+03 0.  1.
         -6    1    1    2    0  503 -0.45326634412E+02  0.21394651706E+02 -0.47362115214E+01  0.17921681452E+03  0.17200000000E+03 0.  1.
</event>
<event>
 4    1  0.5718861E+000  0.1818154E+03  0.7818608E-02  0.1166058E+00
         21   -1    0    0  501  502  0.00000000000E+00  0.00000000000E+00  0.51773210434E+03  0.51773210434E+03  0.00000000000E+00 0.  1.
         21   -1    0    0  502  503 -0.00000000000E+00 -0.00000000000E+00 -0.47158109086E+03  0.47158109086E+03  0.00000000000E+00 0.  1.
          6    1    1    2  501    0  0.57290851233E+02  0.13805762550E+02  0.48302791112E+03  0.51611316941E+03  0.17200000000E+03 0.  1.
         -6    1    1    2    0  503 -0.57290851233E+02 -0.13805762550E+02 -0.43687689764E+03  0.47320002579E+03  0.17200000000E+03 0.  1.
</event>
<event>
 4    1  0.5718861E+000  0.1741480E+03  0.7818608E-02  0.1173590E+00
         21   -1    0    0  501  502  0.00000000000E+00  0.00000000000E+00  0.32824546691E+03  0.32824546691E+03  0.00000000000E+00 0.  1.
         21   -1    0    0  502  503 -0.00000000000E+00 -0.00000000000E+00 -0.92412851166E+02  0.92412851166E+02  0.00000000000E+00 0.  1.
          6    1    1    2  501    0  0.15957726420E+02  0.22110692220E+02  0.11482144221E+03  0.20859409228E+03  0.17200000000E+03 0.  1.
         -6    1    1    2    0  503 -0.15957726420E+02 -0.22110692220E+02  0.12101117354E+03  0.21206422580E+03  0.17200000000E+03 0.  1.
</event>
<event>
 4    1  0.5718861E+000  0.2356096E+03  0.7818608E-02  0.1122753E+00
         21   -1    0    0  501  502  0.00000000000E+00  0.00000000000E+00  0.85615427788E+03  0.85615427788E+03  0.00000000000E+00 0. -1.
         21   -1    0    0  502  503 -0.00000000000E+00 -0.00000000000E+00 -0.95884185298E+02  0.95884185298E+02  0.00000000000E+00 0.  1.
          6    1    1    2  501    0  0.15769898032E+03  0.32540806580E+02  0.65099868425E+03  0.69232301665E+03  0.17200000000E+03 0. -1.
         -6    1    1    2    0  503 -0.15769898032E+03 -0.32540806580E+02  0.10927140833E+03  0.25971544653E+03  0.17200000000E+03 0.  1.
</event>
<event>
 4    1  0.5718861E+000  0.1871228E+03  0.7818608E-02  0.1161082E+00
         21   -1    0    0  503  502  0.00000000000E+00  0.00000000000E+00  0.80840591955E+02  0.80840591955E+02  0.00000000000E+00 0. -1.
         21   -1    0    0  501  503 -0.00000000000E+00 -0.00000000000E+00 -0.88287423263E+03  0.88287423263E+03  0.00000000000E+00 0. -1.
          6    1    1    2  501    0 -0.20908149520E+02  0.70666757511E+02 -0.74493030339E+03  0.76807297716E+03  0.17200000000E+03 0. -1.
         -6    1    1    2    0  502  0.20908149520E+02 -0.70666757511E+02 -0.57103337279E+02  0.19564184742E+03  0.17200000000E+03 0. -1.
</event>
<event>
 4    1  0.5718861E+000  0.2596138E+03  0.7818608E-02  0.1107375E+00
         21   -1    0    0  503  502  0.00000000000E+00  0.00000000000E+00  0.41705083646E+03  0.41705083646E+03  0.00000000000E+00 0.  1.
         21   -1    0    0  501  503 -0.00000000000E+00 -0.00000000000E+00 -0.28179252692E+03  0.28179252692E+03  0.00000000000E+00 0. -1.
          6    1    1    2  501    0  0.89746081569E+02 -0.17251370154E+03 -0.16056623147E+03  0.30525538663E+03  0.17200000000E+03 0. -1.
         -6    1    1    2    0  502 -0.89746081569E+02  0.17251370154E+03  0.29582454101E+03  0.39358797675E+03  0.17200000000E+03 0.  1.
</event>
<event>
 4    1  0.5718861E+000  0.2353842E+03  0.7818608E-02  0.1122906E+00
         21   -1    0    0  501  502  0.00000000000E+00  0.00000000000E+00  0.27787192038E+03  0.27787192038E+03  0.00000000000E+00 0.  1.
         21   -1    0    0  502  503 -0.00000000000E+00 -0.00000000000E+00 -0.22033303167E+03  0.22033303167E+03  0.00000000000E+00 0. -1.
          6    1    1    2  501    0  0.16000759058E+03 -0.14808619623E+02  0.10556332095E+03  0.25797158562E+03  0.17200000000E+03 0.  1.
         -6    1    1    2    0  503 -0.16000759058E+03  0.14808619623E+02 -0.48024432232E+02  0.24023336644E+03  0.17200000000E+03 0. -1.
</event>
<event>
 4    1  0.5718861E+000  0.1877498E+03  0.7818608E-02  0.1160507E+00
         21   -1    0    0  501  502  0.00000000000E+00  0.00000000000E+00  0.14600396360E+03  0.14600396360E+03  0.00000000000E+00 0.  1.
         21   -1    0    0  502  503 -0.00000000000E+00 -0.00000000000E+00 -0.27185662431E+03  0.27185662431E+03  0.00000000000E+00 0.  1.
          6    1    1    2  501    0 -0.50328906388E+01 -0.75104189423E+02  0.69688105914E+01  0.18787903975E+03  0.17200000000E+03 0.  1.
         -6    1    1    2    0  503  0.50328906388E+01  0.75104189423E+02 -0.13282147130E+03  0.22998154816E+03  0.17200000000E+03 0.  1.
</event>
<event>
 4    1  0.5718861E+000  0.2364096E+03  0.7818608E-02  0.1122208E+00
         21   -1    0    0  503  502  0.00000000000E+00  0.00000000000E+00  0.84395709476E+02  0.84395709476E+02  0.00000000000E+00 0. -1.
         21   -1    0    0  501  503 -0.00000000000E+00 -0.00000000000E+00 -0.74882751669E+03  0.74882751669E+03  0.00000000000E+00 0.  1.
          6    1    1    2  501    0 -0.10122233096E+02 -0.16187349092E+03 -0.47388977039E+03  0.52958568820E+03  0.17200000000E+03 0.  1.
         -6    1    1    2    0  502  0.10122233096E+02  0.16187349092E+03 -0.19054203682E+03  0.30363753796E+03  0.17200000000E+03 0. -1.
</event>
<event>
 4    1  0.5718861E+000  0.2123376E+03  0.7818608E-02  0.1139728E+00
         21   -1    0    0  501  502  0.00000000000E+00  0.00000000000E+00  0.10908288521E+03  0.10908288521E+03  0.00000000000E+00 0.  1.
         21   -1    0    0  502  503 -0.00000000000E+00 -0.00000000000E+00 -0.42812969482E+03  0.42812969482E+03  0.00000000000E+00 0.  1.
          6    1    1    2  501    0 -0.56341674665E+02  0.11103544209E+03 -0.10958305814E+03  0.23894706597E+03  0.17200000000E+03 0.  1.
         -6    1    1    2    0  503  0.56341674665E+02 -0.11103544209E+03 -0.20946375146E+03  0.29826551406E+03  0.17200000000E+03 0.  1.
</event>
<event>
 4    1  0.5718861E+000  0.2191406E+03  0.7818608E-02  0.1134525E+00
         21   -1    0    0  501  502  0.00000000000E+00  0.00000000000E+00  0.50234937555E+03  0.50234937555E+03  0.00000000000E+00 0.  1.
         21   -1    0    0  502  503 -0.00000000000E+00 -0.00000000000E+00 -0.22139844349E+03  0.22139844349E+03  0.00000000000E+00 0.  1.
          6    1    1    2  501    0  0.60683147562E+02  0.12147488431E+03  0.41325672254E+03  0.46776458891E+03  0.17200000000E+03 0.  1.
         -6    1    1    2    0  503 -0.60683147562E+02 -0.12147488431E+03 -0.13230579048E+03  0.25598323014E+03  0.17200000000E+03 0.  1.
</event>
<event>
 4    1  0.5718861E+000  0.1747845E+03  0.7818608E-02  0.1172948E+00
         21   -1    0    0  501  502  0.00000000000E+00  0.00000000000E+00  0.60195024070E+03  0.60195024070E+03  0.00000000000E+00 0. -1.
         21   -1    0    0  502  503 -0.00000000000E+00 -0.00000000000E+00 -0.81734640049E+02  0.81734640049E+02  0.00000000000E+00 0. -1.
          6    1    1    2  501    0 -0.22398338558E+02  0.21539185465E+02  0.49638579360E+02  0.18169647944E+03  0.17200000000E+03 0. -1.
         -6    1    1    2    0  503  0.22398338558E+02 -0.21539185465E+02  0.47057702129E+03  0.50198840131E+03  0.17200000000E+03 0. -1.
</event>
<event>
 4    1  0.5718861E+000  0.2042074E+03  0.7818608E-02  0.1146237E+00
         21   -1    0    0  501  502  0.00000000000E+00  0.00000000000E+00  0.15030050352E+03  0.15030050352E+03  0.00000000000E+00 0. -1.
         21   -1    0    0  502  503 -0.00000000000E+00 -0.00000000000E+00 -0.29704147134E+03  0.29704147134E+03  0.00000000000E+00 0. -1.
          6    1    1    2  501    0 -0.43689858182E+02 -0.10103391602E+03 -0.15925677141E+02  0.20482744710E+03  0.17200000000E+03 0. -1.
         -6    1    1    2    0  503  0.43689858182E+02  0.10103391602E+03 -0.13081529069E+03  0.24251452776E+03  0.17200000000E+03 0. -1.
</event>
<event>
 4    1  0.5718861E+000  0.2166643E+03  0.7818608E-02  0.1136395E+00
         21   -1    0    0  503  502  0.00000000000E+00  0.00000000000E+00  0.90271199707E+02  0.90271199707E+02  0.00000000000E+00 0. -1.
         21   -1    0    0  501  503 -0.00000000000E+00 -0.00000000000E+00 -0.52064797752E+03  0.52064797752E+03  0.00000000000E+00 0.  1.
          6    1    1    2  501    0 -0.12977942319E+03  0.22731425243E+02 -0.22574180500E+03  0.31289419761E+03  0.17200000000E+03 0.  1.
         -6    1    1    2    0  502  0.12977942319E+03 -0.22731425243E+02 -0.20463497282E+03  0.29802497962E+03  0.17200000000E+03 0. -1.
</event>
<event>
 4    1  0.5718861E+000  0.2170966E+03  0.7818608E-02  0.1136066E+00
         21   -1    0    0  503  502  0.00000000000E+00  0.00000000000E+00  0.21979670773E+03  0.21979670773E+03  0.00000000000E+00 0. -1.
         21   -1    0    0  501  503 -0.00000000000E+00 -0.00000000000E+00 -0.21448816797E+03  0.21448816797E+03  0.00000000000E+00 0. -1.
          6    1    1    2  501    0 -0.92506914537E+02 -0.94812562468E+02  0.62381012266E+01  0.21718624530E+03  0.17200000000E+03 0. -1.
         -6    1    1    2    0  502  0.92506914537E+02  0.94812562468E+02 -0.92956145886E+00  0.21709863040E+03  0.17200000000E+03 0. -1.
</event>
<event>
 4    1  0.5718861E+000  0.1746362E+03  0.7818608E-02  0.1173097E+00
         21   -1    0    0  503  502  0.00000000000E+00  0.00000000000E+00  0.18228666623E+03  0.18228666623E+03  0.00000000000E+00 0. -1.
         21   -1    0    0  501  503 -0.00000000000E+00 -0.00000000000E+00 -0.48192517340E+03  0.48192517340E+03  0.00000000000E+00 0. -1.
          6    1    1    2  501    0  0.27485626824E+02 -0.12583318560E+02 -0.41815519613E+03  0.45315733210E+03  0.17200000000E+03 0.  1.
         -6    1    1    2    0  502 -0.27485626824E+02  0.12583318560E+02  0.11851668895E+03  0.21105450753E+03  0.17200000000E+03 0.  1.
</event>
<event>
 4    1  0.5718861E+000  0.2377694E+03  0.7818608E-02  0.1121288E+00
         21   -1    0    0  501  502  0.00000000000E+00  0.00000000000E+00  0.18358883143E+03  0.18358883143E+03  0.00000000000E+00 0.  1.
         21   -1    0    0  502  503 -0.00000000000E+00 -0.00000000000E+00 -0.32908701920E+03  0.32908701920E+03  0.00000000000E+00 0.  1.
          6    1    1    2  501    0 -0.16378898358E+03 -0.11110189279E+02 -0.77680935827E+01  0.23789621839E+03  0.17200000000E+03 0.  1.
         -6    1    1    2    0  503  0.16378898358E+03  0.11110189279E+02 -0.13773009419E+03  0.27477963224E+03  0.17200000000E+03 0.  1.
</event>
<event>
 4    1  0.5718861E+000  0.2617397E+03  0.7818608E-02  0.1106102E+00
         21   -1    0    0  503  502  0.00000000000E+00  0.00000000000E+00  0.15057960368E+03  0.15057960368E+03  0.00000000000E+00 0. -1.
         21   -1    0    0  501  503 -0.00000000000E+00 -0.00000000000E+00 -0.54735966859E+03  0.54735966859E+03  0.00000000000E+00 0. -1.
          6    1    1    2  501    0  0.45574988440E+01  0.19723823341E+03 -0.34176935634E+03  0.43048110812E+03  0.17200000000E+03 0. -1.
         -6    1    1    2    0  502 -0.45574988440E+01 -0.19723823341E+03 -0.55010708572E+02  0.26745816415E+03  0.17200000000E+03 0. -1.
</event>
<event>
 4    1  0.5718861E+000  0.2123749E+03  0.7818608E-02  0.1139699E+00
         21   -1    0    0  503  502  0.00000000000E+00  0.00000000000E+00  0.18760692771E+03  0.18760692771E+03  0.00000000000E+00 0. -1.
         21   -1    0    0  501  503 -0.00000000000E+00 -0.00000000000E+00 -0.28692063969E+03  0.28692063969E+03  0.00000000000E+00 0. -1.
          6    1    1    2  501    0  0.12438347015E+03 -0.69162277007E+01  0.45867531310E+02  0.21727151742E+03  0.17200000000E+03 0. -1.
         -6    1    1    2    0  502 -0.12438347015E+03  0.69162277007E+01 -0.14518124328E+03  0.25725604998E+03  0.17200000000E+03 0. -1.
</event>
<event>
 4    1  0.5718861E+000  0.2581357E+03  0.7818608E-02  0.1108269E+00
         21   -1    0    0  501  502  0.00000000000E+00  0.00000000000E+00  0.16266059950E+03  0.16266059950E+03  0.00000000000E+00 0. -1.
         21   -1    0    0  502  503 -0.00000000000E+00 -0.00000000000E+00 -0.41659443723E+03  0.41659443723E+03  0.00000000000E+00 0. -1.
          6    1    1    2  501    0  0.19234939214E+03 -0.71928784379E+01 -0.89574791955E+02  0.27323555682E+03  0.17200000000E+03 0. -1.
         -6    1    1    2    0  503 -0.19234939214E+03  0.71928784379E+01 -0.16435904578E+03  0.30601947991E+03  0.17200000000E+03 0. -1.
</event>
<event>
 4    1  0.5718861E+000  0.1951720E+03  0.7818608E-02  0.1153878E+00
         21   -1    0    0  501  502  0.00000000000E+00  0.00000000000E+00  0.23740579668E+03  0.23740579668E+03  0.00000000000E+00 0. -1.
         21   -1    0    0  502  503 -0.00000000000E+00 -0.00000000000E+00 -0.18152831509E+03  0.18152831509E+03  0.00000000000E+00 0. -1.
          6    1    1    2  501    0  0.84552039863E+02 -0.36865418280E+02  0.99313795305E+02  0.21898706913E+03  0.17200000000E+03 0. -1.
         -6    1    1    2    0  503 -0.84552039863E+02  0.36865418280E+02 -0.43436313721E+02  0.19994704264E+03  0.17200000000E+03 0. -1.
</event>
<event>
 4    1  0.5718861E+000  0.1964095E+03  0.7818608E-02  0.1152804E+00
         21   -1    0    0  501  502  0.00000000000E+00  0.00000000000E+00  0.12877067354E+03  0.12877067354E+03  0.00000000000E+00 0. -1.
         21   -1    0    0  502  503 -0.00000000000E+00 -0.00000000000E+00 -0.41372920586E+03  0.41372920586E+03  0.00000000000E+00 0. -1.
          6    1    1    2  501    0  0.22211481064E+02  0.92191876102E+02 -0.28495939784E+03  0.34609037885E+03  0.17200000000E+03 0. -1.
         -6    1    1    2    0  503 -0.22211481064E+02 -0.92191876102E+02  0.86552590980E-03  0.19640950056E+03  0.17200000000E+03 0. -1.
</event>
<event>
 4    1  0.5718861E+000  0.2365402E+03  0.7818608E-02  0.1122119E+00
         21   -1    0    0  503  502  0.00000000000E+00  0.00000000000E+00  0.46713829963E+03  0.46713829963E+03  0.00000000000E+00 0.  1.
         21   -1    0    0  501  503 -0.00000000000E+00 -0.00000000000E+00 -0.11978213512E+03  0.11978213512E+03  0.00000000000E+00 0.  1.
          6    1    1    2  501    0 -0.11324127637E+03  0.11637730161E+03  0.17133735605E+03  0.29207490920E+03  0.17200000000E+03 0.  1.
         -6    1    1    2    0  502  0.11324127637E+03 -0.11637730161E+03  0.17601880846E+03  0.29484552554E+03  0.17200000000E+03 0.  1.
</event>
<event>
 4    1  0.5718861E+000  0.2321315E+03  0.7818608E-02  0.1125148E+00
         21   -1    0    0  501  502  0.00000000000E+00  0.00000000000E+00  0.13571472168E+04  0.13571472168E+04  0.00000000000E+00 0.  1.
         21   -1    0    0  502  503 -0.00000000000E+00 -0.00000000000E+00 -0.39780404260E+02  0.39780404260E+02  0.00000000000E+00 0. -1.
          6    1    1    2  501    0 -0.97035399529E+01 -0.15558562544E+03  0.68916469680E+03  0.72720906543E+03  0.17200000000E+03 0. -1.
         -6    1    1    2    0  503  0.97035399529E+01  0.15558562544E+03  0.62820211571E+03  0.66971855560E+03  0.17200000000E+03 0.  1.
</event>
<event>
 4    1  0.5718861E+000  0.1878520E+03  0.7818608E-02  0.1160413E+00
         21   -1    0    0  501  502  0.00000000000E+00  0.00000000000E+00  0.82702663767E+03  0.82702663767E+03  0.00000000000E+00 0. -1.
         21   -1    0    0  502  503 -0.00000000000E+00 -0.00000000000E+00 -0.52696982367E+02  0.52696982367E+02  0.00000000000E+00 0. -1.
          6    1    1    2  501    0 -0.65877442528E+02  0.36939527321E+02  0.57904541599E+03  0.60875443316E+03  0.17200000000E+03 0. -1.
         -6    1    1    2    0  503  0.65877442528E+02 -0.36939527321E+02  0.19528423931E+03  0.27096918688E+03  0.17200000000E+03 0. -1.
</event>
<event>
 4    1  0.5718861E+000  0.2016060E+03  0.7818608E-02  0.1148391E+00
         21   -1    0    0  501  502  0.00000000000E+00  0.00000000000E+00  0.81306319100E+03  0.81306319100E+03  0.00000000000E+00 0.  1.
         21   -1    0    0  502  503 -0.00000000000E+00 -0.00000000000E+00 -0.14578417870E+03  0.14578417870E+03  0.00000000000E+00 0.  1.
          6    1    1    2  501    0 -0.97300790510E+02 -0.39918982483E+02  0.72226744078E+03  0.74987680656E+03  0.17200000000E+03 0.  1.
         -6    1    1    2    0  503  0.97300790510E+02  0.39918982483E+02 -0.54988428485E+02  0.20897056315E+03  0.17200000000E+03 0.  1.
</event>
<event>
 4    1  0.5718861E+000  0.2473774E+03  0.7818608E-02  0.1114974E+00
         21   -1    0    0  501  502  0.00000000000E+00  0.00000000000E+00  0.29241071588E+03  0.29241071588E+03  0.00000000000E+00 0. -1.
         21   -1    0    0  502  503 -0.00000000000E+00 -0.00000000000E+00 -0.32303801599E+03  0.32303801599E+03  0.00000000000E+00 0. -1.
          6    1    1    2  501    0  0.12293138981E+03 -0.12845009866E+03  0.16729742722E+03  0.29863687582E+03  0.17200000000E+03 0. -1.
         -6    1    1    2    0  503 -0.12293138981E+03  0.12845009866E+03 -0.19792472732E+03  0.31681185605E+03  0.17200000000E+03 0. -1.
</event>
<event>
 4    1  0.5718861E+000  0.1917101E+03  0.7818608E-02  0.1156928E+00
         21   -1    0    0  503  502  0.00000000000E+00  0.00000000000E+00  0.19983472772E+04  0.19983472772E+04  0.00000000000E+00 0. -1.
         21   -1    0    0  501  503 -0.00000000000E+00 -0.00000000000E+00 -0.19579605719E+02  0.19579605719E+02  0.00000000000E+00 0.  1.
          6    1    1    2  501    0  0.77324224846E+02  0.34492266707E+02  0.12379187701E+04  0.12526753903E+04  0.17200000000E+03 0.  1.
         -6    1    1    2    0  502 -0.77324224846E+02 -0.34492266707E+02  0.74084890143E+03  0.76525149262E+03  0.17200000000E+03 0.  1.
</event>
<event>
 4    1  0.5718861E+000  0.1818284E+03  0.7818608E-02  0.1166045E+00
         21   -1    0    0  503  502  0.00000000000E+00  0.00000000000E+00  0.83997410450E+02  0.83997410450E+02  0.00000000000E+00 0.  1.
         21   -1    0    0  501  503 -0.00000000000E+00 -0.00000000000E+00 -0.13932956082E+04  0.13932956082E+04  0.00000000000E+00 0.  1.
          6    1    1    2  501    0 -0.58969900860E+02  0.36184148325E+00 -0.12803235080E+04  0.12931704703E+04  0.17200000000E+03 0.  1.
         -6    1    1    2    0  502  0.58969900860E+02 -0.36184148325E+00 -0.28974689667E+02  0.18412254826E+03  0.17200000000E+03 0.  1.
</event>
<event>
 4    1  0.5718861E+000  0.1811372E+03  0.7818608E-02  0.1166707E+00
         21   -1    0    0  503  502  0.00000000000E+00  0.00000000000E+00  0.38455667851E+03  0.38455667851E+03  0.00000000000E+00 0. -1.
         21   -1    0    0  501  503 -0.00000000000E+00 -0.00000000000E+00 -0.10675689230E+03  0.10675689230E+03  0.00000000000E+00 0. -1.
          6    1    1    2  501    0  0.44780510780E+02  0.34948367394E+02  0.28821105764E+02  0.18341575359E+03  0.17200000000E+03 0. -1.
         -6    1    1    2    0  502 -0.44780510780E+02 -0.34948367394E+02  0.24897868044E+03  0.30789781721E+03  0.17200000000E+03 0. -1.
</event>
<event>
 4    1  0.5718861E+000  0.1999793E+03  0.7818608E-02  0.1149756E+00
         21   -1    0    0  503  502  0.00000000000E+00  0.00000000000E+00  0.15504992913E+03  0.15504992913E+03  0.00000000000E+00 0.  1.
         21   -1    0    0  501  503 -0.00000000000E+00 -0.00000000000E+00 -0.14572679954E+04  0.14572679954E+04  0.00000000000E+00 0. -1.
          6    1    1    2  501    0 -0.54799494325E+02  0.86050752987E+02 -0.13824537577E+04  0.13968429078E+04  0.17200000000E+03 0. -1.
         -6    1    1    2    0  502  0.54799494325E+02 -0.86050752987E+02  0.80235691469E+02  0.21547501677E+03  0.17200000000E+03 0.  1.
</event>
