<event>
 4    1  0.4391134E+000  0.1840253E+03  0.7546771E-02  0.1163963E+00
         21   -1    0    0  503  502  0.00000000000E+00  0.00000000000E+00  0.35576286836E+02  0.35576286836E+02  0.00000000000E+00 0.  1.
         21   -1    0    0  501  503 -0.00000000000E+00 -0.00000000000E+00 -0.10268194999E+04  0.10268194999E+04  0.00000000000E+00 0.  1.
          6    1    1    2  501    0  0.45101268171E+00  0.62738296395E+02 -0.63910049443E+03  0.66506746968E+03  0.17300000000E+03 0.  1.
         -6    1    1    2    0  502 -0.45101268171E+00 -0.62738296395E+02 -0.35214271864E+03  0.39732831706E+03  0.17300000000E+03 0.  1.
<mgrwt>
<rscale>  2 0.18402526E+03</rscale>
<asrwt>0</asrwt>
<pdfrwt beam="1">  1       21 0.54732743E-02 0.18402526E+03</pdfrwt>
<pdfrwt beam="2">  1       21 0.15797225E+00 0.18402526E+03</pdfrwt>
<totfact> 0.60371619E+04</totfact>
</mgrwt>
</event>
<event>
 4    1  0.4391134E+000  0.1780959E+03  0.7546771E-02  0.1169659E+00
         21   -1    0    0  503  502  0.00000000000E+00  0.00000000000E+00  0.11822813827E+03  0.11822813827E+03  0.00000000000E+00 0. -1.
         21   -1    0    0  501  503 -0.00000000000E+00 -0.00000000000E+00 -0.43921071089E+03  0.43921071089E+03  0.00000000000E+00 0. -1.
          6    1    1    2  501    0 -0.29779257007E+02 -0.30039121915E+02 -0.33436815592E+03  0.37884062175E+03  0.17300000000E+03 0. -1.
         -6    1    1    2    0  502  0.29779257007E+02  0.30039121915E+02  0.13385583296E+02  0.17859822741E+03  0.17300000000E+03 0. -1.
<mgrwt>
<rscale>  2 0.17809591E+03</rscale>
<asrwt>0</asrwt>
<pdfrwt beam="1">  1       21 0.18188944E-01 0.17809591E+03</pdfrwt>
<pdfrwt beam="2">  1       21 0.67570879E-01 0.17809591E+03</pdfrwt>
<totfact> 0.55520243E+04</totfact>
</mgrwt>
</event>
<event>
 4    1  0.4391134E+000  0.2906638E+03  0.7546771E-02  0.1090003E+00
         21   -1    0    0  501  502  0.00000000000E+00  0.00000000000E+00  0.59153948026E+03  0.59153948026E+03  0.00000000000E+00 0.  1.
         21   -1    0    0  502  503 -0.00000000000E+00 -0.00000000000E+00 -0.15692586065E+03  0.15692586065E+03  0.00000000000E+00 0.  1.
          6    1    1    2  501    0 -0.92618810462E+02  0.21442527451E+03  0.32949523891E+03  0.43937746285E+03  0.17300000000E+03 0.  1.
         -6    1    1    2    0  503  0.92618810462E+02 -0.21442527451E+03  0.10511838070E+03  0.30908787806E+03  0.17300000000E+03 0.  1.
<mgrwt>
<rscale>  2 0.29066380E+03</rscale>
<asrwt>0</asrwt>
<pdfrwt beam="1">  1       21 0.91006072E-01 0.29066380E+03</pdfrwt>
<pdfrwt beam="2">  1       21 0.24142441E-01 0.29066380E+03</pdfrwt>
<totfact> 0.15724371E+04</totfact>
</mgrwt>
</event>
<event>
 4    1  0.4391134E+000  0.4063805E+03  0.7546771E-02  0.1041592E+00
         21   -1    0    0  503  502  0.00000000000E+00  0.00000000000E+00  0.23597374867E+03  0.23597374867E+03  0.00000000000E+00 0. -1.
         21   -1    0    0  501  503 -0.00000000000E+00 -0.00000000000E+00 -0.69988489529E+03  0.69988489529E+03  0.00000000000E+00 0.  1.
          6    1    1    2  501    0  0.35727743488E+03  0.86999534575E+02 -0.22842952889E+03  0.46618143909E+03  0.17300000000E+03 0.  1.
         -6    1    1    2    0  502 -0.35727743488E+03 -0.86999534575E+02 -0.23548161773E+03  0.46967720487E+03  0.17300000000E+03 0. -1.
<mgrwt>
<rscale>  2 0.40638047E+03</rscale>
<asrwt>0</asrwt>
<pdfrwt beam="1">  1       21 0.36303654E-01 0.40638047E+03</pdfrwt>
<pdfrwt beam="2">  1       21 0.10767460E+00 0.40638047E+03</pdfrwt>
<totfact> 0.44737636E+03</totfact>
</mgrwt>
</event>
<event>
 4    1  0.4391134E+000  0.1736624E+03  0.7546771E-02  0.1174081E+00
         21   -1    0    0  503  502  0.00000000000E+00  0.00000000000E+00  0.29324961316E+03  0.29324961316E+03  0.00000000000E+00 0.  1.
         21   -1    0    0  501  503 -0.00000000000E+00 -0.00000000000E+00 -0.17078297249E+03  0.17078297249E+03  0.00000000000E+00 0.  1.
          6    1    1    2  501    0  0.76922290063E+01  0.13056121652E+02 -0.85105412028E+02  0.19339483927E+03  0.17300000000E+03 0.  1.
         -6    1    1    2    0  502 -0.76922290063E+01 -0.13056121652E+02  0.20757205270E+03  0.27063774637E+03  0.17300000000E+03 0.  1.
<mgrwt>
<rscale>  2 0.17366241E+03</rscale>
<asrwt>0</asrwt>
<pdfrwt beam="1">  1       21 0.45115325E-01 0.17366241E+03</pdfrwt>
<pdfrwt beam="2">  1       21 0.26274304E-01 0.17366241E+03</pdfrwt>
<totfact> 0.65462475E+04</totfact>
</mgrwt>
</event>
<event>
 4    1  0.4391134E+000  0.2116988E+03  0.7546771E-02  0.1140228E+00
         21   -1    0    0  501  502  0.00000000000E+00  0.00000000000E+00  0.75263762288E+03  0.75263762288E+03  0.00000000000E+00 0.  1.
         21   -1    0    0  502  503 -0.00000000000E+00 -0.00000000000E+00 -0.16743701409E+03  0.16743701409E+03  0.00000000000E+00 0.  1.
          6    1    1    2  501    0 -0.12200977627E+03  0.10012081988E+01  0.66188424837E+03  0.69491520789E+03  0.17300000000E+03 0.  1.
         -6    1    1    2    0  503  0.12200977627E+03 -0.10012081988E+01 -0.76683639583E+02  0.22515942908E+03  0.17300000000E+03 0.  1.
<mgrwt>
<rscale>  2 0.21169881E+03</rscale>
<asrwt>0</asrwt>
<pdfrwt beam="1">  1       21 0.11579040E+00 0.21169881E+03</pdfrwt>
<pdfrwt beam="2">  1       21 0.25759541E-01 0.21169881E+03</pdfrwt>
<totfact> 0.81331097E+03</totfact>
</mgrwt>
</event>
<event>
 4    1  0.4391134E+000  0.2262071E+03  0.7546771E-02  0.1129338E+00
         21   -1    0    0  503  502  0.00000000000E+00  0.00000000000E+00  0.11005575977E+04  0.11005575977E+04  0.00000000000E+00 0. -1.
         21   -1    0    0  501  503 -0.00000000000E+00 -0.00000000000E+00 -0.47758829530E+02  0.47758829530E+02  0.00000000000E+00 0. -1.
          6    1    1    2  501    0  0.67046698730E+02 -0.12940392784E+03  0.61982633178E+03  0.65981385097E+03  0.17300000000E+03 0. -1.
         -6    1    1    2    0  502 -0.67046698730E+02  0.12940392784E+03  0.43297243642E+03  0.48850257630E+03  0.17300000000E+03 0. -1.
<mgrwt>
<rscale>  2 0.22620707E+03</rscale>
<asrwt>0</asrwt>
<pdfrwt beam="1">  1       21 0.16931654E+00 0.22620707E+03</pdfrwt>
<pdfrwt beam="2">  1       21 0.73475130E-02 0.22620707E+03</pdfrwt>
<totfact> 0.29384213E+04</totfact>
</mgrwt>
</event>
<event>
 4    1  0.4391134E+000  0.1794161E+03  0.7546771E-02  0.1168369E+00
         21   -1    0    0  501  502  0.00000000000E+00  0.00000000000E+00  0.49534518775E+02  0.49534518775E+02  0.00000000000E+00 0.  1.
         21   -1    0    0  502  503 -0.00000000000E+00 -0.00000000000E+00 -0.70993331186E+03  0.70993331186E+03  0.00000000000E+00 0.  1.
          6    1    1    2  501    0 -0.36135854706E+02  0.30908691318E+02 -0.21973118718E+03  0.28367576881E+03  0.17300000000E+03 0.  1.
         -6    1    1    2    0  503  0.36135854706E+02 -0.30908691318E+02 -0.44066760591E+03  0.47579206182E+03  0.17300000000E+03 0.  1.
<mgrwt>
<rscale>  2 0.17941613E+03</rscale>
<asrwt>0</asrwt>
<pdfrwt beam="1">  1       21 0.76206951E-02 0.17941613E+03</pdfrwt>
<pdfrwt beam="2">  1       21 0.10922051E+00 0.17941613E+03</pdfrwt>
<totfact> 0.87263190E+04</totfact>
</mgrwt>
</event>
<event>
 4    1  0.4391134E+000  0.2813843E+03  0.7546771E-02  0.1094935E+00
         21   -1    0    0  503  502  0.00000000000E+00  0.00000000000E+00  0.24512703973E+03  0.24512703973E+03  0.00000000000E+00 0. -1.
         21   -1    0    0  501  503 -0.00000000000E+00 -0.00000000000E+00 -0.46862714292E+03  0.46862714292E+03  0.00000000000E+00 0.  1.
          6    1    1    2  501    0  0.21581701904E+03 -0.51683047433E+02 -0.31068884947E+03  0.41917142589E+03  0.17300000000E+03 0.  1.
         -6    1    1    2    0  502 -0.21581701904E+03  0.51683047433E+02  0.87188746274E+02  0.29458275675E+03  0.17300000000E+03 0. -1.
<mgrwt>
<rscale>  2 0.28138430E+03</rscale>
<asrwt>0</asrwt>
<pdfrwt beam="1">  1       21 0.37711852E-01 0.28138430E+03</pdfrwt>
<pdfrwt beam="2">  1       21 0.72096483E-01 0.28138430E+03</pdfrwt>
<totfact> 0.11186591E+04</totfact>
</mgrwt>
</event>
<event>
 4    1  0.4391134E+000  0.2306549E+03  0.7546771E-02  0.1126180E+00
         21   -1    0    0  501  502  0.00000000000E+00  0.00000000000E+00  0.57512254339E+02  0.57512254339E+02  0.00000000000E+00 0.  1.
         21   -1    0    0  502  503 -0.00000000000E+00 -0.00000000000E+00 -0.95368367890E+03  0.95368367890E+03  0.00000000000E+00 0.  1.
          6    1    1    2  501    0 -0.83863457811E+02 -0.12743463912E+03 -0.36047695293E+03  0.42795478779E+03  0.17300000000E+03 0.  1.
         -6    1    1    2    0  503  0.83863457811E+02  0.12743463912E+03 -0.53569447163E+03  0.58324114545E+03  0.17300000000E+03 0.  1.
<mgrwt>
<rscale>  2 0.23065487E+03</rscale>
<asrwt>0</asrwt>
<pdfrwt beam="1">  1       21 0.88480395E-02 0.23065487E+03</pdfrwt>
<pdfrwt beam="2">  1       21 0.14672056E+00 0.23065487E+03</pdfrwt>
<totfact> 0.31175567E+04</totfact>
</mgrwt>
</event>
<event>
 4    1  0.4391134E+000  0.2242141E+03  0.7546771E-02  0.1130780E+00
         21   -1    0    0  503  502  0.00000000000E+00  0.00000000000E+00  0.48407040141E+02  0.48407040141E+02  0.00000000000E+00 0. -1.
         21   -1    0    0  501  503 -0.00000000000E+00 -0.00000000000E+00 -0.17634067417E+04  0.17634067417E+04  0.00000000000E+00 0.  1.
          6    1    1    2  501    0 -0.12687370372E+03  0.65161470971E+02 -0.14383186883E+04  0.14556897345E+04  0.17300000000E+03 0.  1.
         -6    1    1    2    0  502  0.12687370372E+03 -0.65161470971E+02 -0.27668101322E+03  0.35612404731E+03  0.17300000000E+03 0. -1.
<mgrwt>
<rscale>  2 0.22421408E+03</rscale>
<asrwt>0</asrwt>
<pdfrwt beam="1">  1       21 0.74472379E-02 0.22421408E+03</pdfrwt>
<pdfrwt beam="2">  1       21 0.27129331E+00 0.22421408E+03</pdfrwt>
<totfact> 0.65799610E+03</totfact>
</mgrwt>
</event>
<event>
 4    1  0.4391134E+000  0.2105032E+03  0.7546771E-02  0.1141168E+00
         21   -1    0    0  503  502  0.00000000000E+00  0.00000000000E+00  0.18519338926E+03  0.18519338926E+03  0.00000000000E+00 0. -1.
         21   -1    0    0  501  503 -0.00000000000E+00 -0.00000000000E+00 -0.26672992050E+03  0.26672992050E+03  0.00000000000E+00 0.  1.
          6    1    1    2  501    0  0.91384604765E+01 -0.11957875183E+03 -0.11326740328E+03  0.23904203395E+03  0.17300000000E+03 0.  1.
         -6    1    1    2    0  502 -0.91384604765E+01  0.11957875183E+03  0.31730872042E+02  0.21288127581E+03  0.17300000000E+03 0. -1.
<mgrwt>
<rscale>  2 0.21050318E+03</rscale>
<asrwt>0</asrwt>
<pdfrwt beam="1">  1       21 0.28491291E-01 0.21050318E+03</pdfrwt>
<pdfrwt beam="2">  1       21 0.41035373E-01 0.21050318E+03</pdfrwt>
<totfact> 0.66844766E+04</totfact>
</mgrwt>
</event>
<event>
 4    1  0.4391134E+000  0.1927121E+03  0.7546771E-02  0.1156038E+00
         21   -1    0    0  503  502  0.00000000000E+00  0.00000000000E+00  0.27792927974E+03  0.27792927974E+03  0.00000000000E+00 0.  1.
         21   -1    0    0  501  503 -0.00000000000E+00 -0.00000000000E+00 -0.13628052731E+03  0.13628052731E+03  0.00000000000E+00 0.  1.
          6    1    1    2  501    0 -0.44038848251E+02 -0.72591652469E+02  0.41907826212E+02  0.19721621146E+03  0.17300000000E+03 0.  1.
         -6    1    1    2    0  502  0.44038848251E+02  0.72591652469E+02  0.99740926222E+02  0.21699359559E+03  0.17300000000E+03 0.  1.
<mgrwt>
<rscale>  2 0.19271214E+03</rscale>
<asrwt>0</asrwt>
<pdfrwt beam="1">  1       21 0.42758351E-01 0.19271214E+03</pdfrwt>
<pdfrwt beam="2">  1       21 0.20966235E-01 0.19271214E+03</pdfrwt>
<totfact> 0.11117810E+05</totfact>
</mgrwt>
</event>
<event>
 4    1  0.4391134E+000  0.3084573E+03  0.7546771E-02  0.1081088E+00
         21   -1    0    0  501  502  0.00000000000E+00  0.00000000000E+00  0.69836794648E+03  0.69836794648E+03  0.00000000000E+00 0.  1.
         21   -1    0    0  502  503 -0.00000000000E+00 -0.00000000000E+00 -0.18332958616E+03  0.18332958616E+03  0.00000000000E+00 0. -1.
          6    1    1    2  501    0 -0.21596734514E+03  0.13629007588E+03  0.48094546775E+03  0.57136190099E+03  0.17300000000E+03 0.  1.
         -6    1    1    2    0  503  0.21596734514E+03 -0.13629007588E+03  0.34092892567E+02  0.31033563165E+03  0.17300000000E+03 0. -1.
<mgrwt>
<rscale>  2 0.30845726E+03</rscale>
<asrwt>0</asrwt>
<pdfrwt beam="1">  1       21 0.10744122E+00 0.30845726E+03</pdfrwt>
<pdfrwt beam="2">  1       21 0.28204552E-01 0.30845726E+03</pdfrwt>
<totfact> 0.77514913E+03</totfact>
</mgrwt>
</event>
<event>
 4    1  0.4391134E+000  0.2172741E+03  0.7546771E-02  0.1135932E+00
         21   -1    0    0  503  502  0.00000000000E+00  0.00000000000E+00  0.30741327172E+03  0.30741327172E+03  0.00000000000E+00 0. -1.
         21   -1    0    0  501  503 -0.00000000000E+00 -0.00000000000E+00 -0.16906103034E+03  0.16906103034E+03  0.00000000000E+00 0. -1.
          6    1    1    2  501    0 -0.12372189465E+03 -0.44406544074E+02 -0.29499156149E+01  0.21729415633E+03  0.17300000000E+03 0. -1.
         -6    1    1    2    0  502  0.12372189465E+03  0.44406544074E+02  0.14130215699E+03  0.25918014573E+03  0.17300000000E+03 0. -1.
<mgrwt>
<rscale>  2 0.21727413E+03</rscale>
<asrwt>0</asrwt>
<pdfrwt beam="1">  1       21 0.47294349E-01 0.21727413E+03</pdfrwt>
<pdfrwt beam="2">  1       21 0.26009389E-01 0.21727413E+03</pdfrwt>
<totfact> 0.59388033E+04</totfact>
</mgrwt>
</event>
<event>
 4    1  0.4391134E+000  0.1859492E+03  0.7546771E-02  0.1162166E+00
         21   -1    0    0  503  502  0.00000000000E+00  0.00000000000E+00  0.16576704347E+03  0.16576704347E+03  0.00000000000E+00 0.  1.
         21   -1    0    0  501  503 -0.00000000000E+00 -0.00000000000E+00 -0.37526828042E+03  0.37526828042E+03  0.00000000000E+00 0.  1.
          6    1    1    2  501    0  0.42692350253E+02 -0.53155304747E+02 -0.28503826351E+03  0.34032915664E+03  0.17300000000E+03 0.  1.
         -6    1    1    2    0  502 -0.42692350253E+02  0.53155304747E+02  0.75537026551E+02  0.20070616725E+03  0.17300000000E+03 0.  1.
<mgrwt>
<rscale>  2 0.18594925E+03</rscale>
<asrwt>0</asrwt>
<pdfrwt beam="1">  1       21 0.25502622E-01 0.18594925E+03</pdfrwt>
<pdfrwt beam="2">  1       21 0.57733581E-01 0.18594925E+03</pdfrwt>
<totfact> 0.41165975E+04</totfact>
</mgrwt>
</event>
<event>
 4    1  0.4391134E+000  0.1851659E+03  0.7546771E-02  0.1162895E+00
         21   -1    0    0  503  502  0.00000000000E+00  0.00000000000E+00  0.90424840703E+03  0.90424840703E+03  0.00000000000E+00 0. -1.
         21   -1    0    0  501  503 -0.00000000000E+00 -0.00000000000E+00 -0.47874063401E+02  0.47874063401E+02  0.00000000000E+00 0. -1.
          6    1    1    2  501    0 -0.65809300269E+02 -0.51532778839E+01  0.21107833333E+03  0.28078547519E+03  0.17300000000E+03 0. -1.
         -6    1    1    2    0  502  0.65809300269E+02  0.51532778839E+01  0.64529601030E+03  0.67133699525E+03  0.17300000000E+03 0. -1.
<mgrwt>
<rscale>  2 0.18516593E+03</rscale>
<asrwt>0</asrwt>
<pdfrwt beam="1">  1       21 0.13911513E+00 0.18516593E+03</pdfrwt>
<pdfrwt beam="2">  1       21 0.73652412E-02 0.18516593E+03</pdfrwt>
<totfact> 0.50591366E+04</totfact>
</mgrwt>
</event>
<event>
 4    1  0.4391134E+000  0.2091590E+03  0.7546771E-02  0.1142234E+00
         21   -1    0    0  501  502  0.00000000000E+00  0.00000000000E+00  0.54802551685E+02  0.54802551685E+02  0.00000000000E+00 0. -1.
         21   -1    0    0  502  503 -0.00000000000E+00 -0.00000000000E+00 -0.84664004448E+03  0.84664004448E+03  0.00000000000E+00 0.  1.
          6    1    1    2  501    0  0.42797685773E+02 -0.10948435856E+03 -0.28819095099E+03  0.35609196974E+03  0.17300000000E+03 0. -1.
         -6    1    1    2    0  503 -0.42797685773E+02  0.10948435856E+03 -0.50364654180E+03  0.54535062642E+03  0.17300000000E+03 0.  1.
<mgrwt>
<rscale>  2 0.20915895E+03</rscale>
<asrwt>0</asrwt>
<pdfrwt beam="1">  1       21 0.84311619E-02 0.20915895E+03</pdfrwt>
<pdfrwt beam="2">  1       21 0.13025231E+00 0.20915895E+03</pdfrwt>
<totfact> 0.46681140E+04</totfact>
</mgrwt>
</event>
<event>
 4    1  0.4391134E+000  0.4144244E+03  0.7546771E-02  0.1038896E+00
         21   -1    0    0  501  502  0.00000000000E+00  0.00000000000E+00  0.76215316344E+03  0.76215316344E+03  0.00000000000E+00 0.  1.
         21   -1    0    0  502  503 -0.00000000000E+00 -0.00000000000E+00 -0.48728887167E+03  0.48728887167E+03  0.00000000000E+00 0.  1.
          6    1    1    2  501    0  0.11985095321E+03 -0.35700752008E+03  0.59546513338E+03  0.72548352528E+03  0.17300000000E+03 0.  1.
         -6    1    1    2    0  503 -0.11985095321E+03  0.35700752008E+03 -0.32060084161E+03  0.52395850983E+03  0.17300000000E+03 0.  1.
<mgrwt>
<rscale>  2 0.41442444E+03</rscale>
<asrwt>0</asrwt>
<pdfrwt beam="1">  1       21 0.11725433E+00 0.41442444E+03</pdfrwt>
<pdfrwt beam="2">  1       21 0.74967519E-01 0.41442444E+03</pdfrwt>
<totfact> 0.76295402E+02</totfact>
</mgrwt>
</event>
<event>
 4    1  0.4391134E+000  0.1782319E+03  0.7546771E-02  0.1169525E+00
         21   -1    0    0  503  502  0.00000000000E+00  0.00000000000E+00  0.21795881894E+03  0.21795881894E+03  0.00000000000E+00 0. -1.
         21   -1    0    0  501  503 -0.00000000000E+00 -0.00000000000E+00 -0.14876046712E+03  0.14876046712E+03  0.00000000000E+00 0. -1.
          6    1    1    2  501    0 -0.24387301221E+02  0.35254470186E+02  0.84975312347E+01  0.17843437496E+03  0.17300000000E+03 0.  1.
         -6    1    1    2    0  502  0.24387301221E+02 -0.35254470186E+02  0.60700820587E+02  0.18828491110E+03  0.17300000000E+03 0.  1.
<mgrwt>
<rscale>  2 0.17823192E+03</rscale>
<asrwt>0</asrwt>
<pdfrwt beam="1">  1       21 0.33532126E-01 0.17823192E+03</pdfrwt>
<pdfrwt beam="2">  1       21 0.22886226E-01 0.17823192E+03</pdfrwt>
<totfact> 0.15417243E+05</totfact>
</mgrwt>
</event>
<event>
 4    1  0.4391134E+000  0.2480163E+03  0.7546771E-02  0.1114565E+00
         21   -1    0    0  501  502  0.00000000000E+00  0.00000000000E+00  0.26731612609E+03  0.26731612609E+03  0.00000000000E+00 0.  1.
         21   -1    0    0  502  503 -0.00000000000E+00 -0.00000000000E+00 -0.24894600465E+03  0.24894600465E+03  0.00000000000E+00 0.  1.
          6    1    1    2  501    0  0.17020523690E+03 -0.51119904922E+02 -0.61819147726E+02  0.25560452730E+03  0.17300000000E+03 0.  1.
         -6    1    1    2    0  503 -0.17020523690E+03  0.51119904922E+02  0.80189269165E+02  0.26065760345E+03  0.17300000000E+03 0.  1.
<mgrwt>
<rscale>  2 0.24801626E+03</rscale>
<asrwt>0</asrwt>
<pdfrwt beam="1">  1       21 0.41125558E-01 0.24801626E+03</pdfrwt>
<pdfrwt beam="2">  1       21 0.38299386E-01 0.24801626E+03</pdfrwt>
<totfact> 0.36454653E+04</totfact>
</mgrwt>
</event>
<event>
 4    1  0.4391134E+000  0.2394825E+03  0.7546771E-02  0.1120138E+00
         21   -1    0    0  503  502  0.00000000000E+00  0.00000000000E+00  0.10783011320E+04  0.10783011320E+04  0.00000000000E+00 0.  1.
         21   -1    0    0  501  503 -0.00000000000E+00 -0.00000000000E+00 -0.22289889384E+03  0.22289889384E+03  0.00000000000E+00 0.  1.
          6    1    1    2  501    0 -0.14664841910E+03 -0.76922720911E+02 -0.13999501997E+03  0.27739947627E+03  0.17300000000E+03 0.  1.
         -6    1    1    2    0  502  0.14664841910E+03  0.76922720911E+02  0.99539725817E+03  0.10238005496E+04  0.17300000000E+03 0.  1.
<mgrwt>
<rscale>  2 0.23948249E+03</rscale>
<asrwt>0</asrwt>
<pdfrwt beam="1">  1       21 0.16589248E+00 0.23948249E+03</pdfrwt>
<pdfrwt beam="2">  1       21 0.34292138E-01 0.23948249E+03</pdfrwt>
<totfact> 0.17917362E+03</totfact>
</mgrwt>
</event>
<event>
 4    1  0.4391134E+000  0.1878242E+03  0.7546771E-02  0.1160439E+00
         21   -1    0    0  501  502  0.00000000000E+00  0.00000000000E+00  0.27871256352E+03  0.27871256352E+03  0.00000000000E+00 0.  1.
         21   -1    0    0  502  503 -0.00000000000E+00 -0.00000000000E+00 -0.12822437836E+03  0.12822437836E+03  0.00000000000E+00 0.  1.
          6    1    1    2  501    0  0.62861223454E+02  0.37381770736E+02  0.52164660616E+02  0.19493353230E+03  0.17300000000E+03 0.  1.
         -6    1    1    2    0  503 -0.62861223454E+02 -0.37381770736E+02  0.98323524539E+02  0.21200340958E+03  0.17300000000E+03 0.  1.
<mgrwt>
<rscale>  2 0.18782420E+03</rscale>
<asrwt>0</asrwt>
<pdfrwt beam="1">  1       21 0.42878856E-01 0.18782420E+03</pdfrwt>
<pdfrwt beam="2">  1       21 0.19726827E-01 0.18782420E+03</pdfrwt>
<totfact> 0.12409314E+05</totfact>
</mgrwt>
</event>
<event>
 4    1  0.4391134E+000  0.2084161E+03  0.7546771E-02  0.1142826E+00
         21   -1    0    0  503  502  0.00000000000E+00  0.00000000000E+00  0.92096113539E+03  0.92096113539E+03  0.00000000000E+00 0.  1.
         21   -1    0    0  501  503 -0.00000000000E+00 -0.00000000000E+00 -0.86467013768E+02  0.86467013768E+02  0.00000000000E+00 0.  1.
          6    1    1    2  501    0  0.95647995960E+02 -0.66028250239E+02  0.77648817161E+02  0.22241089849E+03  0.17300000000E+03 0.  1.
         -6    1    1    2    0  502 -0.95647995960E+02  0.66028250239E+02  0.75684530446E+03  0.78501725067E+03  0.17300000000E+03 0.  1.
<mgrwt>
<rscale>  2 0.20841610E+03</rscale>
<asrwt>0</asrwt>
<pdfrwt beam="1">  1       21 0.14168632E+00 0.20841610E+03</pdfrwt>
<pdfrwt beam="2">  1       21 0.13302618E-01 0.20841610E+03</pdfrwt>
<totfact> 0.16737693E+04</totfact>
</mgrwt>
</event>
<event>
 4    1  0.4391134E+000  0.2259983E+03  0.7546771E-02  0.1129488E+00
         21   -1    0    0  503  502  0.00000000000E+00  0.00000000000E+00  0.43499864244E+03  0.43499864244E+03  0.00000000000E+00 0.  1.
         21   -1    0    0  501  503 -0.00000000000E+00 -0.00000000000E+00 -0.12202491959E+03  0.12202491959E+03  0.00000000000E+00 0. -1.
          6    1    1    2  501    0  0.12181321764E+03 -0.79421579616E+02  0.10235178045E+03  0.24809501055E+03  0.17300000000E+03 0.  1.
         -6    1    1    2    0  502 -0.12181321764E+03  0.79421579616E+02  0.21062194239E+03  0.30892855148E+03  0.17300000000E+03 0.  1.
<mgrwt>
<rscale>  2 0.22599833E+03</rscale>
<asrwt>0</asrwt>
<pdfrwt beam="1">  1       21 0.66922867E-01 0.22599833E+03</pdfrwt>
<pdfrwt beam="2">  1       21 0.18773065E-01 0.22599833E+03</pdfrwt>
<totfact> 0.52293499E+04</totfact>
</mgrwt>
</event>
<event>
 4    1  0.4391134E+000  0.2070188E+03  0.7546771E-02  0.1143949E+00
         21   -1    0    0  501  502  0.00000000000E+00  0.00000000000E+00  0.29773960981E+03  0.29773960981E+03  0.00000000000E+00 0.  1.
         21   -1    0    0  502  503 -0.00000000000E+00 -0.00000000000E+00 -0.44991684482E+03  0.44991684482E+03  0.00000000000E+00 0.  1.
          6    1    1    2  501    0 -0.90201821568E+02  0.69220190314E+02  0.23219458004E+03  0.31108057857E+03  0.17300000000E+03 0.  1.
         -6    1    1    2    0  503  0.90201821568E+02 -0.69220190314E+02 -0.38437181505E+03  0.43657587607E+03  0.17300000000E+03 0.  1.
<mgrwt>
<rscale>  2 0.20701885E+03</rscale>
<asrwt>0</asrwt>
<pdfrwt beam="1">  1       21 0.45806094E-01 0.20701885E+03</pdfrwt>
<pdfrwt beam="2">  1       21 0.69217976E-01 0.20701885E+03</pdfrwt>
<totfact> 0.85902269E+03</totfact>
</mgrwt>
</event>
<event>
 4    1  0.4391134E+000  0.3267984E+03  0.7546771E-02  0.1072562E+00
         21   -1    0    0  503  502  0.00000000000E+00  0.00000000000E+00  0.12400828640E+04  0.12400828640E+04  0.00000000000E+00 0. -1.
         21   -1    0    0  501  503 -0.00000000000E+00 -0.00000000000E+00 -0.10941604669E+03  0.10941604669E+03  0.00000000000E+00 0.  1.
          6    1    1    2  501    0  0.17602911557E+03 -0.21420067436E+03  0.25399420521E+03  0.41389640576E+03  0.17300000000E+03 0. -1.
         -6    1    1    2    0  502 -0.17602911557E+03  0.21420067436E+03  0.87667261214E+03  0.93560250497E+03  0.17300000000E+03 0.  1.
<mgrwt>
<rscale>  2 0.32679838E+03</rscale>
<asrwt>0</asrwt>
<pdfrwt beam="1">  1       21 0.19078197E+00 0.32679838E+03</pdfrwt>
<pdfrwt beam="2">  1       21 0.16833239E-01 0.32679838E+03</pdfrwt>
<totfact> 0.44526118E+03</totfact>
</mgrwt>
</event>
<event>
 4    1  0.4391134E+000  0.2172361E+03  0.7546771E-02  0.1135961E+00
         21   -1    0    0  501  502  0.00000000000E+00  0.00000000000E+00  0.30452944460E+02  0.30452944460E+02  0.00000000000E+00 0. -1.
         21   -1    0    0  502  503 -0.00000000000E+00 -0.00000000000E+00 -0.15563344003E+04  0.15563344003E+04  0.00000000000E+00 0.  1.
          6    1    1    2  501    0 -0.13125697207E+03 -0.58432954068E+01 -0.81491976667E+03  0.84337759214E+03  0.17300000000E+03 0. -1.
         -6    1    1    2    0  503  0.13125697207E+03  0.58432954068E+01 -0.71096168914E+03  0.74340975259E+03  0.17300000000E+03 0.  1.
<mgrwt>
<rscale>  2 0.21723613E+03</rscale>
<asrwt>0</asrwt>
<pdfrwt beam="1">  1       21 0.46850689E-02 0.21723613E+03</pdfrwt>
<pdfrwt beam="2">  1       21 0.23943604E+00 0.21723613E+03</pdfrwt>
<totfact> 0.22605366E+04</totfact>
</mgrwt>
</event>
<event>
 4    1  0.4391134E+000  0.2445086E+03  0.7546771E-02  0.1116825E+00
         21   -1    0    0  503  502  0.00000000000E+00  0.00000000000E+00  0.80474547648E+03  0.80474547648E+03  0.00000000000E+00 0.  1.
         21   -1    0    0  501  503 -0.00000000000E+00 -0.00000000000E+00 -0.77370423844E+02  0.77370423844E+02  0.00000000000E+00 0. -1.
          6    1    1    2  501    0  0.11549908154E+03 -0.12851225110E+03  0.27567943628E+03  0.36848824690E+03  0.17300000000E+03 0. -1.
         -6    1    1    2    0  502 -0.11549908154E+03  0.12851225110E+03  0.45169561636E+03  0.51362765342E+03  0.17300000000E+03 0. -1.
<mgrwt>
<rscale>  2 0.24450856E+03</rscale>
<asrwt>0</asrwt>
<pdfrwt beam="1">  1       21 0.12380699E+00 0.24450856E+03</pdfrwt>
<pdfrwt beam="2">  1       21 0.11903143E-01 0.24450856E+03</pdfrwt>
<totfact> 0.28267900E+04</totfact>
</mgrwt>
</event>
<event>
 4    1  0.4391134E+000  0.1804782E+03  0.7546771E-02  0.1167341E+00
         21   -1    0    0  503  502  0.00000000000E+00  0.00000000000E+00  0.16060506846E+03  0.16060506846E+03  0.00000000000E+00 0. -1.
         21   -1    0    0  501  503 -0.00000000000E+00 -0.00000000000E+00 -0.33345132088E+03  0.33345132088E+03  0.00000000000E+00 0.  1.
          6    1    1    2  501    0  0.36736368179E+02  0.35969782370E+02 -0.24104461090E+03  0.30112271657E+03  0.17300000000E+03 0.  1.
         -6    1    1    2    0  502 -0.36736368179E+02 -0.35969782370E+02  0.68198358472E+02  0.19293367277E+03  0.17300000000E+03 0. -1.
<mgrwt>
<rscale>  2 0.18047821E+03</rscale>
<asrwt>0</asrwt>
<pdfrwt beam="1">  1       21 0.24708472E-01 0.18047821E+03</pdfrwt>
<pdfrwt beam="2">  1       21 0.51300203E-01 0.18047821E+03</pdfrwt>
<totfact> 0.56250796E+04</totfact>
</mgrwt>
</event>
<event>
 4    1  0.4391134E+000  0.2057560E+03  0.7546771E-02  0.1144972E+00
         21   -1    0    0  501  502  0.00000000000E+00  0.00000000000E+00  0.23063848774E+03  0.23063848774E+03  0.00000000000E+00 0.  1.
         21   -1    0    0  502  503 -0.00000000000E+00 -0.00000000000E+00 -0.23525106305E+03  0.23525106305E+03  0.00000000000E+00 0.  1.
          6    1    1    2  501    0  0.10436392401E+03  0.38919004235E+02  0.10688895338E+03  0.23186367952E+03  0.17300000000E+03 0.  1.
         -6    1    1    2    0  503 -0.10436392401E+03 -0.38919004235E+02 -0.11150152868E+03  0.23402587127E+03  0.17300000000E+03 0.  1.
<mgrwt>
<rscale>  2 0.20575597E+03</rscale>
<asrwt>0</asrwt>
<pdfrwt beam="1">  1       21 0.35482844E-01 0.20575597E+03</pdfrwt>
<pdfrwt beam="2">  1       21 0.36192471E-01 0.20575597E+03</pdfrwt>
<totfact> 0.56031915E+04</totfact>
</mgrwt>
</event>
<event>
 4    1  0.4391134E+000  0.1861090E+03  0.7546771E-02  0.1162018E+00
         21   -1    0    0  503  502  0.00000000000E+00  0.00000000000E+00  0.21948169162E+04  0.21948169162E+04  0.00000000000E+00 0. -1.
         21   -1    0    0  501  503 -0.00000000000E+00 -0.00000000000E+00 -0.33514798929E+02  0.33514798929E+02  0.00000000000E+00 0. -1.
          6    1    1    2  501    0  0.60810687644E+02 -0.31774441233E+02  0.27019104054E+03  0.32808497868E+03  0.17300000000E+03 0. -1.
         -6    1    1    2    0  502 -0.60810687644E+02  0.31774441233E+02  0.18911110767E+04  0.19002467364E+04  0.17300000000E+03 0. -1.
<mgrwt>
<rscale>  2 0.18610899E+03</rscale>
<asrwt>0</asrwt>
<pdfrwt beam="1">  1       21 0.33766403E+00 0.18610899E+03</pdfrwt>
<pdfrwt beam="2">  1       21 0.51561246E-02 0.18610899E+03</pdfrwt>
<totfact> 0.53191508E+03</totfact>
</mgrwt>
</event>
<event>
 4    1  0.4391134E+000  0.2184094E+03  0.7546771E-02  0.1135074E+00
         21   -1    0    0  501  502  0.00000000000E+00  0.00000000000E+00  0.91302539646E+02  0.91302539646E+02  0.00000000000E+00 0.  1.
         21   -1    0    0  502  503 -0.00000000000E+00 -0.00000000000E+00 -0.60365527799E+03  0.60365527799E+03  0.00000000000E+00 0.  1.
          6    1    1    2  501    0  0.12228090353E+03 -0.53113720975E+02 -0.12874480400E+03  0.25353088822E+03  0.17300000000E+03 0.  1.
         -6    1    1    2    0  503 -0.12228090353E+03  0.53113720975E+02 -0.38360793434E+03  0.44142692942E+03  0.17300000000E+03 0.  1.
<mgrwt>
<rscale>  2 0.21840945E+03</rscale>
<asrwt>0</asrwt>
<pdfrwt beam="1">  1       21 0.14046544E-01 0.21840945E+03</pdfrwt>
<pdfrwt beam="2">  1       21 0.92870044E-01 0.21840945E+03</pdfrwt>
<totfact> 0.42602390E+04</totfact>
</mgrwt>
</event>
<event>
 4    1  0.4391134E+000  0.1739554E+03  0.7546771E-02  0.1173785E+00
         21   -1    0    0  503  502  0.00000000000E+00  0.00000000000E+00  0.17870174676E+02  0.17870174676E+02  0.00000000000E+00 0. -1.
         21   -1    0    0  501  503 -0.00000000000E+00 -0.00000000000E+00 -0.19310100012E+04  0.19310100012E+04  0.00000000000E+00 0. -1.
          6    1    1    2  501    0  0.18186350991E+02  0.85313795614E+00 -0.61471614625E+03  0.63885554836E+03  0.17300000000E+03 0.  1.
         -6    1    1    2    0  502 -0.18186350991E+02 -0.85313795614E+00 -0.12984236802E+04  0.13100246275E+04  0.17300000000E+03 0.  1.
<mgrwt>
<rscale>  2 0.17395537E+03</rscale>
<asrwt>0</asrwt>
<pdfrwt beam="1">  1       21 0.27492550E-02 0.17395537E+03</pdfrwt>
<pdfrwt beam="2">  1       21 0.29707875E+00 0.17395537E+03</pdfrwt>
<totfact> 0.26423357E+04</totfact>
</mgrwt>
</event>
<event>
 4    1  0.4391134E+000  0.2936312E+03  0.7546771E-02  0.1088468E+00
         21   -1    0    0  501  502  0.00000000000E+00  0.00000000000E+00  0.42373627292E+03  0.42373627292E+03  0.00000000000E+00 0. -1.
         21   -1    0    0  502  503 -0.00000000000E+00 -0.00000000000E+00 -0.89834254015E+03  0.89834254015E+03  0.00000000000E+00 0.  1.
          6    1    1    2  501    0  0.13102392708E+03  0.19779531359E+03  0.34407371732E+03  0.45233392366E+03  0.17300000000E+03 0. -1.
         -6    1    1    2    0  503 -0.13102392708E+03 -0.19779531359E+03 -0.81867998455E+03  0.86974488940E+03  0.17300000000E+03 0.  1.
<mgrwt>
<rscale>  2 0.29363116E+03</rscale>
<asrwt>0</asrwt>
<pdfrwt beam="1">  1       21 0.65190197E-01 0.29363116E+03</pdfrwt>
<pdfrwt beam="2">  1       21 0.13820654E+00 0.29363116E+03</pdfrwt>
<totfact> 0.73362159E+02</totfact>
</mgrwt>
</event>
<event>
 4    1  0.4391134E+000  0.2284015E+03  0.7546771E-02  0.1127770E+00
         21   -1    0    0  503  502  0.00000000000E+00  0.00000000000E+00  0.13352065526E+03  0.13352065526E+03  0.00000000000E+00 0.  1.
         21   -1    0    0  501  503 -0.00000000000E+00 -0.00000000000E+00 -0.39078205812E+03  0.39078205812E+03  0.00000000000E+00 0.  1.
          6    1    1    2  501    0 -0.37649885697E+02  0.14429391184E+03 -0.12496008159E+03  0.26035028112E+03  0.17300000000E+03 0.  1.
         -6    1    1    2    0  502  0.37649885697E+02 -0.14429391184E+03 -0.13230132128E+03  0.26395243226E+03  0.17300000000E+03 0.  1.
<mgrwt>
<rscale>  2 0.22840150E+03</rscale>
<asrwt>0</asrwt>
<pdfrwt beam="1">  1       21 0.20541639E-01 0.22840150E+03</pdfrwt>
<pdfrwt beam="2">  1       21 0.60120317E-01 0.22840150E+03</pdfrwt>
<totfact> 0.55735872E+04</totfact>
</mgrwt>
</event>
<event>
 4    1  0.4391134E+000  0.1748750E+03  0.7546771E-02  0.1172857E+00
         21   -1    0    0  501  502  0.00000000000E+00  0.00000000000E+00  0.73967397609E+03  0.73967397609E+03  0.00000000000E+00 0. -1.
         21   -1    0    0  502  503 -0.00000000000E+00 -0.00000000000E+00 -0.74075891081E+02  0.74075891081E+02  0.00000000000E+00 0. -1.
          6    1    1    2  501    0 -0.22559757489E+02  0.11971883723E+02  0.60326110600E+03  0.62809651382E+03  0.17300000000E+03 0. -1.
         -6    1    1    2    0  503  0.22559757489E+02 -0.11971883723E+02  0.62336979002E+02  0.18565335335E+03  0.17300000000E+03 0. -1.
<mgrwt>
<rscale>  2 0.17487501E+03</rscale>
<asrwt>0</asrwt>
<pdfrwt beam="1">  1       21 0.11379599E+00 0.17487501E+03</pdfrwt>
<pdfrwt beam="2">  1       21 0.11396291E-01 0.17487501E+03</pdfrwt>
<totfact> 0.39085301E+04</totfact>
</mgrwt>
</event>
<event>
 4    1  0.4391134E+000  0.1994903E+03  0.7546771E-02  0.1150170E+00
         21   -1    0    0  503  502  0.00000000000E+00  0.00000000000E+00  0.10868228296E+03  0.10868228296E+03  0.00000000000E+00 0.  1.
         21   -1    0    0  501  503 -0.00000000000E+00 -0.00000000000E+00 -0.46160486507E+03  0.46160486507E+03  0.00000000000E+00 0.  1.
          6    1    1    2  501    0  0.31746217635E+02 -0.94125195096E+02 -0.30611295591E+03  0.36537859333E+03  0.17300000000E+03 0.  1.
         -6    1    1    2    0  502 -0.31746217635E+02  0.94125195096E+02 -0.46809626200E+02  0.20490855470E+03  0.17300000000E+03 0.  1.
<mgrwt>
<rscale>  2 0.19949029E+03</rscale>
<asrwt>0</asrwt>
<pdfrwt beam="1">  1       21 0.16720351E-01 0.19949029E+03</pdfrwt>
<pdfrwt beam="2">  1       21 0.71016134E-01 0.19949029E+03</pdfrwt>
<totfact> 0.57540178E+04</totfact>
</mgrwt>
</event>
<event>
 4    1  0.4391134E+000  0.1962888E+03  0.7546771E-02  0.1152908E+00
         21   -1    0    0  501  502  0.00000000000E+00  0.00000000000E+00  0.18533936314E+03  0.18533936314E+03  0.00000000000E+00 0. -1.
         21   -1    0    0  502  503 -0.00000000000E+00 -0.00000000000E+00 -0.76572332948E+03  0.76572332948E+03  0.00000000000E+00 0.  1.
          6    1    1    2  501    0 -0.91328612543E+02  0.16105696660E+02  0.11568769949E+03  0.22784414135E+03  0.17300000000E+03 0. -1.
         -6    1    1    2    0  503  0.91328612543E+02 -0.16105696660E+02 -0.69607166583E+03  0.72321855128E+03  0.17300000000E+03 0.  1.
<mgrwt>
<rscale>  2 0.19628884E+03</rscale>
<asrwt>0</asrwt>
<pdfrwt beam="1">  1       21 0.28513748E-01 0.19628884E+03</pdfrwt>
<pdfrwt beam="2">  1       21 0.11780359E+00 0.19628884E+03</pdfrwt>
<totfact> 0.64833610E+03</totfact>
</mgrwt>
</event>
<event>
 4    1  0.4391134E+000  0.2069905E+03  0.7546771E-02  0.1143972E+00
         21   -1    0    0  501  502  0.00000000000E+00  0.00000000000E+00  0.19354667901E+03  0.19354667901E+03  0.00000000000E+00 0. -1.
         21   -1    0    0  502  503 -0.00000000000E+00 -0.00000000000E+00 -0.25845888140E+03  0.25845888140E+03  0.00000000000E+00 0.  1.
          6    1    1    2  501    0  0.99339977786E+02  0.55205227009E+02  0.53159205261E+02  0.21370762593E+03  0.17300000000E+03 0. -1.
         -6    1    1    2    0  503 -0.99339977786E+02 -0.55205227009E+02 -0.11807140765E+03  0.23829793448E+03  0.17300000000E+03 0. -1.
<mgrwt>
<rscale>  2 0.20699045E+03</rscale>
<asrwt>0</asrwt>
<pdfrwt beam="1">  1       21 0.29776412E-01 0.20699045E+03</pdfrwt>
<pdfrwt beam="2">  1       21 0.39762904E-01 0.20699045E+03</pdfrwt>
<totfact> 0.65490880E+04</totfact>
</mgrwt>
</event>
<event>
 4    1  0.4391134E+000  0.1867057E+03  0.7546771E-02  0.1161467E+00
         21   -1    0    0  501  502  0.00000000000E+00  0.00000000000E+00  0.45552263033E+03  0.45552263033E+03  0.00000000000E+00 0.  1.
         21   -1    0    0  502  503 -0.00000000000E+00 -0.00000000000E+00 -0.80567325200E+02  0.80567325200E+02  0.00000000000E+00 0.  1.
          6    1    1    2  501    0  0.19470785079E+02 -0.67460350036E+02  0.24751578803E+03  0.31003721651E+03  0.17300000000E+03 0.  1.
         -6    1    1    2    0  503 -0.19470785079E+02  0.67460350036E+02  0.12743951710E+03  0.22605273902E+03  0.17300000000E+03 0.  1.
<mgrwt>
<rscale>  2 0.18670568E+03</rscale>
<asrwt>0</asrwt>
<pdfrwt beam="1">  1       21 0.70080403E-01 0.18670568E+03</pdfrwt>
<pdfrwt beam="2">  1       21 0.12394973E-01 0.18670568E+03</pdfrwt>
<totfact> 0.10257910E+05</totfact>
</mgrwt>
</event>
<event>
 4    1  0.4391134E+000  0.1745065E+03  0.7546771E-02  0.1173228E+00
         21   -1    0    0  501  502  0.00000000000E+00  0.00000000000E+00  0.86547777671E+02  0.86547777671E+02  0.00000000000E+00 0.  1.
         21   -1    0    0  502  503 -0.00000000000E+00 -0.00000000000E+00 -0.46642134828E+03  0.46642134828E+03  0.00000000000E+00 0.  1.
          6    1    1    2  501    0  0.61319678550E+00 -0.22871989934E+02 -0.32696343942E+03  0.37061785528E+03  0.17300000000E+03 0.  1.
         -6    1    1    2    0  503 -0.61319678550E+00  0.22871989934E+02 -0.52910131191E+02  0.18235127067E+03  0.17300000000E+03 0.  1.
<mgrwt>
<rscale>  2 0.17450646E+03</rscale>
<asrwt>0</asrwt>
<pdfrwt beam="1">  1       21 0.13315043E-01 0.17450646E+03</pdfrwt>
<pdfrwt beam="2">  1       21 0.71757130E-01 0.17450646E+03</pdfrwt>
<totfact> 0.86040338E+04</totfact>
</mgrwt>
</event>
<event>
 4    1  0.4391134E+000  0.1972266E+03  0.7546771E-02  0.1152100E+00
         21   -1    0    0  501  502  0.00000000000E+00  0.00000000000E+00  0.59662505762E+03  0.59662505762E+03  0.00000000000E+00 0. -1.
         21   -1    0    0  502  503 -0.00000000000E+00 -0.00000000000E+00 -0.65621375290E+02  0.65621375290E+02  0.00000000000E+00 0.  1.
          6    1    1    2  501    0 -0.92261795275E+02  0.21379609071E+02  0.29212149824E+03  0.35246744004E+03  0.17300000000E+03 0. -1.
         -6    1    1    2    0  503  0.92261795275E+02 -0.21379609071E+02  0.23888218409E+03  0.30977899288E+03  0.17300000000E+03 0.  1.
<mgrwt>
<rscale>  2 0.19722659E+03</rscale>
<asrwt>0</asrwt>
<pdfrwt beam="1">  1       21 0.91788467E-01 0.19722659E+03</pdfrwt>
<pdfrwt beam="2">  1       21 0.10095597E-01 0.19722659E+03</pdfrwt>
<totfact> 0.79924382E+04</totfact>
</mgrwt>
</event>
<event>
 4    1  0.4391134E+000  0.1862643E+03  0.7546771E-02  0.1161874E+00
         21   -1    0    0  503  502  0.00000000000E+00  0.00000000000E+00  0.45679585451E+02  0.45679585451E+02  0.00000000000E+00 0.  1.
         21   -1    0    0  501  503 -0.00000000000E+00 -0.00000000000E+00 -0.15850651873E+04  0.15850651873E+04  0.00000000000E+00 0.  1.
          6    1    1    2  501    0  0.86717283702E+01  0.68485048443E+02 -0.13581349466E+04  0.13708482534E+04  0.17300000000E+03 0.  1.
         -6    1    1    2    0  502 -0.86717283702E+01 -0.68485048443E+02 -0.18125065526E+03  0.25989651934E+03  0.17300000000E+03 0.  1.
<mgrwt>
<rscale>  2 0.18626433E+03</rscale>
<asrwt>0</asrwt>
<pdfrwt beam="1">  1       21 0.70276293E-02 0.18626433E+03</pdfrwt>
<pdfrwt beam="2">  1       21 0.24385616E+00 0.18626433E+03</pdfrwt>
<totfact> 0.10924871E+04</totfact>
</mgrwt>
</event>
<event>
 4    1  0.4391134E+000  0.2421955E+03  0.7546771E-02  0.1118339E+00
         21   -1    0    0  503  502  0.00000000000E+00  0.00000000000E+00  0.95651445770E+02  0.95651445770E+02  0.00000000000E+00 0.  1.
         21   -1    0    0  501  503 -0.00000000000E+00 -0.00000000000E+00 -0.72554105620E+03  0.72554105620E+03  0.00000000000E+00 0.  1.
          6    1    1    2  501    0  0.15104274502E+03  0.76914063549E+02 -0.47647278988E+03  0.53449509211E+03  0.17300000000E+03 0.  1.
         -6    1    1    2    0  502 -0.15104274502E+03 -0.76914063549E+02 -0.15341682055E+03  0.28669740986E+03  0.17300000000E+03 0.  1.
<mgrwt>
<rscale>  2 0.24219555E+03</rscale>
<asrwt>0</asrwt>
<pdfrwt beam="1">  1       21 0.14715607E-01 0.24219555E+03</pdfrwt>
<pdfrwt beam="2">  1       21 0.11162170E+00 0.24219555E+03</pdfrwt>
<totfact> 0.24904663E+04</totfact>
</mgrwt>
</event>
<event>
 4    1  0.4391134E+000  0.2229645E+03  0.7546771E-02  0.1131692E+00
         21   -1    0    0  503  502  0.00000000000E+00  0.00000000000E+00  0.26494979287E+03  0.26494979287E+03  0.00000000000E+00 0. -1.
         21   -1    0    0  501  503 -0.00000000000E+00 -0.00000000000E+00 -0.20518726657E+03  0.20518726657E+03  0.00000000000E+00 0.  1.
          6    1    1    2  501    0 -0.65887057137E+02  0.12427009054E+03 -0.38875959533E+02  0.22632830121E+03  0.17300000000E+03 0.  1.
         -6    1    1    2    0  502  0.65887057137E+02 -0.12427009054E+03  0.98638485830E+02  0.24380875823E+03  0.17300000000E+03 0. -1.
<mgrwt>
<rscale>  2 0.22296448E+03</rscale>
<asrwt>0</asrwt>
<pdfrwt beam="1">  1       21 0.40761506E-01 0.22296448E+03</pdfrwt>
<pdfrwt beam="2">  1       21 0.31567272E-01 0.22296448E+03</pdfrwt>
<totfact> 0.55158634E+04</totfact>
</mgrwt>
</event>
<event>
 4    1  0.4391134E+000  0.2301688E+03  0.7546771E-02  0.1126521E+00
         21   -1    0    0  503  502  0.00000000000E+00  0.00000000000E+00  0.32167278268E+02  0.32167278268E+02  0.00000000000E+00 0.  1.
         21   -1    0    0  501  503 -0.00000000000E+00 -0.00000000000E+00 -0.16637617540E+04  0.16637617540E+04  0.00000000000E+00 0.  1.
          6    1    1    2  501    0 -0.25223330071E+02 -0.14970788154E+03 -0.90105463509E+03  0.92998769970E+03  0.17300000000E+03 0.  1.
         -6    1    1    2    0  502  0.25223330071E+02  0.14970788154E+03 -0.73053984065E+03  0.76594133258E+03  0.17300000000E+03 0.  1.
<mgrwt>
<rscale>  2 0.23016878E+03</rscale>
<asrwt>0</asrwt>
<pdfrwt beam="1">  1       21 0.49488118E-02 0.23016878E+03</pdfrwt>
<pdfrwt beam="2">  1       21 0.25596336E+00 0.23016878E+03</pdfrwt>
<totfact> 0.16261664E+04</totfact>
</mgrwt>
</event>
<event>
 4    1  0.4391134E+000  0.2267392E+03  0.7546771E-02  0.1128956E+00
         21   -1    0    0  501  502  0.00000000000E+00  0.00000000000E+00  0.12882397138E+03  0.12882397138E+03  0.00000000000E+00 0.  1.
         21   -1    0    0  502  503 -0.00000000000E+00 -0.00000000000E+00 -0.42928606781E+03  0.42928606781E+03  0.00000000000E+00 0.  1.
          6    1    1    2  501    0  0.39463682059E+02 -0.14115345392E+03 -0.76204867625E+02  0.23920255351E+03  0.17300000000E+03 0.  1.
         -6    1    1    2    0  503 -0.39463682059E+02  0.14115345392E+03 -0.22425722881E+03  0.31890748568E+03  0.17300000000E+03 0.  1.
<mgrwt>
<rscale>  2 0.22673923E+03</rscale>
<asrwt>0</asrwt>
<pdfrwt beam="1">  1       21 0.19819073E-01 0.22673923E+03</pdfrwt>
<pdfrwt beam="2">  1       21 0.66044010E-01 0.22673923E+03</pdfrwt>
<totfact> 0.48629082E+04</totfact>
</mgrwt>
</event>
<event>
 4    1  0.4391134E+000  0.2000241E+03  0.7546771E-02  0.1149719E+00
         21   -1    0    0  501  502  0.00000000000E+00  0.00000000000E+00  0.17654885581E+03  0.17654885581E+03  0.00000000000E+00 0.  1.
         21   -1    0    0  502  503 -0.00000000000E+00 -0.00000000000E+00 -0.25149421054E+03  0.25149421054E+03  0.00000000000E+00 0.  1.
          6    1    1    2  501    0  0.30690051864E+02  0.95596816057E+02 -0.10477991362E+03  0.22580624620E+03  0.17300000000E+03 0.  1.
         -6    1    1    2    0  503 -0.30690051864E+02 -0.95596816057E+02  0.29834558882E+02  0.20223682016E+03  0.17300000000E+03 0.  1.
<mgrwt>
<rscale>  2 0.20002407E+03</rscale>
<asrwt>0</asrwt>
<pdfrwt beam="1">  1       21 0.27161363E-01 0.20002407E+03</pdfrwt>
<pdfrwt beam="2">  1       21 0.38691417E-01 0.20002407E+03</pdfrwt>
<totfact> 0.82960179E+04</totfact>
</mgrwt>
</event>
<event>
 4    1  0.4391134E+000  0.1961182E+03  0.7546771E-02  0.1153056E+00
         21   -1    0    0  503  502  0.00000000000E+00  0.00000000000E+00  0.12009016671E+03  0.12009016671E+03  0.00000000000E+00 0.  1.
         21   -1    0    0  501  503 -0.00000000000E+00 -0.00000000000E+00 -0.35896674053E+03  0.35896674053E+03  0.00000000000E+00 0.  1.
          6    1    1    2  501    0  0.63339769776E+02 -0.67241627623E+02 -0.19807339383E+03  0.27873900385E+03  0.17300000000E+03 0.  1.
         -6    1    1    2    0  502 -0.63339769776E+02  0.67241627623E+02 -0.40803179986E+02  0.20031790339E+03  0.17300000000E+03 0.  1.
<mgrwt>
<rscale>  2 0.19611824E+03</rscale>
<asrwt>0</asrwt>
<pdfrwt beam="1">  1       21 0.18475411E-01 0.19611824E+03</pdfrwt>
<pdfrwt beam="2">  1       21 0.55225651E-01 0.19611824E+03</pdfrwt>
<totfact> 0.82607406E+04</totfact>
</mgrwt>
</event>
<event>
 4    1  0.4391134E+000  0.2109451E+03  0.7546771E-02  0.1140820E+00
         21   -1    0    0  501  502  0.00000000000E+00  0.00000000000E+00  0.70076877791E+02  0.70076877791E+02  0.00000000000E+00 0. -1.
         21   -1    0    0  502  503 -0.00000000000E+00 -0.00000000000E+00 -0.80614832201E+03  0.80614832201E+03  0.00000000000E+00 0. -1.
          6    1    1    2  501    0  0.87036627175E+02  0.83626885778E+02 -0.16616076076E+03  0.26852789224E+03  0.17300000000E+03 0. -1.
         -6    1    1    2    0  503 -0.87036627175E+02 -0.83626885778E+02 -0.56991068345E+03  0.60769730756E+03  0.17300000000E+03 0. -1.
<mgrwt>
<rscale>  2 0.21094509E+03</rscale>
<asrwt>0</asrwt>
<pdfrwt beam="1">  1       21 0.10781059E-01 0.21094509E+03</pdfrwt>
<pdfrwt beam="2">  1       21 0.12402281E+00 0.21094509E+03</pdfrwt>
<totfact> 0.34192640E+04</totfact>
</mgrwt>
</event>
<event>
 4    1  0.4391134E+000  0.1997718E+03  0.7546771E-02  0.1149932E+00
         21   -1    0    0  503  502  0.00000000000E+00  0.00000000000E+00  0.70158615018E+03  0.70158615018E+03  0.00000000000E+00 0. -1.
         21   -1    0    0  501  503 -0.00000000000E+00 -0.00000000000E+00 -0.81024499829E+02  0.81024499829E+02  0.00000000000E+00 0. -1.
          6    1    1    2  501    0  0.49611038643E+02  0.86709462123E+02  0.96689410527E+02  0.22194059585E+03  0.17300000000E+03 0. -1.
         -6    1    1    2    0  502 -0.49611038643E+02 -0.86709462123E+02  0.52387223982E+03  0.56067005416E+03  0.17300000000E+03 0. -1.
<mgrwt>
<rscale>  2 0.19977183E+03</rscale>
<asrwt>0</asrwt>
<pdfrwt beam="1">  1       21 0.10793633E+00 0.19977183E+03</pdfrwt>
<pdfrwt beam="2">  1       21 0.12465308E-01 0.19977183E+03</pdfrwt>
<totfact> 0.37328999E+04</totfact>
</mgrwt>
</event>
<event>
 4    1  0.4391134E+000  0.1899251E+03  0.7546771E-02  0.1158529E+00
         21   -1    0    0  503  502  0.00000000000E+00  0.00000000000E+00  0.59855284947E+03  0.59855284947E+03  0.00000000000E+00 0. -1.
         21   -1    0    0  501  503 -0.00000000000E+00 -0.00000000000E+00 -0.80949448646E+02  0.80949448646E+02  0.00000000000E+00 0. -1.
          6    1    1    2  501    0 -0.27852357776E+02 -0.73258303534E+02  0.87058153973E+02  0.20892739180E+03  0.17300000000E+03 0. -1.
         -6    1    1    2    0  502  0.27852357776E+02  0.73258303534E+02  0.43054524686E+03  0.47057490632E+03  0.17300000000E+03 0. -1.
<mgrwt>
<rscale>  2 0.18992507E+03</rscale>
<asrwt>0</asrwt>
<pdfrwt beam="1">  1       21 0.92085051E-01 0.18992507E+03</pdfrwt>
<pdfrwt beam="2">  1       21 0.12453762E-01 0.18992507E+03</pdfrwt>
<totfact> 0.54771854E+04</totfact>
</mgrwt>
</event>
<event>
 4    1  0.4391134E+000  0.1809461E+03  0.7546771E-02  0.1166891E+00
         21   -1    0    0  503  502  0.00000000000E+00  0.00000000000E+00  0.21673540299E+03  0.21673540299E+03  0.00000000000E+00 0.  1.
         21   -1    0    0  501  503 -0.00000000000E+00 -0.00000000000E+00 -0.15145706334E+03  0.15145706334E+03  0.00000000000E+00 0.  1.
          6    1    1    2  501    0 -0.28863168326E+02 -0.44490409204E+02  0.41986636891E+02  0.18575348361E+03  0.17300000000E+03 0. -1.
         -6    1    1    2    0  502  0.28863168326E+02  0.44490409204E+02  0.23291702760E+02  0.18243898272E+03  0.17300000000E+03 0. -1.
<mgrwt>
<rscale>  2 0.18094607E+03</rscale>
<asrwt>0</asrwt>
<pdfrwt beam="1">  1       21 0.33343908E-01 0.18094607E+03</pdfrwt>
<pdfrwt beam="2">  1       21 0.23301087E-01 0.18094607E+03</pdfrwt>
<totfact> 0.15055328E+05</totfact>
</mgrwt>
</event>
<event>
 4    1  0.4391134E+000  0.1795849E+03  0.7546771E-02  0.1168205E+00
         21   -1    0    0  501  502  0.00000000000E+00  0.00000000000E+00  0.22908128427E+03  0.22908128427E+03  0.00000000000E+00 0.  1.
         21   -1    0    0  502  503 -0.00000000000E+00 -0.00000000000E+00 -0.14128707988E+03  0.14128707988E+03  0.00000000000E+00 0.  1.
          6    1    1    2  501    0  0.24391493122E+02 -0.41554545548E+02  0.54959513996E+02  0.18780647851E+03  0.17300000000E+03 0. -1.
         -6    1    1    2    0  503 -0.24391493122E+02  0.41554545548E+02  0.32834690391E+02  0.18256188563E+03  0.17300000000E+03 0. -1.
<mgrwt>
<rscale>  2 0.17958487E+03</rscale>
<asrwt>0</asrwt>
<pdfrwt beam="1">  1       21 0.35243275E-01 0.17958487E+03</pdfrwt>
<pdfrwt beam="2">  1       21 0.21736474E-01 0.17958487E+03</pdfrwt>
<totfact> 0.15390715E+05</totfact>
</mgrwt>
</event>
<event>
 4    1  0.4391134E+000  0.1783608E+03  0.7546771E-02  0.1169399E+00
         21   -1    0    0  501  502  0.00000000000E+00  0.00000000000E+00  0.18464520083E+03  0.18464520083E+03  0.00000000000E+00 0. -1.
         21   -1    0    0  502  503 -0.00000000000E+00 -0.00000000000E+00 -0.19471195813E+03  0.19471195813E+03  0.00000000000E+00 0. -1.
          6    1    1    2  501    0  0.11961140022E+01  0.43383766152E+02  0.59332482982E+02  0.18797054395E+03  0.17300000000E+03 0. -1.
         -6    1    1    2    0  503 -0.11961140022E+01 -0.43383766152E+02 -0.69399240290E+02  0.19138661502E+03  0.17300000000E+03 0. -1.
<mgrwt>
<rscale>  2 0.17836082E+03</rscale>
<asrwt>0</asrwt>
<pdfrwt beam="1">  1       21 0.28406954E-01 0.17836082E+03</pdfrwt>
<pdfrwt beam="2">  1       21 0.29955686E-01 0.17836082E+03</pdfrwt>
<totfact> 0.12724190E+05</totfact>
</mgrwt>
</event>
<event>
 4    1  0.4391134E+000  0.1819445E+03  0.7546771E-02  0.1165934E+00
         21   -1    0    0  503  502  0.00000000000E+00  0.00000000000E+00  0.19457560090E+03  0.19457560090E+03  0.00000000000E+00 0.  1.
         21   -1    0    0  501  503 -0.00000000000E+00 -0.00000000000E+00 -0.26722479358E+03  0.26722479358E+03  0.00000000000E+00 0.  1.
          6    1    1    2  501    0  0.41335167567E+02 -0.38290935748E+02 -0.17550448607E+03  0.25279560215E+03  0.17300000000E+03 0.  1.
         -6    1    1    2    0  502 -0.41335167567E+02  0.38290935748E+02  0.10285529339E+03  0.20900479233E+03  0.17300000000E+03 0.  1.
<mgrwt>
<rscale>  2 0.18194447E+03</rscale>
<asrwt>0</asrwt>
<pdfrwt beam="1">  1       21 0.29934708E-01 0.18194447E+03</pdfrwt>
<pdfrwt beam="2">  1       21 0.41111507E-01 0.18194447E+03</pdfrwt>
<totfact> 0.61270256E+04</totfact>
</mgrwt>
</event>
<event>
 4    1  0.4391134E+000  0.3229209E+03  0.7546771E-02  0.1074313E+00
         21   -1    0    0  503  502  0.00000000000E+00  0.00000000000E+00  0.89900323800E+03  0.89900323800E+03  0.00000000000E+00 0. -1.
         21   -1    0    0  501  503 -0.00000000000E+00 -0.00000000000E+00 -0.14275460239E+03  0.14275460239E+03  0.00000000000E+00 0. -1.
          6    1    1    2  501    0  0.12092057452E+03 -0.24439127832E+03  0.15259677525E+03  0.35716054944E+03  0.17300000000E+03 0. -1.
         -6    1    1    2    0  502 -0.12092057452E+03  0.24439127832E+03  0.60365186035E+03  0.68459729094E+03  0.17300000000E+03 0. -1.
<mgrwt>
<rscale>  2 0.32292086E+03</rscale>
<asrwt>0</asrwt>
<pdfrwt beam="1">  1       21 0.13830819E+00 0.32292086E+03</pdfrwt>
<pdfrwt beam="2">  1       21 0.21962247E-01 0.32292086E+03</pdfrwt>
<totfact> 0.65976923E+03</totfact>
</mgrwt>
</event>
<event>
 4    1  0.4391134E+000  0.1730764E+03  0.7546771E-02  0.1174677E+00
         21   -1    0    0  503  502  0.00000000000E+00  0.00000000000E+00  0.27678519233E+03  0.27678519233E+03  0.00000000000E+00 0. -1.
         21   -1    0    0  501  503 -0.00000000000E+00 -0.00000000000E+00 -0.13138839811E+03  0.13138839811E+03  0.00000000000E+00 0. -1.
          6    1    1    2  501    0 -0.26544025587E+01 -0.44033461533E+01  0.15838746360E+03  0.23461036622E+03  0.17300000000E+03 0. -1.
         -6    1    1    2    0  502  0.26544025587E+01  0.44033461533E+01 -0.12990669388E+02  0.17356322422E+03  0.17300000000E+03 0. -1.
<mgrwt>
<rscale>  2 0.17307639E+03</rscale>
<asrwt>0</asrwt>
<pdfrwt beam="1">  1       21 0.42582337E-01 0.17307639E+03</pdfrwt>
<pdfrwt beam="2">  1       21 0.20213600E-01 0.17307639E+03</pdfrwt>
<totfact> 0.12089818E+05</totfact>
</mgrwt>
</event>
<event>
 4    1  0.4391134E+000  0.2319342E+03  0.7546771E-02  0.1125286E+00
         21   -1    0    0  501  502  0.00000000000E+00  0.00000000000E+00  0.69163558529E+03  0.69163558529E+03  0.00000000000E+00 0. -1.
         21   -1    0    0  502  503 -0.00000000000E+00 -0.00000000000E+00 -0.11870333036E+03  0.11870333036E+03  0.00000000000E+00 0.  1.
          6    1    1    2  501    0  0.15353742647E+03 -0.17050372710E+02  0.52437232967E+03  0.57337579009E+03  0.17300000000E+03 0. -1.
         -6    1    1    2    0  503 -0.15353742647E+03  0.17050372710E+02  0.48559925256E+02  0.23696312556E+03  0.17300000000E+03 0.  1.
<mgrwt>
<rscale>  2 0.23193416E+03</rscale>
<asrwt>0</asrwt>
<pdfrwt beam="1">  1       21 0.10640547E+00 0.23193416E+03</pdfrwt>
<pdfrwt beam="2">  1       21 0.18262051E-01 0.23193416E+03</pdfrwt>
<totfact> 0.18893207E+04</totfact>
</mgrwt>
</event>
<event>
 4    1  0.4391134E+000  0.2814841E+03  0.7546771E-02  0.1094881E+00
         21   -1    0    0  503  502  0.00000000000E+00  0.00000000000E+00  0.72857613449E+03  0.72857613449E+03  0.00000000000E+00 0.  1.
         21   -1    0    0  501  503 -0.00000000000E+00 -0.00000000000E+00 -0.10918358738E+03  0.10918358738E+03  0.00000000000E+00 0.  1.
          6    1    1    2  501    0 -0.22013408837E+03 -0.29073531739E+02  0.28332604340E+03  0.39938319191E+03  0.17300000000E+03 0.  1.
         -6    1    1    2    0  502  0.22013408837E+03  0.29073531739E+02  0.33606650370E+03  0.43837652996E+03  0.17300000000E+03 0.  1.
<mgrwt>
<rscale>  2 0.28148408E+03</rscale>
<asrwt>0</asrwt>
<pdfrwt beam="1">  1       21 0.11208863E+00 0.28148408E+03</pdfrwt>
<pdfrwt beam="2">  1       21 0.16797475E-01 0.28148408E+03</pdfrwt>
<totfact> 0.18964006E+04</totfact>
</mgrwt>
</event>
<event>
 4    1  0.4391134E+000  0.2277204E+03  0.7546771E-02  0.1128255E+00
         21   -1    0    0  503  502  0.00000000000E+00  0.00000000000E+00  0.63980120296E+02  0.63980120296E+02  0.00000000000E+00 0.  1.
         21   -1    0    0  501  503 -0.00000000000E+00 -0.00000000000E+00 -0.12464604722E+04  0.12464604722E+04  0.00000000000E+00 0. -1.
          6    1    1    2  501    0 -0.92458876311E+01 -0.14779078416E+03 -0.97873515415E+03  0.10048776564E+04  0.17300000000E+03 0. -1.
         -6    1    1    2    0  502  0.92458876311E+01  0.14779078416E+03 -0.20374519775E+03  0.30556293612E+03  0.17300000000E+03 0.  1.
<mgrwt>
<rscale>  2 0.22772045E+03</rscale>
<asrwt>0</asrwt>
<pdfrwt beam="1">  1       21 0.98430951E-02 0.22772045E+03</pdfrwt>
<pdfrwt beam="2">  1       21 0.19176316E+00 0.22772045E+03</pdfrwt>
<totfact> 0.12338791E+04</totfact>
</mgrwt>
</event>
<event>
 4    1  0.4391134E+000  0.1954250E+03  0.7546771E-02  0.1153657E+00
         21   -1    0    0  501  502  0.00000000000E+00  0.00000000000E+00  0.10152286893E+04  0.10152286893E+04  0.00000000000E+00 0.  1.
         21   -1    0    0  502  503 -0.00000000000E+00 -0.00000000000E+00 -0.41713463895E+02  0.41713463895E+02  0.00000000000E+00 0. -1.
          6    1    1    2  501    0  0.88060578522E+02 -0.22522711898E+02  0.65234652017E+03  0.68098966249E+03  0.17300000000E+03 0.  1.
         -6    1    1    2    0  503 -0.88060578522E+02  0.22522711898E+02  0.32116870520E+03  0.37595249067E+03  0.17300000000E+03 0.  1.
<mgrwt>
<rscale>  2 0.19542502E+03</rscale>
<asrwt>0</asrwt>
<pdfrwt beam="1">  1       21 0.15618901E+00 0.19542502E+03</pdfrwt>
<pdfrwt beam="2">  1       21 0.64174568E-02 0.19542502E+03</pdfrwt>
<totfact> 0.47104554E+04</totfact>
</mgrwt>
</event>
<event>
 4    1  0.4391134E+000  0.1799123E+03  0.7546771E-02  0.1167888E+00
         21   -1    0    0  501  502  0.00000000000E+00  0.00000000000E+00  0.13416794595E+03  0.13416794595E+03  0.00000000000E+00 0.  1.
         21   -1    0    0  502  503 -0.00000000000E+00 -0.00000000000E+00 -0.29654229168E+03  0.29654229168E+03  0.00000000000E+00 0.  1.
          6    1    1    2  501    0 -0.17934701813E+02 -0.46019230497E+02  0.11801978827E+02  0.18029894567E+03  0.17300000000E+03 0.  1.
         -6    1    1    2    0  503  0.17934701813E+02  0.46019230497E+02 -0.17417632456E+03  0.25041129196E+03  0.17300000000E+03 0.  1.
<mgrwt>
<rscale>  2 0.17991227E+03</rscale>
<asrwt>0</asrwt>
<pdfrwt beam="1">  1       21 0.20641223E-01 0.17991227E+03</pdfrwt>
<pdfrwt beam="2">  1       21 0.45621891E-01 0.17991227E+03</pdfrwt>
<totfact> 0.10072592E+05</totfact>
</mgrwt>
</event>
<event>
 4    1  0.4391134E+000  0.1843684E+03  0.7546771E-02  0.1163641E+00
         21   -1    0    0  501  502  0.00000000000E+00  0.00000000000E+00  0.20903076719E+02  0.20903076719E+02  0.00000000000E+00 0. -1.
         21   -1    0    0  502  503 -0.00000000000E+00 -0.00000000000E+00 -0.26787540966E+04  0.26787540966E+04  0.00000000000E+00 0. -1.
          6    1    1    2  501    0  0.62450328116E+02 -0.12753749478E+02 -0.48278378288E+03  0.51678997922E+03  0.17300000000E+03 0. -1.
         -6    1    1    2    0  503 -0.62450328116E+02  0.12753749478E+02 -0.21750672370E+04  0.21828671941E+04  0.17300000000E+03 0. -1.
<mgrwt>
<rscale>  2 0.18436839E+03</rscale>
<asrwt>0</asrwt>
<pdfrwt beam="1">  1       21 0.32158579E-02 0.18436839E+03</pdfrwt>
<pdfrwt beam="2">  1       21 0.41211602E+00 0.18436839E+03</pdfrwt>
<totfact> 0.41746964E+03</totfact>
</mgrwt>
</event>
<event>
 4    1  0.4391134E+000  0.1903877E+03  0.7546771E-02  0.1158112E+00
         21   -1    0    0  501  502  0.00000000000E+00  0.00000000000E+00  0.12223392883E+03  0.12223392883E+03  0.00000000000E+00 0.  1.
         21   -1    0    0  502  503 -0.00000000000E+00 -0.00000000000E+00 -0.43734385795E+03  0.43734385795E+03  0.00000000000E+00 0.  1.
          6    1    1    2  501    0  0.30177997442E+02  0.73537512506E+02  0.11985523213E+01  0.19039147513E+03  0.17300000000E+03 0.  1.
         -6    1    1    2    0  503 -0.30177997442E+02 -0.73537512506E+02 -0.31630848145E+03  0.36918631165E+03  0.17300000000E+03 0.  1.
<mgrwt>
<rscale>  2 0.19038770E+03</rscale>
<asrwt>0</asrwt>
<pdfrwt beam="1">  1       21 0.18805220E-01 0.19038770E+03</pdfrwt>
<pdfrwt beam="2">  1       21 0.67283670E-01 0.19038770E+03</pdfrwt>
<totfact> 0.52385817E+04</totfact>
</mgrwt>
</event>
<event>
 4    1  0.4391134E+000  0.2449941E+03  0.7546771E-02  0.1116510E+00
         21   -1    0    0  501  502  0.00000000000E+00  0.00000000000E+00  0.29333395726E+03  0.29333395726E+03  0.00000000000E+00 0. -1.
         21   -1    0    0  502  503 -0.00000000000E+00 -0.00000000000E+00 -0.21417190322E+03  0.21417190322E+03  0.00000000000E+00 0.  1.
          6    1    1    2  501    0 -0.10209664851E+03  0.14024756483E+03  0.93168859620E+02  0.26211169658E+03  0.17300000000E+03 0. -1.
         -6    1    1    2    0  503  0.10209664851E+03 -0.14024756483E+03 -0.14006805582E+02  0.24539416391E+03  0.17300000000E+03 0.  1.
<mgrwt>
<rscale>  2 0.24499409E+03</rscale>
<asrwt>0</asrwt>
<pdfrwt beam="1">  1       21 0.45128301E-01 0.24499409E+03</pdfrwt>
<pdfrwt beam="2">  1       21 0.32949524E-01 0.24499409E+03</pdfrwt>
<totfact> 0.40755883E+04</totfact>
</mgrwt>
</event>
<event>
 4    1  0.4391134E+000  0.1834931E+03  0.7546771E-02  0.1164465E+00
         21   -1    0    0  503  502  0.00000000000E+00  0.00000000000E+00  0.15599088774E+04  0.15599088774E+04  0.00000000000E+00 0. -1.
         21   -1    0    0  501  503 -0.00000000000E+00 -0.00000000000E+00 -0.21785330515E+02  0.21785330515E+02  0.00000000000E+00 0. -1.
          6    1    1    2  501    0  0.52893389121E+02 -0.30708432406E+02  0.69311336607E+03  0.71699083443E+03  0.17300000000E+03 0. -1.
         -6    1    1    2    0  502 -0.52893389121E+02  0.30708432406E+02  0.84501018083E+03  0.86470337350E+03  0.17300000000E+03 0. -1.
<mgrwt>
<rscale>  2 0.18349310E+03</rscale>
<asrwt>0</asrwt>
<pdfrwt beam="1">  1       21 0.23998589E+00 0.18349310E+03</pdfrwt>
<pdfrwt beam="2">  1       21 0.33515905E-02 0.18349310E+03</pdfrwt>
<totfact> 0.40405473E+04</totfact>
</mgrwt>
</event>
<event>
 4    1  0.4391134E+000  0.2231626E+03  0.7546771E-02  0.1131547E+00
         21   -1    0    0  503  502  0.00000000000E+00  0.00000000000E+00  0.14345193118E+04  0.14345193118E+04  0.00000000000E+00 0. -1.
         21   -1    0    0  501  503 -0.00000000000E+00 -0.00000000000E+00 -0.58468261086E+02  0.58468261086E+02  0.00000000000E+00 0.  1.
          6    1    1    2  501    0  0.67057916594E+02  0.12399914381E+03  0.21223737643E+03  0.30797119313E+03  0.17300000000E+03 0.  1.
         -6    1    1    2    0  502 -0.67057916594E+02 -0.12399914381E+03  0.11638136743E+04  0.11850163798E+04  0.17300000000E+03 0. -1.
<mgrwt>
<rscale>  2 0.22316261E+03</rscale>
<asrwt>0</asrwt>
<pdfrwt beam="1">  1       21 0.22069525E+00 0.22316261E+03</pdfrwt>
<pdfrwt beam="2">  1       21 0.89951182E-02 0.22316261E+03</pdfrwt>
<totfact> 0.94905723E+03</totfact>
</mgrwt>
</event>
<event>
 4    1  0.4391134E+000  0.1853389E+03  0.7546771E-02  0.1162734E+00
         21   -1    0    0  503  502  0.00000000000E+00  0.00000000000E+00  0.17416504359E+03  0.17416504359E+03  0.00000000000E+00 0. -1.
         21   -1    0    0  501  503 -0.00000000000E+00 -0.00000000000E+00 -0.31883308819E+03  0.31883308819E+03  0.00000000000E+00 0. -1.
          6    1    1    2  501    0  0.65048651636E+02  0.13790312292E+02 -0.22456625705E+03  0.29117091819E+03  0.17300000000E+03 0. -1.
         -6    1    1    2    0  502 -0.65048651636E+02 -0.13790312292E+02  0.79898212458E+02  0.20182721359E+03  0.17300000000E+03 0. -1.
<mgrwt>
<rscale>  2 0.18533888E+03</rscale>
<asrwt>0</asrwt>
<pdfrwt beam="1">  1       21 0.26794622E-01 0.18533888E+03</pdfrwt>
<pdfrwt beam="2">  1       21 0.49051244E-01 0.18533888E+03</pdfrwt>
<totfact> 0.52770649E+04</totfact>
</mgrwt>
</event>
<event>
 4    1  0.4391134E+000  0.2023856E+03  0.7546771E-02  0.1147742E+00
         21   -1    0    0  503  502  0.00000000000E+00  0.00000000000E+00  0.26277531975E+03  0.26277531975E+03  0.00000000000E+00 0. -1.
         21   -1    0    0  501  503 -0.00000000000E+00 -0.00000000000E+00 -0.29780388297E+03  0.29780388297E+03  0.00000000000E+00 0. -1.
          6    1    1    2  501    0  0.96897498520E+02 -0.40519133887E+02 -0.21101306283E+03  0.29238063909E+03  0.17300000000E+03 0. -1.
         -6    1    1    2    0  502 -0.96897498520E+02  0.40519133887E+02  0.17598449961E+03  0.26819856363E+03  0.17300000000E+03 0. -1.
<mgrwt>
<rscale>  2 0.20238559E+03</rscale>
<asrwt>0</asrwt>
<pdfrwt beam="1">  1       21 0.40426972E-01 0.20238559E+03</pdfrwt>
<pdfrwt beam="2">  1       21 0.45815982E-01 0.20238559E+03</pdfrwt>
<totfact> 0.26775957E+04</totfact>
</mgrwt>
</event>
<event>
 4    1  0.4391134E+000  0.2922306E+03  0.7546771E-02  0.1089190E+00
         21   -1    0    0  503  502  0.00000000000E+00  0.00000000000E+00  0.75528487816E+03  0.75528487816E+03  0.00000000000E+00 0. -1.
         21   -1    0    0  501  503 -0.00000000000E+00 -0.00000000000E+00 -0.65850449766E+03  0.65850449766E+03  0.00000000000E+00 0.  1.
          6    1    1    2  501    0  0.68641811303E+02 -0.22529543361E+03 -0.59495987300E+03  0.66285441927E+03  0.17300000000E+03 0.  1.
         -6    1    1    2    0  502 -0.68641811303E+02  0.22529543361E+03  0.69174025350E+03  0.75093495656E+03  0.17300000000E+03 0. -1.
<mgrwt>
<rscale>  2 0.29223061E+03</rscale>
<asrwt>0</asrwt>
<pdfrwt beam="1">  1       21 0.11619767E+00 0.29223061E+03</pdfrwt>
<pdfrwt beam="2">  1       21 0.10130838E+00 0.29223061E+03</pdfrwt>
<totfact> 0.41483636E+02</totfact>
</mgrwt>
</event>
<event>
 4    1  0.4391134E+000  0.2149510E+03  0.7546771E-02  0.1137704E+00
         21   -1    0    0  503  502  0.00000000000E+00  0.00000000000E+00  0.13338222608E+03  0.13338222608E+03  0.00000000000E+00 0. -1.
         21   -1    0    0  501  503 -0.00000000000E+00 -0.00000000000E+00 -0.55327712953E+03  0.55327712953E+03  0.00000000000E+00 0. -1.
          6    1    1    2  501    0 -0.53010478791E+02 -0.11603808638E+03 -0.41988663856E+03  0.47170831834E+03  0.17300000000E+03 0. -1.
         -6    1    1    2    0  502  0.53010478791E+02  0.11603808638E+03 -0.82648895888E-02  0.21495103726E+03  0.17300000000E+03 0. -1.
<mgrwt>
<rscale>  2 0.21495104E+03</rscale>
<asrwt>0</asrwt>
<pdfrwt beam="1">  1       21 0.20520342E-01 0.21495104E+03</pdfrwt>
<pdfrwt beam="2">  1       21 0.85119560E-01 0.21495104E+03</pdfrwt>
<totfact> 0.25946406E+04</totfact>
</mgrwt>
</event>
<event>
 4    1  0.4391134E+000  0.2279389E+03  0.7546771E-02  0.1128099E+00
         21   -1    0    0  503  502  0.00000000000E+00  0.00000000000E+00  0.49718557353E+03  0.49718557353E+03  0.00000000000E+00 0. -1.
         21   -1    0    0  501  503 -0.00000000000E+00 -0.00000000000E+00 -0.10451226183E+03  0.10451226183E+03  0.00000000000E+00 0. -1.
          6    1    1    2  501    0  0.13511315007E+03 -0.61413008143E+02  0.19953370035E+03  0.30293533710E+03  0.17300000000E+03 0. -1.
         -6    1    1    2    0  502 -0.13511315007E+03  0.61413008143E+02  0.19313961135E+03  0.29876249826E+03  0.17300000000E+03 0. -1.
<mgrwt>
<rscale>  2 0.22793885E+03</rscale>
<asrwt>0</asrwt>
<pdfrwt beam="1">  1       21 0.76490086E-01 0.22793885E+03</pdfrwt>
<pdfrwt beam="2">  1       21 0.16078810E-01 0.22793885E+03</pdfrwt>
<totfact> 0.51707510E+04</totfact>
</mgrwt>
</event>
<event>
 4    1  0.4391134E+000  0.2163724E+03  0.7546771E-02  0.1136617E+00
         21   -1    0    0  501  502  0.00000000000E+00  0.00000000000E+00  0.16420668078E+03  0.16420668078E+03  0.00000000000E+00 0.  1.
         21   -1    0    0  502  503 -0.00000000000E+00 -0.00000000000E+00 -0.38347102550E+03  0.38347102550E+03  0.00000000000E+00 0.  1.
          6    1    1    2  501    0  0.12866613244E+03  0.18249921240E+02  0.29055998309E+02  0.21831464518E+03  0.17300000000E+03 0.  1.
         -6    1    1    2    0  503 -0.12866613244E+03 -0.18249921240E+02 -0.24832034302E+03  0.32936306111E+03  0.17300000000E+03 0.  1.
<mgrwt>
<rscale>  2 0.21637244E+03</rscale>
<asrwt>0</asrwt>
<pdfrwt beam="1">  1       21 0.25262566E-01 0.21637244E+03</pdfrwt>
<pdfrwt beam="2">  1       21 0.58995542E-01 0.21637244E+03</pdfrwt>
<totfact> 0.39413304E+04</totfact>
</mgrwt>
</event>
<event>
 4    1  0.4391134E+000  0.2125651E+03  0.7546771E-02  0.1139551E+00
         21   -1    0    0  501  502  0.00000000000E+00  0.00000000000E+00  0.19940357045E+03  0.19940357045E+03  0.00000000000E+00 0. -1.
         21   -1    0    0  502  503 -0.00000000000E+00 -0.00000000000E+00 -0.54972303319E+03  0.54972303319E+03  0.00000000000E+00 0. -1.
          6    1    1    2  501    0 -0.24097929933E+02 -0.12113714676E+03  0.11201111762E+03  0.24027153186E+03  0.17300000000E+03 0. -1.
         -6    1    1    2    0  503  0.24097929933E+02  0.12113714676E+03 -0.46233058035E+03  0.50885507178E+03  0.17300000000E+03 0. -1.
<mgrwt>
<rscale>  2 0.21256509E+03</rscale>
<asrwt>0</asrwt>
<pdfrwt beam="1">  1       21 0.30677473E-01 0.21256509E+03</pdfrwt>
<pdfrwt beam="2">  1       21 0.84572774E-01 0.21256509E+03</pdfrwt>
<totfact> 0.12204489E+04</totfact>
</mgrwt>
</event>
<event>
 4    1  0.4391134E+000  0.2383435E+03  0.7546771E-02  0.1120901E+00
         21   -1    0    0  503  502  0.00000000000E+00  0.00000000000E+00  0.45557703450E+03  0.45557703450E+03  0.00000000000E+00 0. -1.
         21   -1    0    0  501  503 -0.00000000000E+00 -0.00000000000E+00 -0.23622732351E+03  0.23622732351E+03  0.00000000000E+00 0.  1.
          6    1    1    2  501    0  0.10846634440E+03 -0.12293762306E+03 -0.12800427471E+03  0.27054149659E+03  0.17300000000E+03 0.  1.
         -6    1    1    2    0  502 -0.10846634440E+03  0.12293762306E+03  0.34735398570E+03  0.42126286142E+03  0.17300000000E+03 0. -1.
<mgrwt>
<rscale>  2 0.23834346E+03</rscale>
<asrwt>0</asrwt>
<pdfrwt beam="1">  1       21 0.70088774E-01 0.23834346E+03</pdfrwt>
<pdfrwt beam="2">  1       21 0.36342665E-01 0.23834346E+03</pdfrwt>
<totfact> 0.13120000E+04</totfact>
</mgrwt>
</event>
<event>
 4    1  0.4391134E+000  0.1901410E+03  0.7546771E-02  0.1158334E+00
         21   -1    0    0  503  502  0.00000000000E+00  0.00000000000E+00  0.41671461710E+03  0.41671461710E+03  0.00000000000E+00 0. -1.
         21   -1    0    0  501  503 -0.00000000000E+00 -0.00000000000E+00 -0.20371435825E+03  0.20371435825E+03  0.00000000000E+00 0. -1.
          6    1    1    2  501    0 -0.53096645530E+02 -0.58355250008E+02 -0.12855081825E+03  0.22951884856E+03  0.17300000000E+03 0. -1.
         -6    1    1    2    0  502  0.53096645530E+02  0.58355250008E+02  0.34155107709E+03  0.39091012680E+03  0.17300000000E+03 0. -1.
<mgrwt>
<rscale>  2 0.19014097E+03</rscale>
<asrwt>0</asrwt>
<pdfrwt beam="1">  1       21 0.64109941E-01 0.19014097E+03</pdfrwt>
<pdfrwt beam="2">  1       21 0.31340671E-01 0.19014097E+03</pdfrwt>
<totfact> 0.22004992E+04</totfact>
</mgrwt>
</event>
<event>
 4    1  0.4391134E+000  0.1877939E+03  0.7546771E-02  0.1160466E+00
         21   -1    0    0  501  502  0.00000000000E+00  0.00000000000E+00  0.26265160601E+03  0.26265160601E+03  0.00000000000E+00 0.  1.
         21   -1    0    0  502  503 -0.00000000000E+00 -0.00000000000E+00 -0.17374369392E+03  0.17374369392E+03  0.00000000000E+00 0.  1.
          6    1    1    2  501    0 -0.71873243242E+02 -0.13106365649E+02  0.14845626015E+03  0.23938630097E+03  0.17300000000E+03 0.  1.
         -6    1    1    2    0  503  0.71873243242E+02  0.13106365649E+02 -0.59548348065E+02  0.19700899896E+03  0.17300000000E+03 0.  1.
<mgrwt>
<rscale>  2 0.18779388E+03</rscale>
<asrwt>0</asrwt>
<pdfrwt beam="1">  1       21 0.40407939E-01 0.18779388E+03</pdfrwt>
<pdfrwt beam="2">  1       21 0.26729799E-01 0.18779388E+03</pdfrwt>
<totfact> 0.78787065E+04</totfact>
</mgrwt>
</event>
<event>
 4    1  0.4391134E+000  0.1844678E+03  0.7546771E-02  0.1163548E+00
         21   -1    0    0  501  502  0.00000000000E+00  0.00000000000E+00  0.42966831205E+03  0.42966831205E+03  0.00000000000E+00 0. -1.
         21   -1    0    0  502  503 -0.00000000000E+00 -0.00000000000E+00 -0.80893922526E+02  0.80893922526E+02  0.00000000000E+00 0. -1.
          6    1    1    2  501    0  0.57825645101E+02  0.27487468631E+02  0.21136270120E+03  0.28053976121E+03  0.17300000000E+03 0.  1.
         -6    1    1    2    0  503 -0.57825645101E+02 -0.27487468631E+02  0.13741168832E+03  0.23002247336E+03  0.17300000000E+03 0.  1.
<mgrwt>
<rscale>  2 0.18446779E+03</rscale>
<asrwt>0</asrwt>
<pdfrwt beam="1">  1       21 0.66102816E-01 0.18446779E+03</pdfrwt>
<pdfrwt beam="2">  1       21 0.12445219E-01 0.18446779E+03</pdfrwt>
<totfact> 0.11584848E+05</totfact>
</mgrwt>
</event>
<event>
 4    1  0.4391134E+000  0.2038460E+03  0.7546771E-02  0.1146534E+00
         21   -1    0    0  503  502  0.00000000000E+00  0.00000000000E+00  0.41695450416E+02  0.41695450416E+02  0.00000000000E+00 0. -1.
         21   -1    0    0  501  503 -0.00000000000E+00 -0.00000000000E+00 -0.20359652201E+04  0.20359652201E+04  0.00000000000E+00 0.  1.
          6    1    1    2  501    0 -0.39769685759E+02 -0.10021266781E+03 -0.17393775881E+04  0.17512817022E+04  0.17300000000E+03 0.  1.
         -6    1    1    2    0  502  0.39769685759E+02  0.10021266781E+03 -0.25489218166E+03  0.32637896833E+03  0.17300000000E+03 0. -1.
<mgrwt>
<rscale>  2 0.20384604E+03</rscale>
<asrwt>0</asrwt>
<pdfrwt beam="1">  1       21 0.64146838E-02 0.20384604E+03</pdfrwt>
<pdfrwt beam="2">  1       21 0.31322546E+00 0.20384604E+03</pdfrwt>
<totfact> 0.49708208E+03</totfact>
</mgrwt>
</event>
<event>
 4    1  0.4391134E+000  0.2517446E+03  0.7546771E-02  0.1112207E+00
         21   -1    0    0  501  502  0.00000000000E+00  0.00000000000E+00  0.24645629650E+03  0.24645629650E+03  0.00000000000E+00 0.  1.
         21   -1    0    0  502  503 -0.00000000000E+00 -0.00000000000E+00 -0.50313016242E+03  0.50313016242E+03  0.00000000000E+00 0.  1.
          6    1    1    2  501    0 -0.95135102248E+02  0.15619115021E+03  0.13372547722E+03  0.28505765442E+03  0.17300000000E+03 0.  1.
         -6    1    1    2    0  503  0.95135102248E+02 -0.15619115021E+03 -0.39039934315E+03  0.46452880451E+03  0.17300000000E+03 0.  1.
<mgrwt>
<rscale>  2 0.25174464E+03</rscale>
<asrwt>0</asrwt>
<pdfrwt beam="1">  1       21 0.37916354E-01 0.25174464E+03</pdfrwt>
<pdfrwt beam="2">  1       21 0.77404639E-01 0.25174464E+03</pdfrwt>
<totfact> 0.95751701E+03</totfact>
</mgrwt>
</event>
<event>
 4    1  0.4391134E+000  0.2135600E+03  0.7546771E-02  0.1138777E+00
         21   -1    0    0  501  502  0.00000000000E+00  0.00000000000E+00  0.69386787288E+03  0.69386787288E+03  0.00000000000E+00 0.  1.
         21   -1    0    0  502  503 -0.00000000000E+00 -0.00000000000E+00 -0.14010405047E+03  0.14010405047E+03  0.00000000000E+00 0.  1.
          6    1    1    2  501    0  0.90177813830E+02 -0.86872521737E+02  0.58069541072E+03  0.61872048065E+03  0.17300000000E+03 0.  1.
         -6    1    1    2    0  503 -0.90177813830E+02  0.86872521737E+02 -0.26931588310E+02  0.21525144271E+03  0.17300000000E+03 0.  1.
<mgrwt>
<rscale>  2 0.21356000E+03</rscale>
<asrwt>0</asrwt>
<pdfrwt beam="1">  1       21 0.10674890E+00 0.21356000E+03</pdfrwt>
<pdfrwt beam="2">  1       21 0.21554470E-01 0.21356000E+03</pdfrwt>
<totfact> 0.13893820E+04</totfact>
</mgrwt>
</event>
<event>
 4    1  0.4391134E+000  0.1821335E+03  0.7546771E-02  0.1165754E+00
         21   -1    0    0  501  502  0.00000000000E+00  0.00000000000E+00  0.78472338242E+03  0.78472338242E+03  0.00000000000E+00 0.  1.
         21   -1    0    0  502  503 -0.00000000000E+00 -0.00000000000E+00 -0.50703823282E+02  0.50703823282E+02  0.00000000000E+00 0.  1.
          6    1    1    2  501    0 -0.37924792243E+00 -0.56951359871E+02  0.19667881877E+03  0.26805812611E+03  0.17300000000E+03 0.  1.
         -6    1    1    2    0  503  0.37924792243E+00  0.56951359871E+02  0.53734074037E+03  0.56736907959E+03  0.17300000000E+03 0.  1.
<mgrwt>
<rscale>  2 0.18213347E+03</rscale>
<asrwt>0</asrwt>
<pdfrwt beam="1">  1       21 0.12072667E+00 0.18213347E+03</pdfrwt>
<pdfrwt beam="2">  1       21 0.78005887E-02 0.18213347E+03</pdfrwt>
<totfact> 0.65566365E+04</totfact>
</mgrwt>
</event>
<event>
 4    1  0.4391134E+000  0.2025040E+03  0.7546771E-02  0.1147643E+00
         21   -1    0    0  501  502  0.00000000000E+00  0.00000000000E+00  0.31628979984E+03  0.31628979984E+03  0.00000000000E+00 0. -1.
         21   -1    0    0  502  503 -0.00000000000E+00 -0.00000000000E+00 -0.14982881610E+03  0.14982881610E+03  0.00000000000E+00 0. -1.
          6    1    1    2  501    0  0.10283119041E+03 -0.22463381254E+02  0.16875419920E+03  0.26360166344E+03  0.17300000000E+03 0. -1.
         -6    1    1    2    0  503 -0.10283119041E+03  0.22463381254E+02 -0.22932154635E+01  0.20251695251E+03  0.17300000000E+03 0. -1.
<mgrwt>
<rscale>  2 0.20250397E+03</rscale>
<asrwt>0</asrwt>
<pdfrwt beam="1">  1       21 0.48659969E-01 0.20250397E+03</pdfrwt>
<pdfrwt beam="2">  1       21 0.23050587E-01 0.20250397E+03</pdfrwt>
<totfact> 0.70952646E+04</totfact>
</mgrwt>
</event>
<event>
 4    1  0.4391134E+000  0.2841523E+03  0.7546771E-02  0.1093442E+00
         21   -1    0    0  503  502  0.00000000000E+00  0.00000000000E+00  0.39034073246E+03  0.39034073246E+03  0.00000000000E+00 0.  1.
         21   -1    0    0  501  503 -0.00000000000E+00 -0.00000000000E+00 -0.35027346503E+03  0.35027346503E+03  0.00000000000E+00 0. -1.
          6    1    1    2  501    0  0.11691777403E+03  0.19272719803E+03 -0.21692162876E+03  0.35748780646E+03  0.17300000000E+03 0. -1.
         -6    1    1    2    0  502 -0.11691777403E+03 -0.19272719803E+03  0.25698889618E+03  0.38312639103E+03  0.17300000000E+03 0.  1.
<mgrwt>
<rscale>  2 0.28415232E+03</rscale>
<asrwt>0</asrwt>
<pdfrwt beam="1">  1       21 0.60052420E-01 0.28415232E+03</pdfrwt>
<pdfrwt beam="2">  1       21 0.53888225E-01 0.28415232E+03</pdfrwt>
<totfact> 0.79700599E+03</totfact>
</mgrwt>
</event>
<event>
 4    1  0.4391134E+000  0.1973620E+03  0.7546771E-02  0.1151984E+00
         21   -1    0    0  503  502  0.00000000000E+00  0.00000000000E+00  0.36717765317E+02  0.36717765317E+02  0.00000000000E+00 0.  1.
         21   -1    0    0  501  503 -0.00000000000E+00 -0.00000000000E+00 -0.11320571633E+04  0.11320571633E+04  0.00000000000E+00 0.  1.
          6    1    1    2  501    0 -0.35585325881E+02 -0.88070685900E+02 -0.69424197295E+03  0.72175042649E+03  0.17300000000E+03 0. -1.
         -6    1    1    2    0  502  0.35585325881E+02  0.88070685900E+02 -0.40109742503E+03  0.44702450213E+03  0.17300000000E+03 0. -1.
<mgrwt>
<rscale>  2 0.19736201E+03</rscale>
<asrwt>0</asrwt>
<pdfrwt beam="1">  1       21 0.56488875E-02 0.19736201E+03</pdfrwt>
<pdfrwt beam="2">  1       21 0.17416262E+00 0.19736201E+03</pdfrwt>
<totfact> 0.43495167E+04</totfact>
</mgrwt>
</event>
<event>
 4    1  0.4391134E+000  0.1852479E+03  0.7546771E-02  0.1162819E+00
         21   -1    0    0  503  502  0.00000000000E+00  0.00000000000E+00  0.19492902108E+04  0.19492902108E+04  0.00000000000E+00 0. -1.
         21   -1    0    0  501  503 -0.00000000000E+00 -0.00000000000E+00 -0.83901938104E+02  0.83901938104E+02  0.00000000000E+00 0. -1.
          6    1    1    2  501    0  0.19580698867E+02 -0.63280237535E+02  0.29023972401E+02  0.18750782172E+03  0.17300000000E+03 0. -1.
         -6    1    1    2    0  502 -0.19580698867E+02  0.63280237535E+02  0.18363643003E+04  0.18456843272E+04  0.17300000000E+03 0. -1.
<mgrwt>
<rscale>  2 0.18524792E+03</rscale>
<asrwt>0</asrwt>
<pdfrwt beam="1">  1       21 0.29989077E+00 0.18524792E+03</pdfrwt>
<pdfrwt beam="2">  1       21 0.12907992E-01 0.18524792E+03</pdfrwt>
<totfact> 0.17772355E+03</totfact>
</mgrwt>
</event>
<event>
 4    1  0.4391134E+000  0.2086463E+03  0.7546771E-02  0.1142642E+00
         21   -1    0    0  501  502  0.00000000000E+00  0.00000000000E+00  0.17973654307E+04  0.17973654307E+04  0.00000000000E+00 0.  1.
         21   -1    0    0  502  503 -0.00000000000E+00 -0.00000000000E+00 -0.24488924782E+02  0.24488924782E+02  0.00000000000E+00 0.  1.
          6    1    1    2  501    0  0.10993236339E+03  0.38976254007E+02  0.79108675805E+03  0.81813906621E+03  0.17300000000E+03 0.  1.
         -6    1    1    2    0  503 -0.10993236339E+03 -0.38976254007E+02  0.98178974783E+03  0.10037152892E+04  0.17300000000E+03 0.  1.
<mgrwt>
<rscale>  2 0.20864629E+03</rscale>
<asrwt>0</asrwt>
<pdfrwt beam="1">  1       21 0.27651766E+00 0.20864629E+03</pdfrwt>
<pdfrwt beam="2">  1       21 0.37675283E-02 0.20864629E+03</pdfrwt>
<totfact> 0.19895952E+04</totfact>
</mgrwt>
</event>
<event>
 4    1  0.4391134E+000  0.1736614E+03  0.7546771E-02  0.1174082E+00
         21   -1    0    0  503  502  0.00000000000E+00  0.00000000000E+00  0.25548757367E+02  0.25548757367E+02  0.00000000000E+00 0. -1.
         21   -1    0    0  501  503 -0.00000000000E+00 -0.00000000000E+00 -0.13652058664E+04  0.13652058664E+04  0.00000000000E+00 0. -1.
          6    1    1    2  501    0 -0.14068773528E+02 -0.55992985352E+01 -0.92566061857E+03  0.94180988703E+03  0.17300000000E+03 0.  1.
         -6    1    1    2    0  502  0.14068773528E+02  0.55992985352E+01 -0.41399649051E+03  0.44894473679E+03  0.17300000000E+03 0.  1.
<mgrwt>
<rscale>  2 0.17366140E+03</rscale>
<asrwt>0</asrwt>
<pdfrwt beam="1">  1       21 0.39305801E-02 0.17366140E+03</pdfrwt>
<pdfrwt beam="2">  1       21 0.21003156E+00 0.17366140E+03</pdfrwt>
<totfact> 0.47428197E+04</totfact>
</mgrwt>
</event>
<event>
 4    1  0.4391134E+000  0.2080402E+03  0.7546771E-02  0.1143127E+00
         21   -1    0    0  503  502  0.00000000000E+00  0.00000000000E+00  0.13078436520E+03  0.13078436520E+03  0.00000000000E+00 0. -1.
         21   -1    0    0  501  503 -0.00000000000E+00 -0.00000000000E+00 -0.38116177799E+03  0.38116177799E+03  0.00000000000E+00 0.  1.
          6    1    1    2  501    0  0.11506990845E+03 -0.10519409051E+02 -0.21811099512E+03  0.30141855946E+03  0.17300000000E+03 0.  1.
         -6    1    1    2    0  502 -0.11506990845E+03  0.10519409051E+02 -0.32266417674E+02  0.21052758372E+03  0.17300000000E+03 0. -1.
<mgrwt>
<rscale>  2 0.20804024E+03</rscale>
<asrwt>0</asrwt>
<pdfrwt beam="1">  1       21 0.20120672E-01 0.20804024E+03</pdfrwt>
<pdfrwt beam="2">  1       21 0.58640273E-01 0.20804024E+03</pdfrwt>
<totfact> 0.61681778E+04</totfact>
</mgrwt>
</event>
<event>
 4    1  0.4391134E+000  0.1825615E+03  0.7546771E-02  0.1165347E+00
         21   -1    0    0  501  502  0.00000000000E+00  0.00000000000E+00  0.14710883134E+03  0.14710883134E+03  0.00000000000E+00 0.  1.
         21   -1    0    0  502  503 -0.00000000000E+00 -0.00000000000E+00 -0.88045249280E+03  0.88045249280E+03  0.00000000000E+00 0.  1.
          6    1    1    2  501    0  0.53072558344E+02  0.24145680444E+02  0.76098556830E+02  0.19778700838E+03  0.17300000000E+03 0.  1.
         -6    1    1    2    0  503 -0.53072558344E+02 -0.24145680444E+02 -0.80944221829E+03  0.82977431575E+03  0.17300000000E+03 0.  1.
<mgrwt>
<rscale>  2 0.18256152E+03</rscale>
<asrwt>0</asrwt>
<pdfrwt beam="1">  1       21 0.22632128E-01 0.18256152E+03</pdfrwt>
<pdfrwt beam="2">  1       21 0.13545423E+00 0.18256152E+03</pdfrwt>
<totfact> 0.71838365E+03</totfact>
</mgrwt>
</event>
<event>
 4    1  0.4391134E+000  0.1876616E+03  0.7546771E-02  0.1160588E+00
         21   -1    0    0  501  502  0.00000000000E+00  0.00000000000E+00  0.27236951053E+03  0.27236951053E+03  0.00000000000E+00 0. -1.
         21   -1    0    0  502  503 -0.00000000000E+00 -0.00000000000E+00 -0.14452494216E+03  0.14452494216E+03  0.00000000000E+00 0. -1.
          6    1    1    2  501    0  0.59738051563E+02 -0.41463579792E+02  0.13158189294E+03  0.22919567580E+03  0.17300000000E+03 0. -1.
         -6    1    1    2    0  503 -0.59738051563E+02  0.41463579792E+02 -0.37373245656E+01  0.18769877690E+03  0.17300000000E+03 0. -1.
<mgrwt>
<rscale>  2 0.18766157E+03</rscale>
<asrwt>0</asrwt>
<pdfrwt beam="1">  1       21 0.41903001E-01 0.18766157E+03</pdfrwt>
<pdfrwt beam="2">  1       21 0.22234607E-01 0.18766157E+03</pdfrwt>
<totfact> 0.10391560E+05</totfact>
</mgrwt>
</event>
<event>
 4    1  0.4391134E+000  0.1989938E+03  0.7546771E-02  0.1150591E+00
         21   -1    0    0  501  502  0.00000000000E+00  0.00000000000E+00  0.18686926872E+03  0.18686926872E+03  0.00000000000E+00 0.  1.
         21   -1    0    0  502  503 -0.00000000000E+00 -0.00000000000E+00 -0.26804576127E+03  0.26804576127E+03  0.00000000000E+00 0.  1.
          6    1    1    2  501    0  0.90709647499E+02  0.37964592409E+02  0.63507886001E+02  0.20888226830E+03  0.17300000000E+03 0.  1.
         -6    1    1    2    0  503 -0.90709647499E+02 -0.37964592409E+02 -0.14468437856E+03  0.24603276169E+03  0.17300000000E+03 0.  1.
<mgrwt>
<rscale>  2 0.19899385E+03</rscale>
<asrwt>0</asrwt>
<pdfrwt beam="1">  1       21 0.28749118E-01 0.19899385E+03</pdfrwt>
<pdfrwt beam="2">  1       21 0.41237809E-01 0.19899385E+03</pdfrwt>
<totfact> 0.65368118E+04</totfact>
</mgrwt>
</event>
<event>
 4    1  0.4391134E+000  0.2228458E+03  0.7546771E-02  0.1131779E+00
         21   -1    0    0  503  502  0.00000000000E+00  0.00000000000E+00  0.95199842069E+02  0.95199842069E+02  0.00000000000E+00 0.  1.
         21   -1    0    0  501  503 -0.00000000000E+00 -0.00000000000E+00 -0.93968667754E+03  0.93968667754E+03  0.00000000000E+00 0.  1.
          6    1    1    2  501    0 -0.62203834678E+02  0.12594415044E+03 -0.76737324471E+03  0.79907568025E+03  0.17300000000E+03 0.  1.
         -6    1    1    2    0  502  0.62203834678E+02 -0.12594415044E+03 -0.77113590766E+02  0.23581083936E+03  0.17300000000E+03 0.  1.
<mgrwt>
<rscale>  2 0.22284579E+03</rscale>
<asrwt>0</asrwt>
<pdfrwt beam="1">  1       21 0.14646130E-01 0.22284579E+03</pdfrwt>
<pdfrwt beam="2">  1       21 0.14456718E+00 0.22284579E+03</pdfrwt>
<totfact> 0.13210602E+04</totfact>
</mgrwt>
</event>
<event>
 4    1  0.4391134E+000  0.1959416E+03  0.7546771E-02  0.1153209E+00
         21   -1    0    0  503  502  0.00000000000E+00  0.00000000000E+00  0.17350231771E+03  0.17350231771E+03  0.00000000000E+00 0.  1.
         21   -1    0    0  501  503 -0.00000000000E+00 -0.00000000000E+00 -0.23123386173E+03  0.23123386173E+03  0.00000000000E+00 0.  1.
          6    1    1    2  501    0  0.67932242478E+02  0.62042819181E+02 -0.70846331280E+02  0.20835619414E+03  0.17300000000E+03 0.  1.
         -6    1    1    2    0  502 -0.67932242478E+02 -0.62042819181E+02  0.13114787263E+02  0.19637998530E+03  0.17300000000E+03 0.  1.
<mgrwt>
<rscale>  2 0.19594158E+03</rscale>
<asrwt>0</asrwt>
<pdfrwt beam="1">  1       21 0.26692664E-01 0.19594158E+03</pdfrwt>
<pdfrwt beam="2">  1       21 0.35574440E-01 0.19594158E+03</pdfrwt>
<totfact> 0.10166069E+05</totfact>
</mgrwt>
</event>
<event>
 4    1  0.4391134E+000  0.1957219E+03  0.7546771E-02  0.1153399E+00
         21   -1    0    0  501  502  0.00000000000E+00  0.00000000000E+00  0.89076634099E+02  0.89076634099E+02  0.00000000000E+00 0. -1.
         21   -1    0    0  502  503 -0.00000000000E+00 -0.00000000000E+00 -0.50166665313E+03  0.50166665313E+03  0.00000000000E+00 0. -1.
          6    1    1    2  501    0  0.21957443398E+02  0.88859042888E+02 -0.94690940870E+02  0.21742454578E+03  0.17300000000E+03 0. -1.
         -6    1    1    2    0  503 -0.21957443398E+02 -0.88859042888E+02 -0.31789907816E+03  0.37331874145E+03  0.17300000000E+03 0. -1.
<mgrwt>
<rscale>  2 0.19572189E+03</rscale>
<asrwt>0</asrwt>
<pdfrwt beam="1">  1       21 0.13704097E-01 0.19572189E+03</pdfrwt>
<pdfrwt beam="2">  1       21 0.77179486E-01 0.19572189E+03</pdfrwt>
<totfact> 0.68821357E+04</totfact>
</mgrwt>
</event>
<event>
 4    1  0.4391134E+000  0.1887818E+03  0.7546771E-02  0.1159565E+00
         21   -1    0    0  503  502  0.00000000000E+00  0.00000000000E+00  0.33586317235E+02  0.33586317235E+02  0.00000000000E+00 0.  1.
         21   -1    0    0  501  503 -0.00000000000E+00 -0.00000000000E+00 -0.14110248969E+04  0.14110248969E+04  0.00000000000E+00 0. -1.
          6    1    1    2  501    0 -0.67607690641E+02  0.33745476987E+02 -0.10484180404E+04  0.10652788107E+04  0.17300000000E+03 0. -1.
         -6    1    1    2    0  502  0.67607690641E+02 -0.33745476987E+02 -0.32902053926E+03  0.37933240345E+03  0.17300000000E+03 0.  1.
<mgrwt>
<rscale>  2 0.18878177E+03</rscale>
<asrwt>0</asrwt>
<pdfrwt beam="1">  1       21 0.51671271E-02 0.18878177E+03</pdfrwt>
<pdfrwt beam="2">  1       21 0.21708070E+00 0.18878177E+03</pdfrwt>
<totfact> 0.26751594E+04</totfact>
</mgrwt>
</event>
<event>
 4    1  0.4391134E+000  0.2303619E+03  0.7546771E-02  0.1126385E+00
         21   -1    0    0  503  502  0.00000000000E+00  0.00000000000E+00  0.66747919313E+03  0.66747919313E+03  0.00000000000E+00 0. -1.
         21   -1    0    0  501  503 -0.00000000000E+00 -0.00000000000E+00 -0.13578470698E+03  0.13578470698E+03  0.00000000000E+00 0.  1.
          6    1    1    2  501    0  0.10354529698E+03  0.11142694183E+03  0.72722679759E+01  0.23047663173E+03  0.17300000000E+03 0.  1.
         -6    1    1    2    0  502 -0.10354529698E+03 -0.11142694183E+03  0.52442221817E+03  0.57278726837E+03  0.17300000000E+03 0. -1.
<mgrwt>
<rscale>  2 0.23036187E+03</rscale>
<asrwt>0</asrwt>
<pdfrwt beam="1">  1       21 0.10268911E+00 0.23036187E+03</pdfrwt>
<pdfrwt beam="2">  1       21 0.20889955E-01 0.23036187E+03</pdfrwt>
<totfact> 0.16019650E+04</totfact>
</mgrwt>
</event>
<event>
 4    1  0.4391134E+000  0.2373290E+03  0.7546771E-02  0.1121585E+00
         21   -1    0    0  501  502  0.00000000000E+00  0.00000000000E+00  0.32422457353E+03  0.32422457353E+03  0.00000000000E+00 0. -1.
         21   -1    0    0  502  503 -0.00000000000E+00 -0.00000000000E+00 -0.43405191061E+03  0.43405191061E+03  0.00000000000E+00 0.  1.
          6    1    1    2  501    0 -0.89132704375E+01  0.16222387710E+03  0.23870830651E+03  0.33661058850E+03  0.17300000000E+03 0. -1.
         -6    1    1    2    0  503  0.89132704375E+01 -0.16222387710E+03 -0.34853564359E+03  0.42166589564E+03  0.17300000000E+03 0.  1.
<mgrwt>
<rscale>  2 0.23732895E+03</rscale>
<asrwt>0</asrwt>
<pdfrwt beam="1">  1       21 0.49880703E-01 0.23732895E+03</pdfrwt>
<pdfrwt beam="2">  1       21 0.66777217E-01 0.23732895E+03</pdfrwt>
<totfact> 0.76359597E+03</totfact>
</mgrwt>
</event>
<event>
 4    1  0.4391134E+000  0.1774327E+03  0.7546771E-02  0.1170311E+00
         21   -1    0    0  503  502  0.00000000000E+00  0.00000000000E+00  0.63661734112E+02  0.63661734112E+02  0.00000000000E+00 0. -1.
         21   -1    0    0  501  503 -0.00000000000E+00 -0.00000000000E+00 -0.53893265199E+03  0.53893265199E+03  0.00000000000E+00 0. -1.
          6    1    1    2  501    0  0.30524149387E+02 -0.24932852715E+02 -0.15114807404E+03  0.23308391434E+03  0.17300000000E+03 0. -1.
         -6    1    1    2    0  502 -0.30524149387E+02  0.24932852715E+02 -0.32412284384E+03  0.36951047176E+03  0.17300000000E+03 0. -1.
<mgrwt>
<rscale>  2 0.17743272E+03</rscale>
<asrwt>0</asrwt>
<pdfrwt beam="1">  1       21 0.97941133E-02 0.17743272E+03</pdfrwt>
<pdfrwt beam="2">  1       21 0.82912712E-01 0.17743272E+03</pdfrwt>
<totfact> 0.10739212E+05</totfact>
</mgrwt>
</event>
<event>
 4    1  0.4391134E+000  0.1924627E+03  0.7546771E-02  0.1156259E+00
         21   -1    0    0  501  502  0.00000000000E+00  0.00000000000E+00  0.92475679722E+02  0.92475679722E+02  0.00000000000E+00 0. -1.
         21   -1    0    0  502  503 -0.00000000000E+00 -0.00000000000E+00 -0.49122287415E+03  0.49122287415E+03  0.00000000000E+00 0.  1.
          6    1    1    2  501    0  0.84325027809E+02 -0.14818674365E+01 -0.73990784120E+02  0.20619539854E+03  0.17300000000E+03 0. -1.
         -6    1    1    2    0  503 -0.84325027809E+02  0.14818674365E+01 -0.32475641030E+03  0.37750315532E+03  0.17300000000E+03 0.  1.
<mgrwt>
<rscale>  2 0.19246274E+03</rscale>
<asrwt>0</asrwt>
<pdfrwt beam="1">  1       21 0.14227028E-01 0.19246274E+03</pdfrwt>
<pdfrwt beam="2">  1       21 0.75572749E-01 0.19246274E+03</pdfrwt>
<totfact> 0.67515785E+04</totfact>
</mgrwt>
</event>
<event>
 4    1  0.4391134E+000  0.1828136E+03  0.7546771E-02  0.1165108E+00
         21   -1    0    0  503  502  0.00000000000E+00  0.00000000000E+00  0.71227942625E+02  0.71227942625E+02  0.00000000000E+00 0. -1.
         21   -1    0    0  501  503 -0.00000000000E+00 -0.00000000000E+00 -0.46962736985E+03  0.46962736985E+03  0.00000000000E+00 0. -1.
          6    1    1    2  501    0 -0.51548121437E+02 -0.28889342020E+02 -0.20726970642E+03  0.27637209357E+03  0.17300000000E+03 0. -1.
         -6    1    1    2    0  502  0.51548121437E+02  0.28889342020E+02 -0.19112972081E+03  0.26448321890E+03  0.17300000000E+03 0. -1.
<mgrwt>
<rscale>  2 0.18281357E+03</rscale>
<asrwt>0</asrwt>
<pdfrwt beam="1">  1       21 0.10958145E-01 0.18281357E+03</pdfrwt>
<pdfrwt beam="2">  1       21 0.72250366E-01 0.18281357E+03</pdfrwt>
<totfact> 0.11963915E+05</totfact>
</mgrwt>
</event>
<event>
 4    1  0.4391134E+000  0.1859269E+03  0.7546771E-02  0.1162187E+00
         21   -1    0    0  503  502  0.00000000000E+00  0.00000000000E+00  0.29882037369E+03  0.29882037369E+03  0.00000000000E+00 0. -1.
         21   -1    0    0  501  503 -0.00000000000E+00 -0.00000000000E+00 -0.19280582794E+03  0.19280582794E+03  0.00000000000E+00 0. -1.
          6    1    1    2  501    0  0.32575332656E+02 -0.59822022082E+02 -0.10245777006E+03  0.21228853306E+03  0.17300000000E+03 0. -1.
         -6    1    1    2    0  502 -0.32575332656E+02  0.59822022082E+02  0.20847231581E+03  0.27933766857E+03  0.17300000000E+03 0. -1.
<mgrwt>
<rscale>  2 0.18592694E+03</rscale>
<asrwt>0</asrwt>
<pdfrwt beam="1">  1       21 0.45972365E-01 0.18592694E+03</pdfrwt>
<pdfrwt beam="2">  1       21 0.29662435E-01 0.18592694E+03</pdfrwt>
<totfact> 0.49556777E+04</totfact>
</mgrwt>
</event>
<event>
 4    1  0.4391134E+000  0.1941444E+03  0.7546771E-02  0.1154776E+00
         21   -1    0    0  501  502  0.00000000000E+00  0.00000000000E+00  0.58657120774E+02  0.58657120774E+02  0.00000000000E+00 0.  1.
         21   -1    0    0  502  503 -0.00000000000E+00 -0.00000000000E+00 -0.64384504098E+03  0.64384504098E+03  0.00000000000E+00 0. -1.
          6    1    1    2  501    0 -0.54683281587E+02 -0.69085259309E+02 -0.27703916452E+03  0.33829385601E+03  0.17300000000E+03 0. -1.
         -6    1    1    2    0  503  0.54683281587E+02  0.69085259309E+02 -0.30814875569E+03  0.36420830574E+03  0.17300000000E+03 0.  1.
<mgrwt>
<rscale>  2 0.19414436E+03</rscale>
<asrwt>0</asrwt>
<pdfrwt beam="1">  1       21 0.90241723E-02 0.19414436E+03</pdfrwt>
<pdfrwt beam="2">  1       21 0.99053085E-01 0.19414436E+03</pdfrwt>
<totfact> 0.81583455E+04</totfact>
</mgrwt>
</event>
<event>
 4    1  0.4391134E+000  0.2266642E+03  0.7546771E-02  0.1129010E+00
         21   -1    0    0  503  502  0.00000000000E+00  0.00000000000E+00  0.97251901571E+02  0.97251901571E+02  0.00000000000E+00 0.  1.
         21   -1    0    0  501  503 -0.00000000000E+00 -0.00000000000E+00 -0.53347350261E+03  0.53347350261E+03  0.00000000000E+00 0. -1.
          6    1    1    2  501    0 -0.53312907537E+02  0.13640157095E+03 -0.24921387988E+03  0.33687417917E+03  0.17300000000E+03 0. -1.
         -6    1    1    2    0  502  0.53312907537E+02 -0.13640157095E+03 -0.18700772115E+03  0.29385122501E+03  0.17300000000E+03 0.  1.
<mgrwt>
<rscale>  2 0.22666419E+03</rscale>
<asrwt>0</asrwt>
<pdfrwt beam="1">  1       21 0.14961831E-01 0.22666419E+03</pdfrwt>
<pdfrwt beam="2">  1       21 0.82072846E-01 0.22666419E+03</pdfrwt>
<totfact> 0.50324533E+04</totfact>
</mgrwt>
</event>
<event>
 4    1  0.4391134E+000  0.2186537E+03  0.7546771E-02  0.1134891E+00
         21   -1    0    0  503  502  0.00000000000E+00  0.00000000000E+00  0.56492944740E+02  0.56492944740E+02  0.00000000000E+00 0.  1.
         21   -1    0    0  501  503 -0.00000000000E+00 -0.00000000000E+00 -0.85369391227E+03  0.85369391227E+03  0.00000000000E+00 0. -1.
          6    1    1    2  501    0  0.10011023098E+03 -0.88647411226E+02 -0.44098196463E+03  0.49221389151E+03  0.17300000000E+03 0. -1.
         -6    1    1    2    0  502 -0.10011023098E+03  0.88647411226E+02 -0.35621900290E+03  0.41797296551E+03  0.17300000000E+03 0. -1.
<mgrwt>
<rscale>  2 0.21865366E+03</rscale>
<asrwt>0</asrwt>
<pdfrwt beam="1">  1       21 0.86912222E-02 0.21865366E+03</pdfrwt>
<pdfrwt beam="2">  1       21 0.13133753E+00 0.21865366E+03</pdfrwt>
<totfact> 0.43124161E+04</totfact>
</mgrwt>
</event>
<event>
 4    1  0.4391134E+000  0.2123927E+03  0.7546771E-02  0.1139685E+00
         21   -1    0    0  501  502  0.00000000000E+00  0.00000000000E+00  0.15349082030E+04  0.15349082030E+04  0.00000000000E+00 0. -1.
         21   -1    0    0  502  503 -0.00000000000E+00 -0.00000000000E+00 -0.50612177209E+02  0.50612177209E+02  0.00000000000E+00 0. -1.
          6    1    1    2  501    0 -0.17560072624E+02  0.12195610547E+03  0.12554953575E+04  0.12733339077E+04  0.17300000000E+03 0. -1.
         -6    1    1    2    0  503  0.17560072624E+02 -0.12195610547E+03  0.22880066834E+03  0.31218647255E+03  0.17300000000E+03 0. -1.
<mgrwt>
<rscale>  2 0.21239267E+03</rscale>
<asrwt>0</asrwt>
<pdfrwt beam="1">  1       21 0.23613969E+00 0.21239267E+03</pdfrwt>
<pdfrwt beam="2">  1       21 0.77864900E-02 0.21239267E+03</pdfrwt>
<totfact> 0.99277502E+03</totfact>
</mgrwt>
</event>
<event>
 4    1  0.4391134E+000  0.1983541E+03  0.7546771E-02  0.1151135E+00
         21   -1    0    0  501  502  0.00000000000E+00  0.00000000000E+00  0.12767332696E+03  0.12767332696E+03  0.00000000000E+00 0. -1.
         21   -1    0    0  502  503 -0.00000000000E+00 -0.00000000000E+00 -0.32480591444E+03  0.32480591444E+03  0.00000000000E+00 0. -1.
          6    1    1    2  501    0  0.93646561634E+02  0.25410241135E+02 -0.14977628366E+03  0.24855038525E+03  0.17300000000E+03 0.  1.
         -6    1    1    2    0  503 -0.93646561634E+02 -0.25410241135E+02 -0.47356303812E+02  0.20392885615E+03  0.17300000000E+03 0.  1.
<mgrwt>
<rscale>  2 0.19835412E+03</rscale>
<asrwt>0</asrwt>
<pdfrwt beam="1">  1       21 0.19642051E-01 0.19835412E+03</pdfrwt>
<pdfrwt beam="2">  1       21 0.49970140E-01 0.19835412E+03</pdfrwt>
<totfact> 0.90869595E+04</totfact>
</mgrwt>
</event>
<event>
 4    1  0.4391134E+000  0.1895245E+03  0.7546771E-02  0.1158891E+00
         21   -1    0    0  501  502  0.00000000000E+00  0.00000000000E+00  0.69421974487E+02  0.69421974487E+02  0.00000000000E+00 0. -1.
         21   -1    0    0  502  503 -0.00000000000E+00 -0.00000000000E+00 -0.54674018669E+03  0.54674018669E+03  0.00000000000E+00 0. -1.
          6    1    1    2  501    0  0.43039629288E+02 -0.64328242225E+02 -0.31001694511E+03  0.36335937953E+03  0.17300000000E+03 0. -1.
         -6    1    1    2    0  503 -0.43039629288E+02  0.64328242225E+02 -0.16730126709E+03  0.25280278165E+03  0.17300000000E+03 0. -1.
<mgrwt>
<rscale>  2 0.18952449E+03</rscale>
<asrwt>0</asrwt>
<pdfrwt beam="1">  1       21 0.10680304E-01 0.18952449E+03</pdfrwt>
<pdfrwt beam="2">  1       21 0.84113874E-01 0.18952449E+03</pdfrwt>
<totfact> 0.88750349E+04</totfact>
</mgrwt>
</event>
<event>
 4    1  0.4391134E+000  0.2361526E+03  0.7546771E-02  0.1122383E+00
         21   -1    0    0  501  502  0.00000000000E+00  0.00000000000E+00  0.33230448481E+03  0.33230448481E+03  0.00000000000E+00 0. -1.
         21   -1    0    0  502  503 -0.00000000000E+00 -0.00000000000E+00 -0.18178286237E+03  0.18178286237E+03  0.00000000000E+00 0.  1.
          6    1    1    2  501    0 -0.13509139051E+03 -0.87117029841E+02  0.40273765066E+01  0.23618696077E+03  0.17300000000E+03 0.  1.
         -6    1    1    2    0  503  0.13509139051E+03  0.87117029841E+02  0.14649424593E+03  0.27790038641E+03  0.17300000000E+03 0. -1.
<mgrwt>
<rscale>  2 0.23615262E+03</rscale>
<asrwt>0</asrwt>
<pdfrwt beam="1">  1       21 0.51123767E-01 0.23615262E+03</pdfrwt>
<pdfrwt beam="2">  1       21 0.27966594E-01 0.23615262E+03</pdfrwt>
<totfact> 0.43513953E+04</totfact>
</mgrwt>
</event>
<event>
 4    1  0.4391134E+000  0.2550587E+03  0.7546771E-02  0.1110149E+00
         21   -1    0    0  503  502  0.00000000000E+00  0.00000000000E+00  0.64909862173E+02  0.64909862173E+02  0.00000000000E+00 0.  1.
         21   -1    0    0  501  503 -0.00000000000E+00 -0.00000000000E+00 -0.12751567265E+04  0.12751567265E+04  0.00000000000E+00 0.  1.
          6    1    1    2  501    0 -0.10425541364E+03  0.15574583766E+03 -0.91510323083E+03  0.94998362107E+03  0.17300000000E+03 0.  1.
         -6    1    1    2    0  502  0.10425541364E+03 -0.15574583766E+03 -0.29514363349E+03  0.39008296760E+03  0.17300000000E+03 0.  1.
<mgrwt>
<rscale>  2 0.25505873E+03</rscale>
<asrwt>0</asrwt>
<pdfrwt beam="1">  1       21 0.99861326E-02 0.25505873E+03</pdfrwt>
<pdfrwt beam="2">  1       21 0.19617796E+00 0.25505873E+03</pdfrwt>
<totfact> 0.11044238E+04</totfact>
</mgrwt>
</event>
<event>
 4    1  0.4391134E+000  0.1733276E+03  0.7546771E-02  0.1174421E+00
         21   -1    0    0  503  502  0.00000000000E+00  0.00000000000E+00  0.44534192140E+03  0.44534192140E+03  0.00000000000E+00 0.  1.
         21   -1    0    0  501  503 -0.00000000000E+00 -0.00000000000E+00 -0.97261672659E+02  0.97261672659E+02  0.00000000000E+00 0.  1.
          6    1    1    2  501    0  0.67464744540E+01 -0.82430179668E+01  0.32421839303E+03  0.36764116832E+03  0.17300000000E+03 0.  1.
         -6    1    1    2    0  502 -0.67464744540E+01  0.82430179668E+01  0.23861855709E+02  0.17496242574E+03  0.17300000000E+03 0.  1.
<mgrwt>
<rscale>  2 0.17332762E+03</rscale>
<asrwt>0</asrwt>
<pdfrwt beam="1">  1       21 0.68514141E-01 0.17332762E+03</pdfrwt>
<pdfrwt beam="2">  1       21 0.14963334E-01 0.17332762E+03</pdfrwt>
<totfact> 0.77174918E+04</totfact>
</mgrwt>
</event>
<event>
 4    1  0.4391134E+000  0.3318066E+03  0.7546771E-02  0.1070340E+00
         21   -1    0    0  501  502  0.00000000000E+00  0.00000000000E+00  0.58763552036E+03  0.58763552036E+03  0.00000000000E+00 0.  1.
         21   -1    0    0  502  503 -0.00000000000E+00 -0.00000000000E+00 -0.60793681839E+03  0.60793681839E+03  0.00000000000E+00 0.  1.
          6    1    1    2  501    0  0.14030868731E+03  0.24592694970E+03  0.48706254320E+03  0.58934328987E+03  0.17300000000E+03 0.  1.
         -6    1    1    2    0  503 -0.14030868731E+03 -0.24592694970E+03 -0.50736384123E+03  0.60622904888E+03  0.17300000000E+03 0.  1.
<mgrwt>
<rscale>  2 0.33180656E+03</rscale>
<asrwt>0</asrwt>
<pdfrwt beam="1">  1       21 0.90405465E-01 0.33180656E+03</pdfrwt>
<pdfrwt beam="2">  1       21 0.93528741E-01 0.33180656E+03</pdfrwt>
<totfact> 0.89716437E+02</totfact>
</mgrwt>
</event>
<event>
 4    1  0.4391134E+000  0.2660442E+03  0.7546771E-02  0.1103565E+00
         21   -1    0    0  501  502  0.00000000000E+00  0.00000000000E+00  0.57981615509E+03  0.57981615509E+03  0.00000000000E+00 0.  1.
         21   -1    0    0  502  503 -0.00000000000E+00 -0.00000000000E+00 -0.19783602096E+03  0.19783602096E+03  0.00000000000E+00 0. -1.
          6    1    1    2  501    0 -0.29916894896E+02 -0.19988866678E+03  0.43161095200E+03  0.50701825765E+03  0.17300000000E+03 0. -1.
         -6    1    1    2    0  503  0.29916894896E+02  0.19988866678E+03 -0.49630817873E+02  0.27063391840E+03  0.17300000000E+03 0. -1.
<mgrwt>
<rscale>  2 0.26604417E+03</rscale>
<asrwt>0</asrwt>
<pdfrwt beam="1">  1       21 0.89202485E-01 0.26604417E+03</pdfrwt>
<pdfrwt beam="2">  1       21 0.30436311E-01 0.26604417E+03</pdfrwt>
<totfact> 0.10628752E+04</totfact>
</mgrwt>
</event>
<event>
 4    1  0.4391134E+000  0.1884978E+03  0.7546771E-02  0.1159823E+00
         21   -1    0    0  503  502  0.00000000000E+00  0.00000000000E+00  0.69488750119E+03  0.69488750119E+03  0.00000000000E+00 0. -1.
         21   -1    0    0  501  503 -0.00000000000E+00 -0.00000000000E+00 -0.63633600146E+02  0.63633600146E+02  0.00000000000E+00 0. -1.
          6    1    1    2  501    0  0.33343283124E+02  0.67012373902E+02  0.14752757480E+03  0.23936544887E+03  0.17300000000E+03 0. -1.
         -6    1    1    2    0  502 -0.33343283124E+02 -0.67012373902E+02  0.48372632624E+03  0.51915565247E+03  0.17300000000E+03 0. -1.
<mgrwt>
<rscale>  2 0.18849783E+03</rscale>
<asrwt>0</asrwt>
<pdfrwt beam="1">  1       21 0.10690576E+00 0.18849783E+03</pdfrwt>
<pdfrwt beam="2">  1       21 0.97897851E-02 0.18849783E+03</pdfrwt>
<totfact> 0.59064177E+04</totfact>
</mgrwt>
</event>
<event>
 4    1  0.4391134E+000  0.2188195E+03  0.7546771E-02  0.1134766E+00
         21   -1    0    0  503  502  0.00000000000E+00  0.00000000000E+00  0.13334181515E+03  0.13334181515E+03  0.00000000000E+00 0.  1.
         21   -1    0    0  501  503 -0.00000000000E+00 -0.00000000000E+00 -0.41419787332E+03  0.41419787332E+03  0.00000000000E+00 0.  1.
          6    1    1    2  501    0 -0.13353202786E+03 -0.11053222879E+02 -0.24028553311E+03  0.32499094391E+03  0.17300000000E+03 0.  1.
         -6    1    1    2    0  502  0.13353202786E+03  0.11053222879E+02 -0.40570525060E+02  0.22254874456E+03  0.17300000000E+03 0.  1.
<mgrwt>
<rscale>  2 0.21881951E+03</rscale>
<asrwt>0</asrwt>
<pdfrwt beam="1">  1       21 0.20514126E-01 0.21881951E+03</pdfrwt>
<pdfrwt beam="2">  1       21 0.63722749E-01 0.21881951E+03</pdfrwt>
<totfact> 0.49465170E+04</totfact>
</mgrwt>
</event>
<event>
 4    1  0.4391134E+000  0.1851776E+03  0.7546771E-02  0.1162884E+00
         21   -1    0    0  501  502  0.00000000000E+00  0.00000000000E+00  0.14567469497E+04  0.14567469497E+04  0.00000000000E+00 0.  1.
         21   -1    0    0  502  503 -0.00000000000E+00 -0.00000000000E+00 -0.29180910820E+02  0.29180910820E+02  0.00000000000E+00 0.  1.
          6    1    1    2  501    0 -0.55029915040E+02  0.36516374825E+02  0.10404623235E+04  0.10568124639E+04  0.17300000000E+03 0.  1.
         -6    1    1    2    0  503  0.55029915040E+02 -0.36516374825E+02  0.38710371541E+03  0.42911539668E+03  0.17300000000E+03 0.  1.
<mgrwt>
<rscale>  2 0.18517758E+03</rscale>
<asrwt>0</asrwt>
<pdfrwt beam="1">  1       21 0.22411486E+00 0.18517758E+03</pdfrwt>
<pdfrwt beam="2">  1       21 0.44893720E-02 0.18517758E+03</pdfrwt>
<totfact> 0.30815764E+04</totfact>
</mgrwt>
</event>
<event>
 4    1  0.4391134E+000  0.1771536E+03  0.7546771E-02  0.1170587E+00
         21   -1    0    0  503  502  0.00000000000E+00  0.00000000000E+00  0.28949139631E+03  0.28949139631E+03  0.00000000000E+00 0. -1.
         21   -1    0    0  501  503 -0.00000000000E+00 -0.00000000000E+00 -0.15757570145E+03  0.15757570145E+03  0.00000000000E+00 0. -1.
          6    1    1    2  501    0  0.41473758485E+01  0.37910498166E+02 -0.58905402565E+02  0.18669025965E+03  0.17300000000E+03 0.  1.
         -6    1    1    2    0  502 -0.41473758485E+01 -0.37910498166E+02  0.19082109743E+03  0.26037683811E+03  0.17300000000E+03 0.  1.
<mgrwt>
<rscale>  2 0.17715362E+03</rscale>
<asrwt>0</asrwt>
<pdfrwt beam="1">  1       21 0.44537138E-01 0.17715362E+03</pdfrwt>
<pdfrwt beam="2">  1       21 0.24242416E-01 0.17715362E+03</pdfrwt>
<totfact> 0.78241547E+04</totfact>
</mgrwt>
</event>
<event>
 4    1  0.4391134E+000  0.2326987E+03  0.7546771E-02  0.1124755E+00
         21   -1    0    0  501  502  0.00000000000E+00  0.00000000000E+00  0.62500182119E+02  0.62500182119E+02  0.00000000000E+00 0.  1.
         21   -1    0    0  502  503 -0.00000000000E+00 -0.00000000000E+00 -0.90912001848E+03  0.90912001848E+03  0.00000000000E+00 0. -1.
          6    1    1    2  501    0  0.28258959275E+02  0.15303962527E+03 -0.52864924129E+03  0.57759736495E+03  0.17300000000E+03 0. -1.
         -6    1    1    2    0  503 -0.28258959275E+02 -0.15303962527E+03 -0.31797059508E+03  0.39402283565E+03  0.17300000000E+03 0. -1.
<mgrwt>
<rscale>  2 0.23269872E+03</rscale>
<asrwt>0</asrwt>
<pdfrwt beam="1">  1       21 0.96154135E-02 0.23269872E+03</pdfrwt>
<pdfrwt beam="2">  1       21 0.13986461E+00 0.23269872E+03</pdfrwt>
<totfact> 0.30479824E+04</totfact>
</mgrwt>
</event>
<event>
 4    1  0.4391134E+000  0.2007987E+03  0.7546771E-02  0.1149067E+00
         21   -1    0    0  501  502  0.00000000000E+00  0.00000000000E+00  0.19572174624E+03  0.19572174624E+03  0.00000000000E+00 0.  1.
         21   -1    0    0  502  503 -0.00000000000E+00 -0.00000000000E+00 -0.21536755311E+03  0.21536755311E+03  0.00000000000E+00 0.  1.
          6    1    1    2  501    0 -0.29106066006E+02 -0.97693255597E+02  0.33027672418E+02  0.20349683637E+03  0.17300000000E+03 0.  1.
         -6    1    1    2    0  503  0.29106066006E+02  0.97693255597E+02 -0.52673479287E+02  0.20759246298E+03  0.17300000000E+03 0.  1.
<mgrwt>
<rscale>  2 0.20079874E+03</rscale>
<asrwt>0</asrwt>
<pdfrwt beam="1">  1       21 0.30111038E-01 0.20079874E+03</pdfrwt>
<pdfrwt beam="2">  1       21 0.33133470E-01 0.20079874E+03</pdfrwt>
<totfact> 0.92478975E+04</totfact>
</mgrwt>
</event>
<event>
 4    1  0.4391134E+000  0.2982123E+03  0.7546771E-02  0.1086138E+00
         21   -1    0    0  503  502  0.00000000000E+00  0.00000000000E+00  0.15195767935E+03  0.15195767935E+03  0.00000000000E+00 0.  1.
         21   -1    0    0  501  503 -0.00000000000E+00 -0.00000000000E+00 -0.66161772888E+03  0.66161772888E+03  0.00000000000E+00 0. -1.
          6    1    1    2  501    0 -0.81191340939E+02 -0.22893127738E+03 -0.39304945873E+03  0.49337454395E+03  0.17300000000E+03 0. -1.
         -6    1    1    2    0  502  0.81191340939E+02  0.22893127738E+03 -0.11661059080E+03  0.32020086429E+03  0.17300000000E+03 0.  1.
<mgrwt>
<rscale>  2 0.29821228E+03</rscale>
<asrwt>0</asrwt>
<pdfrwt beam="1">  1       21 0.23378105E-01 0.29821228E+03</pdfrwt>
<pdfrwt beam="2">  1       21 0.10178734E+00 0.29821228E+03</pdfrwt>
<totfact> 0.12772329E+04</totfact>
</mgrwt>
</event>
<event>
 4    1  0.4391134E+000  0.2391359E+03  0.7546771E-02  0.1120370E+00
         21   -1    0    0  503  502  0.00000000000E+00  0.00000000000E+00  0.36203713444E+03  0.36203713444E+03  0.00000000000E+00 0. -1.
         21   -1    0    0  501  503 -0.00000000000E+00 -0.00000000000E+00 -0.17356452179E+03  0.17356452179E+03  0.00000000000E+00 0. -1.
          6    1    1    2  501    0 -0.15768788159E+03  0.48903086638E+02  0.13927956795E+02  0.23954116111E+03  0.17300000000E+03 0. -1.
         -6    1    1    2    0  502  0.15768788159E+03 -0.48903086638E+02  0.17454465585E+03  0.29606049512E+03  0.17300000000E+03 0. -1.
<mgrwt>
<rscale>  2 0.23913590E+03</rscale>
<asrwt>0</asrwt>
<pdfrwt beam="1">  1       21 0.55698021E-01 0.23913590E+03</pdfrwt>
<pdfrwt beam="2">  1       21 0.26702234E-01 0.23913590E+03</pdfrwt>
<totfact> 0.39647891E+04</totfact>
</mgrwt>
</event>
<event>
 4    1  0.4391134E+000  0.1736030E+03  0.7546771E-02  0.1174142E+00
         21   -1    0    0  503  502  0.00000000000E+00  0.00000000000E+00  0.60680461422E+03  0.60680461422E+03  0.00000000000E+00 0.  1.
         21   -1    0    0  501  503 -0.00000000000E+00 -0.00000000000E+00 -0.69843505137E+02  0.69843505137E+02  0.00000000000E+00 0.  1.
          6    1    1    2  501    0  0.96430769745E+01 -0.10770299018E+02  0.86637812441E+02  0.19402087212E+03  0.17300000000E+03 0.  1.
         -6    1    1    2    0  502 -0.96430769745E+01  0.10770299018E+02  0.45032329665E+03  0.48262724724E+03  0.17300000000E+03 0.  1.
<mgrwt>
<rscale>  2 0.17360296E+03</rscale>
<asrwt>0</asrwt>
<pdfrwt beam="1">  1       21 0.93354553E-01 0.17360296E+03</pdfrwt>
<pdfrwt beam="2">  1       21 0.10745155E-01 0.17360296E+03</pdfrwt>
<totfact> 0.69546626E+04</totfact>
</mgrwt>
</event>
<event>
 4    1  0.4391134E+000  0.1821190E+03  0.7546771E-02  0.1165768E+00
         21   -1    0    0  503  502  0.00000000000E+00  0.00000000000E+00  0.11956367384E+04  0.11956367384E+04  0.00000000000E+00 0.  1.
         21   -1    0    0  501  503 -0.00000000000E+00 -0.00000000000E+00 -0.14237190930E+03  0.14237190930E+03  0.00000000000E+00 0.  1.
          6    1    1    2  501    0  0.56844613134E+02  0.26510652863E+01 -0.73668408543E+02  0.19645450518E+03  0.17300000000E+03 0.  1.
         -6    1    1    2    0  502 -0.56844613134E+02 -0.26510652863E+01  0.11269332376E+04  0.11415541425E+04  0.17300000000E+03 0.  1.
<mgrwt>
<rscale>  2 0.18211902E+03</rscale>
<asrwt>0</asrwt>
<pdfrwt beam="1">  1       21 0.18394411E+00 0.18211902E+03</pdfrwt>
<pdfrwt beam="2">  1       21 0.21903371E-01 0.18211902E+03</pdfrwt>
<totfact> 0.33648213E+03</totfact>
</mgrwt>
</event>
<event>
 4    1  0.4391134E+000  0.3226239E+03  0.7546771E-02  0.1074448E+00
         21   -1    0    0  501  502  0.00000000000E+00  0.00000000000E+00  0.19354417808E+04  0.19354417808E+04  0.00000000000E+00 0.  1.
         21   -1    0    0  502  503 -0.00000000000E+00 -0.00000000000E+00 -0.54051247185E+02  0.54051247185E+02  0.00000000000E+00 0.  1.
          6    1    1    2  501    0  0.19092959617E+03  0.19417280063E+03  0.10112888174E+04  0.10615042437E+04  0.17300000000E+03 0.  1.
         -6    1    1    2    0  503 -0.19092959617E+03 -0.19417280063E+03  0.87010171624E+03  0.92798878431E+03  0.17300000000E+03 0.  1.
<mgrwt>
<rscale>  2 0.32262391E+03</rscale>
<asrwt>0</asrwt>
<pdfrwt beam="1">  1       21 0.29776022E+00 0.32262391E+03</pdfrwt>
<pdfrwt beam="2">  1       21 0.83155780E-02 0.32262391E+03</pdfrwt>
<totfact> 0.35056458E+03</totfact>
</mgrwt>
</event>
<event>
 4    1  0.4391134E+000  0.2140211E+03  0.7546771E-02  0.1138421E+00
         21   -1    0    0  501  502  0.00000000000E+00  0.00000000000E+00  0.70010202690E+03  0.70010202690E+03  0.00000000000E+00 0.  1.
         21   -1    0    0  502  503 -0.00000000000E+00 -0.00000000000E+00 -0.11065093102E+03  0.11065093102E+03  0.00000000000E+00 0.  1.
          6    1    1    2  501    0  0.10672456914E+03 -0.66976730235E+02  0.55388616217E+03  0.59379701641E+03  0.17300000000E+03 0.  1.
         -6    1    1    2    0  503 -0.10672456914E+03  0.66976730235E+02  0.35564933713E+02  0.21695594152E+03  0.17300000000E+03 0.  1.
<mgrwt>
<rscale>  2 0.21402106E+03</rscale>
<asrwt>0</asrwt>
<pdfrwt beam="1">  1       21 0.10770800E+00 0.21402106E+03</pdfrwt>
<pdfrwt beam="2">  1       21 0.17023221E-01 0.21402106E+03</pdfrwt>
<totfact> 0.21107736E+04</totfact>
</mgrwt>
</event>
<event>
 4    1  0.4391134E+000  0.2191565E+03  0.7546771E-02  0.1134513E+00
         21   -1    0    0  503  502  0.00000000000E+00  0.00000000000E+00  0.56759784697E+02  0.56759784697E+02  0.00000000000E+00 0.  1.
         21   -1    0    0  501  503 -0.00000000000E+00 -0.00000000000E+00 -0.92391703933E+03  0.92391703933E+03  0.00000000000E+00 0.  1.
          6    1    1    2  501    0  0.83324399418E+02  0.10562963847E+03 -0.57579998133E+03  0.61609674124E+03  0.17300000000E+03 0.  1.
         -6    1    1    2    0  502 -0.83324399418E+02 -0.10562963847E+03 -0.29135727330E+03  0.36458008279E+03  0.17300000000E+03 0.  1.
<mgrwt>
<rscale>  2 0.21915651E+03</rscale>
<asrwt>0</asrwt>
<pdfrwt beam="1">  1       21 0.87322755E-02 0.21915651E+03</pdfrwt>
<pdfrwt beam="2">  1       21 0.14214107E+00 0.21915651E+03</pdfrwt>
<totfact> 0.34890306E+04</totfact>
</mgrwt>
</event>
<event>
 4    1  0.4391134E+000  0.2127307E+03  0.7546771E-02  0.1139422E+00
         21   -1    0    0  503  502  0.00000000000E+00  0.00000000000E+00  0.61240565245E+03  0.61240565245E+03  0.00000000000E+00 0.  1.
         21   -1    0    0  501  503 -0.00000000000E+00 -0.00000000000E+00 -0.92719911260E+02  0.92719911260E+02  0.00000000000E+00 0.  1.
          6    1    1    2  501    0  0.61548275759E+02 -0.10741124653E+03  0.10098666768E+03  0.23548391278E+03  0.17300000000E+03 0.  1.
         -6    1    1    2    0  502 -0.61548275759E+02  0.10741124653E+03  0.41869907351E+03  0.46964165093E+03  0.17300000000E+03 0.  1.
<mgrwt>
<rscale>  2 0.21273074E+03</rscale>
<asrwt>0</asrwt>
<pdfrwt beam="1">  1       21 0.94216252E-01 0.21273074E+03</pdfrwt>
<pdfrwt beam="2">  1       21 0.14264602E-01 0.21273074E+03</pdfrwt>
<totfact> 0.40167214E+04</totfact>
</mgrwt>
</event>
<event>
 4    1  0.4391134E+000  0.2694196E+03  0.7546771E-02  0.1101612E+00
         21   -1    0    0  503  502  0.00000000000E+00  0.00000000000E+00  0.92769316647E+03  0.92769316647E+03  0.00000000000E+00 0.  1.
         21   -1    0    0  501  503 -0.00000000000E+00 -0.00000000000E+00 -0.10096072846E+03  0.10096072846E+03  0.00000000000E+00 0. -1.
          6    1    1    2  501    0 -0.18253359291E+03 -0.96640475044E+02  0.16939921461E+03  0.31824988275E+03  0.17300000000E+03 0.  1.
         -6    1    1    2    0  502  0.18253359291E+03  0.96640475044E+02  0.65733322340E+03  0.71040401219E+03  0.17300000000E+03 0. -1.
<mgrwt>
<rscale>  2 0.26941955E+03</rscale>
<asrwt>0</asrwt>
<pdfrwt beam="1">  1       21 0.14272202E+00 0.26941955E+03</pdfrwt>
<pdfrwt beam="2">  1       21 0.15532420E-01 0.26941955E+03</pdfrwt>
<totfact> 0.11939275E+04</totfact>
</mgrwt>
</event>
<event>
 4    1  0.4391134E+000  0.3362829E+03  0.7546771E-02  0.1068390E+00
         21   -1    0    0  503  502  0.00000000000E+00  0.00000000000E+00  0.11430707759E+03  0.11430707759E+03  0.00000000000E+00 0.  1.
         21   -1    0    0  501  503 -0.00000000000E+00 -0.00000000000E+00 -0.10222139094E+04  0.10222139094E+04  0.00000000000E+00 0. -1.
          6    1    1    2  501    0  0.12008256741E+02 -0.28811976310E+03 -0.55589210523E+03  0.64969395008E+03  0.17300000000E+03 0. -1.
         -6    1    1    2    0  502 -0.12008256741E+02  0.28811976310E+03 -0.35201472655E+03  0.48682703687E+03  0.17300000000E+03 0.  1.
<mgrwt>
<rscale>  2 0.33628291E+03</rscale>
<asrwt>0</asrwt>
<pdfrwt beam="1">  1       21 0.17585704E-01 0.33628291E+03</pdfrwt>
<pdfrwt beam="2">  1       21 0.15726368E+00 0.33628291E+03</pdfrwt>
<totfact> 0.70728958E+03</totfact>
</mgrwt>
</event>
<event>
 4    1  0.4391134E+000  0.1961340E+03  0.7546771E-02  0.1153042E+00
         21   -1    0    0  501  502  0.00000000000E+00  0.00000000000E+00  0.97529452893E+03  0.97529452893E+03  0.00000000000E+00 0. -1.
         21   -1    0    0  502  503 -0.00000000000E+00 -0.00000000000E+00 -0.49148400111E+02  0.49148400111E+02  0.00000000000E+00 0. -1.
          6    1    1    2  501    0 -0.91302867099E+02 -0.14259911252E+02  0.23545358571E+03  0.30644240834E+03  0.17300000000E+03 0. -1.
         -6    1    1    2    0  503  0.91302867099E+02  0.14259911252E+02  0.69069254311E+03  0.71800052070E+03  0.17300000000E+03 0. -1.
<mgrwt>
<rscale>  2 0.19613403E+03</rscale>
<asrwt>0</asrwt>
<pdfrwt beam="1">  1       21 0.15004530E+00 0.19613403E+03</pdfrwt>
<pdfrwt beam="2">  1       21 0.75612930E-02 0.19613403E+03</pdfrwt>
<totfact> 0.39449557E+04</totfact>
</mgrwt>
</event>
<event>
 4    1  0.4391134E+000  0.2434611E+03  0.7546771E-02  0.1117508E+00
         21   -1    0    0  501  502  0.00000000000E+00  0.00000000000E+00  0.33036079562E+03  0.33036079562E+03  0.00000000000E+00 0. -1.
         21   -1    0    0  502  503 -0.00000000000E+00 -0.00000000000E+00 -0.37029131598E+03  0.37029131598E+03  0.00000000000E+00 0. -1.
          6    1    1    2  501    0 -0.15942908597E+03 -0.62663358401E+02  0.23155387071E+03  0.33599185255E+03  0.17300000000E+03 0. -1.
         -6    1    1    2    0  503  0.15942908597E+03  0.62663358401E+02 -0.27148439107E+03  0.36466025906E+03  0.17300000000E+03 0. -1.
<mgrwt>
<rscale>  2 0.24346115E+03</rscale>
<asrwt>0</asrwt>
<pdfrwt beam="1">  1       21 0.50824738E-01 0.24346115E+03</pdfrwt>
<pdfrwt beam="2">  1       21 0.56967895E-01 0.24346115E+03</pdfrwt>
<totfact> 0.10325926E+04</totfact>
</mgrwt>
</event>
<event>
 4    1  0.4391134E+000  0.3192834E+03  0.7546771E-02  0.1075980E+00
         21   -1    0    0  503  502  0.00000000000E+00  0.00000000000E+00  0.12521696397E+04  0.12521696397E+04  0.00000000000E+00 0. -1.
         21   -1    0    0  501  503 -0.00000000000E+00 -0.00000000000E+00 -0.12012648969E+03  0.12012648969E+03  0.00000000000E+00 0.  1.
          6    1    1    2  501    0  0.24112224735E+03 -0.11778350061E+03  0.17649771053E+03  0.36481958967E+03  0.17300000000E+03 0.  1.
         -6    1    1    2    0  502 -0.24112224735E+03  0.11778350061E+03  0.95554543952E+03  0.10074765398E+04  0.17300000000E+03 0. -1.
<mgrwt>
<rscale>  2 0.31928340E+03</rscale>
<asrwt>0</asrwt>
<pdfrwt beam="1">  1       21 0.19264147E+00 0.31928340E+03</pdfrwt>
<pdfrwt beam="2">  1       21 0.18480999E-01 0.31928340E+03</pdfrwt>
<totfact> 0.36494084E+03</totfact>
</mgrwt>
</event>
<event>
 4    1  0.4391134E+000  0.2130718E+03  0.7546771E-02  0.1139156E+00
         21   -1    0    0  503  502  0.00000000000E+00  0.00000000000E+00  0.15579632774E+03  0.15579632774E+03  0.00000000000E+00 0. -1.
         21   -1    0    0  501  503 -0.00000000000E+00 -0.00000000000E+00 -0.43706473385E+03  0.43706473385E+03  0.00000000000E+00 0.  1.
          6    1    1    2  501    0 -0.11220744543E+03  0.53666332045E+02 -0.31176261853E+03  0.37761821503E+03  0.17300000000E+03 0.  1.
         -6    1    1    2    0  502  0.11220744543E+03 -0.53666332045E+02  0.30494212418E+02  0.21524284656E+03  0.17300000000E+03 0. -1.
<mgrwt>
<rscale>  2 0.21307179E+03</rscale>
<asrwt>0</asrwt>
<pdfrwt beam="1">  1       21 0.23968666E-01 0.21307179E+03</pdfrwt>
<pdfrwt beam="2">  1       21 0.67240728E-01 0.21307179E+03</pdfrwt>
<totfact> 0.32858893E+04</totfact>
</mgrwt>
</event>
<event>
 4    1  0.4391134E+000  0.2201315E+03  0.7546771E-02  0.1133785E+00
         21   -1    0    0  503  502  0.00000000000E+00  0.00000000000E+00  0.14931172588E+04  0.14931172588E+04  0.00000000000E+00 0.  1.
         21   -1    0    0  501  503 -0.00000000000E+00 -0.00000000000E+00 -0.54153979230E+02  0.54153979230E+02  0.00000000000E+00 0.  1.
          6    1    1    2  501    0 -0.61097905404E+01  0.13598356413E+03  0.22975990880E+03  0.31819408377E+03  0.17300000000E+03 0.  1.
         -6    1    1    2    0  502  0.61097905404E+01 -0.13598356413E+03  0.12092033708E+04  0.12290771543E+04  0.17300000000E+03 0.  1.
<mgrwt>
<rscale>  2 0.22013146E+03</rscale>
<asrwt>0</asrwt>
<pdfrwt beam="1">  1       21 0.22971032E+00 0.22013146E+03</pdfrwt>
<pdfrwt beam="2">  1       21 0.83313826E-02 0.22013146E+03</pdfrwt>
<totfact> 0.95849391E+03</totfact>
</mgrwt>
</event>
<event>
 4    1  0.4391134E+000  0.1833663E+03  0.7546771E-02  0.1164584E+00
         21   -1    0    0  501  502  0.00000000000E+00  0.00000000000E+00  0.15722071605E+03  0.15722071605E+03  0.00000000000E+00 0. -1.
         21   -1    0    0  502  503 -0.00000000000E+00 -0.00000000000E+00 -0.86792243974E+03  0.86792243974E+03  0.00000000000E+00 0. -1.
          6    1    1    2  501    0  0.57051711478E+02 -0.20959236183E+02  0.89611975893E+02  0.20409187536E+03  0.17300000000E+03 0. -1.
         -6    1    1    2    0  503 -0.57051711478E+02  0.20959236183E+02 -0.80031369958E+03  0.82105128043E+03  0.17300000000E+03 0. -1.
<mgrwt>
<rscale>  2 0.18336627E+03</rscale>
<asrwt>0</asrwt>
<pdfrwt beam="1">  1       21 0.24187802E-01 0.18336627E+03</pdfrwt>
<pdfrwt beam="2">  1       21 0.13352653E+00 0.18336627E+03</pdfrwt>
<totfact> 0.65643272E+03</totfact>
</mgrwt>
</event>
<event>
 4    1  0.4391134E+000  0.1939722E+03  0.7546771E-02  0.1154927E+00
         21   -1    0    0  503  502  0.00000000000E+00  0.00000000000E+00  0.75154638613E+03  0.75154638613E+03  0.00000000000E+00 0.  1.
         21   -1    0    0  501  503 -0.00000000000E+00 -0.00000000000E+00 -0.50589912480E+02  0.50589912480E+02  0.00000000000E+00 0.  1.
          6    1    1    2  501    0 -0.34778670809E+02 -0.80539818928E+02  0.39138100909E+03  0.43681152990E+03  0.17300000000E+03 0.  1.
         -6    1    1    2    0  502  0.34778670809E+02  0.80539818928E+02  0.30957546456E+03  0.36532476871E+03  0.17300000000E+03 0.  1.
<mgrwt>
<rscale>  2 0.19397221E+03</rscale>
<asrwt>0</asrwt>
<pdfrwt beam="1">  1       21 0.11562251E+00 0.19397221E+03</pdfrwt>
<pdfrwt beam="2">  1       21 0.77830640E-02 0.19397221E+03</pdfrwt>
<totfact> 0.72790014E+04</totfact>
</mgrwt>
</event>
<event>
 4    1  0.4391134E+000  0.1873414E+03  0.7546771E-02  0.1160881E+00
         21   -1    0    0  501  502  0.00000000000E+00  0.00000000000E+00  0.40720767126E+04  0.40720767126E+04  0.00000000000E+00 0. -1.
         21   -1    0    0  502  503 -0.00000000000E+00 -0.00000000000E+00 -0.91741902806E+01  0.91741902806E+01  0.00000000000E+00 0. -1.
          6    1    1    2  501    0  0.29391399972E+02 -0.65604597087E+02  0.25334930732E+04  0.25404101971E+04  0.17300000000E+03 0.  1.
         -6    1    1    2    0  503 -0.29391399972E+02  0.65604597087E+02  0.15294094492E+04  0.15408407058E+04  0.17300000000E+03 0.  1.
<mgrwt>
<rscale>  2 0.18734145E+03</rscale>
<asrwt>0</asrwt>
<pdfrwt beam="1">  1       21 0.62647190E+00 0.18734145E+03</pdfrwt>
<pdfrwt beam="2">  1       21 0.14114171E-02 0.18734145E+03</pdfrwt>
<totfact> 0.45848190E+02</totfact>
</mgrwt>
</event>
<event>
 4    1  0.4391134E+000  0.1900264E+03  0.7546771E-02  0.1158437E+00
         21   -1    0    0  503  502  0.00000000000E+00  0.00000000000E+00  0.52308312906E+02  0.52308312906E+02  0.00000000000E+00 0. -1.
         21   -1    0    0  501  503 -0.00000000000E+00 -0.00000000000E+00 -0.80418850231E+03  0.80418850231E+03  0.00000000000E+00 0. -1.
          6    1    1    2  501    0 -0.38303592657E+02 -0.68657694636E+02 -0.53707805482E+03  0.56970420502E+03  0.17300000000E+03 0. -1.
         -6    1    1    2    0  502  0.38303592657E+02  0.68657694636E+02 -0.21480213458E+03  0.28679261020E+03  0.17300000000E+03 0. -1.
<mgrwt>
<rscale>  2 0.19002643E+03</rscale>
<asrwt>0</asrwt>
<pdfrwt beam="1">  1       21 0.80474330E-02 0.19002643E+03</pdfrwt>
<pdfrwt beam="2">  1       21 0.12372130E+00 0.19002643E+03</pdfrwt>
<totfact> 0.58210825E+04</totfact>
</mgrwt>
</event>
<event>
 4    1  0.4391134E+000  0.2266392E+03  0.7546771E-02  0.1129028E+00
         21   -1    0    0  501  502  0.00000000000E+00  0.00000000000E+00  0.18632384363E+03  0.18632384363E+03  0.00000000000E+00 0.  1.
         21   -1    0    0  502  503 -0.00000000000E+00 -0.00000000000E+00 -0.27930267581E+03  0.27930267581E+03  0.00000000000E+00 0.  1.
          6    1    1    2  501    0  0.11502202059E+03 -0.90588465064E+02 -0.19966540284E+02  0.22751702783E+03  0.17300000000E+03 0.  1.
         -6    1    1    2    0  503 -0.11502202059E+03  0.90588465064E+02 -0.73012291899E+02  0.23810949160E+03  0.17300000000E+03 0.  1.
<mgrwt>
<rscale>  2 0.22663922E+03</rscale>
<asrwt>0</asrwt>
<pdfrwt beam="1">  1       21 0.28665207E-01 0.22663922E+03</pdfrwt>
<pdfrwt beam="2">  1       21 0.42969642E-01 0.22663922E+03</pdfrwt>
<totfact> 0.59722557E+04</totfact>
</mgrwt>
</event>
<event>
 4    1  0.4391134E+000  0.1862140E+03  0.7546771E-02  0.1161921E+00
         21   -1    0    0  501  502  0.00000000000E+00  0.00000000000E+00  0.17631602280E+03  0.17631602280E+03  0.00000000000E+00 0. -1.
         21   -1    0    0  502  503 -0.00000000000E+00 -0.00000000000E+00 -0.20046645204E+03  0.20046645204E+03  0.00000000000E+00 0. -1.
          6    1    1    2  501    0  0.67293713031E+02  0.14772113955E+02 -0.38008811487E+02  0.19005348961E+03  0.17300000000E+03 0. -1.
         -6    1    1    2    0  503 -0.67293713031E+02 -0.14772113955E+02  0.13858382243E+02  0.18672898522E+03  0.17300000000E+03 0. -1.
<mgrwt>
<rscale>  2 0.18621401E+03</rscale>
<asrwt>0</asrwt>
<pdfrwt beam="1">  1       21 0.27125542E-01 0.18621401E+03</pdfrwt>
<pdfrwt beam="2">  1       21 0.30840993E-01 0.18621401E+03</pdfrwt>
<totfact> 0.13106336E+05</totfact>
</mgrwt>
</event>
<event>
 4    1  0.4391134E+000  0.2539737E+03  0.7546771E-02  0.1110819E+00
         21   -1    0    0  501  502  0.00000000000E+00  0.00000000000E+00  0.32910043442E+03  0.32910043442E+03  0.00000000000E+00 0. -1.
         21   -1    0    0  502  503 -0.00000000000E+00 -0.00000000000E+00 -0.20219008427E+03  0.20219008427E+03  0.00000000000E+00 0.  1.
          6    1    1    2  501    0 -0.16167873549E+03  0.91834822453E+02  0.16962885371E+02  0.25453956000E+03  0.17300000000E+03 0.  1.
         -6    1    1    2    0  503  0.16167873549E+03 -0.91834822453E+02  0.10994746478E+03  0.27675095869E+03  0.17300000000E+03 0.  1.
<mgrwt>
<rscale>  2 0.25397372E+03</rscale>
<asrwt>0</asrwt>
<pdfrwt beam="1">  1       21 0.50630836E-01 0.25397372E+03</pdfrwt>
<pdfrwt beam="2">  1       21 0.31106167E-01 0.25397372E+03</pdfrwt>
<totfact> 0.35792337E+04</totfact>
</mgrwt>
</event>
<event>
 4    1  0.4391134E+000  0.4587757E+03  0.7546771E-02  0.1025137E+00
         21   -1    0    0  501  502  0.00000000000E+00  0.00000000000E+00  0.24963579488E+04  0.24963579488E+04  0.00000000000E+00 0. -1.
         21   -1    0    0  502  503 -0.00000000000E+00 -0.00000000000E+00 -0.10914517649E+03  0.10914517649E+03  0.00000000000E+00 0.  1.
          6    1    1    2  501    0  0.15218732867E+03  0.39671797459E+03  0.18150013796E+04  0.18720857732E+04  0.17300000000E+03 0. -1.
         -6    1    1    2    0  503 -0.15218732867E+03 -0.39671797459E+03  0.57221139270E+03  0.73341735206E+03  0.17300000000E+03 0.  1.
<mgrwt>
<rscale>  2 0.45877569E+03</rscale>
<asrwt>0</asrwt>
<pdfrwt beam="1">  1       21 0.38405502E+00 0.45877569E+03</pdfrwt>
<pdfrwt beam="2">  1       21 0.16791568E-01 0.45877569E+03</pdfrwt>
<totfact> 0.26675004E+02</totfact>
</mgrwt>
</event>
<event>
 4    1  0.4391134E+000  0.1737751E+03  0.7546771E-02  0.1173967E+00
         21   -1    0    0  503  502  0.00000000000E+00  0.00000000000E+00  0.14329650102E+02  0.14329650102E+02  0.00000000000E+00 0.  1.
         21   -1    0    0  501  503 -0.00000000000E+00 -0.00000000000E+00 -0.26117035808E+04  0.26117035808E+04  0.00000000000E+00 0.  1.
          6    1    1    2  501    0 -0.35116577706E+01 -0.16014682392E+02 -0.18756784642E+04  0.18837110986E+04  0.17300000000E+03 0.  1.
         -6    1    1    2    0  502  0.35116577706E+01  0.16014682392E+02 -0.72169546646E+03  0.74232213230E+03  0.17300000000E+03 0.  1.
<mgrwt>
<rscale>  2 0.17377515E+03</rscale>
<asrwt>0</asrwt>
<pdfrwt beam="1">  1       21 0.22045614E-02 0.17377515E+03</pdfrwt>
<pdfrwt beam="2">  1       21 0.40180057E+00 0.17377515E+03</pdfrwt>
<totfact> 0.91496273E+03</totfact>
</mgrwt>
</event>
<event>
 4    1  0.4391134E+000  0.1762450E+03  0.7546771E-02  0.1171487E+00
         21   -1    0    0  503  502  0.00000000000E+00  0.00000000000E+00  0.89386293145E+02  0.89386293145E+02  0.00000000000E+00 0.  1.
         21   -1    0    0  501  503 -0.00000000000E+00 -0.00000000000E+00 -0.39027593787E+03  0.39027593787E+03  0.00000000000E+00 0.  1.
          6    1    1    2  501    0  0.14376467077E+01  0.33633981393E+02 -0.22983865565E+03  0.28963445783E+03  0.17300000000E+03 0.  1.
         -6    1    1    2    0  502 -0.14376467077E+01 -0.33633981393E+02 -0.71050989075E+02  0.19002777318E+03  0.17300000000E+03 0.  1.
<mgrwt>
<rscale>  2 0.17624503E+03</rscale>
<asrwt>0</asrwt>
<pdfrwt beam="1">  1       21 0.13751738E-01 0.17624503E+03</pdfrwt>
<pdfrwt beam="2">  1       21 0.60042451E-01 0.17624503E+03</pdfrwt>
<totfact> 0.11953452E+05</totfact>
</mgrwt>
</event>
<event>
 4    1  0.4391134E+000  0.2067930E+03  0.7546771E-02  0.1144131E+00
         21   -1    0    0  501  502  0.00000000000E+00  0.00000000000E+00  0.13660667418E+03  0.13660667418E+03  0.00000000000E+00 0. -1.
         21   -1    0    0  502  503 -0.00000000000E+00 -0.00000000000E+00 -0.38523687148E+03  0.38523687148E+03  0.00000000000E+00 0.  1.
          6    1    1    2  501    0  0.62072959985E+01  0.11311854265E+03 -0.23727023501E+03  0.31473878000E+03  0.17300000000E+03 0.  1.
         -6    1    1    2    0  503 -0.62072959985E+01 -0.11311854265E+03 -0.11359962283E+02  0.20710476566E+03  0.17300000000E+03 0. -1.
<mgrwt>
<rscale>  2 0.20679298E+03</rscale>
<asrwt>0</asrwt>
<pdfrwt beam="1">  1       21 0.21016411E-01 0.20679298E+03</pdfrwt>
<pdfrwt beam="2">  1       21 0.59267211E-01 0.20679298E+03</pdfrwt>
<totfact> 0.55591840E+04</totfact>
</mgrwt>
</event>
<event>
 4    1  0.4391134E+000  0.1836673E+03  0.7546771E-02  0.1164300E+00
         21   -1    0    0  501  502  0.00000000000E+00  0.00000000000E+00  0.10786675190E+04  0.10786675190E+04  0.00000000000E+00 0. -1.
         21   -1    0    0  502  503 -0.00000000000E+00 -0.00000000000E+00 -0.69074319318E+02  0.69074319318E+02  0.00000000000E+00 0. -1.
          6    1    1    2  501    0  0.28537593730E+02  0.54683604273E+02  0.92932486608E+03  0.94730058458E+03  0.17300000000E+03 0. -1.
         -6    1    1    2    0  503 -0.28537593730E+02 -0.54683604273E+02  0.80268333651E+02  0.20044125379E+03  0.17300000000E+03 0. -1.
<mgrwt>
<rscale>  2 0.18366734E+03</rscale>
<asrwt>0</asrwt>
<pdfrwt beam="1">  1       21 0.16594884E+00 0.18366734E+03</pdfrwt>
<pdfrwt beam="2">  1       21 0.10626819E-01 0.18366734E+03</pdfrwt>
<totfact> 0.16718626E+04</totfact>
</mgrwt>
</event>
<event>
 4    1  0.4391134E+000  0.2518482E+03  0.7546771E-02  0.1112142E+00
         21   -1    0    0  503  502  0.00000000000E+00  0.00000000000E+00  0.70440145144E+02  0.70440145144E+02  0.00000000000E+00 0.  1.
         21   -1    0    0  501  503 -0.00000000000E+00 -0.00000000000E+00 -0.98741736383E+03  0.98741736383E+03  0.00000000000E+00 0.  1.
          6    1    1    2  501    0 -0.15087219401E+03  0.10361523873E+03 -0.61546534843E+03  0.66500009905E+03  0.17300000000E+03 0.  1.
         -6    1    1    2    0  502  0.15087219401E+03 -0.10361523873E+03 -0.30151187025E+03  0.39285740992E+03  0.17300000000E+03 0.  1.
<mgrwt>
<rscale>  2 0.25184824E+03</rscale>
<asrwt>0</asrwt>
<pdfrwt beam="1">  1       21 0.10836946E-01 0.25184824E+03</pdfrwt>
<pdfrwt beam="2">  1       21 0.15191036E+00 0.25184824E+03</pdfrwt>
<totfact> 0.19620141E+04</totfact>
</mgrwt>
</event>
<event>
 4    1  0.4391134E+000  0.2153946E+03  0.7546771E-02  0.1137364E+00
         21   -1    0    0  503  502  0.00000000000E+00  0.00000000000E+00  0.17086203895E+03  0.17086203895E+03  0.00000000000E+00 0. -1.
         21   -1    0    0  501  503 -0.00000000000E+00 -0.00000000000E+00 -0.28211623521E+03  0.28211623521E+03  0.00000000000E+00 0.  1.
          6    1    1    2  501    0  0.99755754541E+02 -0.80713339845E+02 -0.99492481902E+02  0.23726273991E+03  0.17300000000E+03 0.  1.
         -6    1    1    2    0  502 -0.99755754541E+02  0.80713339845E+02 -0.11761714357E+02  0.21571553425E+03  0.17300000000E+03 0. -1.
<mgrwt>
<rscale>  2 0.21539465E+03</rscale>
<asrwt>0</asrwt>
<pdfrwt beam="1">  1       21 0.26286468E-01 0.21539465E+03</pdfrwt>
<pdfrwt beam="2">  1       21 0.43402498E-01 0.21539465E+03</pdfrwt>
<totfact> 0.69515457E+04</totfact>
</mgrwt>
</event>
<event>
 4    1  0.4391134E+000  0.2251069E+03  0.7546771E-02  0.1130132E+00
         21   -1    0    0  501  502  0.00000000000E+00  0.00000000000E+00  0.28249077641E+03  0.28249077641E+03  0.00000000000E+00 0.  1.
         21   -1    0    0  502  503 -0.00000000000E+00 -0.00000000000E+00 -0.18586046318E+03  0.18586046318E+03  0.00000000000E+00 0. -1.
          6    1    1    2  501    0 -0.14215159643E+03  0.23174278415E+02  0.92043167838E+02  0.24319759105E+03  0.17300000000E+03 0. -1.
         -6    1    1    2    0  503  0.14215159643E+03 -0.23174278415E+02  0.45871453919E+01  0.22515364854E+03  0.17300000000E+03 0.  1.
<mgrwt>
<rscale>  2 0.22510692E+03</rscale>
<asrwt>0</asrwt>
<pdfrwt beam="1">  1       21 0.43460120E-01 0.22510692E+03</pdfrwt>
<pdfrwt beam="2">  1       21 0.28593917E-01 0.22510692E+03</pdfrwt>
<totfact> 0.58670002E+04</totfact>
</mgrwt>
</event>
<event>
 4    1  0.4391134E+000  0.1762055E+03  0.7546771E-02  0.1171527E+00
         21   -1    0    0  503  502  0.00000000000E+00  0.00000000000E+00  0.68586054074E+03  0.68586054074E+03  0.00000000000E+00 0. -1.
         21   -1    0    0  501  503 -0.00000000000E+00 -0.00000000000E+00 -0.67762579019E+02  0.67762579019E+02  0.00000000000E+00 0. -1.
          6    1    1    2  501    0 -0.31940413903E+02  0.99594386733E+01  0.91950747847E+02  0.19875442256E+03  0.17300000000E+03 0. -1.
         -6    1    1    2    0  502  0.31940413903E+02 -0.99594386733E+01  0.52614721387E+03  0.55486869719E+03  0.17300000000E+03 0. -1.
<mgrwt>
<rscale>  2 0.17620551E+03</rscale>
<asrwt>0</asrwt>
<pdfrwt beam="1">  1       21 0.10551700E+00 0.17620551E+03</pdfrwt>
<pdfrwt beam="2">  1       21 0.10425013E-01 0.17620551E+03</pdfrwt>
<totfact> 0.54877438E+04</totfact>
</mgrwt>
</event>
<event>
 4    1  0.4391134E+000  0.3066588E+03  0.7546771E-02  0.1081958E+00
         21   -1    0    0  501  502  0.00000000000E+00  0.00000000000E+00  0.89746347974E+03  0.89746347974E+03  0.00000000000E+00 0.  1.
         21   -1    0    0  502  503 -0.00000000000E+00 -0.00000000000E+00 -0.20476301637E+03  0.20476301637E+03  0.00000000000E+00 0.  1.
          6    1    1    2  501    0  0.22247950948E+03  0.12088636806E+03  0.73144704612E+03  0.79312951490E+03  0.17300000000E+03 0.  1.
         -6    1    1    2    0  503 -0.22247950948E+03 -0.12088636806E+03 -0.38746582753E+02  0.30909698121E+03  0.17300000000E+03 0.  1.
<mgrwt>
<rscale>  2 0.30665884E+03</rscale>
<asrwt>0</asrwt>
<pdfrwt beam="1">  1       21 0.13807130E+00 0.30665884E+03</pdfrwt>
<pdfrwt beam="2">  1       21 0.31502003E-01 0.30665884E+03</pdfrwt>
<totfact> 0.33161791E+03</totfact>
</mgrwt>
</event>
<event>
 4    1  0.4391134E+000  0.2053039E+03  0.7546771E-02  0.1145340E+00
         21   -1    0    0  503  502  0.00000000000E+00  0.00000000000E+00  0.16290607457E+03  0.16290607457E+03  0.00000000000E+00 0.  1.
         21   -1    0    0  501  503 -0.00000000000E+00 -0.00000000000E+00 -0.26083195488E+03  0.26083195488E+03  0.00000000000E+00 0. -1.
          6    1    1    2  501    0  0.70645083089E+02  0.85029166910E+02 -0.29971201104E+02  0.20748002286E+03  0.17300000000E+03 0.  1.
         -6    1    1    2    0  502 -0.70645083089E+02 -0.85029166910E+02 -0.67954679206E+02  0.21625800659E+03  0.17300000000E+03 0. -1.
<mgrwt>
<rscale>  2 0.20530389E+03</rscale>
<asrwt>0</asrwt>
<pdfrwt beam="1">  1       21 0.25062473E-01 0.20530389E+03</pdfrwt>
<pdfrwt beam="2">  1       21 0.40127993E-01 0.20530389E+03</pdfrwt>
<totfact> 0.89745731E+04</totfact>
</mgrwt>
</event>
<event>
 4    1  0.4391134E+000  0.1780316E+03  0.7546771E-02  0.1169722E+00
         21   -1    0    0  501  502  0.00000000000E+00  0.00000000000E+00  0.54270896837E+02  0.54270896837E+02  0.00000000000E+00 0. -1.
         21   -1    0    0  502  503 -0.00000000000E+00 -0.00000000000E+00 -0.89545538638E+03  0.89545538638E+03  0.00000000000E+00 0. -1.
          6    1    1    2  501    0 -0.23141629043E+02  0.35081723681E+02 -0.14054531988E+03  0.22682206522E+03  0.17300000000E+03 0. -1.
         -6    1    1    2    0  503  0.23141629043E+02 -0.35081723681E+02 -0.70063916966E+03  0.72290421799E+03  0.17300000000E+03 0. -1.
<mgrwt>
<rscale>  2 0.17803163E+03</rscale>
<asrwt>0</asrwt>
<pdfrwt beam="1">  1       21 0.83493692E-02 0.17803163E+03</pdfrwt>
<pdfrwt beam="2">  1       21 0.13776236E+00 0.17803163E+03</pdfrwt>
<totfact> 0.41894672E+04</totfact>
</mgrwt>
</event>
<event>
 4    1  0.4391134E+000  0.2768609E+03  0.7546771E-02  0.1097416E+00
         21   -1    0    0  501  502  0.00000000000E+00  0.00000000000E+00  0.81996530170E+03  0.81996530170E+03  0.00000000000E+00 0.  1.
         21   -1    0    0  502  503 -0.00000000000E+00 -0.00000000000E+00 -0.13610208641E+03  0.13610208641E+03  0.00000000000E+00 0.  1.
          6    1    1    2  501    0 -0.14645513989E+03  0.15897743225E+03  0.60943770178E+03  0.66937750508E+03  0.17300000000E+03 0.  1.
         -6    1    1    2    0  503  0.14645513989E+03 -0.15897743225E+03  0.74425513513E+02  0.28668988302E+03  0.17300000000E+03 0.  1.
<mgrwt>
<rscale>  2 0.27686085E+03</rscale>
<asrwt>0</asrwt>
<pdfrwt beam="1">  1       21 0.12614851E+00 0.27686085E+03</pdfrwt>
<pdfrwt beam="2">  1       21 0.20938783E-01 0.27686085E+03</pdfrwt>
<totfact> 0.93667686E+03</totfact>
</mgrwt>
</event>
<event>
 4    1  0.4391134E+000  0.1888574E+03  0.7546771E-02  0.1159496E+00
         21   -1    0    0  503  502  0.00000000000E+00  0.00000000000E+00  0.52972506515E+02  0.52972506515E+02  0.00000000000E+00 0. -1.
         21   -1    0    0  501  503 -0.00000000000E+00 -0.00000000000E+00 -0.68527900960E+03  0.68527900960E+03  0.00000000000E+00 0. -1.
          6    1    1    2  501    0 -0.39390528879E+02 -0.64703072116E+02 -0.36492935233E+03  0.41090209721E+03  0.17300000000E+03 0. -1.
         -6    1    1    2    0  502  0.39390528879E+02  0.64703072116E+02 -0.26737715076E+03  0.32734941890E+03  0.17300000000E+03 0. -1.
<mgrwt>
<rscale>  2 0.18885736E+03</rscale>
<asrwt>0</asrwt>
<pdfrwt beam="1">  1       21 0.81496161E-02 0.18885736E+03</pdfrwt>
<pdfrwt beam="2">  1       21 0.10542754E+00 0.18885736E+03</pdfrwt>
<totfact> 0.84206383E+04</totfact>
</mgrwt>
</event>
<event>
 4    1  0.4391134E+000  0.2536278E+03  0.7546771E-02  0.1111033E+00
         21   -1    0    0  501  502  0.00000000000E+00  0.00000000000E+00  0.18557489173E+04  0.18557489173E+04  0.00000000000E+00 0.  1.
         21   -1    0    0  502  503 -0.00000000000E+00 -0.00000000000E+00 -0.36101117922E+02  0.36101117922E+02  0.00000000000E+00 0. -1.
          6    1    1    2  501    0 -0.81465292898E+02 -0.16661768504E+03  0.10985770324E+04  0.11274744090E+04  0.17300000000E+03 0.  1.
         -6    1    1    2    0  503  0.81465292898E+02  0.16661768504E+03  0.72107076695E+03  0.76437562616E+03  0.17300000000E+03 0. -1.
<mgrwt>
<rscale>  2 0.25362777E+03</rscale>
<asrwt>0</asrwt>
<pdfrwt beam="1">  1       21 0.28549976E+00 0.25362777E+03</pdfrwt>
<pdfrwt beam="2">  1       21 0.55540196E-02 0.25362777E+03</pdfrwt>
<totfact> 0.87952236E+03</totfact>
</mgrwt>
</event>
<event>
 4    1  0.4391134E+000  0.2081806E+03  0.7546771E-02  0.1143015E+00
         21   -1    0    0  501  502  0.00000000000E+00  0.00000000000E+00  0.14169787681E+03  0.14169787681E+03  0.00000000000E+00 0.  1.
         21   -1    0    0  502  503 -0.00000000000E+00 -0.00000000000E+00 -0.12745684317E+04  0.12745684317E+04  0.00000000000E+00 0.  1.
          6    1    1    2  501    0  0.43089987720E+02  0.10748683309E+03  0.50913728886E+02  0.21431606127E+03  0.17300000000E+03 0.  1.
         -6    1    1    2    0  503 -0.43089987720E+02 -0.10748683309E+03 -0.11837842838E+04  0.12019502473E+04  0.17300000000E+03 0.  1.
<mgrwt>
<rscale>  2 0.20818061E+03</rscale>
<asrwt>0</asrwt>
<pdfrwt beam="1">  1       21 0.21799673E-01 0.20818061E+03</pdfrwt>
<pdfrwt beam="2">  1       21 0.19608746E+00 0.20818061E+03</pdfrwt>
<totfact> 0.27528735E+03</totfact>
</mgrwt>
</event>
<event>
 4    1  0.4391134E+000  0.1803515E+03  0.7546771E-02  0.1167463E+00
         21   -1    0    0  501  502  0.00000000000E+00  0.00000000000E+00  0.24603563312E+02  0.24603563312E+02  0.00000000000E+00 0.  1.
         21   -1    0    0  502  503 -0.00000000000E+00 -0.00000000000E+00 -0.15616293533E+04  0.15616293533E+04  0.00000000000E+00 0. -1.
          6    1    1    2  501    0 -0.47751343183E+02 -0.17818067678E+02 -0.45784965908E+03  0.49209042322E+03  0.17300000000E+03 0.  1.
         -6    1    1    2    0  503  0.47751343183E+02  0.17818067678E+02 -0.10791761309E+04  0.10941424934E+04  0.17300000000E+03 0. -1.
<mgrwt>
<rscale>  2 0.18035153E+03</rscale>
<asrwt>0</asrwt>
<pdfrwt beam="1">  1       21 0.37851638E-02 0.18035153E+03</pdfrwt>
<pdfrwt beam="2">  1       21 0.24025066E+00 0.18035153E+03</pdfrwt>
<totfact> 0.32959430E+04</totfact>
</mgrwt>
</event>
<event>
 4    1  0.4391134E+000  0.1739449E+03  0.7546771E-02  0.1173795E+00
         21   -1    0    0  503  502  0.00000000000E+00  0.00000000000E+00  0.45033739289E+03  0.45033739289E+03  0.00000000000E+00 0. -1.
         21   -1    0    0  501  503 -0.00000000000E+00 -0.00000000000E+00 -0.11158246430E+03  0.11158246430E+03  0.00000000000E+00 0. -1.
          6    1    1    2  501    0  0.15804534489E+01  0.18037310670E+02 -0.78436447878E+01  0.17412169644E+03  0.17300000000E+03 0. -1.
         -6    1    1    2    0  502 -0.15804534489E+01 -0.18037310670E+02  0.34659857338E+03  0.38779816075E+03  0.17300000000E+03 0. -1.
<mgrwt>
<rscale>  2 0.17394494E+03</rscale>
<asrwt>0</asrwt>
<pdfrwt beam="1">  1       21 0.69282675E-01 0.17394494E+03</pdfrwt>
<pdfrwt beam="2">  1       21 0.17166533E-01 0.17394494E+03</pdfrwt>
<totfact> 0.58585898E+04</totfact>
</mgrwt>
</event>
<event>
 4    1  0.4391134E+000  0.3421325E+03  0.7546771E-02  0.1065891E+00
         21   -1    0    0  503  502  0.00000000000E+00  0.00000000000E+00  0.23553750866E+03  0.23553750866E+03  0.00000000000E+00 0.  1.
         21   -1    0    0  501  503 -0.00000000000E+00 -0.00000000000E+00 -0.57101681611E+03  0.57101681611E+03  0.00000000000E+00 0. -1.
          6    1    1    2  501    0 -0.29313278336E+03 -0.34624279166E+02 -0.31296333203E+03  0.46368169749E+03  0.17300000000E+03 0.  1.
         -6    1    1    2    0  502  0.29313278336E+03  0.34624279166E+02 -0.22515975418E+02  0.34287262728E+03  0.17300000000E+03 0. -1.
<mgrwt>
<rscale>  2 0.34213253E+03</rscale>
<asrwt>0</asrwt>
<pdfrwt beam="1">  1       21 0.36236540E-01 0.34213253E+03</pdfrwt>
<pdfrwt beam="2">  1       21 0.87848741E-01 0.34213253E+03</pdfrwt>
<totfact> 0.75105359E+03</totfact>
</mgrwt>
</event>
<event>
 4    1  0.4391134E+000  0.2750895E+03  0.7546771E-02  0.1098402E+00
         21   -1    0    0  501  502  0.00000000000E+00  0.00000000000E+00  0.48444891676E+03  0.48444891676E+03  0.00000000000E+00 0.  1.
         21   -1    0    0  502  503 -0.00000000000E+00 -0.00000000000E+00 -0.15621763001E+03  0.15621763001E+03  0.00000000000E+00 0. -1.
          6    1    1    2  501    0 -0.16702844112E+03 -0.13359158473E+03  0.16144760561E+03  0.31896636345E+03  0.17300000000E+03 0. -1.
         -6    1    1    2    0  503  0.16702844112E+03  0.13359158473E+03  0.16678368113E+03  0.32170018332E+03  0.17300000000E+03 0.  1.
<mgrwt>
<rscale>  2 0.27508946E+03</rscale>
<asrwt>0</asrwt>
<pdfrwt beam="1">  1       21 0.74530602E-01 0.27508946E+03</pdfrwt>
<pdfrwt beam="2">  1       21 0.24033482E-01 0.27508946E+03</pdfrwt>
<totfact> 0.25266082E+04</totfact>
</mgrwt>
</event>
<event>
 4    1  0.4391134E+000  0.1861634E+03  0.7546771E-02  0.1161968E+00
         21   -1    0    0  503  502  0.00000000000E+00  0.00000000000E+00  0.73139196340E+03  0.73139196340E+03  0.00000000000E+00 0. -1.
         21   -1    0    0  501  503 -0.00000000000E+00 -0.00000000000E+00 -0.73449990405E+02  0.73449990405E+02  0.00000000000E+00 0. -1.
          6    1    1    2  501    0 -0.16740164499E+02 -0.66690153554E+02  0.89244629877E+02  0.20644954263E+03  0.17300000000E+03 0. -1.
         -6    1    1    2    0  502  0.16740164499E+02  0.66690153554E+02  0.56869734312E+03  0.59839241118E+03  0.17300000000E+03 0. -1.
<mgrwt>
<rscale>  2 0.18616340E+03</rscale>
<asrwt>0</asrwt>
<pdfrwt beam="1">  1       21 0.11252184E+00 0.18616340E+03</pdfrwt>
<pdfrwt beam="2">  1       21 0.11299999E-01 0.18616340E+03</pdfrwt>
<totfact> 0.40525236E+04</totfact>
</mgrwt>
</event>
<event>
 4    1  0.4391134E+000  0.1949842E+03  0.7546771E-02  0.1154041E+00
         21   -1    0    0  501  502  0.00000000000E+00  0.00000000000E+00  0.17161267588E+03  0.17161267588E+03  0.00000000000E+00 0. -1.
         21   -1    0    0  502  503 -0.00000000000E+00 -0.00000000000E+00 -0.33417723015E+03  0.33417723015E+03  0.00000000000E+00 0. -1.
          6    1    1    2  501    0  0.74769953764E+02  0.49992771722E+02  0.65541202734E+02  0.20570481877E+03  0.17300000000E+03 0. -1.
         -6    1    1    2    0  503 -0.74769953764E+02 -0.49992771722E+02 -0.22810575700E+03  0.30008508725E+03  0.17300000000E+03 0. -1.
<mgrwt>
<rscale>  2 0.19498416E+03</rscale>
<asrwt>0</asrwt>
<pdfrwt beam="1">  1       21 0.26401951E-01 0.19498416E+03</pdfrwt>
<pdfrwt beam="2">  1       21 0.51411881E-01 0.19498416E+03</pdfrwt>
<totfact> 0.48998012E+04</totfact>
</mgrwt>
</event>
<event>
 4    1  0.4391134E+000  0.2213077E+03  0.7546771E-02  0.1132912E+00
         21   -1    0    0  501  502  0.00000000000E+00  0.00000000000E+00  0.22945067210E+03  0.22945067210E+03  0.00000000000E+00 0. -1.
         21   -1    0    0  502  503 -0.00000000000E+00 -0.00000000000E+00 -0.35150674793E+03  0.35150674793E+03  0.00000000000E+00 0.  1.
          6    1    1    2  501    0 -0.11350782790E+03 -0.78511603631E+02  0.12101347927E+03  0.25223275177E+03  0.17300000000E+03 0. -1.
         -6    1    1    2    0  503  0.11350782790E+03  0.78511603631E+02 -0.24306955510E+03  0.32872466825E+03  0.17300000000E+03 0.  1.
<mgrwt>
<rscale>  2 0.22130770E+03</rscale>
<asrwt>0</asrwt>
<pdfrwt beam="1">  1       21 0.35300103E-01 0.22130770E+03</pdfrwt>
<pdfrwt beam="2">  1       21 0.54077961E-01 0.22130770E+03</pdfrwt>
<totfact> 0.24615219E+04</totfact>
</mgrwt>
</event>
<event>
 4    1  0.4391134E+000  0.1913052E+03  0.7546771E-02  0.1157289E+00
         21   -1    0    0  501  502  0.00000000000E+00  0.00000000000E+00  0.60866908601E+03  0.60866908601E+03  0.00000000000E+00 0.  1.
         21   -1    0    0  502  503 -0.00000000000E+00 -0.00000000000E+00 -0.61325589779E+03  0.61325589779E+03  0.00000000000E+00 0.  1.
          6    1    1    2  501    0 -0.80635015257E+02 -0.12909853413E+02  0.57794532154E+03  0.60878441561E+03  0.17300000000E+03 0.  1.
         -6    1    1    2    0  503  0.80635015257E+02  0.12909853413E+02 -0.58253213332E+03  0.61314056818E+03  0.17300000000E+03 0.  1.
<mgrwt>
<rscale>  2 0.19130518E+03</rscale>
<asrwt>0</asrwt>
<pdfrwt beam="1">  1       21 0.93641398E-01 0.19130518E+03</pdfrwt>
<pdfrwt beam="2">  1       21 0.94347061E-01 0.19130518E+03</pdfrwt>
<totfact> 0.90323252E+02</totfact>
</mgrwt>
</event>
<event>
 4    1  0.4391134E+000  0.2079427E+03  0.7546771E-02  0.1143206E+00
         21   -1    0    0  501  502  0.00000000000E+00  0.00000000000E+00  0.31428124615E+02  0.31428124615E+02  0.00000000000E+00 0. -1.
         21   -1    0    0  502  503 -0.00000000000E+00 -0.00000000000E+00 -0.16539241384E+04  0.16539241384E+04  0.00000000000E+00 0. -1.
          6    1    1    2  501    0 -0.92889594986E+02  0.68430321563E+02 -0.46571610012E+03  0.51003104972E+03  0.17300000000E+03 0. -1.
         -6    1    1    2    0  503  0.92889594986E+02 -0.68430321563E+02 -0.11567799136E+04  0.11753212133E+04  0.17300000000E+03 0. -1.
<mgrwt>
<rscale>  2 0.20794275E+03</rscale>
<asrwt>0</asrwt>
<pdfrwt beam="1">  1       21 0.48350956E-02 0.20794275E+03</pdfrwt>
<pdfrwt beam="2">  1       21 0.25444990E+00 0.20794275E+03</pdfrwt>
<totfact> 0.17588520E+04</totfact>
</mgrwt>
</event>
<event>
 4    1  0.4391134E+000  0.2577068E+03  0.7546771E-02  0.1108529E+00
         21   -1    0    0  501  502  0.00000000000E+00  0.00000000000E+00  0.44033732915E+03  0.44033732915E+03  0.00000000000E+00 0. -1.
         21   -1    0    0  502  503 -0.00000000000E+00 -0.00000000000E+00 -0.16947566557E+03  0.16947566557E+03  0.00000000000E+00 0. -1.
          6    1    1    2  501    0  0.19086245991E+03 -0.74371612468E+01  0.23658619877E+03  0.34983684685E+03  0.17300000000E+03 0. -1.
         -6    1    1    2    0  503 -0.19086245991E+03  0.74371612468E+01  0.34275464810E+02  0.25997614786E+03  0.17300000000E+03 0. -1.
<mgrwt>
<rscale>  2 0.25770679E+03</rscale>
<asrwt>0</asrwt>
<pdfrwt beam="1">  1       21 0.67744204E-01 0.25770679E+03</pdfrwt>
<pdfrwt beam="2">  1       21 0.26073180E-01 0.25770679E+03</pdfrwt>
<totfact> 0.26926488E+04</totfact>
</mgrwt>
</event>
<event>
 4    1  0.4391134E+000  0.2118885E+03  0.7546771E-02  0.1140079E+00
         21   -1    0    0  501  502  0.00000000000E+00  0.00000000000E+00  0.72570546827E+02  0.72570546827E+02  0.00000000000E+00 0. -1.
         21   -1    0    0  502  503 -0.00000000000E+00 -0.00000000000E+00 -0.61947815020E+03  0.61947815020E+03  0.00000000000E+00 0.  1.
          6    1    1    2  501    0  0.11762363219E+03  0.33651209542E+02 -0.26090293300E+03  0.33610573218E+03  0.17300000000E+03 0.  1.
         -6    1    1    2    0  503 -0.11762363219E+03 -0.33651209542E+02 -0.28600467037E+03  0.35594296485E+03  0.17300000000E+03 0.  1.
<mgrwt>
<rscale>  2 0.21188847E+03</rscale>
<asrwt>0</asrwt>
<pdfrwt beam="1">  1       21 0.11164700E-01 0.21188847E+03</pdfrwt>
<pdfrwt beam="2">  1       21 0.95304328E-01 0.21188847E+03</pdfrwt>
<totfact> 0.60803028E+04</totfact>
</mgrwt>
</event>
<event>
 4    1  0.4391134E+000  0.1772337E+03  0.7546771E-02  0.1170507E+00
         21   -1    0    0  503  502  0.00000000000E+00  0.00000000000E+00  0.22212745199E+03  0.22212745199E+03  0.00000000000E+00 0. -1.
         21   -1    0    0  501  503 -0.00000000000E+00 -0.00000000000E+00 -0.22661778170E+03  0.22661778170E+03  0.00000000000E+00 0. -1.
          6    1    1    2  501    0  0.34380082633E+02  0.17343537396E+02 -0.13982473199E+03  0.22574929468E+03  0.17300000000E+03 0. -1.
         -6    1    1    2    0  502 -0.34380082633E+02 -0.17343537396E+02  0.13533440228E+03  0.22299593900E+03  0.17300000000E+03 0. -1.
<mgrwt>
<rscale>  2 0.17723371E+03</rscale>
<asrwt>0</asrwt>
<pdfrwt beam="1">  1       21 0.34173454E-01 0.17723371E+03</pdfrwt>
<pdfrwt beam="2">  1       21 0.34864274E-01 0.17723371E+03</pdfrwt>
<totfact> 0.65873469E+04</totfact>
</mgrwt>
</event>
<event>
 4    1  0.4391134E+000  0.1994009E+03  0.7546771E-02  0.1150245E+00
         21   -1    0    0  503  502  0.00000000000E+00  0.00000000000E+00  0.32427309219E+02  0.32427309219E+02  0.00000000000E+00 0. -1.
         21   -1    0    0  501  503 -0.00000000000E+00 -0.00000000000E+00 -0.12417963277E+04  0.12417963277E+04  0.00000000000E+00 0. -1.
          6    1    1    2  501    0  0.15801091580E+02  0.97888013286E+02 -0.53316905170E+03  0.56923630887E+03  0.17300000000E+03 0. -1.
         -6    1    1    2    0  502 -0.15801091580E+02 -0.97888013286E+02 -0.67619996675E+03  0.70498732802E+03  0.17300000000E+03 0. -1.
<mgrwt>
<rscale>  2 0.19940095E+03</rscale>
<asrwt>0</asrwt>
<pdfrwt beam="1">  1       21 0.49888179E-02 0.19940095E+03</pdfrwt>
<pdfrwt beam="2">  1       21 0.19104555E+00 0.19940095E+03</pdfrwt>
<totfact> 0.41267860E+04</totfact>
</mgrwt>
</event>
<event>
 4    1  0.4391134E+000  0.1847913E+03  0.7546771E-02  0.1163245E+00
         21   -1    0    0  501  502  0.00000000000E+00  0.00000000000E+00  0.21864648750E+03  0.21864648750E+03  0.00000000000E+00 0. -1.
         21   -1    0    0  502  503 -0.00000000000E+00 -0.00000000000E+00 -0.27726183704E+03  0.27726183704E+03  0.00000000000E+00 0. -1.
          6    1    1    2  501    0 -0.39574047281E+02 -0.51504627827E+02  0.13455081345E+03  0.22858642415E+03  0.17300000000E+03 0. -1.
         -6    1    1    2    0  503  0.39574047281E+02  0.51504627827E+02 -0.19316616298E+03  0.26732190039E+03  0.17300000000E+03 0. -1.
<mgrwt>
<rscale>  2 0.18479132E+03</rscale>
<asrwt>0</asrwt>
<pdfrwt beam="1">  1       21 0.33637921E-01 0.18479132E+03</pdfrwt>
<pdfrwt beam="2">  1       21 0.42655667E-01 0.18479132E+03</pdfrwt>
<totfact> 0.45176316E+04</totfact>
</mgrwt>
</event>
<event>
 4    1  0.4391134E+000  0.2031235E+03  0.7546771E-02  0.1147130E+00
         21   -1    0    0  501  502  0.00000000000E+00  0.00000000000E+00  0.79314441234E+02  0.79314441234E+02  0.00000000000E+00 0. -1.
         21   -1    0    0  502  503 -0.00000000000E+00 -0.00000000000E+00 -0.53250394982E+03  0.53250394982E+03  0.00000000000E+00 0.  1.
          6    1    1    2  501    0 -0.14902431654E+01  0.10643272544E+03 -0.18008931236E+03  0.27146142690E+03  0.17300000000E+03 0.  1.
         -6    1    1    2    0  503  0.14902431654E+01 -0.10643272544E+03 -0.27310019623E+03  0.34035696416E+03  0.17300000000E+03 0.  1.
<mgrwt>
<rscale>  2 0.20312347E+03</rscale>
<asrwt>0</asrwt>
<pdfrwt beam="1">  1       21 0.12202222E-01 0.20312347E+03</pdfrwt>
<pdfrwt beam="2">  1       21 0.81923684E-01 0.20312347E+03</pdfrwt>
<totfact> 0.73872176E+04</totfact>
</mgrwt>
</event>
<event>
 4    1  0.4391134E+000  0.2410536E+03  0.7546771E-02  0.1119093E+00
         21   -1    0    0  503  502  0.00000000000E+00  0.00000000000E+00  0.97147874679E+03  0.97147874679E+03  0.00000000000E+00 0.  1.
         21   -1    0    0  501  503 -0.00000000000E+00 -0.00000000000E+00 -0.59819764339E+02  0.59819764339E+02  0.00000000000E+00 0.  1.
          6    1    1    2  501    0  0.89357432794E+02  0.14210240450E+03  0.46140144346E+03  0.52057481325E+03  0.17300000000E+03 0.  1.
         -6    1    1    2    0  502 -0.89357432794E+02 -0.14210240450E+03  0.45025753898E+03  0.51072369788E+03  0.17300000000E+03 0.  1.
<mgrwt>
<rscale>  2 0.24105361E+03</rscale>
<asrwt>0</asrwt>
<pdfrwt beam="1">  1       21 0.14945826E+00 0.24105361E+03</pdfrwt>
<pdfrwt beam="2">  1       21 0.92030414E-02 0.24105361E+03</pdfrwt>
<totfact> 0.27547191E+04</totfact>
</mgrwt>
</event>
<event>
 4    1  0.4391134E+000  0.2443696E+03  0.7546771E-02  0.1116916E+00
         21   -1    0    0  503  502  0.00000000000E+00  0.00000000000E+00  0.20799977905E+03  0.20799977905E+03  0.00000000000E+00 0. -1.
         21   -1    0    0  501  503 -0.00000000000E+00 -0.00000000000E+00 -0.30358469780E+03  0.30358469780E+03  0.00000000000E+00 0.  1.
          6    1    1    2  501    0 -0.13276907997E+03 -0.11027183573E+03  0.11815258911E+02  0.24465507699E+03  0.17300000000E+03 0.  1.
         -6    1    1    2    0  502  0.13276907997E+03  0.11027183573E+03 -0.10740017766E+03  0.26692939987E+03  0.17300000000E+03 0. -1.
<mgrwt>
<rscale>  2 0.24436961E+03</rscale>
<asrwt>0</asrwt>
<pdfrwt beam="1">  1       21 0.31999966E-01 0.24436961E+03</pdfrwt>
<pdfrwt beam="2">  1       21 0.46705338E-01 0.24436961E+03</pdfrwt>
<totfact> 0.40227701E+04</totfact>
</mgrwt>
</event>
<event>
 4    1  0.4391134E+000  0.2575480E+03  0.7546771E-02  0.1108625E+00
         21   -1    0    0  503  502  0.00000000000E+00  0.00000000000E+00  0.12408262792E+03  0.12408262792E+03  0.00000000000E+00 0.  1.
         21   -1    0    0  501  503 -0.00000000000E+00 -0.00000000000E+00 -0.80817239380E+03  0.80817239380E+03  0.00000000000E+00 0.  1.
          6    1    1    2  501    0  0.13688040205E+03  0.13291242411E+03 -0.61325881490E+03  0.66514459406E+03  0.17300000000E+03 0.  1.
         -6    1    1    2    0  502 -0.13688040205E+03 -0.13291242411E+03 -0.70830950979E+02  0.26711042766E+03  0.17300000000E+03 0.  1.
<mgrwt>
<rscale>  2 0.25754797E+03</rscale>
<asrwt>0</asrwt>
<pdfrwt beam="1">  1       21 0.19089635E-01 0.25754797E+03</pdfrwt>
<pdfrwt beam="2">  1       21 0.12433422E+00 0.25754797E+03</pdfrwt>
<totfact> 0.11684506E+04</totfact>
</mgrwt>
</event>
<event>
 4    1  0.4391134E+000  0.4650585E+03  0.7546771E-02  0.1023324E+00
         21   -1    0    0  501  502  0.00000000000E+00  0.00000000000E+00  0.14457218425E+04  0.14457218425E+04  0.00000000000E+00 0. -1.
         21   -1    0    0  502  503 -0.00000000000E+00 -0.00000000000E+00 -0.14990633198E+03  0.14990633198E+03  0.00000000000E+00 0.  1.
          6    1    1    2  501    0  0.42088011796E+03 -0.95970618200E+02  0.61182002804E+03  0.76850711120E+03  0.17300000000E+03 0. -1.
         -6    1    1    2    0  503 -0.42088011796E+03  0.95970618200E+02  0.68399548245E+03  0.82712106325E+03  0.17300000000E+03 0.  1.
<mgrwt>
<rscale>  2 0.46505853E+03</rscale>
<asrwt>0</asrwt>
<pdfrwt beam="1">  1       21 0.22241874E+00 0.46505853E+03</pdfrwt>
<pdfrwt beam="2">  1       21 0.23062514E-01 0.46505853E+03</pdfrwt>
<totfact> 0.14229145E+03</totfact>
</mgrwt>
</event>
<event>
 4    1  0.4391134E+000  0.1994819E+03  0.7546771E-02  0.1150177E+00
         21   -1    0    0  501  502  0.00000000000E+00  0.00000000000E+00  0.46436766809E+02  0.46436766809E+02  0.00000000000E+00 0.  1.
         21   -1    0    0  502  503 -0.00000000000E+00 -0.00000000000E+00 -0.90350368352E+03  0.90350368352E+03  0.00000000000E+00 0. -1.
          6    1    1    2  501    0 -0.91366205432E+02  0.38938862216E+02 -0.53637243090E+03  0.57226602478E+03  0.17300000000E+03 0.  1.
         -6    1    1    2    0  503  0.91366205432E+02 -0.38938862216E+02 -0.32069448581E+03  0.37767442555E+03  0.17300000000E+03 0.  1.
<mgrwt>
<rscale>  2 0.19948188E+03</rscale>
<asrwt>0</asrwt>
<pdfrwt beam="1">  1       21 0.71441178E-02 0.19948188E+03</pdfrwt>
<pdfrwt beam="2">  1       21 0.13900057E+00 0.19948188E+03</pdfrwt>
<totfact> 0.53031241E+04</totfact>
</mgrwt>
</event>
<event>
 4    1  0.4391134E+000  0.2187091E+03  0.7546771E-02  0.1134849E+00
         21   -1    0    0  501  502  0.00000000000E+00  0.00000000000E+00  0.28662175637E+03  0.28662175637E+03  0.00000000000E+00 0. -1.
         21   -1    0    0  502  503 -0.00000000000E+00 -0.00000000000E+00 -0.20594016526E+03  0.20594016526E+03  0.00000000000E+00 0.  1.
          6    1    1    2  501    0 -0.17003223019E+02  0.13272364134E+03  0.14758750550E+03  0.26384796066E+03  0.17300000000E+03 0. -1.
         -6    1    1    2    0  503  0.17003223019E+02 -0.13272364134E+03 -0.66905914380E+02  0.22871396097E+03  0.17300000000E+03 0.  1.
<mgrwt>
<rscale>  2 0.21870911E+03</rscale>
<asrwt>0</asrwt>
<pdfrwt beam="1">  1       21 0.44095655E-01 0.21870911E+03</pdfrwt>
<pdfrwt beam="2">  1       21 0.31683102E-01 0.21870911E+03</pdfrwt>
<totfact> 0.46722471E+04</totfact>
</mgrwt>
</event>
<event>
 4    1  0.4391134E+000  0.2432402E+03  0.7546771E-02  0.1117653E+00
         21   -1    0    0  503  502  0.00000000000E+00  0.00000000000E+00  0.22439381167E+03  0.22439381167E+03  0.00000000000E+00 0.  1.
         21   -1    0    0  501  503 -0.00000000000E+00 -0.00000000000E+00 -0.42567842339E+03  0.42567842339E+03  0.00000000000E+00 0.  1.
          6    1    1    2  501    0 -0.16314654833E+03 -0.51185753397E+02 -0.30116356806E+03  0.38712436284E+03  0.17300000000E+03 0.  1.
         -6    1    1    2    0  502  0.16314654833E+03  0.51185753397E+02  0.99878956340E+02  0.26294787221E+03  0.17300000000E+03 0.  1.
<mgrwt>
<rscale>  2 0.24324016E+03</rscale>
<asrwt>0</asrwt>
<pdfrwt beam="1">  1       21 0.34522125E-01 0.24324016E+03</pdfrwt>
<pdfrwt beam="2">  1       21 0.65488987E-01 0.24324016E+03</pdfrwt>
<totfact> 0.16842948E+04</totfact>
</mgrwt>
</event>
<event>
 4    1  0.4391134E+000  0.2130854E+03  0.7546771E-02  0.1139146E+00
         21   -1    0    0  501  502  0.00000000000E+00  0.00000000000E+00  0.42407197203E+02  0.42407197203E+02  0.00000000000E+00 0. -1.
         21   -1    0    0  502  503 -0.00000000000E+00 -0.00000000000E+00 -0.15779723529E+04  0.15779723529E+04  0.00000000000E+00 0. -1.
          6    1    1    2  501    0  0.27760368919E+02  0.12126720571E+03 -0.30841769807E+03  0.37486911015E+03  0.17300000000E+03 0. -1.
         -6    1    1    2    0  503 -0.27760368919E+02 -0.12126720571E+03 -0.12271474577E+04  0.12455104400E+04  0.17300000000E+03 0. -1.
<mgrwt>
<rscale>  2 0.21308537E+03</rscale>
<asrwt>0</asrwt>
<pdfrwt beam="1">  1       21 0.65241848E-02 0.21308537E+03</pdfrwt>
<pdfrwt beam="2">  1       21 0.24276495E+00 0.21308537E+03</pdfrwt>
<totfact> 0.12304617E+04</totfact>
</mgrwt>
</event>
<event>
 4    1  0.4391134E+000  0.1877853E+03  0.7546771E-02  0.1160474E+00
         21   -1    0    0  501  502  0.00000000000E+00  0.00000000000E+00  0.41310426151E+03  0.41310426151E+03  0.00000000000E+00 0. -1.
         21   -1    0    0  502  503 -0.00000000000E+00 -0.00000000000E+00 -0.10311281679E+03  0.10311281679E+03  0.00000000000E+00 0. -1.
          6    1    1    2  501    0 -0.47118674184E+02  0.55804557490E+02  0.26208791743E+03  0.32241804316E+03  0.17300000000E+03 0. -1.
         -6    1    1    2    0  503  0.47118674184E+02 -0.55804557490E+02  0.47903527300E+02  0.19379903514E+03  0.17300000000E+03 0. -1.
<mgrwt>
<rscale>  2 0.18778530E+03</rscale>
<asrwt>0</asrwt>
<pdfrwt beam="1">  1       21 0.63554501E-01 0.18778530E+03</pdfrwt>
<pdfrwt beam="2">  1       21 0.15863510E-01 0.18778530E+03</pdfrwt>
<totfact> 0.81222866E+04</totfact>
</mgrwt>
</event>
<event>
 4    1  0.4391134E+000  0.1920656E+03  0.7546771E-02  0.1156611E+00
         21   -1    0    0  501  502  0.00000000000E+00  0.00000000000E+00  0.28481052342E+03  0.28481052342E+03  0.00000000000E+00 0.  1.
         21   -1    0    0  502  503 -0.00000000000E+00 -0.00000000000E+00 -0.18449105522E+03  0.18449105522E+03  0.00000000000E+00 0. -1.
          6    1    1    2  501    0  0.82448822811E+02  0.12742897920E+02  0.17824348469E+03  0.26203039836E+03  0.17300000000E+03 0.  1.
         -6    1    1    2    0  503 -0.82448822811E+02 -0.12742897920E+02 -0.77924016491E+02  0.20727118028E+03  0.17300000000E+03 0. -1.
<mgrwt>
<rscale>  2 0.19206559E+03</rscale>
<asrwt>0</asrwt>
<pdfrwt beam="1">  1       21 0.43817003E-01 0.19206559E+03</pdfrwt>
<pdfrwt beam="2">  1       21 0.28383239E-01 0.19206559E+03</pdfrwt>
<totfact> 0.59409293E+04</totfact>
</mgrwt>
</event>
<event>
 4    1  0.4391134E+000  0.1840166E+03  0.7546771E-02  0.1163971E+00
         21   -1    0    0  503  502  0.00000000000E+00  0.00000000000E+00  0.21209124488E+03  0.21209124488E+03  0.00000000000E+00 0. -1.
         21   -1    0    0  501  503 -0.00000000000E+00 -0.00000000000E+00 -0.16258940080E+03  0.16258940080E+03  0.00000000000E+00 0. -1.
          6    1    1    2  501    0  0.62214004728E+02  0.79069543695E+01 -0.40321135673E+00  0.18401702337E+03  0.17300000000E+03 0. -1.
         -6    1    1    2    0  502 -0.62214004728E+02 -0.79069543695E+01  0.49905055441E+02  0.19066362230E+03  0.17300000000E+03 0. -1.
<mgrwt>
<rscale>  2 0.18401658E+03</rscale>
<asrwt>0</asrwt>
<pdfrwt beam="1">  1       21 0.32629422E-01 0.18401658E+03</pdfrwt>
<pdfrwt beam="2">  1       21 0.25013754E-01 0.18401658E+03</pdfrwt>
<totfact> 0.13716644E+05</totfact>
</mgrwt>
</event>
<event>
 4    1  0.4391134E+000  0.2236370E+03  0.7546771E-02  0.1131200E+00
         21   -1    0    0  501  502  0.00000000000E+00  0.00000000000E+00  0.16930539494E+03  0.16930539494E+03  0.00000000000E+00 0.  1.
         21   -1    0    0  502  503 -0.00000000000E+00 -0.00000000000E+00 -0.29540430521E+03  0.29540430521E+03  0.00000000000E+00 0. -1.
          6    1    1    2  501    0 -0.78123035407E+02 -0.11824260816E+03 -0.63194597269E+02  0.23239423437E+03  0.17300000000E+03 0.  1.
         -6    1    1    2    0  503  0.78123035407E+02  0.11824260816E+03 -0.62904313003E+02  0.23231546578E+03  0.17300000000E+03 0.  1.
<mgrwt>
<rscale>  2 0.22363703E+03</rscale>
<asrwt>0</asrwt>
<pdfrwt beam="1">  1       21 0.26046984E-01 0.22363703E+03</pdfrwt>
<pdfrwt beam="2">  1       21 0.45446816E-01 0.22363703E+03</pdfrwt>
<totfact> 0.64140099E+04</totfact>
</mgrwt>
</event>
<event>
 4    1  0.4391134E+000  0.2373312E+03  0.7546771E-02  0.1121584E+00
         21   -1    0    0  503  502  0.00000000000E+00  0.00000000000E+00  0.11998161067E+04  0.11998161067E+04  0.00000000000E+00 0. -1.
         21   -1    0    0  501  503 -0.00000000000E+00 -0.00000000000E+00 -0.46948488391E+02  0.46948488391E+02  0.00000000000E+00 0.  1.
          6    1    1    2  501    0  0.16073555664E+03  0.23689307113E+02  0.58131249702E+03  0.62789355915E+03  0.17300000000E+03 0. -1.
         -6    1    1    2    0  502 -0.16073555664E+03 -0.23689307113E+02  0.57155512127E+03  0.61887103591E+03  0.17300000000E+03 0.  1.
<mgrwt>
<rscale>  2 0.23733121E+03</rscale>
<asrwt>0</asrwt>
<pdfrwt beam="1">  1       21 0.18458707E+00 0.23733121E+03</pdfrwt>
<pdfrwt beam="2">  1       21 0.72228453E-02 0.23733121E+03</pdfrwt>
<totfact> 0.23568872E+04</totfact>
</mgrwt>
</event>
<event>
 4    1  0.4391134E+000  0.2108288E+03  0.7546771E-02  0.1140911E+00
         21   -1    0    0  501  502  0.00000000000E+00  0.00000000000E+00  0.53109362579E+03  0.53109362579E+03  0.00000000000E+00 0.  1.
         21   -1    0    0  502  503 -0.00000000000E+00 -0.00000000000E+00 -0.12117539903E+03  0.12117539903E+03  0.00000000000E+00 0.  1.
          6    1    1    2  501    0 -0.10983930760E+03 -0.49548974748E+02  0.38634508876E+03  0.44012646137E+03  0.17300000000E+03 0.  1.
         -6    1    1    2    0  503  0.10983930760E+03  0.49548974748E+02  0.23573138000E+02  0.21214256345E+03  0.17300000000E+03 0.  1.
<mgrwt>
<rscale>  2 0.21082878E+03</rscale>
<asrwt>0</asrwt>
<pdfrwt beam="1">  1       21 0.81706710E-01 0.21082878E+03</pdfrwt>
<pdfrwt beam="2">  1       21 0.18642369E-01 0.21082878E+03</pdfrwt>
<totfact> 0.34160634E+04</totfact>
</mgrwt>
</event>
<event>
 4    1  0.4391134E+000  0.2382226E+03  0.7546771E-02  0.1120983E+00
         21   -1    0    0  503  502  0.00000000000E+00  0.00000000000E+00  0.36907173986E+03  0.36907173986E+03  0.00000000000E+00 0. -1.
         21   -1    0    0  501  503 -0.00000000000E+00 -0.00000000000E+00 -0.32842550157E+03  0.32842550157E+03  0.00000000000E+00 0. -1.
          6    1    1    2  501    0  0.16295845797E+03 -0.16295793545E+02 -0.23400386353E+03  0.33392786655E+03  0.17300000000E+03 0. -1.
         -6    1    1    2    0  502 -0.16295845797E+03  0.16295793545E+02  0.27465010183E+03  0.36356937488E+03  0.17300000000E+03 0. -1.
<mgrwt>
<rscale>  2 0.23822261E+03</rscale>
<asrwt>0</asrwt>
<pdfrwt beam="1">  1       21 0.56780267E-01 0.23822261E+03</pdfrwt>
<pdfrwt beam="2">  1       21 0.50527001E-01 0.23822261E+03</pdfrwt>
<totfact> 0.10559242E+04</totfact>
</mgrwt>
</event>
<event>
 4    1  0.4391134E+000  0.1992908E+03  0.7546771E-02  0.1150339E+00
         21   -1    0    0  503  502  0.00000000000E+00  0.00000000000E+00  0.28235838044E+04  0.28235838044E+04  0.00000000000E+00 0.  1.
         21   -1    0    0  501  503 -0.00000000000E+00 -0.00000000000E+00 -0.18215920000E+02  0.18215920000E+02  0.00000000000E+00 0.  1.
          6    1    1    2  501    0 -0.98881596856E+02 -0.32047662069E+01  0.72449294987E+03  0.75140327065E+03  0.17300000000E+03 0.  1.
         -6    1    1    2    0  502  0.98881596856E+02  0.32047662069E+01  0.20808749345E+04  0.20903964537E+04  0.17300000000E+03 0.  1.
<mgrwt>
<rscale>  2 0.19929084E+03</rscale>
<asrwt>0</asrwt>
<pdfrwt beam="1">  1       21 0.43439716E+00 0.19929084E+03</pdfrwt>
<pdfrwt beam="2">  1       21 0.28024515E-02 0.19929084E+03</pdfrwt>
<totfact> 0.36947901E+03</totfact>
</mgrwt>
</event>
<event>
 4    1  0.4391134E+000  0.2074034E+03  0.7546771E-02  0.1143639E+00
         21   -1    0    0  503  502  0.00000000000E+00  0.00000000000E+00  0.26834775421E+02  0.26834775421E+02  0.00000000000E+00 0. -1.
         21   -1    0    0  501  503 -0.00000000000E+00 -0.00000000000E+00 -0.21716829917E+04  0.21716829917E+04  0.00000000000E+00 0. -1.
          6    1    1    2  501    0 -0.10053845996E+03 -0.54581846024E+02 -0.16349424365E+04  0.16480451846E+04  0.17300000000E+03 0.  1.
         -6    1    1    2    0  502  0.10053845996E+03  0.54581846024E+02 -0.50990577980E+03  0.55047258253E+03  0.17300000000E+03 0.  1.
<mgrwt>
<rscale>  2 0.20740337E+03</rscale>
<asrwt>0</asrwt>
<pdfrwt beam="1">  1       21 0.41284275E-02 0.20740337E+03</pdfrwt>
<pdfrwt beam="2">  1       21 0.33410503E+00 0.20740337E+03</pdfrwt>
<totfact> 0.79195226E+03</totfact>
</mgrwt>
</event>
<event>
 4    1  0.4391134E+000  0.1804673E+03  0.7546771E-02  0.1167352E+00
         21   -1    0    0  503  502  0.00000000000E+00  0.00000000000E+00  0.46262399514E+03  0.46262399514E+03  0.00000000000E+00 0. -1.
         21   -1    0    0  501  503 -0.00000000000E+00 -0.00000000000E+00 -0.17035865729E+03  0.17035865729E+03  0.00000000000E+00 0. -1.
          6    1    1    2  501    0  0.41233305441E+02  0.30647355792E+02 -0.96300057410E+02  0.20455353077E+03  0.17300000000E+03 0. -1.
         -6    1    1    2    0  502 -0.41233305441E+02 -0.30647355792E+02  0.38856539526E+03  0.42842912166E+03  0.17300000000E+03 0. -1.
<mgrwt>
<rscale>  2 0.18046730E+03</rscale>
<asrwt>0</asrwt>
<pdfrwt beam="1">  1       21 0.71172922E-01 0.18046730E+03</pdfrwt>
<pdfrwt beam="2">  1       21 0.26209024E-01 0.18046730E+03</pdfrwt>
<totfact> 0.24889062E+04</totfact>
</mgrwt>
</event>
<event>
 4    1  0.4391134E+000  0.2400658E+03  0.7546771E-02  0.1119749E+00
         21   -1    0    0  503  502  0.00000000000E+00  0.00000000000E+00  0.13590589289E+04  0.13590589289E+04  0.00000000000E+00 0. -1.
         21   -1    0    0  501  503 -0.00000000000E+00 -0.00000000000E+00 -0.10577430912E+03  0.10577430912E+03  0.00000000000E+00 0.  1.
          6    1    1    2  501    0  0.64397500539E+02  0.15347812252E+03  0.59743079503E+02  0.24738797003E+03  0.17300000000E+03 0.  1.
         -6    1    1    2    0  502 -0.64397500539E+02 -0.15347812252E+03  0.11935415403E+04  0.12174452680E+04  0.17300000000E+03 0. -1.
<mgrwt>
<rscale>  2 0.24006577E+03</rscale>
<asrwt>0</asrwt>
<pdfrwt beam="1">  1       21 0.20908598E+00 0.24006577E+03</pdfrwt>
<pdfrwt beam="2">  1       21 0.16272972E-01 0.24006577E+03</pdfrwt>
<totfact> 0.38098082E+03</totfact>
</mgrwt>
</event>
<event>
 4    1  0.4391134E+000  0.2137137E+03  0.7546771E-02  0.1138658E+00
         21   -1    0    0  501  502  0.00000000000E+00  0.00000000000E+00  0.47778125785E+03  0.47778125785E+03  0.00000000000E+00 0.  1.
         21   -1    0    0  502  503 -0.00000000000E+00 -0.00000000000E+00 -0.18154709768E+03  0.18154709768E+03  0.00000000000E+00 0.  1.
          6    1    1    2  501    0  0.11934558359E+03 -0.38745180096E+02  0.37494945324E+03  0.43157925088E+03  0.17300000000E+03 0.  1.
         -6    1    1    2    0  503 -0.11934558359E+03  0.38745180096E+02 -0.78715293069E+02  0.22774910464E+03  0.17300000000E+03 0.  1.
<mgrwt>
<rscale>  2 0.21371373E+03</rscale>
<asrwt>0</asrwt>
<pdfrwt beam="1">  1       21 0.73504808E-01 0.21371373E+03</pdfrwt>
<pdfrwt beam="2">  1       21 0.27930323E-01 0.21371373E+03</pdfrwt>
<totfact> 0.20104382E+04</totfact>
</mgrwt>
</event>
<event>
 4    1  0.4391134E+000  0.1871172E+03  0.7546771E-02  0.1161087E+00
         21   -1    0    0  503  502  0.00000000000E+00  0.00000000000E+00  0.27051687153E+03  0.27051687153E+03  0.00000000000E+00 0. -1.
         21   -1    0    0  501  503 -0.00000000000E+00 -0.00000000000E+00 -0.13738563883E+03  0.13738563883E+03  0.00000000000E+00 0. -1.
          6    1    1    2  501    0  0.71288286169E+02 -0.13486448286E+01  0.17485069173E+02  0.18793234483E+03  0.17300000000E+03 0. -1.
         -6    1    1    2    0  502 -0.71288286169E+02  0.13486448286E+01  0.11564616352E+03  0.21997016553E+03  0.17300000000E+03 0. -1.
<mgrwt>
<rscale>  2 0.18711718E+03</rscale>
<asrwt>0</asrwt>
<pdfrwt beam="1">  1       21 0.41617980E-01 0.18711718E+03</pdfrwt>
<pdfrwt beam="2">  1       21 0.21136252E-01 0.18711718E+03</pdfrwt>
<totfact> 0.11592264E+05</totfact>
</mgrwt>
</event>
<event>
 4    1  0.4391134E+000  0.1864805E+03  0.7546771E-02  0.1161675E+00
         21   -1    0    0  501  502  0.00000000000E+00  0.00000000000E+00  0.20509744049E+03  0.20509744049E+03  0.00000000000E+00 0.  1.
         21   -1    0    0  502  503 -0.00000000000E+00 -0.00000000000E+00 -0.20496225594E+03  0.20496225594E+03  0.00000000000E+00 0.  1.
          6    1    1    2  501    0  0.66954042388E+02  0.19056390421E+02  0.85286399295E+02  0.20505794233E+03  0.17300000000E+03 0.  1.
         -6    1    1    2    0  503 -0.66954042388E+02 -0.19056390421E+02 -0.85151214746E+02  0.20500175409E+03  0.17300000000E+03 0.  1.
<mgrwt>
<rscale>  2 0.18648053E+03</rscale>
<asrwt>0</asrwt>
<pdfrwt beam="1">  1       21 0.31553452E-01 0.18648053E+03</pdfrwt>
<pdfrwt beam="2">  1       21 0.31532655E-01 0.18648053E+03</pdfrwt>
<totfact> 0.93557487E+04</totfact>
</mgrwt>
</event>
<event>
 4    1  0.4391134E+000  0.2015852E+03  0.7546771E-02  0.1148408E+00
         21   -1    0    0  503  502  0.00000000000E+00  0.00000000000E+00  0.51029538492E+03  0.51029538492E+03  0.00000000000E+00 0.  1.
         21   -1    0    0  501  503 -0.00000000000E+00 -0.00000000000E+00 -0.88924323188E+02  0.88924323188E+02  0.00000000000E+00 0. -1.
          6    1    1    2  501    0 -0.76300526136E+02 -0.69898703954E+02  0.11384140296E+03  0.23150910162E+03  0.17300000000E+03 0. -1.
         -6    1    1    2    0  502  0.76300526136E+02  0.69898703954E+02  0.30752965877E+03  0.36771060649E+03  0.17300000000E+03 0. -1.
<mgrwt>
<rscale>  2 0.20158522E+03</rscale>
<asrwt>0</asrwt>
<pdfrwt beam="1">  1       21 0.78506980E-01 0.20158522E+03</pdfrwt>
<pdfrwt beam="2">  1       21 0.13680665E-01 0.20158522E+03</pdfrwt>
<totfact> 0.66253014E+04</totfact>
</mgrwt>
</event>
<event>
 4    1  0.4391134E+000  0.1935920E+03  0.7546771E-02  0.1155261E+00
         21   -1    0    0  501  502  0.00000000000E+00  0.00000000000E+00  0.38665601869E+03  0.38665601869E+03  0.00000000000E+00 0.  1.
         21   -1    0    0  502  503 -0.00000000000E+00 -0.00000000000E+00 -0.10433433185E+03  0.10433433185E+03  0.00000000000E+00 0.  1.
          6    1    1    2  501    0  0.26798570316E+02 -0.82648041969E+02  0.20656807942E+03  0.28310463375E+03  0.17300000000E+03 0.  1.
         -6    1    1    2    0  503 -0.26798570316E+02  0.82648041969E+02  0.75753607411E+02  0.20788571680E+03  0.17300000000E+03 0.  1.
<mgrwt>
<rscale>  2 0.19359200E+03</rscale>
<asrwt>0</asrwt>
<pdfrwt beam="1">  1       21 0.59485541E-01 0.19359200E+03</pdfrwt>
<pdfrwt beam="2">  1       21 0.16051436E-01 0.19359200E+03</pdfrwt>
<totfact> 0.91466604E+04</totfact>
</mgrwt>
</event>
<event>
 4    1  0.4391134E+000  0.3097846E+03  0.7546771E-02  0.1080449E+00
         21   -1    0    0  503  502  0.00000000000E+00  0.00000000000E+00  0.31680150423E+03  0.31680150423E+03  0.00000000000E+00 0.  1.
         21   -1    0    0  501  503 -0.00000000000E+00 -0.00000000000E+00 -0.60772507334E+03  0.60772507334E+03  0.00000000000E+00 0. -1.
          6    1    1    2  501    0 -0.54276743615E+02  0.25118031133E+03 -0.47283615008E+03  0.56527916866E+03  0.17300000000E+03 0. -1.
         -6    1    1    2    0  502  0.54276743615E+02 -0.25118031133E+03  0.18191258096E+03  0.35924740891E+03  0.17300000000E+03 0.  1.
<mgrwt>
<rscale>  2 0.30978462E+03</rscale>
<asrwt>0</asrwt>
<pdfrwt beam="1">  1       21 0.48738693E-01 0.30978462E+03</pdfrwt>
<pdfrwt beam="2">  1       21 0.93496165E-01 0.30978462E+03</pdfrwt>
<totfact> 0.35762054E+03</totfact>
</mgrwt>
</event>
<event>
 4    1  0.4391134E+000  0.2476701E+03  0.7546771E-02  0.1114786E+00
         21   -1    0    0  501  502  0.00000000000E+00  0.00000000000E+00  0.24408443971E+03  0.24408443971E+03  0.00000000000E+00 0. -1.
         21   -1    0    0  502  503 -0.00000000000E+00 -0.00000000000E+00 -0.25233395559E+03  0.25233395559E+03  0.00000000000E+00 0. -1.
          6    1    1    2  501    0 -0.98059744397E+02  0.14763393664E+03  0.11698281973E+02  0.24794624926E+03  0.17300000000E+03 0. -1.
         -6    1    1    2    0  503  0.98059744397E+02 -0.14763393664E+03 -0.19947797847E+02  0.24847214604E+03  0.17300000000E+03 0. -1.
<mgrwt>
<rscale>  2 0.24767013E+03</rscale>
<asrwt>0</asrwt>
<pdfrwt beam="1">  1       21 0.37551452E-01 0.24767013E+03</pdfrwt>
<pdfrwt beam="2">  1       21 0.38820609E-01 0.24767013E+03</pdfrwt>
<totfact> 0.42658325E+04</totfact>
</mgrwt>
</event>
<event>
 4    1  0.4391134E+000  0.2763309E+03  0.7546771E-02  0.1097710E+00
         21   -1    0    0  503  502  0.00000000000E+00  0.00000000000E+00  0.45748541506E+03  0.45748541506E+03  0.00000000000E+00 0.  1.
         21   -1    0    0  501  503 -0.00000000000E+00 -0.00000000000E+00 -0.22834572898E+03  0.22834572898E+03  0.00000000000E+00 0. -1.
          6    1    1    2  501    0  0.19471469321E+03  0.92282005573E+02 -0.63299917753E+02  0.28348837700E+03  0.17300000000E+03 0. -1.
         -6    1    1    2    0  502 -0.19471469321E+03 -0.92282005573E+02  0.29243960383E+03  0.40234276704E+03  0.17300000000E+03 0.  1.
<mgrwt>
<rscale>  2 0.27633093E+03</rscale>
<asrwt>0</asrwt>
<pdfrwt beam="1">  1       21 0.70382372E-01 0.27633093E+03</pdfrwt>
<pdfrwt beam="2">  1       21 0.35130112E-01 0.27633093E+03</pdfrwt>
<totfact> 0.13647572E+04</totfact>
</mgrwt>
</event>
<event>
 4    1  0.4391134E+000  0.2147374E+03  0.7546771E-02  0.1137868E+00
         21   -1    0    0  503  502  0.00000000000E+00  0.00000000000E+00  0.27678616314E+03  0.27678616314E+03  0.00000000000E+00 0. -1.
         21   -1    0    0  501  503 -0.00000000000E+00 -0.00000000000E+00 -0.16946591712E+03  0.16946591712E+03  0.00000000000E+00 0. -1.
          6    1    1    2  501    0 -0.55573424767E+02  0.11443236004E+03  0.82683738503E+02  0.23010599987E+03  0.17300000000E+03 0. -1.
         -6    1    1    2    0  502  0.55573424767E+02 -0.11443236004E+03  0.24636507523E+02  0.21614608039E+03  0.17300000000E+03 0. -1.
<mgrwt>
<rscale>  2 0.21473745E+03</rscale>
<asrwt>0</asrwt>
<pdfrwt beam="1">  1       21 0.42582487E-01 0.21473745E+03</pdfrwt>
<pdfrwt beam="2">  1       21 0.26071680E-01 0.21473745E+03</pdfrwt>
<totfact> 0.73452025E+04</totfact>
</mgrwt>
</event>
<event>
 4    1  0.4391134E+000  0.1828578E+03  0.7546771E-02  0.1165066E+00
         21   -1    0    0  501  502  0.00000000000E+00  0.00000000000E+00  0.71533729908E+03  0.71533729908E+03  0.00000000000E+00 0.  1.
         21   -1    0    0  502  503 -0.00000000000E+00 -0.00000000000E+00 -0.79774131830E+02  0.79774131830E+02  0.00000000000E+00 0. -1.
          6    1    1    2  501    0  0.44038617888E+02 -0.39605075956E+02  0.57359842978E+03  0.60203996591E+03  0.17300000000E+03 0.  1.
         -6    1    1    2    0  503 -0.44038617888E+02  0.39605075956E+02  0.61964737468E+02  0.19307146500E+03  0.17300000000E+03 0. -1.
<mgrwt>
<rscale>  2 0.18285776E+03</rscale>
<asrwt>0</asrwt>
<pdfrwt beam="1">  1       21 0.11005189E+00 0.18285776E+03</pdfrwt>
<pdfrwt beam="2">  1       21 0.12272944E-01 0.18285776E+03</pdfrwt>
<totfact> 0.36967808E+04</totfact>
</mgrwt>
</event>
<event>
 4    1  0.4391134E+000  0.1924561E+03  0.7546771E-02  0.1156265E+00
         21   -1    0    0  501  502  0.00000000000E+00  0.00000000000E+00  0.51237451883E+03  0.51237451883E+03  0.00000000000E+00 0.  1.
         21   -1    0    0  502  503 -0.00000000000E+00 -0.00000000000E+00 -0.10485480092E+03  0.10485480092E+03  0.00000000000E+00 0.  1.
          6    1    1    2  501    0  0.35969856275E+02  0.76266108391E+02  0.37574830095E+03  0.42216837342E+03  0.17300000000E+03 0.  1.
         -6    1    1    2    0  503 -0.35969856275E+02 -0.76266108391E+02  0.31771416960E+02  0.19506094634E+03  0.17300000000E+03 0.  1.
<mgrwt>
<rscale>  2 0.19245610E+03</rscale>
<asrwt>0</asrwt>
<pdfrwt beam="1">  1       21 0.78826848E-01 0.19245610E+03</pdfrwt>
<pdfrwt beam="2">  1       21 0.16131508E-01 0.19245610E+03</pdfrwt>
<totfact> 0.48851805E+04</totfact>
</mgrwt>
</event>
<event>
 4    1  0.4391134E+000  0.2387955E+03  0.7546771E-02  0.1120598E+00
         21   -1    0    0  503  502  0.00000000000E+00  0.00000000000E+00  0.48534934126E+03  0.48534934126E+03  0.00000000000E+00 0.  1.
         21   -1    0    0  501  503 -0.00000000000E+00 -0.00000000000E+00 -0.16456027177E+03  0.16456027177E+03  0.00000000000E+00 0.  1.
          6    1    1    2  501    0  0.56341287929E+02  0.15466081466E+03 -0.13400548948E+02  0.23917124206E+03  0.17300000000E+03 0.  1.
         -6    1    1    2    0  502 -0.56341287929E+02 -0.15466081466E+03  0.33418961843E+03  0.41073837097E+03  0.17300000000E+03 0.  1.
<mgrwt>
<rscale>  2 0.23879554E+03</rscale>
<asrwt>0</asrwt>
<pdfrwt beam="1">  1       21 0.74669129E-01 0.23879554E+03</pdfrwt>
<pdfrwt beam="2">  1       21 0.25316965E-01 0.23879554E+03</pdfrwt>
<totfact> 0.23149410E+04</totfact>
</mgrwt>
</event>
<event>
 4    1  0.4391134E+000  0.1944280E+03  0.7546771E-02  0.1154527E+00
         21   -1    0    0  501  502  0.00000000000E+00  0.00000000000E+00  0.37865289465E+03  0.37865289465E+03  0.00000000000E+00 0.  1.
         21   -1    0    0  502  503 -0.00000000000E+00 -0.00000000000E+00 -0.22903456658E+03  0.22903456658E+03  0.00000000000E+00 0.  1.
          6    1    1    2  501    0  0.12608754464E+02  0.87830923189E+02  0.30301816906E+03  0.36003091886E+03  0.17300000000E+03 0.  1.
         -6    1    1    2    0  503 -0.12608754464E+02 -0.87830923189E+02 -0.15339984099E+03  0.24765654236E+03  0.17300000000E+03 0.  1.
<mgrwt>
<rscale>  2 0.19442801E+03</rscale>
<asrwt>0</asrwt>
<pdfrwt beam="1">  1       21 0.58254291E-01 0.19442801E+03</pdfrwt>
<pdfrwt beam="2">  1       21 0.35236087E-01 0.19442801E+03</pdfrwt>
<totfact> 0.21412944E+04</totfact>
</mgrwt>
</event>
<event>
 4    1  0.4391134E+000  0.2376319E+03  0.7546771E-02  0.1121381E+00
         21   -1    0    0  503  502  0.00000000000E+00  0.00000000000E+00  0.49756292756E+03  0.49756292756E+03  0.00000000000E+00 0.  1.
         21   -1    0    0  501  503 -0.00000000000E+00 -0.00000000000E+00 -0.11634731064E+03  0.11634731064E+03  0.00000000000E+00 0. -1.
          6    1    1    2  501    0 -0.37297470985E+02  0.15858374454E+03  0.14251271482E+03  0.27708983969E+03  0.17300000000E+03 0. -1.
         -6    1    1    2    0  502  0.37297470985E+02 -0.15858374454E+03  0.23870290210E+03  0.33682039850E+03  0.17300000000E+03 0.  1.
<mgrwt>
<rscale>  2 0.23763187E+03</rscale>
<asrwt>0</asrwt>
<pdfrwt beam="1">  1       21 0.76548142E-01 0.23763187E+03</pdfrwt>
<pdfrwt beam="2">  1       21 0.17899586E-01 0.23763187E+03</pdfrwt>
<totfact> 0.42158290E+04</totfact>
</mgrwt>
</event>
<event>
 4    1  0.4391134E+000  0.2189673E+03  0.7546771E-02  0.1134655E+00
         21   -1    0    0  501  502  0.00000000000E+00  0.00000000000E+00  0.27695499096E+03  0.27695499096E+03  0.00000000000E+00 0. -1.
         21   -1    0    0  502  503 -0.00000000000E+00 -0.00000000000E+00 -0.24103813972E+03  0.24103813972E+03  0.00000000000E+00 0. -1.
          6    1    1    2  501    0  0.13420219723E+03 -0.27331032974E+01  0.15543892731E+03  0.26852925301E+03  0.17300000000E+03 0. -1.
         -6    1    1    2    0  503 -0.13420219723E+03  0.27331032974E+01 -0.11952207607E+03  0.24946387767E+03  0.17300000000E+03 0. -1.
<mgrwt>
<rscale>  2 0.21896735E+03</rscale>
<asrwt>0</asrwt>
<pdfrwt beam="1">  1       21 0.42608460E-01 0.21896735E+03</pdfrwt>
<pdfrwt beam="2">  1       21 0.37082791E-01 0.21896735E+03</pdfrwt>
<totfact> 0.36666439E+04</totfact>
</mgrwt>
</event>
<event>
 4    1  0.4391134E+000  0.1846001E+03  0.7546771E-02  0.1163424E+00
         21   -1    0    0  503  502  0.00000000000E+00  0.00000000000E+00  0.14858578930E+03  0.14858578930E+03  0.00000000000E+00 0. -1.
         21   -1    0    0  501  503 -0.00000000000E+00 -0.00000000000E+00 -0.24147504999E+03  0.24147504999E+03  0.00000000000E+00 0. -1.
          6    1    1    2  501    0 -0.65227780332E+01  0.64075330007E+02 -0.90158898792E+02  0.20544055486E+03  0.17300000000E+03 0. -1.
         -6    1    1    2    0  502  0.65227780332E+01 -0.64075330007E+02 -0.27303618926E+01  0.18462028444E+03  0.17300000000E+03 0. -1.
<mgrwt>
<rscale>  2 0.18460009E+03</rscale>
<asrwt>0</asrwt>
<pdfrwt beam="1">  1       21 0.22859352E-01 0.18460009E+03</pdfrwt>
<pdfrwt beam="2">  1       21 0.37150007E-01 0.18460009E+03</pdfrwt>
<totfact> 0.12582415E+05</totfact>
</mgrwt>
</event>
<event>
 4    1  0.4391134E+000  0.2071539E+03  0.7546771E-02  0.1143840E+00
         21   -1    0    0  503  502  0.00000000000E+00  0.00000000000E+00  0.57243549734E+03  0.57243549734E+03  0.00000000000E+00 0. -1.
         21   -1    0    0  501  503 -0.00000000000E+00 -0.00000000000E+00 -0.76089495416E+02  0.76089495416E+02  0.00000000000E+00 0. -1.
          6    1    1    2  501    0  0.11306684421E+03 -0.14128234655E+02  0.28758989877E+03  0.35443006101E+03  0.17300000000E+03 0. -1.
         -6    1    1    2    0  502 -0.11306684421E+03  0.14128234655E+02  0.20875610315E+03  0.29409493174E+03  0.17300000000E+03 0. -1.
<mgrwt>
<rscale>  2 0.20715385E+03</rscale>
<asrwt>0</asrwt>
<pdfrwt beam="1">  1       21 0.88066997E-01 0.20715385E+03</pdfrwt>
<pdfrwt beam="2">  1       21 0.11706077E-01 0.20715385E+03</pdfrwt>
<totfact> 0.67300251E+04</totfact>
</mgrwt>
</event>
<event>
 4    1  0.4391134E+000  0.2545317E+03  0.7546771E-02  0.1110474E+00
         21   -1    0    0  501  502  0.00000000000E+00  0.00000000000E+00  0.15359323148E+03  0.15359323148E+03  0.00000000000E+00 0.  1.
         21   -1    0    0  502  503 -0.00000000000E+00 -0.00000000000E+00 -0.43451158475E+03  0.43451158475E+03  0.00000000000E+00 0.  1.
          6    1    1    2  501    0 -0.19716029181E+01 -0.18669095877E+03 -0.19074407256E+03  0.31807185119E+03  0.17300000000E+03 0.  1.
         -6    1    1    2    0  503  0.19716029181E+01  0.18669095877E+03 -0.90174280708E+02  0.27003296504E+03  0.17300000000E+03 0.  1.
<mgrwt>
<rscale>  2 0.25453173E+03</rscale>
<asrwt>0</asrwt>
<pdfrwt beam="1">  1       21 0.23629728E-01 0.25453173E+03</pdfrwt>
<pdfrwt beam="2">  1       21 0.66847935E-01 0.25453173E+03</pdfrwt>
<totfact> 0.33544051E+04</totfact>
</mgrwt>
</event>
<event>
 4    1  0.4391134E+000  0.1968459E+03  0.7546771E-02  0.1152428E+00
         21   -1    0    0  501  502  0.00000000000E+00  0.00000000000E+00  0.11538144531E+03  0.11538144531E+03  0.00000000000E+00 0. -1.
         21   -1    0    0  502  503 -0.00000000000E+00 -0.00000000000E+00 -0.37169371705E+03  0.37169371705E+03  0.00000000000E+00 0. -1.
          6    1    1    2  501    0 -0.51763234622E+02  0.78357241939E+02 -0.52505127441E+02  0.20372795152E+03  0.17300000000E+03 0.  1.
         -6    1    1    2    0  503  0.51763234622E+02 -0.78357241939E+02 -0.20380714430E+03  0.28334721084E+03  0.17300000000E+03 0.  1.
<mgrwt>
<rscale>  2 0.19684585E+03</rscale>
<asrwt>0</asrwt>
<pdfrwt beam="1">  1       21 0.17750992E-01 0.19684585E+03</pdfrwt>
<pdfrwt beam="2">  1       21 0.57183649E-01 0.19684585E+03</pdfrwt>
<totfact> 0.82583499E+04</totfact>
</mgrwt>
</event>
<event>
 4    1  0.4391134E+000  0.2024755E+03  0.7546771E-02  0.1147667E+00
         21   -1    0    0  503  502  0.00000000000E+00  0.00000000000E+00  0.51363991184E+03  0.51363991184E+03  0.00000000000E+00 0. -1.
         21   -1    0    0  501  503 -0.00000000000E+00 -0.00000000000E+00 -0.81766819871E+02  0.81766819871E+02  0.00000000000E+00 0. -1.
          6    1    1    2  501    0  0.95012477292E+02  0.45166058648E+02  0.16994507089E+03  0.26434384959E+03  0.17300000000E+03 0. -1.
         -6    1    1    2    0  502 -0.95012477292E+02 -0.45166058648E+02  0.26192802108E+03  0.33106288213E+03  0.17300000000E+03 0. -1.
<mgrwt>
<rscale>  2 0.20247554E+03</rscale>
<asrwt>0</asrwt>
<pdfrwt beam="1">  1       21 0.79021523E-01 0.20247554E+03</pdfrwt>
<pdfrwt beam="2">  1       21 0.12579511E-01 0.20247554E+03</pdfrwt>
<totfact> 0.75920103E+04</totfact>
</mgrwt>
</event>
<event>
 4    1  0.4391134E+000  0.2058518E+03  0.7546771E-02  0.1144894E+00
         21   -1    0    0  503  502  0.00000000000E+00  0.00000000000E+00  0.97383902337E+02  0.97383902337E+02  0.00000000000E+00 0. -1.
         21   -1    0    0  501  503 -0.00000000000E+00 -0.00000000000E+00 -0.76239954548E+03  0.76239954548E+03  0.00000000000E+00 0.  1.
          6    1    1    2  501    0 -0.96161441805E+02  0.56559239457E+02 -0.61416344967E+03  0.64774355525E+03  0.17300000000E+03 0. -1.
         -6    1    1    2    0  502  0.96161441805E+02 -0.56559239457E+02 -0.50852193470E+02  0.21203989256E+03  0.17300000000E+03 0. -1.
<mgrwt>
<rscale>  2 0.20585182E+03</rscale>
<asrwt>0</asrwt>
<pdfrwt beam="1">  1       21 0.14982139E-01 0.20585182E+03</pdfrwt>
<pdfrwt beam="2">  1       21 0.11729224E+00 0.20585182E+03</pdfrwt>
<totfact> 0.21783350E+04</totfact>
</mgrwt>
</event>
<event>
 4    1  0.4391134E+000  0.2267140E+03  0.7546771E-02  0.1128974E+00
         21   -1    0    0  503  502  0.00000000000E+00  0.00000000000E+00  0.24549931710E+03  0.24549931710E+03  0.00000000000E+00 0. -1.
         21   -1    0    0  501  503 -0.00000000000E+00 -0.00000000000E+00 -0.20936815138E+03  0.20936815138E+03  0.00000000000E+00 0. -1.
          6    1    1    2  501    0  0.77480152613E+02 -0.12436665540E+03  0.17356829694E+02  0.22737743635E+03  0.17300000000E+03 0. -1.
         -6    1    1    2    0  502 -0.77480152613E+02  0.12436665540E+03  0.18774336027E+02  0.22749003213E+03  0.17300000000E+03 0. -1.
<mgrwt>
<rscale>  2 0.22671400E+03</rscale>
<asrwt>0</asrwt>
<pdfrwt beam="1">  1       21 0.37769126E-01 0.22671400E+03</pdfrwt>
<pdfrwt beam="2">  1       21 0.32210485E-01 0.22671400E+03</pdfrwt>
<totfact> 0.61749349E+04</totfact>
</mgrwt>
</event>
<event>
 4    1  0.4391134E+000  0.2002233E+03  0.7546771E-02  0.1149551E+00
         21   -1    0    0  501  502  0.00000000000E+00  0.00000000000E+00  0.47500189971E+03  0.47500189971E+03  0.00000000000E+00 0. -1.
         21   -1    0    0  502  503 -0.00000000000E+00 -0.00000000000E+00 -0.18051900790E+03  0.18051900790E+03  0.00000000000E+00 0. -1.
          6    1    1    2  501    0 -0.84934896322E+02 -0.54281102923E+02  0.38640965928E+03  0.43520317041E+03  0.17300000000E+03 0. -1.
         -6    1    1    2    0  503  0.84934896322E+02  0.54281102923E+02 -0.91926767477E+02  0.22031773720E+03  0.17300000000E+03 0. -1.
<mgrwt>
<rscale>  2 0.20022331E+03</rscale>
<asrwt>0</asrwt>
<pdfrwt beam="1">  1       21 0.73077215E-01 0.20022331E+03</pdfrwt>
<pdfrwt beam="2">  1       21 0.27772155E-01 0.20022331E+03</pdfrwt>
<totfact> 0.20756219E+04</totfact>
</mgrwt>
</event>
<event>
 4    1  0.4391134E+000  0.1856584E+03  0.7546771E-02  0.1162437E+00
         21   -1    0    0  501  502  0.00000000000E+00  0.00000000000E+00  0.41207800234E+03  0.41207800234E+03  0.00000000000E+00 0.  1.
         21   -1    0    0  502  503 -0.00000000000E+00 -0.00000000000E+00 -0.97874528906E+02  0.97874528906E+02  0.00000000000E+00 0.  1.
          6    1    1    2  501    0 -0.25858279785E+02  0.62220437079E+02  0.59887090952E+02  0.19507818198E+03  0.17300000000E+03 0.  1.
         -6    1    1    2    0  503  0.25858279785E+02 -0.62220437079E+02  0.25431638248E+03  0.31487434926E+03  0.17300000000E+03 0.  1.
<mgrwt>
<rscale>  2 0.18565838E+03</rscale>
<asrwt>0</asrwt>
<pdfrwt beam="1">  1       21 0.63396615E-01 0.18565838E+03</pdfrwt>
<pdfrwt beam="2">  1       21 0.15057620E-01 0.18565838E+03</pdfrwt>
<totfact> 0.89884496E+04</totfact>
</mgrwt>
</event>
<event>
 4    1  0.4391134E+000  0.2332153E+03  0.7546771E-02  0.1124397E+00
         21   -1    0    0  501  502  0.00000000000E+00  0.00000000000E+00  0.26775271292E+03  0.26775271292E+03  0.00000000000E+00 0. -1.
         21   -1    0    0  502  503 -0.00000000000E+00 -0.00000000000E+00 -0.40628217873E+03  0.40628217873E+03  0.00000000000E+00 0.  1.
          6    1    1    2  501    0 -0.14870814814E+03  0.48438396272E+02  0.16904737766E+03  0.28803889920E+03  0.17300000000E+03 0. -1.
         -6    1    1    2    0  503  0.14870814814E+03 -0.48438396272E+02 -0.30757684347E+03  0.38599599246E+03  0.17300000000E+03 0.  1.
<mgrwt>
<rscale>  2 0.23321533E+03</rscale>
<asrwt>0</asrwt>
<pdfrwt beam="1">  1       21 0.41192725E-01 0.23321533E+03</pdfrwt>
<pdfrwt beam="2">  1       21 0.62504951E-01 0.23321533E+03</pdfrwt>
<totfact> 0.13133553E+04</totfact>
</mgrwt>
</event>
<event>
 4    1  0.4391134E+000  0.4891953E+03  0.7546771E-02  0.1016638E+00
         21   -1    0    0  503  502  0.00000000000E+00  0.00000000000E+00  0.58007881497E+03  0.58007881497E+03  0.00000000000E+00 0.  1.
         21   -1    0    0  501  503 -0.00000000000E+00 -0.00000000000E+00 -0.41310805067E+03  0.41310805067E+03  0.00000000000E+00 0. -1.
          6    1    1    2  501    0  0.20709208722E+03  0.40803912584E+03  0.65248961424E+02  0.49352759575E+03  0.17300000000E+03 0. -1.
         -6    1    1    2    0  502 -0.20709208722E+03 -0.40803912584E+03  0.10172180288E+03  0.49965926989E+03  0.17300000000E+03 0.  1.
<mgrwt>
<rscale>  2 0.48919532E+03</rscale>
<asrwt>0</asrwt>
<pdfrwt beam="1">  1       21 0.89242895E-01 0.48919532E+03</pdfrwt>
<pdfrwt beam="2">  1       21 0.63555085E-01 0.48919532E+03</pdfrwt>
<totfact> 0.20891687E+03</totfact>
</mgrwt>
</event>
<event>
 4    1  0.4391134E+000  0.1782222E+03  0.7546771E-02  0.1169535E+00
         21   -1    0    0  503  502  0.00000000000E+00  0.00000000000E+00  0.35740856086E+02  0.35740856086E+02  0.00000000000E+00 0.  1.
         21   -1    0    0  501  503 -0.00000000000E+00 -0.00000000000E+00 -0.11080264226E+04  0.11080264226E+04  0.00000000000E+00 0.  1.
          6    1    1    2  501    0 -0.20190359430E+02 -0.37769038728E+02 -0.79057441771E+03  0.81041412922E+03  0.17300000000E+03 0.  1.
         -6    1    1    2    0  502  0.20190359430E+02  0.37769038728E+02 -0.28171114882E+03  0.33335314948E+03  0.17300000000E+03 0.  1.
<mgrwt>
<rscale>  2 0.17822220E+03</rscale>
<asrwt>0</asrwt>
<pdfrwt beam="1">  1       21 0.54985933E-02 0.17822220E+03</pdfrwt>
<pdfrwt beam="2">  1       21 0.17046560E+00 0.17822220E+03</pdfrwt>
<totfact> 0.48892483E+04</totfact>
</mgrwt>
</event>
<event>
 4    1  0.4391134E+000  0.1753896E+03  0.7546771E-02  0.1172341E+00
         21   -1    0    0  501  502  0.00000000000E+00  0.00000000000E+00  0.26681846416E+03  0.26681846416E+03  0.00000000000E+00 0.  1.
         21   -1    0    0  502  503 -0.00000000000E+00 -0.00000000000E+00 -0.15694931776E+03  0.15694931776E+03  0.00000000000E+00 0.  1.
          6    1    1    2  501    0 -0.10261817367E+02  0.26966978449E+02  0.16409717261E+03  0.24018618795E+03  0.17300000000E+03 0.  1.
         -6    1    1    2    0  503  0.10261817367E+02 -0.26966978449E+02 -0.54228026204E+02  0.18358159398E+03  0.17300000000E+03 0.  1.
<mgrwt>
<rscale>  2 0.17538963E+03</rscale>
<asrwt>0</asrwt>
<pdfrwt beam="1">  1       21 0.41048994E-01 0.17538963E+03</pdfrwt>
<pdfrwt beam="2">  1       21 0.24146049E-01 0.17538963E+03</pdfrwt>
<totfact> 0.93131800E+04</totfact>
</mgrwt>
</event>
<event>
 4    1  0.4391134E+000  0.2734827E+03  0.7546771E-02  0.1099303E+00
         21   -1    0    0  503  502  0.00000000000E+00  0.00000000000E+00  0.20711749518E+03  0.20711749518E+03  0.00000000000E+00 0. -1.
         21   -1    0    0  501  503 -0.00000000000E+00 -0.00000000000E+00 -0.52366343051E+03  0.52366343051E+03  0.00000000000E+00 0.  1.
          6    1    1    2  501    0 -0.16842057913E+03 -0.12844560784E+03 -0.36184846157E+03  0.45357146602E+03  0.17300000000E+03 0.  1.
         -6    1    1    2    0  502  0.16842057913E+03  0.12844560784E+03  0.45302526244E+02  0.27720945967E+03  0.17300000000E+03 0.  1.
<mgrwt>
<rscale>  2 0.27348266E+03</rscale>
<asrwt>0</asrwt>
<pdfrwt beam="1">  1       21 0.31864231E-01 0.27348266E+03</pdfrwt>
<pdfrwt beam="2">  1       21 0.80563603E-01 0.27348266E+03</pdfrwt>
<totfact> 0.12236667E+04</totfact>
</mgrwt>
</event>
<event>
 4    1  0.4391134E+000  0.2365642E+03  0.7546771E-02  0.1122103E+00
         21   -1    0    0  503  502  0.00000000000E+00  0.00000000000E+00  0.10411943340E+04  0.10411943340E+04  0.00000000000E+00 0. -1.
         21   -1    0    0  501  503 -0.00000000000E+00 -0.00000000000E+00 -0.65814813265E+02  0.65814813265E+02  0.00000000000E+00 0.  1.
          6    1    1    2  501    0  0.14901954457E+03  0.61861183298E+02  0.25069063837E+03  0.34468598293E+03  0.17300000000E+03 0. -1.
         -6    1    1    2    0  502 -0.14901954457E+03 -0.61861183298E+02  0.72468888241E+03  0.76232316438E+03  0.17300000000E+03 0.  1.
<mgrwt>
<rscale>  2 0.23656422E+03</rscale>
<asrwt>0</asrwt>
<pdfrwt beam="1">  1       21 0.16018373E+00 0.23656422E+03</pdfrwt>
<pdfrwt beam="2">  1       21 0.10125357E-01 0.23656422E+03</pdfrwt>
<totfact> 0.19358499E+04</totfact>
</mgrwt>
</event>
<event>
 4    1  0.4391134E+000  0.2696270E+03  0.7546771E-02  0.1101493E+00
         21   -1    0    0  501  502  0.00000000000E+00  0.00000000000E+00  0.45141106213E+03  0.45141106213E+03  0.00000000000E+00 0.  1.
         21   -1    0    0  502  503 -0.00000000000E+00 -0.00000000000E+00 -0.25374540345E+03  0.25374540345E+03  0.00000000000E+00 0.  1.
          6    1    1    2  501    0 -0.13809744662E+03  0.15394424153E+03  0.31193642787E+03  0.41231428461E+03  0.17300000000E+03 0.  1.
         -6    1    1    2    0  503  0.13809744662E+03 -0.15394424153E+03 -0.11427076918E+03  0.29284218097E+03  0.17300000000E+03 0.  1.
<mgrwt>
<rscale>  2 0.26962703E+03</rscale>
<asrwt>0</asrwt>
<pdfrwt beam="1">  1       21 0.69447856E-01 0.26962703E+03</pdfrwt>
<pdfrwt beam="2">  1       21 0.39037754E-01 0.26962703E+03</pdfrwt>
<totfact> 0.11403762E+04</totfact>
</mgrwt>
</event>
<event>
 4    1  0.4391134E+000  0.2815315E+03  0.7546771E-02  0.1094855E+00
         21   -1    0    0  503  502  0.00000000000E+00  0.00000000000E+00  0.60845576943E+03  0.60845576943E+03  0.00000000000E+00 0.  1.
         21   -1    0    0  501  503 -0.00000000000E+00 -0.00000000000E+00 -0.13832439320E+03  0.13832439320E+03  0.00000000000E+00 0.  1.
          6    1    1    2  501    0 -0.20652543972E+03 -0.81720500400E+02  0.14493215218E+03  0.31664700563E+03  0.17300000000E+03 0.  1.
         -6    1    1    2    0  502  0.20652543972E+03  0.81720500400E+02  0.32519922404E+03  0.43013315700E+03  0.17300000000E+03 0.  1.
<mgrwt>
<rscale>  2 0.28153152E+03</rscale>
<asrwt>0</asrwt>
<pdfrwt beam="1">  1       21 0.93608578E-01 0.28153152E+03</pdfrwt>
<pdfrwt beam="2">  1       21 0.21280676E-01 0.28153152E+03</pdfrwt>
<totfact> 0.18794958E+04</totfact>
</mgrwt>
</event>
<event>
 4    1  0.4391134E+000  0.2350967E+03  0.7546771E-02  0.1123103E+00
         21   -1    0    0  501  502  0.00000000000E+00  0.00000000000E+00  0.76085625733E+03  0.76085625733E+03  0.00000000000E+00 0.  1.
         21   -1    0    0  502  503 -0.00000000000E+00 -0.00000000000E+00 -0.37868257847E+03  0.37868257847E+03  0.00000000000E+00 0.  1.
          6    1    1    2  501    0  0.39988880745E+02  0.15408546804E+03  0.70329993672E+03  0.74155326379E+03  0.17300000000E+03 0.  1.
         -6    1    1    2    0  503 -0.39988880745E+02 -0.15408546804E+03 -0.32112625785E+03  0.39798557201E+03  0.17300000000E+03 0.  1.
<mgrwt>
<rscale>  2 0.23509667E+03</rscale>
<asrwt>0</asrwt>
<pdfrwt beam="1">  1       21 0.11705481E+00 0.23509667E+03</pdfrwt>
<pdfrwt beam="2">  1       21 0.58258858E-01 0.23509667E+03</pdfrwt>
<totfact> 0.14920284E+03</totfact>
</mgrwt>
</event>
<event>
 4    1  0.4391134E+000  0.1970044E+03  0.7546771E-02  0.1152291E+00
         21   -1    0    0  501  502  0.00000000000E+00  0.00000000000E+00  0.14978973299E+03  0.14978973299E+03  0.00000000000E+00 0.  1.
         21   -1    0    0  502  503 -0.00000000000E+00 -0.00000000000E+00 -0.26993062754E+03  0.26993062754E+03  0.00000000000E+00 0.  1.
          6    1    1    2  501    0 -0.88285759648E+02  0.32975160429E+02 -0.18036346949E+02  0.19782832551E+03  0.17300000000E+03 0.  1.
         -6    1    1    2    0  503  0.88285759648E+02 -0.32975160429E+02 -0.10210454760E+03  0.22189203502E+03  0.17300000000E+03 0.  1.
<mgrwt>
<rscale>  2 0.19700441E+03</rscale>
<asrwt>0</asrwt>
<pdfrwt beam="1">  1       21 0.23044574E-01 0.19700441E+03</pdfrwt>
<pdfrwt beam="2">  1       21 0.41527789E-01 0.19700441E+03</pdfrwt>
<totfact> 0.98556926E+04</totfact>
</mgrwt>
</event>
<event>
 4    1  0.4391134E+000  0.2020942E+03  0.7546771E-02  0.1147984E+00
         21   -1    0    0  501  502  0.00000000000E+00  0.00000000000E+00  0.61474085438E+03  0.61474085438E+03  0.00000000000E+00 0. -1.
         21   -1    0    0  502  503 -0.00000000000E+00 -0.00000000000E+00 -0.66834823281E+02  0.66834823281E+02  0.00000000000E+00 0.  1.
          6    1    1    2  501    0 -0.90453473763E+02 -0.52261063461E+02  0.30021775605E+03  0.36190157601E+03  0.17300000000E+03 0. -1.
         -6    1    1    2    0  503  0.90453473763E+02  0.52261063461E+02  0.24768827504E+03  0.31967410165E+03  0.17300000000E+03 0.  1.
<mgrwt>
<rscale>  2 0.20209416E+03</rscale>
<asrwt>0</asrwt>
<pdfrwt beam="1">  1       21 0.94575512E-01 0.20209416E+03</pdfrwt>
<pdfrwt beam="2">  1       21 0.10282281E-01 0.20209416E+03</pdfrwt>
<totfact> 0.71993677E+04</totfact>
</mgrwt>
</event>
<event>
 4    1  0.4391134E+000  0.1905827E+03  0.7546771E-02  0.1157937E+00
         21   -1    0    0  503  502  0.00000000000E+00  0.00000000000E+00  0.58130580857E+03  0.58130580857E+03  0.00000000000E+00 0. -1.
         21   -1    0    0  501  503 -0.00000000000E+00 -0.00000000000E+00 -0.11642885860E+03  0.11642885860E+03  0.00000000000E+00 0. -1.
          6    1    1    2  501    0 -0.55846943532E+02  0.57217727485E+02 -0.50316123585E+01  0.19064906652E+03  0.17300000000E+03 0. -1.
         -6    1    1    2    0  502  0.55846943532E+02 -0.57217727485E+02  0.46990856233E+03  0.50708560065E+03  0.17300000000E+03 0. -1.
<mgrwt>
<rscale>  2 0.19058266E+03</rscale>
<asrwt>0</asrwt>
<pdfrwt beam="1">  1       21 0.89431661E-01 0.19058266E+03</pdfrwt>
<pdfrwt beam="2">  1       21 0.17912132E-01 0.19058266E+03</pdfrwt>
<totfact> 0.30238634E+04</totfact>
</mgrwt>
</event>
<event>
 4    1  0.4391134E+000  0.2114969E+03  0.7546771E-02  0.1140386E+00
         21   -1    0    0  501  502  0.00000000000E+00  0.00000000000E+00  0.29634947183E+03  0.29634947183E+03  0.00000000000E+00 0.  1.
         21   -1    0    0  502  503 -0.00000000000E+00 -0.00000000000E+00 -0.16288307936E+03  0.16288307936E+03  0.00000000000E+00 0.  1.
          6    1    1    2  501    0  0.21979109845E+01 -0.12164333508E+03  0.12890971026E+03  0.24768658660E+03  0.17300000000E+03 0.  1.
         -6    1    1    2    0  503 -0.21979109845E+01  0.12164333508E+03  0.45566822014E+01  0.21154596459E+03  0.17300000000E+03 0.  1.
<mgrwt>
<rscale>  2 0.21149688E+03</rscale>
<asrwt>0</asrwt>
<pdfrwt beam="1">  1       21 0.45592226E-01 0.21149688E+03</pdfrwt>
<pdfrwt beam="2">  1       21 0.25058935E-01 0.21149688E+03</pdfrwt>
<totfact> 0.68979371E+04</totfact>
</mgrwt>
</event>
<event>
 4    1  0.4391134E+000  0.2089829E+03  0.7546771E-02  0.1142374E+00
         21   -1    0    0  501  502  0.00000000000E+00  0.00000000000E+00  0.10847802041E+04  0.10847802041E+04  0.00000000000E+00 0. -1.
         21   -1    0    0  502  503 -0.00000000000E+00 -0.00000000000E+00 -0.53540187609E+02  0.53540187609E+02  0.00000000000E+00 0.  1.
          6    1    1    2  501    0 -0.12880072289E+02 -0.11652880956E+03  0.79907721663E+03  0.82595293925E+03  0.17300000000E+03 0. -1.
         -6    1    1    2    0  503  0.12880072289E+02  0.11652880956E+03  0.23216279988E+03  0.31236745248E+03  0.17300000000E+03 0.  1.
<mgrwt>
<rscale>  2 0.20898292E+03</rscale>
<asrwt>0</asrwt>
<pdfrwt beam="1">  1       21 0.16688925E+00 0.20898292E+03</pdfrwt>
<pdfrwt beam="2">  1       21 0.82369528E-02 0.20898292E+03</pdfrwt>
<totfact> 0.25324501E+04</totfact>
</mgrwt>
</event>
<event>
 4    1  0.4391134E+000  0.2095488E+03  0.7546771E-02  0.1141924E+00
         21   -1    0    0  501  502  0.00000000000E+00  0.00000000000E+00  0.57499549836E+03  0.57499549836E+03  0.00000000000E+00 0.  1.
         21   -1    0    0  502  503 -0.00000000000E+00 -0.00000000000E+00 -0.76749587832E+02  0.76749587832E+02  0.00000000000E+00 0. -1.
          6    1    1    2  501    0 -0.42385050433E+02  0.11038654396E+03  0.27213074828E+03  0.34346153460E+03  0.17300000000E+03 0.  1.
         -6    1    1    2    0  503  0.42385050433E+02 -0.11038654396E+03  0.22611516224E+03  0.30828355159E+03  0.17300000000E+03 0.  1.
<mgrwt>
<rscale>  2 0.20954876E+03</rscale>
<asrwt>0</asrwt>
<pdfrwt beam="1">  1       21 0.88460843E-01 0.20954876E+03</pdfrwt>
<pdfrwt beam="2">  1       21 0.11807629E-01 0.20954876E+03</pdfrwt>
<totfact> 0.65516446E+04</totfact>
</mgrwt>
</event>
<event>
 4    1  0.4391134E+000  0.1765595E+03  0.7546771E-02  0.1171175E+00
         21   -1    0    0  503  502  0.00000000000E+00  0.00000000000E+00  0.82277930546E+03  0.82277930546E+03  0.00000000000E+00 0.  1.
         21   -1    0    0  501  503 -0.00000000000E+00 -0.00000000000E+00 -0.61374247106E+03  0.61374247106E+03  0.00000000000E+00 0.  1.
          6    1    1    2  501    0 -0.31396602951E+02  0.16078014208E+02 -0.59121938145E+03  0.61701993989E+03  0.17300000000E+03 0.  1.
         -6    1    1    2    0  502  0.31396602951E+02 -0.16078014208E+02  0.80025621586E+03  0.81950183663E+03  0.17300000000E+03 0.  1.
<mgrwt>
<rscale>  2 0.17655948E+03</rscale>
<asrwt>0</asrwt>
<pdfrwt beam="1">  1       21 0.12658143E+00 0.17655948E+03</pdfrwt>
<pdfrwt beam="2">  1       21 0.94421919E-01 0.17655948E+03</pdfrwt>
<totfact> 0.44273251E+02</totfact>
</mgrwt>
</event>
<event>
 4    1  0.4391134E+000  0.2648192E+03  0.7546771E-02  0.1104282E+00
         21   -1    0    0  501  502  0.00000000000E+00  0.00000000000E+00  0.17673483992E+03  0.17673483992E+03  0.00000000000E+00 0.  1.
         21   -1    0    0  502  503 -0.00000000000E+00 -0.00000000000E+00 -0.40170973806E+03  0.40170973806E+03  0.00000000000E+00 0. -1.
          6    1    1    2  501    0 -0.10903306043E+03 -0.16826172705E+03 -0.80528220437E+02  0.27679236142E+03  0.17300000000E+03 0.  1.
         -6    1    1    2    0  503  0.10903306043E+03  0.16826172705E+03 -0.14444667770E+03  0.30165221656E+03  0.17300000000E+03 0.  1.
<mgrwt>
<rscale>  2 0.26481922E+03</rscale>
<asrwt>0</asrwt>
<pdfrwt beam="1">  1       21 0.27189976E-01 0.26481922E+03</pdfrwt>
<pdfrwt beam="2">  1       21 0.61801498E-01 0.26481922E+03</pdfrwt>
<totfact> 0.30268336E+04</totfact>
</mgrwt>
</event>
<event>
 4    1  0.4391134E+000  0.1899327E+03  0.7546771E-02  0.1158522E+00
         21   -1    0    0  503  502  0.00000000000E+00  0.00000000000E+00  0.10889572499E+03  0.10889572499E+03  0.00000000000E+00 0. -1.
         21   -1    0    0  501  503 -0.00000000000E+00 -0.00000000000E+00 -0.83530840535E+03  0.83530840535E+03  0.00000000000E+00 0. -1.
          6    1    1    2  501    0 -0.62034549374E+02  0.47928539050E+02 -0.72993270984E+03  0.75423881567E+03  0.17300000000E+03 0. -1.
         -6    1    1    2    0  502  0.62034549374E+02 -0.47928539050E+02  0.35200294684E+01  0.18996531467E+03  0.17300000000E+03 0. -1.
<mgrwt>
<rscale>  2 0.18993270E+03</rscale>
<asrwt>0</asrwt>
<pdfrwt beam="1">  1       21 0.16753189E-01 0.18993270E+03</pdfrwt>
<pdfrwt beam="2">  1       21 0.12850898E+00 0.18993270E+03</pdfrwt>
<totfact> 0.14287951E+04</totfact>
</mgrwt>
</event>
<event>
 4    1  0.4391134E+000  0.2072075E+03  0.7546771E-02  0.1143797E+00
         21   -1    0    0  503  502  0.00000000000E+00  0.00000000000E+00  0.79588204289E+02  0.79588204289E+02  0.00000000000E+00 0. -1.
         21   -1    0    0  501  503 -0.00000000000E+00 -0.00000000000E+00 -0.13002652170E+04  0.13002652170E+04  0.00000000000E+00 0.  1.
          6    1    1    2  501    0  0.88132630458E+02  0.72378166055E+02 -0.11380816836E+04  0.11567907667E+04  0.17300000000E+03 0.  1.
         -6    1    1    2    0  502 -0.88132630458E+02 -0.72378166055E+02 -0.82595329147E+02  0.22306265458E+03  0.17300000000E+03 0. -1.
<mgrwt>
<rscale>  2 0.20720753E+03</rscale>
<asrwt>0</asrwt>
<pdfrwt beam="1">  1       21 0.12244340E-01 0.20720753E+03</pdfrwt>
<pdfrwt beam="2">  1       21 0.20004079E+00 0.20720753E+03</pdfrwt>
<totfact> 0.75004978E+03</totfact>
</mgrwt>
</event>
<event>
 4    1  0.4391134E+000  0.1755649E+03  0.7546771E-02  0.1172166E+00
         21   -1    0    0  503  502  0.00000000000E+00  0.00000000000E+00  0.26024294233E+02  0.26024294233E+02  0.00000000000E+00 0. -1.
         21   -1    0    0  501  503 -0.00000000000E+00 -0.00000000000E+00 -0.11844080211E+04  0.11844080211E+04  0.00000000000E+00 0. -1.
          6    1    1    2  501    0 -0.16909879472E+02  0.24659618659E+02 -0.58120788446E+03  0.60714548979E+03  0.17300000000E+03 0.  1.
         -6    1    1    2    0  502  0.16909879472E+02 -0.24659618659E+02 -0.57717584244E+03  0.60328682558E+03  0.17300000000E+03 0.  1.
<mgrwt>
<rscale>  2 0.17556492E+03</rscale>
<asrwt>0</asrwt>
<pdfrwt beam="1">  1       21 0.40037376E-02 0.17556492E+03</pdfrwt>
<pdfrwt beam="2">  1       21 0.18221662E+00 0.17556492E+03</pdfrwt>
<totfact> 0.69461658E+04</totfact>
</mgrwt>
</event>
<event>
 4    1  0.4391134E+000  0.1733221E+03  0.7546771E-02  0.1174427E+00
         21   -1    0    0  503  502  0.00000000000E+00  0.00000000000E+00  0.18098755017E+04  0.18098755017E+04  0.00000000000E+00 0. -1.
         21   -1    0    0  501  503 -0.00000000000E+00 -0.00000000000E+00 -0.24022931654E+02  0.24022931654E+02  0.00000000000E+00 0. -1.
          6    1    1    2  501    0  0.74389896387E+01 -0.74964758187E+01  0.38315552444E+03  0.42053381746E+03  0.17300000000E+03 0. -1.
         -6    1    1    2    0  502 -0.74389896387E+01  0.74964758187E+01  0.14026970456E+04  0.14133646159E+04  0.17300000000E+03 0. -1.
<mgrwt>
<rscale>  2 0.17332206E+03</rscale>
<asrwt>0</asrwt>
<pdfrwt beam="1">  1       21 0.27844228E+00 0.17332206E+03</pdfrwt>
<pdfrwt beam="2">  1       21 0.36958371E-02 0.17332206E+03</pdfrwt>
<totfact> 0.20710411E+04</totfact>
</mgrwt>
</event>
<event>
 4    1  0.4391134E+000  0.1747180E+03  0.7546771E-02  0.1173015E+00
         21   -1    0    0  501  502  0.00000000000E+00  0.00000000000E+00  0.14932774228E+03  0.14932774228E+03  0.00000000000E+00 0.  1.
         21   -1    0    0  502  503 -0.00000000000E+00 -0.00000000000E+00 -0.22378515155E+03  0.22378515155E+03  0.00000000000E+00 0.  1.
          6    1    1    2  501    0  0.21273839773E+02 -0.12033433778E+02  0.17642537675E+02  0.17560648884E+03  0.17300000000E+03 0.  1.
         -6    1    1    2    0  503 -0.21273839773E+02  0.12033433778E+02 -0.92099946941E+02  0.19750640499E+03  0.17300000000E+03 0.  1.
<mgrwt>
<rscale>  2 0.17471800E+03</rscale>
<asrwt>0</asrwt>
<pdfrwt beam="1">  1       21 0.22973499E-01 0.17471800E+03</pdfrwt>
<pdfrwt beam="2">  1       21 0.34428485E-01 0.17471800E+03</pdfrwt>
<totfact> 0.14547413E+05</totfact>
</mgrwt>
</event>
<event>
 4    1  0.4391134E+000  0.1963822E+03  0.7546771E-02  0.1152828E+00
         21   -1    0    0  503  502  0.00000000000E+00  0.00000000000E+00  0.32809752357E+03  0.32809752357E+03  0.00000000000E+00 0. -1.
         21   -1    0    0  501  503 -0.00000000000E+00 -0.00000000000E+00 -0.12666191275E+03  0.12666191275E+03  0.00000000000E+00 0. -1.
          6    1    1    2  501    0  0.49336519810E+02 -0.78758439901E+02  0.39712166749E+02  0.20035728145E+03  0.17300000000E+03 0.  1.
         -6    1    1    2    0  502 -0.49336519810E+02  0.78758439901E+02  0.16172344407E+03  0.25440215488E+03  0.17300000000E+03 0.  1.
<mgrwt>
<rscale>  2 0.19638224E+03</rscale>
<asrwt>0</asrwt>
<pdfrwt beam="1">  1       21 0.50476542E-01 0.19638224E+03</pdfrwt>
<pdfrwt beam="2">  1       21 0.19486448E-01 0.19638224E+03</pdfrwt>
<totfact> 0.90382534E+04</totfact>
</mgrwt>
</event>
<event>
 4    1  0.4391134E+000  0.2362867E+03  0.7546771E-02  0.1122291E+00
         21   -1    0    0  501  502  0.00000000000E+00  0.00000000000E+00  0.93752457299E+02  0.93752457299E+02  0.00000000000E+00 0.  1.
         21   -1    0    0  502  503 -0.00000000000E+00 -0.00000000000E+00 -0.59820235917E+03  0.59820235917E+03  0.00000000000E+00 0. -1.
          6    1    1    2  501    0 -0.60440378066E+02  0.14916228094E+03 -0.27539436056E+03  0.36286840478E+03  0.17300000000E+03 0. -1.
         -6    1    1    2    0  503  0.60440378066E+02 -0.14916228094E+03 -0.22905554131E+03  0.32908641169E+03  0.17300000000E+03 0.  1.
<mgrwt>
<rscale>  2 0.23628674E+03</rscale>
<asrwt>0</asrwt>
<pdfrwt beam="1">  1       21 0.14423455E-01 0.23628674E+03</pdfrwt>
<pdfrwt beam="2">  1       21 0.92031134E-01 0.23628674E+03</pdfrwt>
<totfact> 0.41120977E+04</totfact>
</mgrwt>
</event>
<event>
 4    1  0.4391134E+000  0.1893545E+03  0.7546771E-02  0.1159045E+00
         21   -1    0    0  503  502  0.00000000000E+00  0.00000000000E+00  0.30772675876E+03  0.30772675876E+03  0.00000000000E+00 0. -1.
         21   -1    0    0  501  503 -0.00000000000E+00 -0.00000000000E+00 -0.12699897733E+03  0.12699897733E+03  0.00000000000E+00 0.  1.
          6    1    1    2  501    0 -0.17829795094E+01  0.76960591840E+02  0.27914792050E+02  0.19140101182E+03  0.17300000000E+03 0.  1.
         -6    1    1    2    0  502  0.17829795094E+01 -0.76960591840E+02  0.15281298938E+03  0.24332472426E+03  0.17300000000E+03 0. -1.
<mgrwt>
<rscale>  2 0.18935446E+03</rscale>
<asrwt>0</asrwt>
<pdfrwt beam="1">  1       21 0.47342578E-01 0.18935446E+03</pdfrwt>
<pdfrwt beam="2">  1       21 0.19538304E-01 0.18935446E+03</pdfrwt>
<totfact> 0.10303700E+05</totfact>
</mgrwt>
</event>
<event>
 4    1  0.4391134E+000  0.2179909E+03  0.7546771E-02  0.1135390E+00
         21   -1    0    0  503  502  0.00000000000E+00  0.00000000000E+00  0.24347100622E+03  0.24347100622E+03  0.00000000000E+00 0.  1.
         21   -1    0    0  501  503 -0.00000000000E+00 -0.00000000000E+00 -0.23194249426E+03  0.23194249426E+03  0.00000000000E+00 0. -1.
          6    1    1    2  501    0 -0.11151968376E+03 -0.71793985073E+02 -0.88874652809E+02  0.23541180954E+03  0.17300000000E+03 0. -1.
         -6    1    1    2    0  502  0.11151968376E+03  0.71793985073E+02  0.10040316477E+03  0.24000169094E+03  0.17300000000E+03 0.  1.
<mgrwt>
<rscale>  2 0.21799086E+03</rscale>
<asrwt>0</asrwt>
<pdfrwt beam="1">  1       21 0.37457078E-01 0.21799086E+03</pdfrwt>
<pdfrwt beam="2">  1       21 0.35683461E-01 0.21799086E+03</pdfrwt>
<totfact> 0.51436163E+04</totfact>
</mgrwt>
</event>
<event>
 4    1  0.4391134E+000  0.1874566E+03  0.7546771E-02  0.1160775E+00
         21   -1    0    0  501  502  0.00000000000E+00  0.00000000000E+00  0.35262242258E+03  0.35262242258E+03  0.00000000000E+00 0.  1.
         21   -1    0    0  502  503 -0.00000000000E+00 -0.00000000000E+00 -0.19148126262E+03  0.19148126262E+03  0.00000000000E+00 0.  1.
          6    1    1    2  501    0 -0.54451093944E+02 -0.47392654075E+02  0.26896846517E+03  0.32784755687E+03  0.17300000000E+03 0.  1.
         -6    1    1    2    0  503  0.54451093944E+02  0.47392654075E+02 -0.10782730521E+03  0.21625612833E+03  0.17300000000E+03 0.  1.
<mgrwt>
<rscale>  2 0.18745662E+03</rscale>
<asrwt>0</asrwt>
<pdfrwt beam="1">  1       21 0.54249603E-01 0.18745662E+03</pdfrwt>
<pdfrwt beam="2">  1       21 0.29458656E-01 0.18745662E+03</pdfrwt>
<totfact> 0.35547719E+04</totfact>
</mgrwt>
</event>
<event>
 4    1  0.4391134E+000  0.2761719E+03  0.7546771E-02  0.1097798E+00
         21   -1    0    0  503  502  0.00000000000E+00  0.00000000000E+00  0.21761279855E+04  0.21761279855E+04  0.00000000000E+00 0. -1.
         21   -1    0    0  501  503 -0.00000000000E+00 -0.00000000000E+00 -0.81221527751E+02  0.81221527751E+02  0.00000000000E+00 0.  1.
          6    1    1    2  501    0 -0.13032479899E+03 -0.17133984298E+03  0.19646113669E+03  0.33892163291E+03  0.17300000000E+03 0.  1.
         -6    1    1    2    0  502  0.13032479899E+03  0.17133984298E+03  0.18984453210E+04  0.19184278803E+04  0.17300000000E+03 0. -1.
<mgrwt>
<rscale>  2 0.27617186E+03</rscale>
<asrwt>0</asrwt>
<pdfrwt beam="1">  1       21 0.33478888E+00 0.27617186E+03</pdfrwt>
<pdfrwt beam="2">  1       21 0.12495621E-01 0.27617186E+03</pdfrwt>
<totfact> 0.10621580E+03</totfact>
</mgrwt>
</event>
<event>
 4    1  0.4391134E+000  0.2852056E+03  0.7546771E-02  0.1092879E+00
         21   -1    0    0  501  502  0.00000000000E+00  0.00000000000E+00  0.75071197408E+03  0.75071197408E+03  0.00000000000E+00 0.  1.
         21   -1    0    0  502  503 -0.00000000000E+00 -0.00000000000E+00 -0.13464517620E+03  0.13464517620E+03  0.00000000000E+00 0. -1.
          6    1    1    2  501    0  0.20682120302E+03 -0.92942185234E+02  0.50364848821E+03  0.57879535200E+03  0.17300000000E+03 0.  1.
         -6    1    1    2    0  503 -0.20682120302E+03  0.92942185234E+02  0.11241830967E+03  0.30656179828E+03  0.17300000000E+03 0. -1.
<mgrwt>
<rscale>  2 0.28520564E+03</rscale>
<asrwt>0</asrwt>
<pdfrwt beam="1">  1       21 0.11549415E+00 0.28520564E+03</pdfrwt>
<pdfrwt beam="2">  1       21 0.20714643E-01 0.28520564E+03</pdfrwt>
<totfact> 0.11877758E+04</totfact>
</mgrwt>
</event>
<event>
 4    1  0.4391134E+000  0.2654861E+03  0.7546771E-02  0.1103891E+00
         21   -1    0    0  501  502  0.00000000000E+00  0.00000000000E+00  0.23331434778E+03  0.23331434778E+03  0.00000000000E+00 0. -1.
         21   -1    0    0  502  503 -0.00000000000E+00 -0.00000000000E+00 -0.51643678331E+03  0.51643678331E+03  0.00000000000E+00 0. -1.
          6    1    1    2  501    0  0.15914052377E+03  0.12340247949E+03  0.99947562102E+02  0.28367656480E+03  0.17300000000E+03 0. -1.
         -6    1    1    2    0  503 -0.15914052377E+03 -0.12340247949E+03 -0.38306999763E+03  0.46607456628E+03  0.17300000000E+03 0. -1.
<mgrwt>
<rscale>  2 0.26548612E+03</rscale>
<asrwt>0</asrwt>
<pdfrwt beam="1">  1       21 0.35894516E-01 0.26548612E+03</pdfrwt>
<pdfrwt beam="2">  1       21 0.79451811E-01 0.26548612E+03</pdfrwt>
<totfact> 0.10002575E+04</totfact>
</mgrwt>
</event>
<event>
 4    1  0.4391134E+000  0.2755776E+03  0.7546771E-02  0.1098129E+00
         21   -1    0    0  501  502  0.00000000000E+00  0.00000000000E+00  0.53619899524E+03  0.53619899524E+03  0.00000000000E+00 0.  1.
         21   -1    0    0  502  503 -0.00000000000E+00 -0.00000000000E+00 -0.23859714782E+03  0.23859714782E+03  0.00000000000E+00 0. -1.
          6    1    1    2  501    0 -0.14905782476E+03 -0.15425886511E+03  0.39576413261E+03  0.48225748439E+03  0.17300000000E+03 0.  1.
         -6    1    1    2    0  503  0.14905782476E+03  0.15425886511E+03 -0.98162285190E+02  0.29253865868E+03  0.17300000000E+03 0. -1.
<mgrwt>
<rscale>  2 0.27557763E+03</rscale>
<asrwt>0</asrwt>
<pdfrwt beam="1">  1       21 0.82492153E-01 0.27557763E+03</pdfrwt>
<pdfrwt beam="2">  1       21 0.36707254E-01 0.27557763E+03</pdfrwt>
<totfact> 0.87299494E+03</totfact>
</mgrwt>
</event>
<event>
 4    1  0.4391134E+000  0.2177173E+03  0.7546771E-02  0.1135596E+00
         21   -1    0    0  503  502  0.00000000000E+00  0.00000000000E+00  0.24222009812E+03  0.24222009812E+03  0.00000000000E+00 0. -1.
         21   -1    0    0  501  503 -0.00000000000E+00 -0.00000000000E+00 -0.21074388005E+03  0.21074388005E+03  0.00000000000E+00 0.  1.
          6    1    1    2  501    0  0.12968345268E+03 -0.25574159745E+02 -0.44786735715E+02  0.22227615086E+03  0.17300000000E+03 0.  1.
         -6    1    1    2    0  502 -0.12968345268E+03  0.25574159745E+02  0.76262953787E+02  0.23068782731E+03  0.17300000000E+03 0.  1.
<mgrwt>
<rscale>  2 0.21771733E+03</rscale>
<asrwt>0</asrwt>
<pdfrwt beam="1">  1       21 0.37264631E-01 0.21771733E+03</pdfrwt>
<pdfrwt beam="2">  1       21 0.32422135E-01 0.21771733E+03</pdfrwt>
<totfact> 0.62862608E+04</totfact>
</mgrwt>
</event>
<event>
 4    1  0.4391134E+000  0.2345367E+03  0.7546771E-02  0.1123487E+00
         21   -1    0    0  503  502  0.00000000000E+00  0.00000000000E+00  0.29068467967E+03  0.29068467967E+03  0.00000000000E+00 0.  1.
         21   -1    0    0  501  503 -0.00000000000E+00 -0.00000000000E+00 -0.19059313763E+03  0.19059313763E+03  0.00000000000E+00 0.  1.
          6    1    1    2  501    0 -0.14442023152E+03 -0.64971252670E+02  0.29725911493E+02  0.23641297925E+03  0.17300000000E+03 0.  1.
         -6    1    1    2    0  502  0.14442023152E+03  0.64971252670E+02  0.70365630548E+02  0.24486483804E+03  0.17300000000E+03 0.  1.
<mgrwt>
<rscale>  2 0.23453671E+03</rscale>
<asrwt>0</asrwt>
<pdfrwt beam="1">  1       21 0.44720720E-01 0.23453671E+03</pdfrwt>
<pdfrwt beam="2">  1       21 0.29322021E-01 0.23453671E+03</pdfrwt>
<totfact> 0.52465741E+04</totfact>
</mgrwt>
</event>
<event>
 4    1  0.4391134E+000  0.2075032E+03  0.7546771E-02  0.1143559E+00
         21   -1    0    0  503  502  0.00000000000E+00  0.00000000000E+00  0.11401713661E+04  0.11401713661E+04  0.00000000000E+00 0. -1.
         21   -1    0    0  501  503 -0.00000000000E+00 -0.00000000000E+00 -0.12107712139E+03  0.12107712139E+03  0.00000000000E+00 0.  1.
          6    1    1    2  501    0 -0.92447174188E+02 -0.67691245558E+02 -0.13566430435E+02  0.20794622568E+03  0.17300000000E+03 0.  1.
         -6    1    1    2    0  502  0.92447174188E+02  0.67691245558E+02  0.10326606751E+04  0.10533022618E+04  0.17300000000E+03 0. -1.
<mgrwt>
<rscale>  2 0.20750322E+03</rscale>
<asrwt>0</asrwt>
<pdfrwt beam="1">  1       21 0.17541097E+00 0.20750322E+03</pdfrwt>
<pdfrwt beam="2">  1       21 0.18627250E-01 0.20750322E+03</pdfrwt>
<totfact> 0.50892829E+03</totfact>
</mgrwt>
</event>
<event>
 4    1  0.4391134E+000  0.1956241E+03  0.7546771E-02  0.1153484E+00
         21   -1    0    0  501  502  0.00000000000E+00  0.00000000000E+00  0.11053376392E+03  0.11053376392E+03  0.00000000000E+00 0.  1.
         21   -1    0    0  502  503 -0.00000000000E+00 -0.00000000000E+00 -0.41481968246E+03  0.41481968246E+03  0.00000000000E+00 0.  1.
          6    1    1    2  501    0 -0.75492015449E+02 -0.51388008552E+02 -0.45321257485E+02  0.20080534903E+03  0.17300000000E+03 0.  1.
         -6    1    1    2    0  503  0.75492015449E+02  0.51388008552E+02 -0.25896466106E+03  0.32454809735E+03  0.17300000000E+03 0.  1.
<mgrwt>
<rscale>  2 0.19562406E+03</rscale>
<asrwt>0</asrwt>
<pdfrwt beam="1">  1       21 0.17005194E-01 0.19562406E+03</pdfrwt>
<pdfrwt beam="2">  1       21 0.63818414E-01 0.19562406E+03</pdfrwt>
<totfact> 0.70627023E+04</totfact>
</mgrwt>
</event>
<event>
 4    1  0.4391134E+000  0.1746753E+03  0.7546771E-02  0.1173058E+00
         21   -1    0    0  503  502  0.00000000000E+00  0.00000000000E+00  0.22883034703E+02  0.22883034703E+02  0.00000000000E+00 0. -1.
         21   -1    0    0  501  503 -0.00000000000E+00 -0.00000000000E+00 -0.15307449460E+04  0.15307449460E+04  0.00000000000E+00 0. -1.
          6    1    1    2  501    0 -0.18710692994E+02 -0.15243812477E+02 -0.47498769659E+03  0.50608771548E+03  0.17300000000E+03 0. -1.
         -6    1    1    2    0  502  0.18710692994E+02  0.15243812477E+02 -0.10328742147E+04  0.10475402652E+04  0.17300000000E+03 0. -1.
<mgrwt>
<rscale>  2 0.17467531E+03</rscale>
<asrwt>0</asrwt>
<pdfrwt beam="1">  1       21 0.35204666E-02 0.17467531E+03</pdfrwt>
<pdfrwt beam="2">  1       21 0.23549924E+00 0.17467531E+03</pdfrwt>
<totfact> 0.39871731E+04</totfact>
</mgrwt>
</event>
<event>
 4    1  0.4391134E+000  0.2115967E+03  0.7546771E-02  0.1140308E+00
         21   -1    0    0  503  502  0.00000000000E+00  0.00000000000E+00  0.84908688441E+02  0.84908688441E+02  0.00000000000E+00 0.  1.
         21   -1    0    0  501  503 -0.00000000000E+00 -0.00000000000E+00 -0.57963727211E+03  0.57963727211E+03  0.00000000000E+00 0.  1.
          6    1    1    2  501    0 -0.11860062665E+03 -0.27893523025E+02 -0.34719934080E+03  0.40659628567E+03  0.17300000000E+03 0.  1.
         -6    1    1    2    0  502  0.11860062665E+03  0.27893523025E+02 -0.14752924287E+03  0.25794967488E+03  0.17300000000E+03 0.  1.
<mgrwt>
<rscale>  2 0.21159669E+03</rscale>
<asrwt>0</asrwt>
<pdfrwt beam="1">  1       21 0.13062875E-01 0.21159669E+03</pdfrwt>
<pdfrwt beam="2">  1       21 0.89174963E-01 0.21159669E+03</pdfrwt>
<totfact> 0.53578996E+04</totfact>
</mgrwt>
</event>
<event>
 4    1  0.4391134E+000  0.1906491E+03  0.7546771E-02  0.1157877E+00
         21   -1    0    0  501  502  0.00000000000E+00  0.00000000000E+00  0.63856631630E+03  0.63856631630E+03  0.00000000000E+00 0. -1.
         21   -1    0    0  502  503 -0.00000000000E+00 -0.00000000000E+00 -0.82301427824E+02  0.82301427824E+02  0.00000000000E+00 0. -1.
          6    1    1    2  501    0 -0.29823184371E+02  0.74354842077E+02  0.47829446512E+03  0.51489092071E+03  0.17300000000E+03 0. -1.
         -6    1    1    2    0  503  0.29823184371E+02 -0.74354842077E+02  0.77970423363E+02  0.20597682342E+03  0.17300000000E+03 0. -1.
<mgrwt>
<rscale>  2 0.19064906E+03</rscale>
<asrwt>0</asrwt>
<pdfrwt beam="1">  1       21 0.98240969E-01 0.19064906E+03</pdfrwt>
<pdfrwt beam="2">  1       21 0.12661759E-01 0.19064906E+03</pdfrwt>
<totfact> 0.45678238E+04</totfact>
</mgrwt>
</event>
<event>
 4    1  0.4391134E+000  0.1808270E+03  0.7546771E-02  0.1167005E+00
         21   -1    0    0  503  502  0.00000000000E+00  0.00000000000E+00  0.53446401358E+02  0.53446401358E+02  0.00000000000E+00 0.  1.
         21   -1    0    0  501  503 -0.00000000000E+00 -0.00000000000E+00 -0.61852601115E+03  0.61852601115E+03  0.00000000000E+00 0. -1.
          6    1    1    2  501    0  0.30294616855E+02  0.43030692713E+02 -0.24749819234E+03  0.30651877518E+03  0.17300000000E+03 0. -1.
         -6    1    1    2    0  502 -0.30294616855E+02 -0.43030692713E+02 -0.31758141746E+03  0.36545363733E+03  0.17300000000E+03 0. -1.
<mgrwt>
<rscale>  2 0.18082700E+03</rscale>
<asrwt>0</asrwt>
<pdfrwt beam="1">  1       21 0.82225245E-02 0.18082700E+03</pdfrwt>
<pdfrwt beam="2">  1       21 0.95157834E-01 0.18082700E+03</pdfrwt>
<totfact> 0.10606298E+05</totfact>
</mgrwt>
</event>
<event>
 4    1  0.4391134E+000  0.2732486E+03  0.7546771E-02  0.1099435E+00
         21   -1    0    0  501  502  0.00000000000E+00  0.00000000000E+00  0.15430085247E+03  0.15430085247E+03  0.00000000000E+00 0.  1.
         21   -1    0    0  502  503 -0.00000000000E+00 -0.00000000000E+00 -0.49360121016E+03  0.49360121016E+03  0.00000000000E+00 0. -1.
          6    1    1    2  501    0 -0.35641393975E+02 -0.20848377608E+03 -0.12421360600E+03  0.30015631556E+03  0.17300000000E+03 0.  1.
         -6    1    1    2    0  503  0.35641393975E+02  0.20848377608E+03 -0.21508675169E+03  0.34774574707E+03  0.17300000000E+03 0. -1.
<mgrwt>
<rscale>  2 0.27324859E+03</rscale>
<asrwt>0</asrwt>
<pdfrwt beam="1">  1       21 0.23738593E-01 0.27324859E+03</pdfrwt>
<pdfrwt beam="2">  1       21 0.75938648E-01 0.27324859E+03</pdfrwt>
<totfact> 0.24821200E+04</totfact>
</mgrwt>
</event>
<event>
 4    1  0.4391134E+000  0.2342016E+03  0.7546771E-02  0.1123717E+00
         21   -1    0    0  503  502  0.00000000000E+00  0.00000000000E+00  0.11591890070E+03  0.11591890070E+03  0.00000000000E+00 0. -1.
         21   -1    0    0  501  503 -0.00000000000E+00 -0.00000000000E+00 -0.57698064497E+03  0.57698064497E+03  0.00000000000E+00 0. -1.
          6    1    1    2  501    0 -0.59116599146E+02  0.14637826484E+03 -0.37747835521E+03  0.44422998251E+03  0.17300000000E+03 0. -1.
         -6    1    1    2    0  502  0.59116599146E+02 -0.14637826484E+03 -0.83583389067E+02  0.24866956316E+03  0.17300000000E+03 0. -1.
<mgrwt>
<rscale>  2 0.23420156E+03</rscale>
<asrwt>0</asrwt>
<pdfrwt beam="1">  1       21 0.17833677E-01 0.23420156E+03</pdfrwt>
<pdfrwt beam="2">  1       21 0.88766253E-01 0.23420156E+03</pdfrwt>
<totfact> 0.30302491E+04</totfact>
</mgrwt>
</event>
<event>
 4    1  0.4391134E+000  0.1932016E+03  0.7546771E-02  0.1155605E+00
         21   -1    0    0  501  502  0.00000000000E+00  0.00000000000E+00  0.13150636948E+03  0.13150636948E+03  0.00000000000E+00 0. -1.
         21   -1    0    0  502  503 -0.00000000000E+00 -0.00000000000E+00 -0.49765243041E+03  0.49765243041E+03  0.00000000000E+00 0. -1.
          6    1    1    2  501    0 -0.66881309777E+02 -0.54080788338E+02  0.23124340454E+02  0.19458051389E+03  0.17300000000E+03 0. -1.
         -6    1    1    2    0  503  0.66881309777E+02  0.54080788338E+02 -0.38927040138E+03  0.43457828599E+03  0.17300000000E+03 0. -1.
<mgrwt>
<rscale>  2 0.19320156E+03</rscale>
<asrwt>0</asrwt>
<pdfrwt beam="1">  1       21 0.20231749E-01 0.19320156E+03</pdfrwt>
<pdfrwt beam="2">  1       21 0.76561912E-01 0.19320156E+03</pdfrwt>
<totfact> 0.34292311E+04</totfact>
</mgrwt>
</event>
<event>
 4    1  0.4391134E+000  0.2086417E+03  0.7546771E-02  0.1142646E+00
         21   -1    0    0  501  502  0.00000000000E+00  0.00000000000E+00  0.34673280747E+03  0.34673280747E+03  0.00000000000E+00 0.  1.
         21   -1    0    0  502  503 -0.00000000000E+00 -0.00000000000E+00 -0.55087521831E+03  0.55087521831E+03  0.00000000000E+00 0.  1.
          6    1    1    2  501    0  0.11586515532E+03  0.13326841212E+02  0.29228810760E+03  0.35911513023E+03  0.17300000000E+03 0.  1.
         -6    1    1    2    0  503 -0.11586515532E+03 -0.13326841212E+02 -0.49643051845E+03  0.53849289555E+03  0.17300000000E+03 0.  1.
<mgrwt>
<rscale>  2 0.20864165E+03</rscale>
<asrwt>0</asrwt>
<pdfrwt beam="1">  1       21 0.53343509E-01 0.20864165E+03</pdfrwt>
<pdfrwt beam="2">  1       21 0.84750033E-01 0.20864165E+03</pdfrwt>
<totfact> 0.39625045E+03</totfact>
</mgrwt>
</event>
<event>
 4    1  0.4391134E+000  0.1793859E+03  0.7546771E-02  0.1168399E+00
         21   -1    0    0  501  502  0.00000000000E+00  0.00000000000E+00  0.76391296881E+03  0.76391296881E+03  0.00000000000E+00 0. -1.
         21   -1    0    0  502  503 -0.00000000000E+00 -0.00000000000E+00 -0.43545124993E+02  0.43545124993E+02  0.00000000000E+00 0. -1.
          6    1    1    2  501    0  0.44399810022E+01  0.47229054617E+02  0.43311135508E+03  0.46879072402E+03  0.17300000000E+03 0.  1.
         -6    1    1    2    0  503 -0.44399810022E+01 -0.47229054617E+02  0.28725648874E+03  0.33866736978E+03  0.17300000000E+03 0.  1.
<mgrwt>
<rscale>  2 0.17938589E+03</rscale>
<asrwt>0</asrwt>
<pdfrwt beam="1">  1       21 0.11752506E+00 0.17938589E+03</pdfrwt>
<pdfrwt beam="2">  1       21 0.66992506E-02 0.17938589E+03</pdfrwt>
<totfact> 0.91250110E+04</totfact>
</mgrwt>
</event>
<event>
 4    1  0.4391134E+000  0.2170332E+03  0.7546771E-02  0.1136114E+00
         21   -1    0    0  501  502  0.00000000000E+00  0.00000000000E+00  0.72795193671E+03  0.72795193671E+03  0.00000000000E+00 0.  1.
         21   -1    0    0  502  503 -0.00000000000E+00 -0.00000000000E+00 -0.69192828074E+02  0.69192828074E+02  0.00000000000E+00 0.  1.
          6    1    1    2  501    0  0.27839676902E+01 -0.13102158514E+03  0.43086643980E+03  0.48244097586E+03  0.17300000000E+03 0.  1.
         -6    1    1    2    0  503 -0.27839676902E+01  0.13102158514E+03  0.22789266884E+03  0.31470378892E+03  0.17300000000E+03 0.  1.
<mgrwt>
<rscale>  2 0.21703319E+03</rscale>
<asrwt>0</asrwt>
<pdfrwt beam="1">  1       21 0.11199260E+00 0.21703319E+03</pdfrwt>
<pdfrwt beam="2">  1       21 0.10645051E-01 0.21703319E+03</pdfrwt>
<totfact> 0.44847763E+04</totfact>
</mgrwt>
</event>
<event>
 4    1  0.4391134E+000  0.1808016E+03  0.7546771E-02  0.1167030E+00
         21   -1    0    0  503  502  0.00000000000E+00  0.00000000000E+00  0.31985000336E+03  0.31985000336E+03  0.00000000000E+00 0. -1.
         21   -1    0    0  501  503 -0.00000000000E+00 -0.00000000000E+00 -0.11709596171E+03  0.11709596171E+03  0.00000000000E+00 0. -1.
          6    1    1    2  501    0 -0.49535812703E+02 -0.17504694177E+02  0.23459270112E+02  0.18231716434E+03  0.17300000000E+03 0.  1.
         -6    1    1    2    0  502  0.49535812703E+02  0.17504694177E+02  0.17929477154E+03  0.25462880072E+03  0.17300000000E+03 0.  1.
<mgrwt>
<rscale>  2 0.18080158E+03</rscale>
<asrwt>0</asrwt>
<pdfrwt beam="1">  1       21 0.49207693E-01 0.18080158E+03</pdfrwt>
<pdfrwt beam="2">  1       21 0.18014763E-01 0.18080158E+03</pdfrwt>
<totfact> 0.11090956E+05</totfact>
</mgrwt>
</event>
<event>
 4    1  0.4391134E+000  0.2140606E+03  0.7546771E-02  0.1138390E+00
         21   -1    0    0  503  502  0.00000000000E+00  0.00000000000E+00  0.11908334360E+04  0.11908334360E+04  0.00000000000E+00 0. -1.
         21   -1    0    0  501  503 -0.00000000000E+00 -0.00000000000E+00 -0.57756585081E+02  0.57756585081E+02  0.00000000000E+00 0. -1.
          6    1    1    2  501    0 -0.95712750289E+02  0.82048831789E+02  0.92721400144E+03  0.95160272480E+03  0.17300000000E+03 0. -1.
         -6    1    1    2    0  502  0.95712750289E+02 -0.82048831789E+02  0.20586284950E+03  0.29698729631E+03  0.17300000000E+03 0. -1.
<mgrwt>
<rscale>  2 0.21406060E+03</rscale>
<asrwt>0</asrwt>
<pdfrwt beam="1">  1       21 0.18320513E+00 0.21406060E+03</pdfrwt>
<pdfrwt beam="2">  1       21 0.88856294E-02 0.21406060E+03</pdfrwt>
<totfact> 0.17023856E+04</totfact>
</mgrwt>
</event>
<event>
 4    1  0.4391134E+000  0.2105163E+03  0.7546771E-02  0.1141158E+00
         21   -1    0    0  501  502  0.00000000000E+00  0.00000000000E+00  0.26200532672E+03  0.26200532672E+03  0.00000000000E+00 0. -1.
         21   -1    0    0  502  503 -0.00000000000E+00 -0.00000000000E+00 -0.17291655207E+03  0.17291655207E+03  0.00000000000E+00 0. -1.
          6    1    1    2  501    0  0.87725924700E+01 -0.11962925412E+03  0.76656834169E+02  0.22403880701E+03  0.17300000000E+03 0. -1.
         -6    1    1    2    0  503 -0.87725924700E+01  0.11962925412E+03  0.12431940486E+02  0.21088307178E+03  0.17300000000E+03 0. -1.
<mgrwt>
<rscale>  2 0.21051631E+03</rscale>
<asrwt>0</asrwt>
<pdfrwt beam="1">  1       21 0.40308512E-01 0.21051631E+03</pdfrwt>
<pdfrwt beam="2">  1       21 0.26602546E-01 0.21051631E+03</pdfrwt>
<totfact> 0.79145929E+04</totfact>
</mgrwt>
</event>
<event>
 4    1  0.4391134E+000  0.2386856E+03  0.7546771E-02  0.1120672E+00
         21   -1    0    0  501  502  0.00000000000E+00  0.00000000000E+00  0.23363477851E+03  0.23363477851E+03  0.00000000000E+00 0. -1.
         21   -1    0    0  502  503 -0.00000000000E+00 -0.00000000000E+00 -0.30057689451E+03  0.30057689451E+03  0.00000000000E+00 0. -1.
          6    1    1    2  501    0 -0.16155439650E+03  0.30692281998E+02  0.82571286509E+02  0.25256455919E+03  0.17300000000E+03 0. -1.
         -6    1    1    2    0  503  0.16155439650E+03 -0.30692281998E+02 -0.14951340250E+03  0.28164711383E+03  0.17300000000E+03 0. -1.
<mgrwt>
<rscale>  2 0.23868565E+03</rscale>
<asrwt>0</asrwt>
<pdfrwt beam="1">  1       21 0.35943812E-01 0.23868565E+03</pdfrwt>
<pdfrwt beam="2">  1       21 0.46242599E-01 0.23868565E+03</pdfrwt>
<totfact> 0.32675690E+04</totfact>
</mgrwt>
</event>
<event>
 4    1  0.4391134E+000  0.2083093E+03  0.7546771E-02  0.1142912E+00
         21   -1    0    0  501  502  0.00000000000E+00  0.00000000000E+00  0.26616574283E+03  0.26616574283E+03  0.00000000000E+00 0. -1.
         21   -1    0    0  502  503 -0.00000000000E+00 -0.00000000000E+00 -0.30021633765E+03  0.30021633765E+03  0.00000000000E+00 0. -1.
          6    1    1    2  501    0  0.11123720423E+03  0.33016150034E+02  0.17440870640E+03  0.27168212793E+03  0.17300000000E+03 0. -1.
         -6    1    1    2    0  503 -0.11123720423E+03 -0.33016150034E+02 -0.20845930122E+03  0.29469995255E+03  0.17300000000E+03 0. -1.
<mgrwt>
<rscale>  2 0.20830934E+03</rscale>
<asrwt>0</asrwt>
<pdfrwt beam="1">  1       21 0.40948576E-01 0.20830934E+03</pdfrwt>
<pdfrwt beam="2">  1       21 0.46187129E-01 0.20830934E+03</pdfrwt>
<totfact> 0.25573562E+04</totfact>
</mgrwt>
</event>
<event>
 4    1  0.4391134E+000  0.2140782E+03  0.7546771E-02  0.1138377E+00
         21   -1    0    0  501  502  0.00000000000E+00  0.00000000000E+00  0.20842274687E+03  0.20842274687E+03  0.00000000000E+00 0.  1.
         21   -1    0    0  502  503 -0.00000000000E+00 -0.00000000000E+00 -0.25593402193E+03  0.25593402193E+03  0.00000000000E+00 0.  1.
          6    1    1    2  501    0  0.44720008852E+02  0.11790073179E+03 -0.11089055083E+03  0.24109370794E+03  0.17300000000E+03 0.  1.
         -6    1    1    2    0  503 -0.44720008852E+02 -0.11790073179E+03  0.63379275772E+02  0.22326306086E+03  0.17300000000E+03 0.  1.
<mgrwt>
<rscale>  2 0.21407817E+03</rscale>
<asrwt>0</asrwt>
<pdfrwt beam="1">  1       21 0.32065038E-01 0.21407817E+03</pdfrwt>
<pdfrwt beam="2">  1       21 0.39374465E-01 0.21407817E+03</pdfrwt>
<totfact> 0.57598139E+04</totfact>
</mgrwt>
</event>
<event>
 4    1  0.4391134E+000  0.2029616E+03  0.7546771E-02  0.1147264E+00
         21   -1    0    0  501  502  0.00000000000E+00  0.00000000000E+00  0.35544902660E+02  0.35544902660E+02  0.00000000000E+00 0.  1.
         21   -1    0    0  502  503 -0.00000000000E+00 -0.00000000000E+00 -0.12817494005E+04  0.12817494005E+04  0.00000000000E+00 0.  1.
          6    1    1    2  501    0  0.10512917403E+03 -0.14569671382E+02 -0.82700183773E+03  0.85154298668E+03  0.17300000000E+03 0.  1.
         -6    1    1    2    0  503 -0.10512917403E+03  0.14569671382E+02 -0.41920266008E+03  0.46575131645E+03  0.17300000000E+03 0.  1.
<mgrwt>
<rscale>  2 0.20296162E+03</rscale>
<asrwt>0</asrwt>
<pdfrwt beam="1">  1       21 0.54684473E-02 0.20296162E+03</pdfrwt>
<pdfrwt beam="2">  1       21 0.19719219E+00 0.20296162E+03</pdfrwt>
<totfact> 0.32106175E+04</totfact>
</mgrwt>
</event>
<event>
 4    1  0.4391134E+000  0.2349541E+03  0.7546771E-02  0.1123201E+00
         21   -1    0    0  503  502  0.00000000000E+00  0.00000000000E+00  0.86504304688E+03  0.86504304688E+03  0.00000000000E+00 0. -1.
         21   -1    0    0  501  503 -0.00000000000E+00 -0.00000000000E+00 -0.78875722598E+02  0.78875722598E+02  0.00000000000E+00 0.  1.
          6    1    1    2  501    0 -0.11435499267E+03  0.11044172747E+03  0.18685743495E+03  0.30019850185E+03  0.17300000000E+03 0.  1.
         -6    1    1    2    0  502  0.11435499267E+03 -0.11044172747E+03  0.59930988933E+03  0.64372026763E+03  0.17300000000E+03 0. -1.
<mgrwt>
<rscale>  2 0.23495412E+03</rscale>
<asrwt>0</asrwt>
<pdfrwt beam="1">  1       21 0.13308354E+00 0.23495412E+03</pdfrwt>
<pdfrwt beam="2">  1       21 0.12134727E-01 0.23495412E+03</pdfrwt>
<totfact> 0.22846302E+04</totfact>
</mgrwt>
</event>
<event>
 4    1  0.4391134E+000  0.1975928E+03  0.7546771E-02  0.1151786E+00
         21   -1    0    0  503  502  0.00000000000E+00  0.00000000000E+00  0.26590916663E+02  0.26590916663E+02  0.00000000000E+00 0. -1.
         21   -1    0    0  501  503 -0.00000000000E+00 -0.00000000000E+00 -0.16870316950E+04  0.16870316950E+04  0.00000000000E+00 0. -1.
          6    1    1    2  501    0 -0.90318722055E+02 -0.30926415988E+02 -0.11387516294E+04  0.11557673591E+04  0.17300000000E+03 0.  1.
         -6    1    1    2    0  502  0.90318722055E+02  0.30926415988E+02 -0.52168914890E+03  0.55785525259E+03  0.17300000000E+03 0.  1.
<mgrwt>
<rscale>  2 0.19759280E+03</rscale>
<asrwt>0</asrwt>
<pdfrwt beam="1">  1       21 0.40909092E-02 0.19759280E+03</pdfrwt>
<pdfrwt beam="2">  1       21 0.25954341E+00 0.19759280E+03</pdfrwt>
<totfact> 0.21966334E+04</totfact>
</mgrwt>
</event>
<event>
 4    1  0.4391134E+000  0.2433082E+03  0.7546771E-02  0.1117608E+00
         21   -1    0    0  501  502  0.00000000000E+00  0.00000000000E+00  0.29968414679E+03  0.29968414679E+03  0.00000000000E+00 0.  1.
         21   -1    0    0  502  503 -0.00000000000E+00 -0.00000000000E+00 -0.22134726206E+03  0.22134726206E+03  0.00000000000E+00 0.  1.
          6    1    1    2  501    0  0.17106613921E+03  0.24971393441E+01  0.12461100820E+03  0.27336196344E+03  0.17300000000E+03 0.  1.
         -6    1    1    2    0  503 -0.17106613921E+03 -0.24971393441E+01 -0.46274123477E+02  0.24766944542E+03  0.17300000000E+03 0.  1.
<mgrwt>
<rscale>  2 0.24330816E+03</rscale>
<asrwt>0</asrwt>
<pdfrwt beam="1">  1       21 0.46105253E-01 0.24330816E+03</pdfrwt>
<pdfrwt beam="2">  1       21 0.34053425E-01 0.24330816E+03</pdfrwt>
<totfact> 0.36545581E+04</totfact>
</mgrwt>
</event>
<event>
 4    1  0.4391134E+000  0.2861292E+03  0.7546771E-02  0.1092388E+00
         21   -1    0    0  501  502  0.00000000000E+00  0.00000000000E+00  0.47448084084E+03  0.47448084084E+03  0.00000000000E+00 0.  1.
         21   -1    0    0  502  503 -0.00000000000E+00 -0.00000000000E+00 -0.35446891785E+03  0.35446891785E+03  0.00000000000E+00 0. -1.
          6    1    1    2  501    0 -0.11724141550E+03 -0.19543638217E+03  0.35693484384E+03  0.45746301679E+03  0.17300000000E+03 0.  1.
         -6    1    1    2    0  503  0.11724141550E+03  0.19543638217E+03 -0.23692292086E+03  0.37148674190E+03  0.17300000000E+03 0. -1.
<mgrwt>
<rscale>  2 0.28612922E+03</rscale>
<asrwt>0</asrwt>
<pdfrwt beam="1">  1       21 0.72997053E-01 0.28612922E+03</pdfrwt>
<pdfrwt beam="2">  1       21 0.54533679E-01 0.28612922E+03</pdfrwt>
<totfact> 0.50466486E+03</totfact>
</mgrwt>
</event>
<event>
 4    1  0.4391134E+000  0.1917438E+03  0.7546771E-02  0.1156898E+00
         21   -1    0    0  503  502  0.00000000000E+00  0.00000000000E+00  0.13370833807E+03  0.13370833807E+03  0.00000000000E+00 0. -1.
         21   -1    0    0  501  503 -0.00000000000E+00 -0.00000000000E+00 -0.38649110380E+03  0.38649110380E+03  0.00000000000E+00 0. -1.
          6    1    1    2  501    0 -0.72878974490E+02  0.39055827856E+02 -0.26610856465E+03  0.32799309565E+03  0.17300000000E+03 0. -1.
         -6    1    1    2    0  502  0.72878974490E+02 -0.39055827856E+02  0.13325798918E+02  0.19220634622E+03  0.17300000000E+03 0. -1.
<mgrwt>
<rscale>  2 0.19174385E+03</rscale>
<asrwt>0</asrwt>
<pdfrwt beam="1">  1       21 0.20570514E-01 0.19174385E+03</pdfrwt>
<pdfrwt beam="2">  1       21 0.59460169E-01 0.19174385E+03</pdfrwt>
<totfact> 0.57885480E+04</totfact>
</mgrwt>
</event>
<event>
 4    1  0.4391134E+000  0.1883090E+03  0.7546771E-02  0.1159995E+00
         21   -1    0    0  503  502  0.00000000000E+00  0.00000000000E+00  0.10968483921E+03  0.10968483921E+03  0.00000000000E+00 0.  1.
         21   -1    0    0  501  503 -0.00000000000E+00 -0.00000000000E+00 -0.32355738049E+03  0.32355738049E+03  0.00000000000E+00 0. -1.
          6    1    1    2  501    0  0.31344963465E+02  0.67444582280E+02 -0.10073749513E+03  0.21356104827E+03  0.17300000000E+03 0.  1.
         -6    1    1    2    0  502 -0.31344963465E+02 -0.67444582280E+02 -0.11313504614E+03  0.21968117143E+03  0.17300000000E+03 0. -1.
<mgrwt>
<rscale>  2 0.18830900E+03</rscale>
<asrwt>0</asrwt>
<pdfrwt beam="1">  1       21 0.16874591E-01 0.18830900E+03</pdfrwt>
<pdfrwt beam="2">  1       21 0.49778058E-01 0.18830900E+03</pdfrwt>
<totfact> 0.12181385E+05</totfact>
</mgrwt>
</event>
<event>
 4    1  0.4391134E+000  0.1866488E+03  0.7546771E-02  0.1161519E+00
         21   -1    0    0  501  502  0.00000000000E+00  0.00000000000E+00  0.97551787378E+02  0.97551787378E+02  0.00000000000E+00 0.  1.
         21   -1    0    0  502  503 -0.00000000000E+00 -0.00000000000E+00 -0.50664589105E+03  0.50664589105E+03  0.00000000000E+00 0.  1.
          6    1    1    2  501    0 -0.34363988181E+02  0.61056385583E+02 -0.40429916464E+02  0.19097733910E+03  0.17300000000E+03 0.  1.
         -6    1    1    2    0  503  0.34363988181E+02 -0.61056385583E+02 -0.36866418721E+03  0.41322033933E+03  0.17300000000E+03 0.  1.
<mgrwt>
<rscale>  2 0.18664878E+03</rscale>
<asrwt>0</asrwt>
<pdfrwt beam="1">  1       21 0.15007967E-01 0.18664878E+03</pdfrwt>
<pdfrwt beam="2">  1       21 0.77945521E-01 0.18664878E+03</pdfrwt>
<totfact> 0.57315651E+04</totfact>
</mgrwt>
</event>
<event>
 4    1  0.4391134E+000  0.1823701E+03  0.7546771E-02  0.1165529E+00
         21   -1    0    0  503  502  0.00000000000E+00  0.00000000000E+00  0.49715361383E+03  0.49715361383E+03  0.00000000000E+00 0.  1.
         21   -1    0    0  501  503 -0.00000000000E+00 -0.00000000000E+00 -0.17073968937E+03  0.17073968937E+03  0.00000000000E+00 0.  1.
          6    1    1    2  501    0 -0.25356077643E+01 -0.57649165914E+02 -0.97225173922E+02  0.20666782546E+03  0.17300000000E+03 0.  1.
         -6    1    1    2    0  502  0.25356077643E+01  0.57649165914E+02  0.42363909838E+03  0.46122547774E+03  0.17300000000E+03 0.  1.
<mgrwt>
<rscale>  2 0.18237011E+03</rscale>
<asrwt>0</asrwt>
<pdfrwt beam="1">  1       21 0.76485171E-01 0.18237011E+03</pdfrwt>
<pdfrwt beam="2">  1       21 0.26267645E-01 0.18237011E+03</pdfrwt>
<totfact> 0.21095209E+04</totfact>
</mgrwt>
</event>
<event>
 4    1  0.4391134E+000  0.1970804E+03  0.7546771E-02  0.1152226E+00
         21   -1    0    0  503  502  0.00000000000E+00  0.00000000000E+00  0.17017771386E+03  0.17017771386E+03  0.00000000000E+00 0. -1.
         21   -1    0    0  501  503 -0.00000000000E+00 -0.00000000000E+00 -0.24521760963E+03  0.24521760963E+03  0.00000000000E+00 0. -1.
          6    1    1    2  501    0  0.30876402914E+02 -0.89209454195E+02 -0.92176890705E+02  0.21757127144E+03  0.17300000000E+03 0. -1.
         -6    1    1    2    0  502 -0.30876402914E+02  0.89209454195E+02  0.17136994934E+02  0.19782405205E+03  0.17300000000E+03 0. -1.
<mgrwt>
<rscale>  2 0.19708039E+03</rscale>
<asrwt>0</asrwt>
<pdfrwt beam="1">  1       21 0.26181187E-01 0.19708039E+03</pdfrwt>
<pdfrwt beam="2">  1       21 0.37725786E-01 0.19708039E+03</pdfrwt>
<totfact> 0.93791210E+04</totfact>
</mgrwt>
</event>
<event>
 4    1  0.4391134E+000  0.1824679E+03  0.7546771E-02  0.1165436E+00
         21   -1    0    0  503  502  0.00000000000E+00  0.00000000000E+00  0.15340315921E+03  0.15340315921E+03  0.00000000000E+00 0.  1.
         21   -1    0    0  501  503 -0.00000000000E+00 -0.00000000000E+00 -0.29654472437E+03  0.29654472437E+03  0.00000000000E+00 0.  1.
          6    1    1    2  501    0  0.36003003260E+02  0.45489682320E+02 -0.18805987524E+03  0.26203252492E+03  0.17300000000E+03 0.  1.
         -6    1    1    2    0  502 -0.36003003260E+02 -0.45489682320E+02  0.44918310072E+02  0.18791535866E+03  0.17300000000E+03 0.  1.
<mgrwt>
<rscale>  2 0.18246788E+03</rscale>
<asrwt>0</asrwt>
<pdfrwt beam="1">  1       21 0.23600486E-01 0.18246788E+03</pdfrwt>
<pdfrwt beam="2">  1       21 0.45622265E-01 0.18246788E+03</pdfrwt>
<totfact> 0.78189162E+04</totfact>
</mgrwt>
</event>
<event>
 4    1  0.4391134E+000  0.1799826E+03  0.7546771E-02  0.1167820E+00
         21   -1    0    0  501  502  0.00000000000E+00  0.00000000000E+00  0.41902023998E+03  0.41902023998E+03  0.00000000000E+00 0.  1.
         21   -1    0    0  502  503 -0.00000000000E+00 -0.00000000000E+00 -0.22059398677E+03  0.22059398677E+03  0.00000000000E+00 0.  1.
          6    1    1    2  501    0  0.49246545856E+02  0.62862071549E+01  0.35695958285E+03  0.39976728539E+03  0.17300000000E+03 0.  1.
         -6    1    1    2    0  503 -0.49246545856E+02 -0.62862071549E+01 -0.15853332963E+03  0.23984694137E+03  0.17300000000E+03 0.  1.
<mgrwt>
<rscale>  2 0.17998261E+03</rscale>
<asrwt>0</asrwt>
<pdfrwt beam="1">  1       21 0.64464652E-01 0.17998261E+03</pdfrwt>
<pdfrwt beam="2">  1       21 0.33937536E-01 0.17998261E+03</pdfrwt>
<totfact> 0.18705869E+04</totfact>
</mgrwt>
</event>
<event>
 4    1  0.4391134E+000  0.2083405E+03  0.7546771E-02  0.1142887E+00
         21   -1    0    0  503  502  0.00000000000E+00  0.00000000000E+00  0.43784854462E+03  0.43784854462E+03  0.00000000000E+00 0. -1.
         21   -1    0    0  501  503 -0.00000000000E+00 -0.00000000000E+00 -0.13558643306E+03  0.13558643306E+03  0.00000000000E+00 0. -1.
          6    1    1    2  501    0  0.75843404697E+01 -0.11584137087E+03  0.24661689607E+01  0.20835505133E+03  0.17300000000E+03 0. -1.
         -6    1    1    2    0  502 -0.75843404697E+01  0.11584137087E+03  0.29979594260E+03  0.36507992635E+03  0.17300000000E+03 0. -1.
<mgrwt>
<rscale>  2 0.20834046E+03</rscale>
<asrwt>0</asrwt>
<pdfrwt beam="1">  1       21 0.67361314E-01 0.20834046E+03</pdfrwt>
<pdfrwt beam="2">  1       21 0.20859451E-01 0.20834046E+03</pdfrwt>
<totfact> 0.42672503E+04</totfact>
</mgrwt>
</event>
<event>
 4    1  0.4391134E+000  0.2356617E+03  0.7546771E-02  0.1122717E+00
         21   -1    0    0  501  502  0.00000000000E+00  0.00000000000E+00  0.11669409440E+03  0.11669409440E+03  0.00000000000E+00 0.  1.
         21   -1    0    0  502  503 -0.00000000000E+00 -0.00000000000E+00 -0.77523159019E+03  0.77523159019E+03  0.00000000000E+00 0.  1.
          6    1    1    2  501    0 -0.14709265613E+03 -0.63017434215E+02 -0.52161117790E+02  0.24136534281E+03  0.17300000000E+03 0.  1.
         -6    1    1    2    0  503  0.14709265613E+03  0.63017434215E+02 -0.60637637800E+03  0.65056034178E+03  0.17300000000E+03 0.  1.
<mgrwt>
<rscale>  2 0.23566172E+03</rscale>
<asrwt>0</asrwt>
<pdfrwt beam="1">  1       21 0.17952938E-01 0.23566172E+03</pdfrwt>
<pdfrwt beam="2">  1       21 0.11926640E+00 0.23566172E+03</pdfrwt>
<totfact> 0.14721604E+04</totfact>
</mgrwt>
</event>
<event>
 4    1  0.4391134E+000  0.2420756E+03  0.7546771E-02  0.1118418E+00
         21   -1    0    0  503  502  0.00000000000E+00  0.00000000000E+00  0.57986099921E+03  0.57986099921E+03  0.00000000000E+00 0. -1.
         21   -1    0    0  501  503 -0.00000000000E+00 -0.00000000000E+00 -0.10144036393E+03  0.10144036393E+03  0.00000000000E+00 0.  1.
          6    1    1    2  501    0 -0.15999382446E+03  0.55440010840E+02  0.21834450366E+03  0.32599837568E+03  0.17300000000E+03 0. -1.
         -6    1    1    2    0  502  0.15999382446E+03 -0.55440010840E+02  0.26007613162E+03  0.35530298747E+03  0.17300000000E+03 0.  1.
<mgrwt>
<rscale>  2 0.24207565E+03</rscale>
<asrwt>0</asrwt>
<pdfrwt beam="1">  1       21 0.89209383E-01 0.24207565E+03</pdfrwt>
<pdfrwt beam="2">  1       21 0.15606210E-01 0.24207565E+03</pdfrwt>
<totfact> 0.38180200E+04</totfact>
</mgrwt>
</event>
<event>
 4    1  0.4391134E+000  0.2142896E+03  0.7546771E-02  0.1138213E+00
         21   -1    0    0  501  502  0.00000000000E+00  0.00000000000E+00  0.14956321877E+04  0.14956321877E+04  0.00000000000E+00 0. -1.
         21   -1    0    0  502  503 -0.00000000000E+00 -0.00000000000E+00 -0.48016980943E+02  0.48016980943E+02  0.00000000000E+00 0.  1.
          6    1    1    2  501    0 -0.11177574542E+03  0.59137161354E+02  0.11872788390E+04  0.12064622094E+04  0.17300000000E+03 0. -1.
         -6    1    1    2    0  503  0.11177574542E+03 -0.59137161354E+02  0.26033636773E+03  0.33718695924E+03  0.17300000000E+03 0.  1.
<mgrwt>
<rscale>  2 0.21428957E+03</rscale>
<asrwt>0</asrwt>
<pdfrwt beam="1">  1       21 0.23009722E+00 0.21428957E+03</pdfrwt>
<pdfrwt beam="2">  1       21 0.73872290E-02 0.21428957E+03</pdfrwt>
<totfact> 0.11814334E+04</totfact>
</mgrwt>
</event>
<event>
 4    1  0.4391134E+000  0.2108392E+03  0.7546771E-02  0.1140903E+00
         21   -1    0    0  501  502  0.00000000000E+00  0.00000000000E+00  0.55982482562E+02  0.55982482562E+02  0.00000000000E+00 0. -1.
         21   -1    0    0  502  503 -0.00000000000E+00 -0.00000000000E+00 -0.81733702595E+03  0.81733702595E+03  0.00000000000E+00 0. -1.
          6    1    1    2  501    0  0.61039364388E+02 -0.10391512040E+03 -0.30697934233E+03  0.37241035548E+03  0.17300000000E+03 0.  1.
         -6    1    1    2    0  503 -0.61039364388E+02  0.10391512040E+03 -0.45437520106E+03  0.50090915303E+03  0.17300000000E+03 0.  1.
<mgrwt>
<rscale>  2 0.21083917E+03</rscale>
<asrwt>0</asrwt>
<pdfrwt beam="1">  1       21 0.86126896E-02 0.21083917E+03</pdfrwt>
<pdfrwt beam="2">  1       21 0.12574416E+00 0.21083917E+03</pdfrwt>
<totfact> 0.49107432E+04</totfact>
</mgrwt>
</event>
<event>
 4    1  0.4391134E+000  0.1974054E+03  0.7546771E-02  0.1151947E+00
         21   -1    0    0  501  502  0.00000000000E+00  0.00000000000E+00  0.20419477440E+03  0.20419477440E+03  0.00000000000E+00 0.  1.
         21   -1    0    0  502  503 -0.00000000000E+00 -0.00000000000E+00 -0.19086379434E+03  0.19086379434E+03  0.00000000000E+00 0.  1.
          6    1    1    2  501    0 -0.33104057017E+02 -0.89129166589E+02  0.45423716111E+01  0.19745764120E+03  0.17300000000E+03 0.  1.
         -6    1    1    2    0  503  0.33104057017E+02  0.89129166589E+02  0.87886084420E+01  0.19760092754E+03  0.17300000000E+03 0.  1.
<mgrwt>
<rscale>  2 0.19740539E+03</rscale>
<asrwt>0</asrwt>
<pdfrwt beam="1">  1       21 0.31414581E-01 0.19740539E+03</pdfrwt>
<pdfrwt beam="2">  1       21 0.29363661E-01 0.19740539E+03</pdfrwt>
<totfact> 0.10800039E+05</totfact>
</mgrwt>
</event>
<event>
 4    1  0.4391134E+000  0.2510080E+03  0.7546771E-02  0.1112669E+00
         21   -1    0    0  501  502  0.00000000000E+00  0.00000000000E+00  0.53726625677E+03  0.53726625677E+03  0.00000000000E+00 0. -1.
         21   -1    0    0  502  503 -0.00000000000E+00 -0.00000000000E+00 -0.14277702532E+03  0.14277702532E+03  0.00000000000E+00 0. -1.
          6    1    1    2  501    0 -0.60124974670E+02  0.17164204174E+03  0.34096244273E+03  0.42339153325E+03  0.17300000000E+03 0. -1.
         -6    1    1    2    0  503  0.60124974670E+02 -0.17164204174E+03  0.53526788718E+02  0.25665174884E+03  0.17300000000E+03 0. -1.
<mgrwt>
<rscale>  2 0.25100797E+03</rscale>
<asrwt>0</asrwt>
<pdfrwt beam="1">  1       21 0.82656346E-01 0.25100797E+03</pdfrwt>
<pdfrwt beam="2">  1       21 0.21965696E-01 0.25100797E+03</pdfrwt>
<totfact> 0.23968502E+04</totfact>
</mgrwt>
</event>
<event>
 4    1  0.4391134E+000  0.2183223E+03  0.7546771E-02  0.1135140E+00
         21   -1    0    0  501  502  0.00000000000E+00  0.00000000000E+00  0.16009366296E+03  0.16009366296E+03  0.00000000000E+00 0. -1.
         21   -1    0    0  502  503 -0.00000000000E+00 -0.00000000000E+00 -0.31127170679E+03  0.31127170679E+03  0.00000000000E+00 0. -1.
          6    1    1    2  501    0 -0.81164379593E+02 -0.10558403999E+03 -0.26430525742E+02  0.21991639026E+03  0.17300000000E+03 0. -1.
         -6    1    1    2    0  503  0.81164379593E+02  0.10558403999E+03 -0.12474751809E+03  0.25144897949E+03  0.17300000000E+03 0. -1.
<mgrwt>
<rscale>  2 0.21832234E+03</rscale>
<asrwt>0</asrwt>
<pdfrwt beam="1">  1       21 0.24629794E-01 0.21832234E+03</pdfrwt>
<pdfrwt beam="2">  1       21 0.47887955E-01 0.21832234E+03</pdfrwt>
<totfact> 0.64214621E+04</totfact>
</mgrwt>
</event>
<event>
 4    1  0.4391134E+000  0.2124943E+03  0.7546771E-02  0.1139606E+00
         21   -1    0    0  503  502  0.00000000000E+00  0.00000000000E+00  0.50044585638E+02  0.50044585638E+02  0.00000000000E+00 0.  1.
         21   -1    0    0  501  503 -0.00000000000E+00 -0.00000000000E+00 -0.92618520036E+03  0.92618520036E+03  0.00000000000E+00 0. -1.
          6    1    1    2  501    0 -0.11577994999E+03 -0.42659238985E+02 -0.51650275728E+03  0.55850595858E+03  0.17300000000E+03 0. -1.
         -6    1    1    2    0  502  0.11577994999E+03  0.42659238985E+02 -0.35963785744E+03  0.41772382742E+03  0.17300000000E+03 0.  1.
<mgrwt>
<rscale>  2 0.21249425E+03</rscale>
<asrwt>0</asrwt>
<pdfrwt beam="1">  1       21 0.76991670E-02 0.21249425E+03</pdfrwt>
<pdfrwt beam="2">  1       21 0.14249003E+00 0.21249425E+03</pdfrwt>
<totfact> 0.43361214E+04</totfact>
</mgrwt>
</event>
<event>
 4    1  0.4391134E+000  0.2956768E+03  0.7546771E-02  0.1087422E+00
         21   -1    0    0  501  502  0.00000000000E+00  0.00000000000E+00  0.37287880054E+03  0.37287880054E+03  0.00000000000E+00 0.  1.
         21   -1    0    0  502  503 -0.00000000000E+00 -0.00000000000E+00 -0.15647280008E+04  0.15647280008E+04  0.00000000000E+00 0. -1.
          6    1    1    2  501    0  0.45026620004E+02  0.23551721182E+03  0.29735204431E+03  0.41933637074E+03  0.17300000000E+03 0.  1.
         -6    1    1    2    0  503 -0.45026620004E+02 -0.23551721182E+03 -0.14892012446E+04  0.15182704306E+04  0.17300000000E+03 0. -1.
<mgrwt>
<rscale>  2 0.29567677E+03</rscale>
<asrwt>0</asrwt>
<pdfrwt beam="1">  1       21 0.57365967E-01 0.29567677E+03</pdfrwt>
<pdfrwt beam="2">  1       21 0.24072739E+00 0.29567677E+03</pdfrwt>
<totfact> 0.19137202E+02</totfact>
</mgrwt>
</event>
<event>
 4    1  0.4391134E+000  0.1905113E+03  0.7546771E-02  0.1158001E+00
         21   -1    0    0  503  502  0.00000000000E+00  0.00000000000E+00  0.62305895424E+03  0.62305895424E+03  0.00000000000E+00 0. -1.
         21   -1    0    0  501  503 -0.00000000000E+00 -0.00000000000E+00 -0.93745514113E+02  0.93745514113E+02  0.00000000000E+00 0.  1.
          6    1    1    2  501    0 -0.79548755162E+02  0.61278537700E+01  0.44126183181E+02  0.19555478793E+03  0.17300000000E+03 0.  1.
         -6    1    1    2    0  502  0.79548755162E+02 -0.61278537700E+01  0.48518725694E+03  0.52124968042E+03  0.17300000000E+03 0. -1.
<mgrwt>
<rscale>  2 0.19051130E+03</rscale>
<asrwt>0</asrwt>
<pdfrwt beam="1">  1       21 0.95855221E-01 0.19051130E+03</pdfrwt>
<pdfrwt beam="2">  1       21 0.14422387E-01 0.19051130E+03</pdfrwt>
<totfact> 0.38261245E+04</totfact>
</mgrwt>
</event>
<event>
 4    1  0.4391134E+000  0.2386245E+03  0.7546771E-02  0.1120713E+00
         21   -1    0    0  503  502  0.00000000000E+00  0.00000000000E+00  0.20252277129E+03  0.20252277129E+03  0.00000000000E+00 0.  1.
         21   -1    0    0  501  503 -0.00000000000E+00 -0.00000000000E+00 -0.33312119800E+03  0.33312119800E+03  0.00000000000E+00 0. -1.
          6    1    1    2  501    0 -0.16401591912E+03  0.10556577015E+02  0.40474371690E+02  0.24203272053E+03  0.17300000000E+03 0. -1.
         -6    1    1    2    0  502  0.16401591912E+03 -0.10556577015E+02 -0.17107279841E+03  0.29361124876E+03  0.17300000000E+03 0. -1.
<mgrwt>
<rscale>  2 0.23862452E+03</rscale>
<asrwt>0</asrwt>
<pdfrwt beam="1">  1       21 0.31157349E-01 0.23862452E+03</pdfrwt>
<pdfrwt beam="2">  1       21 0.51249415E-01 0.23862452E+03</pdfrwt>
<totfact> 0.35008398E+04</totfact>
</mgrwt>
</event>
<event>
 4    1  0.4391134E+000  0.1886811E+03  0.7546771E-02  0.1159656E+00
         21   -1    0    0  501  502  0.00000000000E+00  0.00000000000E+00  0.13641625931E+04  0.13641625931E+04  0.00000000000E+00 0.  1.
         21   -1    0    0  502  503 -0.00000000000E+00 -0.00000000000E+00 -0.27480732565E+02  0.27480732565E+02  0.00000000000E+00 0.  1.
          6    1    1    2  501    0  0.52376331165E+01  0.75127370041E+02  0.82447924575E+03  0.84579346250E+03  0.17300000000E+03 0.  1.
         -6    1    1    2    0  503 -0.52376331165E+01 -0.75127370041E+02  0.51220261480E+03  0.54584986319E+03  0.17300000000E+03 0.  1.
<mgrwt>
<rscale>  2 0.18868109E+03</rscale>
<asrwt>0</asrwt>
<pdfrwt beam="1">  1       21 0.20987112E+00 0.18868109E+03</pdfrwt>
<pdfrwt beam="2">  1       21 0.42278061E-02 0.18868109E+03</pdfrwt>
<totfact> 0.41625729E+04</totfact>
</mgrwt>
</event>
<event>
 4    1  0.4391134E+000  0.1890649E+03  0.7546771E-02  0.1159307E+00
         21   -1    0    0  503  502  0.00000000000E+00  0.00000000000E+00  0.26513825241E+03  0.26513825241E+03  0.00000000000E+00 0.  1.
         21   -1    0    0  501  503 -0.00000000000E+00 -0.00000000000E+00 -0.24531204724E+03  0.24531204724E+03  0.00000000000E+00 0.  1.
          6    1    1    2  501    0 -0.47914756690E+02 -0.59335701607E+02 -0.16137706271E+03  0.24857213392E+03  0.17300000000E+03 0.  1.
         -6    1    1    2    0  502  0.47914756690E+02  0.59335701607E+02  0.18120326789E+03  0.26187816573E+03  0.17300000000E+03 0.  1.
<mgrwt>
<rscale>  2 0.18906493E+03</rscale>
<asrwt>0</asrwt>
<pdfrwt beam="1">  1       21 0.40790501E-01 0.18906493E+03</pdfrwt>
<pdfrwt beam="2">  1       21 0.37740315E-01 0.18906493E+03</pdfrwt>
<totfact> 0.39273035E+04</totfact>
</mgrwt>
</event>
<event>
 4    1  0.4391134E+000  0.1894251E+03  0.7546771E-02  0.1158981E+00
         21   -1    0    0  501  502  0.00000000000E+00  0.00000000000E+00  0.22754426597E+04  0.22754426597E+04  0.00000000000E+00 0.  1.
         21   -1    0    0  502  503 -0.00000000000E+00 -0.00000000000E+00 -0.36893920854E+02  0.36893920854E+02  0.00000000000E+00 0.  1.
          6    1    1    2  501    0  0.74318984735E+02 -0.20726185587E+02  0.19941357517E+04  0.20031123989E+04  0.17300000000E+03 0.  1.
         -6    1    1    2    0  503 -0.74318984735E+02  0.20726185587E+02  0.24441298717E+03  0.30922418172E+03  0.17300000000E+03 0.  1.
<mgrwt>
<rscale>  2 0.18942515E+03</rscale>
<asrwt>0</asrwt>
<pdfrwt beam="1">  1       21 0.35006799E+00 0.18942515E+03</pdfrwt>
<pdfrwt beam="2">  1       21 0.56759896E-02 0.18942515E+03</pdfrwt>
<totfact> 0.38038201E+03</totfact>
</mgrwt>
</event>
<event>
 4    1  0.4391134E+000  0.1772973E+03  0.7546771E-02  0.1170445E+00
         21   -1    0    0  501  502  0.00000000000E+00  0.00000000000E+00  0.79808657182E+03  0.79808657182E+03  0.00000000000E+00 0. -1.
         21   -1    0    0  502  503 -0.00000000000E+00 -0.00000000000E+00 -0.39507114495E+02  0.39507114495E+02  0.00000000000E+00 0. -1.
          6    1    1    2  501    0 -0.94121094526E+01  0.37639807968E+02  0.40236892140E+03  0.43969886497E+03  0.17300000000E+03 0. -1.
         -6    1    1    2    0  503  0.94121094526E+01 -0.37639807968E+02  0.35621053592E+03  0.39789482134E+03  0.17300000000E+03 0. -1.
<mgrwt>
<rscale>  2 0.17729733E+03</rscale>
<asrwt>0</asrwt>
<pdfrwt beam="1">  1       21 0.12278254E+00 0.17729733E+03</pdfrwt>
<pdfrwt beam="2">  1       21 0.60780182E-02 0.17729733E+03</pdfrwt>
<totfact> 0.96864285E+04</totfact>
</mgrwt>
</event>
<event>
 4    1  0.4391134E+000  0.2051503E+03  0.7546771E-02  0.1145465E+00
         21   -1    0    0  501  502  0.00000000000E+00  0.00000000000E+00  0.18626948627E+03  0.18626948627E+03  0.00000000000E+00 0.  1.
         21   -1    0    0  502  503 -0.00000000000E+00 -0.00000000000E+00 -0.23008816332E+03  0.23008816332E+03  0.00000000000E+00 0. -1.
          6    1    1    2  501    0  0.38401712784E+02 -0.10335828579E+03  0.60266809847E+01  0.20523875772E+03  0.17300000000E+03 0.  1.
         -6    1    1    2    0  503 -0.38401712784E+02  0.10335828579E+03 -0.49845358040E+02  0.21111889187E+03  0.17300000000E+03 0. -1.
<mgrwt>
<rscale>  2 0.20515025E+03</rscale>
<asrwt>0</asrwt>
<pdfrwt beam="1">  1       21 0.28656844E-01 0.20515025E+03</pdfrwt>
<pdfrwt beam="2">  1       21 0.35398179E-01 0.20515025E+03</pdfrwt>
<totfact> 0.89165815E+04</totfact>
</mgrwt>
</event>
<event>
 4    1  0.4391134E+000  0.2093652E+03  0.7546771E-02  0.1142070E+00
         21   -1    0    0  501  502  0.00000000000E+00  0.00000000000E+00  0.88689629238E+03  0.88689629238E+03  0.00000000000E+00 0.  1.
         21   -1    0    0  502  503 -0.00000000000E+00 -0.00000000000E+00 -0.49670030091E+02  0.49670030091E+02  0.00000000000E+00 0. -1.
          6    1    1    2  501    0  0.25564862077E+02  0.11511397877E+03  0.38564254885E+03  0.43880971475E+03  0.17300000000E+03 0. -1.
         -6    1    1    2    0  503 -0.25564862077E+02 -0.11511397877E+03  0.45158371344E+03  0.49775660772E+03  0.17300000000E+03 0. -1.
<mgrwt>
<rscale>  2 0.20936521E+03</rscale>
<asrwt>0</asrwt>
<pdfrwt beam="1">  1       21 0.13644557E+00 0.20936521E+03</pdfrwt>
<pdfrwt beam="2">  1       21 0.76415437E-02 0.20936521E+03</pdfrwt>
<totfact> 0.49233199E+04</totfact>
</mgrwt>
</event>
<event>
 4    1  0.4391134E+000  0.2073622E+03  0.7546771E-02  0.1143672E+00
         21   -1    0    0  503  502  0.00000000000E+00  0.00000000000E+00  0.26320517156E+03  0.26320517156E+03  0.00000000000E+00 0.  1.
         21   -1    0    0  501  503 -0.00000000000E+00 -0.00000000000E+00 -0.17767169376E+03  0.17767169376E+03  0.00000000000E+00 0.  1.
          6    1    1    2  501    0  0.10741607382E+03 -0.39138864056E+02 -0.19781642000E+02  0.20830356923E+03  0.17300000000E+03 0.  1.
         -6    1    1    2    0  502 -0.10741607382E+03  0.39138864056E+02  0.10531511980E+03  0.23257329609E+03  0.17300000000E+03 0.  1.
<mgrwt>
<rscale>  2 0.20736216E+03</rscale>
<asrwt>0</asrwt>
<pdfrwt beam="1">  1       21 0.40493103E-01 0.20736216E+03</pdfrwt>
<pdfrwt beam="2">  1       21 0.27334107E-01 0.20736216E+03</pdfrwt>
<totfact> 0.74518060E+04</totfact>
</mgrwt>
</event>
<event>
 4    1  0.4391134E+000  0.1731813E+03  0.7546771E-02  0.1174570E+00
         21   -1    0    0  501  502  0.00000000000E+00  0.00000000000E+00  0.50731869795E+02  0.50731869795E+02  0.00000000000E+00 0. -1.
         21   -1    0    0  502  503 -0.00000000000E+00 -0.00000000000E+00 -0.10223520796E+04  0.10223520796E+04  0.00000000000E+00 0. -1.
          6    1    1    2  501    0  0.64089056778E+01  0.46580593604E+01 -0.13737032094E+03  0.22104835820E+03  0.17300000000E+03 0. -1.
         -6    1    1    2    0  503 -0.64089056778E+01 -0.46580593604E+01 -0.83424988888E+03  0.85203559121E+03  0.17300000000E+03 0. -1.
<mgrwt>
<rscale>  2 0.17318133E+03</rscale>
<asrwt>0</asrwt>
<pdfrwt beam="1">  1       21 0.78049033E-02 0.17318133E+03</pdfrwt>
<pdfrwt beam="2">  1       21 0.15728493E+00 0.17318133E+03</pdfrwt>
<totfact> 0.33424730E+04</totfact>
</mgrwt>
</event>
<event>
 4    1  0.4391134E+000  0.1757705E+03  0.7546771E-02  0.1171960E+00
         21   -1    0    0  503  502  0.00000000000E+00  0.00000000000E+00  0.98940429207E+03  0.98940429207E+03  0.00000000000E+00 0. -1.
         21   -1    0    0  501  503 -0.00000000000E+00 -0.00000000000E+00 -0.68349068500E+02  0.68349068500E+02  0.00000000000E+00 0. -1.
          6    1    1    2  501    0 -0.26519298276E+02 -0.16217259366E+02  0.70756850183E+02  0.18947771513E+03  0.17300000000E+03 0. -1.
         -6    1    1    2    0  502  0.26519298276E+02  0.16217259366E+02  0.85029837339E+03  0.86827564544E+03  0.17300000000E+03 0. -1.
<mgrwt>
<rscale>  2 0.17577051E+03</rscale>
<asrwt>0</asrwt>
<pdfrwt beam="1">  1       21 0.15221603E+00 0.17577051E+03</pdfrwt>
<pdfrwt beam="2">  1       21 0.10515242E-01 0.17577051E+03</pdfrwt>
<totfact> 0.21594855E+04</totfact>
</mgrwt>
</event>
<event>
 4    1  0.4391134E+000  0.2096193E+03  0.7546771E-02  0.1141868E+00
         21   -1    0    0  501  502  0.00000000000E+00  0.00000000000E+00  0.36620417827E+03  0.36620417827E+03  0.00000000000E+00 0.  1.
         21   -1    0    0  502  503 -0.00000000000E+00 -0.00000000000E+00 -0.13166392601E+03  0.13166392601E+03  0.00000000000E+00 0.  1.
          6    1    1    2  501    0  0.11611469343E+03 -0.22991920464E+02  0.19139932175E+03  0.28385551043E+03  0.17300000000E+03 0.  1.
         -6    1    1    2    0  503 -0.11611469343E+03  0.22991920464E+02  0.43140930514E+02  0.21401259384E+03  0.17300000000E+03 0.  1.
<mgrwt>
<rscale>  2 0.20961930E+03</rscale>
<asrwt>0</asrwt>
<pdfrwt beam="1">  1       21 0.56339104E-01 0.20961930E+03</pdfrwt>
<pdfrwt beam="2">  1       21 0.20255989E-01 0.20961930E+03</pdfrwt>
<totfact> 0.66303032E+04</totfact>
</mgrwt>
</event>
<event>
 4    1  0.4391134E+000  0.2104431E+03  0.7546771E-02  0.1141216E+00
         21   -1    0    0  503  502  0.00000000000E+00  0.00000000000E+00  0.84212390791E+02  0.84212390791E+02  0.00000000000E+00 0. -1.
         21   -1    0    0  501  503 -0.00000000000E+00 -0.00000000000E+00 -0.71300693991E+03  0.71300693991E+03  0.00000000000E+00 0.  1.
          6    1    1    2  501    0  0.83689110792E+02  0.85752084439E+02 -0.51859918477E+03  0.55967079760E+03  0.17300000000E+03 0.  1.
         -6    1    1    2    0  502 -0.83689110792E+02 -0.85752084439E+02 -0.11019536435E+03  0.23754853309E+03  0.17300000000E+03 0.  1.
<mgrwt>
<rscale>  2 0.21044307E+03</rscale>
<asrwt>0</asrwt>
<pdfrwt beam="1">  1       21 0.12955752E-01 0.21044307E+03</pdfrwt>
<pdfrwt beam="2">  1       21 0.10969338E+00 0.21044307E+03</pdfrwt>
<totfact> 0.33293840E+04</totfact>
</mgrwt>
</event>
<event>
 4    1  0.4391134E+000  0.2114520E+03  0.7546771E-02  0.1140421E+00
         21   -1    0    0  503  502  0.00000000000E+00  0.00000000000E+00  0.11568737314E+04  0.11568737314E+04  0.00000000000E+00 0. -1.
         21   -1    0    0  501  503 -0.00000000000E+00 -0.00000000000E+00 -0.51459564545E+02  0.51459564545E+02  0.00000000000E+00 0. -1.
          6    1    1    2  501    0 -0.69461253407E+01 -0.12138661611E+03  0.25126171623E+03  0.32839672543E+03  0.17300000000E+03 0. -1.
         -6    1    1    2    0  502  0.69461253407E+01  0.12138661611E+03  0.85415245061E+03  0.87993657051E+03  0.17300000000E+03 0. -1.
<mgrwt>
<rscale>  2 0.21145203E+03</rscale>
<asrwt>0</asrwt>
<pdfrwt beam="1">  1       21 0.17798056E+00 0.21145203E+03</pdfrwt>
<pdfrwt beam="2">  1       21 0.79168569E-02 0.21145203E+03</pdfrwt>
<totfact> 0.22656887E+04</totfact>
</mgrwt>
</event>
<event>
 4    1  0.4391134E+000  0.2438411E+03  0.7546771E-02  0.1117260E+00
         21   -1    0    0  501  502  0.00000000000E+00  0.00000000000E+00  0.34196444223E+02  0.34196444223E+02  0.00000000000E+00 0. -1.
         21   -1    0    0  502  503 -0.00000000000E+00 -0.00000000000E+00 -0.17390017738E+04  0.17390017738E+04  0.00000000000E+00 0. -1.
          6    1    1    2  501    0 -0.13997802949E+02  0.17127038875E+03 -0.86342582874E+03  0.89719710559E+03  0.17300000000E+03 0. -1.
         -6    1    1    2    0  503  0.13997802949E+02 -0.17127038875E+03 -0.84137950082E+03  0.87600111241E+03  0.17300000000E+03 0. -1.
<mgrwt>
<rscale>  2 0.24384111E+03</rscale>
<asrwt>0</asrwt>
<pdfrwt beam="1">  1       21 0.52609901E-02 0.24384111E+03</pdfrwt>
<pdfrwt beam="2">  1       21 0.26753880E+00 0.24384111E+03</pdfrwt>
<totfact> 0.12391370E+04</totfact>
</mgrwt>
</event>
<event>
 4    1  0.4391134E+000  0.2601561E+03  0.7546771E-02  0.1107050E+00
         21   -1    0    0  503  502  0.00000000000E+00  0.00000000000E+00  0.33593968754E+03  0.33593968754E+03  0.00000000000E+00 0. -1.
         21   -1    0    0  501  503 -0.00000000000E+00 -0.00000000000E+00 -0.38135761668E+03  0.38135761668E+03  0.00000000000E+00 0. -1.
          6    1    1    2  501    0  0.57627764125E+01 -0.19421371711E+03 -0.26903240931E+03  0.37424539378E+03  0.17300000000E+03 0. -1.
         -6    1    1    2    0  502 -0.57627764125E+01  0.19421371711E+03  0.22361448017E+03  0.34305191043E+03  0.17300000000E+03 0. -1.
<mgrwt>
<rscale>  2 0.26015606E+03</rscale>
<asrwt>0</asrwt>
<pdfrwt beam="1">  1       21 0.51683029E-01 0.26015606E+03</pdfrwt>
<pdfrwt beam="2">  1       21 0.58670402E-01 0.26015606E+03</pdfrwt>
<totfact> 0.92721334E+03</totfact>
</mgrwt>
</event>
<event>
 4    1  0.4391134E+000  0.2113333E+03  0.7546771E-02  0.1140514E+00
         21   -1    0    0  503  502  0.00000000000E+00  0.00000000000E+00  0.27827781318E+02  0.27827781318E+02  0.00000000000E+00 0. -1.
         21   -1    0    0  501  503 -0.00000000000E+00 -0.00000000000E+00 -0.17198737715E+04  0.17198737715E+04  0.00000000000E+00 0. -1.
          6    1    1    2  501    0  0.31391430160E+02  0.11724909609E+03 -0.10719264089E+04  0.10925602951E+04  0.17300000000E+03 0. -1.
         -6    1    1    2    0  502 -0.31391430160E+02 -0.11724909609E+03 -0.62011958131E+03  0.65514125771E+03  0.17300000000E+03 0. -1.
<mgrwt>
<rscale>  2 0.21133332E+03</rscale>
<asrwt>0</asrwt>
<pdfrwt beam="1">  1       21 0.42811957E-02 0.21133332E+03</pdfrwt>
<pdfrwt beam="2">  1       21 0.26459605E+00 0.21133332E+03</pdfrwt>
<totfact> 0.18787509E+04</totfact>
</mgrwt>
</event>
<event>
 4    1  0.4391134E+000  0.2575569E+03  0.7546771E-02  0.1108620E+00
         21   -1    0    0  503  502  0.00000000000E+00  0.00000000000E+00  0.17916863573E+03  0.17916863573E+03  0.00000000000E+00 0.  1.
         21   -1    0    0  501  503 -0.00000000000E+00 -0.00000000000E+00 -0.40633094863E+03  0.40633094863E+03  0.00000000000E+00 0. -1.
          6    1    1    2  501    0  0.15047300065E+03 -0.11732186628E+03 -0.20082821718E+03  0.32659993425E+03  0.17300000000E+03 0. -1.
         -6    1    1    2    0  502 -0.15047300065E+03  0.11732186628E+03 -0.26334095717E+02  0.25889965012E+03  0.17300000000E+03 0. -1.
<mgrwt>
<rscale>  2 0.25755688E+03</rscale>
<asrwt>0</asrwt>
<pdfrwt beam="1">  1       21 0.27564406E-01 0.25755688E+03</pdfrwt>
<pdfrwt beam="2">  1       21 0.62512453E-01 0.25755688E+03</pdfrwt>
<totfact> 0.28838954E+04</totfact>
</mgrwt>
</event>
<event>
 4    1  0.4391134E+000  0.1760949E+03  0.7546771E-02  0.1171637E+00
         21   -1    0    0  501  502  0.00000000000E+00  0.00000000000E+00  0.98572624150E+03  0.98572624150E+03  0.00000000000E+00 0.  1.
         21   -1    0    0  502  503 -0.00000000000E+00 -0.00000000000E+00 -0.40364458126E+02  0.40364458126E+02  0.00000000000E+00 0. -1.
          6    1    1    2  501    0  0.17236647844E+02  0.27987804571E+02  0.71367018428E+03  0.73507452083E+03  0.17300000000E+03 0.  1.
         -6    1    1    2    0  503 -0.17236647844E+02 -0.27987804571E+02  0.23169159909E+03  0.29101617880E+03  0.17300000000E+03 0. -1.
<mgrwt>
<rscale>  2 0.17609492E+03</rscale>
<asrwt>0</asrwt>
<pdfrwt beam="1">  1       21 0.15165017E+00 0.17609492E+03</pdfrwt>
<pdfrwt beam="2">  1       21 0.62099174E-02 0.17609492E+03</pdfrwt>
<totfact> 0.54486525E+04</totfact>
</mgrwt>
</event>
<event>
 4    1  0.4391134E+000  0.2571291E+03  0.7546771E-02  0.1108880E+00
         21   -1    0    0  503  502  0.00000000000E+00  0.00000000000E+00  0.18066290290E+04  0.18066290290E+04  0.00000000000E+00 0. -1.
         21   -1    0    0  501  503 -0.00000000000E+00 -0.00000000000E+00 -0.36605811457E+02  0.36605811457E+02  0.00000000000E+00 0. -1.
          6    1    1    2  501    0 -0.29968194872E+02 -0.18785182103E+03  0.86992469327E+03  0.90712974339E+03  0.17300000000E+03 0. -1.
         -6    1    1    2    0  502  0.29968194872E+02  0.18785182103E+03  0.90009852427E+03  0.93610509707E+03  0.17300000000E+03 0. -1.
<mgrwt>
<rscale>  2 0.25712915E+03</rscale>
<asrwt>0</asrwt>
<pdfrwt beam="1">  1       21 0.27794286E+00 0.25712915E+03</pdfrwt>
<pdfrwt beam="2">  1       21 0.56316647E-02 0.25712915E+03</pdfrwt>
<totfact> 0.94829549E+03</totfact>
</mgrwt>
</event>
<event>
 4    1  0.4391134E+000  0.2043145E+03  0.7546771E-02  0.1146149E+00
         21   -1    0    0  503  502  0.00000000000E+00  0.00000000000E+00  0.11870642573E+03  0.11870642573E+03  0.00000000000E+00 0.  1.
         21   -1    0    0  501  503 -0.00000000000E+00 -0.00000000000E+00 -0.10250188160E+04  0.10250188160E+04  0.00000000000E+00 0.  1.
          6    1    1    2  501    0 -0.48897594185E+02  0.97079511966E+02 -0.91665517468E+03  0.93914914450E+03  0.17300000000E+03 0.  1.
         -6    1    1    2    0  502  0.48897594185E+02 -0.97079511966E+02  0.10342784422E+02  0.20457609721E+03  0.17300000000E+03 0.  1.
<mgrwt>
<rscale>  2 0.20431448E+03</rscale>
<asrwt>0</asrwt>
<pdfrwt beam="1">  1       21 0.18262527E-01 0.20431448E+03</pdfrwt>
<pdfrwt beam="2">  1       21 0.15769520E+00 0.20431448E+03</pdfrwt>
<totfact> 0.70868308E+03</totfact>
</mgrwt>
</event>
<event>
 4    1  0.4391134E+000  0.1802484E+03  0.7546771E-02  0.1167563E+00
         21   -1    0    0  501  502  0.00000000000E+00  0.00000000000E+00  0.20729215834E+03  0.20729215834E+03  0.00000000000E+00 0.  1.
         21   -1    0    0  502  503 -0.00000000000E+00 -0.00000000000E+00 -0.16544337458E+03  0.16544337458E+03  0.00000000000E+00 0.  1.
          6    1    1    2  501    0  0.18618085596E+02 -0.47051627166E+02 -0.21838642049E+02  0.18156655809E+03  0.17300000000E+03 0.  1.
         -6    1    1    2    0  503 -0.18618085596E+02  0.47051627166E+02  0.63687425815E+02  0.19116897483E+03  0.17300000000E+03 0.  1.
<mgrwt>
<rscale>  2 0.18024841E+03</rscale>
<asrwt>0</asrwt>
<pdfrwt beam="1">  1       21 0.31891101E-01 0.18024841E+03</pdfrwt>
<pdfrwt beam="2">  1       21 0.25452827E-01 0.18024841E+03</pdfrwt>
<totfact> 0.13895745E+05</totfact>
</mgrwt>
</event>
<event>
 4    1  0.4391134E+000  0.1810282E+03  0.7546771E-02  0.1166812E+00
         21   -1    0    0  501  502  0.00000000000E+00  0.00000000000E+00  0.68905004801E+02  0.68905004801E+02  0.00000000000E+00 0. -1.
         21   -1    0    0  502  503 -0.00000000000E+00 -0.00000000000E+00 -0.62386580851E+03  0.62386580851E+03  0.00000000000E+00 0. -1.
          6    1    1    2  501    0  0.53383789890E+01 -0.53044520265E+02 -0.10861739511E+03  0.21111361382E+03  0.17300000000E+03 0. -1.
         -6    1    1    2    0  503 -0.53383789890E+01  0.53044520265E+02 -0.44634340860E+03  0.48165719949E+03  0.17300000000E+03 0. -1.
<mgrwt>
<rscale>  2 0.18102823E+03</rscale>
<asrwt>0</asrwt>
<pdfrwt beam="1">  1       21 0.10600770E-01 0.18102823E+03</pdfrwt>
<pdfrwt beam="2">  1       21 0.95979355E-01 0.18102823E+03</pdfrwt>
<totfact> 0.66536749E+04</totfact>
</mgrwt>
</event>
<event>
 4    1  0.4391134E+000  0.2153666E+03  0.7546771E-02  0.1137385E+00
         21   -1    0    0  501  502  0.00000000000E+00  0.00000000000E+00  0.52228612940E+03  0.52228612940E+03  0.00000000000E+00 0.  1.
         21   -1    0    0  502  503 -0.00000000000E+00 -0.00000000000E+00 -0.10008794369E+03  0.10008794369E+03  0.00000000000E+00 0.  1.
          6    1    1    2  501    0 -0.12818529730E+03 -0.47210964799E+01  0.31557107425E+03  0.38205740681E+03  0.17300000000E+03 0.  1.
         -6    1    1    2    0  503  0.12818529730E+03  0.47210964799E+01  0.10662711146E+03  0.24031666629E+03  0.17300000000E+03 0.  1.
<mgrwt>
<rscale>  2 0.21536657E+03</rscale>
<asrwt>0</asrwt>
<pdfrwt beam="1">  1       21 0.80351711E-01 0.21536657E+03</pdfrwt>
<pdfrwt beam="2">  1       21 0.15398145E-01 0.21536657E+03</pdfrwt>
<totfact> 0.50366614E+04</totfact>
</mgrwt>
</event>
<event>
 4    1  0.4391134E+000  0.3765107E+03  0.7546771E-02  0.1052231E+00
         21   -1    0    0  503  502  0.00000000000E+00  0.00000000000E+00  0.73316809922E+02  0.73316809922E+02  0.00000000000E+00 0.  1.
         21   -1    0    0  501  503 -0.00000000000E+00 -0.00000000000E+00 -0.21020214303E+04  0.21020214303E+04  0.00000000000E+00 0. -1.
          6    1    1    2  501    0 -0.24584492128E+03 -0.22669708544E+03 -0.13222925138E+04  0.13748519141E+04  0.17300000000E+03 0.  1.
         -6    1    1    2    0  502  0.24584492128E+03  0.22669708544E+03 -0.70641210660E+03  0.80048632606E+03  0.17300000000E+03 0. -1.
<mgrwt>
<rscale>  2 0.37651068E+03</rscale>
<asrwt>0</asrwt>
<pdfrwt beam="1">  1       21 0.11279511E-01 0.37651068E+03</pdfrwt>
<pdfrwt beam="2">  1       21 0.32338787E+00 0.37651068E+03</pdfrwt>
<totfact> 0.13801461E+03</totfact>
</mgrwt>
</event>
<event>
 4    1  0.4391134E+000  0.2584557E+03  0.7546771E-02  0.1108075E+00
         21   -1    0    0  503  502  0.00000000000E+00  0.00000000000E+00  0.11991560871E+03  0.11991560871E+03  0.00000000000E+00 0. -1.
         21   -1    0    0  501  503 -0.00000000000E+00 -0.00000000000E+00 -0.55722265378E+03  0.55722265378E+03  0.00000000000E+00 0. -1.
          6    1    1    2  501    0 -0.16460580547E+03  0.98869949189E+02 -0.21274419846E+03  0.33475279241E+03  0.17300000000E+03 0. -1.
         -6    1    1    2    0  502  0.16460580547E+03 -0.98869949189E+02 -0.22456284661E+03  0.34238547008E+03  0.17300000000E+03 0. -1.
<mgrwt>
<rscale>  2 0.25845568E+03</rscale>
<asrwt>0</asrwt>
<pdfrwt beam="1">  1       21 0.18448556E-01 0.25845568E+03</pdfrwt>
<pdfrwt beam="2">  1       21 0.85726560E-01 0.25845568E+03</pdfrwt>
<totfact> 0.30500259E+04</totfact>
</mgrwt>
</event>
<event>
 4    1  0.4391134E+000  0.2251732E+03  0.7546771E-02  0.1130084E+00
         21   -1    0    0  501  502  0.00000000000E+00  0.00000000000E+00  0.59857696939E+02  0.59857696939E+02  0.00000000000E+00 0.  1.
         21   -1    0    0  502  503 -0.00000000000E+00 -0.00000000000E+00 -0.85003976682E+03  0.85003976682E+03  0.00000000000E+00 0.  1.
          6    1    1    2  501    0 -0.70548386352E+02 -0.12568565401E+03 -0.36814725511E+03  0.43154995062E+03  0.17300000000E+03 0.  1.
         -6    1    1    2    0  503  0.70548386352E+02  0.12568565401E+03 -0.42203481478E+03  0.47834751314E+03  0.17300000000E+03 0.  1.
<mgrwt>
<rscale>  2 0.22517317E+03</rscale>
<asrwt>0</asrwt>
<pdfrwt beam="1">  1       21 0.92088769E-02 0.22517317E+03</pdfrwt>
<pdfrwt beam="2">  1       21 0.13077534E+00 0.22517317E+03</pdfrwt>
<totfact> 0.39245346E+04</totfact>
</mgrwt>
</event>
<event>
 4    1  0.4391134E+000  0.1855867E+03  0.7546771E-02  0.1162503E+00
         21   -1    0    0  501  502  0.00000000000E+00  0.00000000000E+00  0.32913234118E+02  0.32913234118E+02  0.00000000000E+00 0. -1.
         21   -1    0    0  502  503 -0.00000000000E+00 -0.00000000000E+00 -0.13704479917E+04  0.13704479917E+04  0.00000000000E+00 0. -1.
          6    1    1    2  501    0  0.64578493216E+02  0.18521561214E+02 -0.32759670206E+03  0.37651298678E+03  0.17300000000E+03 0. -1.
         -6    1    1    2    0  503 -0.64578493216E+02 -0.18521561214E+02 -0.10099380555E+04  0.10268482390E+04  0.17300000000E+03 0. -1.
<mgrwt>
<rscale>  2 0.18558672E+03</rscale>
<asrwt>0</asrwt>
<pdfrwt beam="1">  1       21 0.50635752E-02 0.18558672E+03</pdfrwt>
<pdfrwt beam="2">  1       21 0.21083812E+00 0.18558672E+03</pdfrwt>
<totfact> 0.30342931E+04</totfact>
</mgrwt>
</event>
<event>
 4    1  0.4391134E+000  0.2077655E+03  0.7546771E-02  0.1143348E+00
         21   -1    0    0  503  502  0.00000000000E+00  0.00000000000E+00  0.88376745180E+03  0.88376745180E+03  0.00000000000E+00 0.  1.
         21   -1    0    0  501  503 -0.00000000000E+00 -0.00000000000E+00 -0.57521704231E+02  0.57521704231E+02  0.00000000000E+00 0. -1.
          6    1    1    2  501    0  0.50263154341E+02  0.10349455612E+03  0.23031869892E+03  0.31018254449E+03  0.17300000000E+03 0. -1.
         -6    1    1    2    0  502 -0.50263154341E+02 -0.10349455612E+03  0.59592704865E+03  0.63110661155E+03  0.17300000000E+03 0.  1.
<mgrwt>
<rscale>  2 0.20776551E+03</rscale>
<asrwt>0</asrwt>
<pdfrwt beam="1">  1       21 0.13596421E+00 0.20776551E+03</pdfrwt>
<pdfrwt beam="2">  1       21 0.88494936E-02 0.20776551E+03</pdfrwt>
<totfact> 0.38478794E+04</totfact>
</mgrwt>
</event>
<event>
 4    1  0.4391134E+000  0.2595544E+03  0.7546771E-02  0.1107411E+00
         21   -1    0    0  501  502  0.00000000000E+00  0.00000000000E+00  0.22690691710E+03  0.22690691710E+03  0.00000000000E+00 0. -1.
         21   -1    0    0  502  503 -0.00000000000E+00 -0.00000000000E+00 -0.32982406641E+03  0.32982406641E+03  0.00000000000E+00 0.  1.
          6    1    1    2  501    0  0.70706970894E+02  0.18011110183E+03  0.36491489570E+02  0.26210706505E+03  0.17300000000E+03 0. -1.
         -6    1    1    2    0  503 -0.70706970894E+02 -0.18011110183E+03 -0.13940863888E+03  0.29462391846E+03  0.17300000000E+03 0.  1.
<mgrwt>
<rscale>  2 0.25955440E+03</rscale>
<asrwt>0</asrwt>
<pdfrwt beam="1">  1       21 0.34908757E-01 0.25955440E+03</pdfrwt>
<pdfrwt beam="2">  1       21 0.50742163E-01 0.25955440E+03</pdfrwt>
<totfact> 0.28272987E+04</totfact>
</mgrwt>
</event>
<event>
 4    1  0.4391134E+000  0.2920197E+03  0.7546771E-02  0.1089299E+00
         21   -1    0    0  503  502  0.00000000000E+00  0.00000000000E+00  0.37835861825E+03  0.37835861825E+03  0.00000000000E+00 0.  1.
         21   -1    0    0  501  503 -0.00000000000E+00 -0.00000000000E+00 -0.23011743478E+03  0.23011743478E+03  0.00000000000E+00 0. -1.
          6    1    1    2  501    0  0.22044073188E+03  0.82172817369E+02  0.30480423947E+02  0.29360610421E+03  0.17300000000E+03 0. -1.
         -6    1    1    2    0  502 -0.22044073188E+03 -0.82172817369E+02  0.11776075952E+03  0.31486994882E+03  0.17300000000E+03 0.  1.
<mgrwt>
<rscale>  2 0.29201967E+03</rscale>
<asrwt>0</asrwt>
<pdfrwt beam="1">  1       21 0.58209018E-01 0.29201967E+03</pdfrwt>
<pdfrwt beam="2">  1       21 0.35402682E-01 0.29201967E+03</pdfrwt>
<totfact> 0.20238836E+04</totfact>
</mgrwt>
</event>
<event>
 4    1  0.4391134E+000  0.2119881E+03  0.7546771E-02  0.1140001E+00
         21   -1    0    0  503  502  0.00000000000E+00  0.00000000000E+00  0.11406752660E+04  0.11406752660E+04  0.00000000000E+00 0. -1.
         21   -1    0    0  501  503 -0.00000000000E+00 -0.00000000000E+00 -0.45417029924E+02  0.45417029924E+02  0.00000000000E+00 0.  1.
          6    1    1    2  501    0  0.11165463585E+03 -0.50430238221E+02  0.33171287957E+03  0.39366534151E+03  0.17300000000E+03 0.  1.
         -6    1    1    2    0  502 -0.11165463585E+03  0.50430238221E+02  0.76354535645E+03  0.79242695436E+03  0.17300000000E+03 0. -1.
<mgrwt>
<rscale>  2 0.21198813E+03</rscale>
<asrwt>0</asrwt>
<pdfrwt beam="1">  1       21 0.17548848E+00 0.21198813E+03</pdfrwt>
<pdfrwt beam="2">  1       21 0.69872362E-02 0.21198813E+03</pdfrwt>
<totfact> 0.29275005E+04</totfact>
</mgrwt>
</event>
<event>
 4    1  0.4391134E+000  0.2091210E+03  0.7546771E-02  0.1142264E+00
         21   -1    0    0  501  502  0.00000000000E+00  0.00000000000E+00  0.38968264601E+03  0.38968264601E+03  0.00000000000E+00 0.  1.
         21   -1    0    0  502  503 -0.00000000000E+00 -0.00000000000E+00 -0.16143917331E+03  0.16143917331E+03  0.00000000000E+00 0.  1.
          6    1    1    2  501    0  0.88639691344E+02  0.77107793153E+02  0.26626902807E+03  0.33857170874E+03  0.17300000000E+03 0.  1.
         -6    1    1    2    0  503 -0.88639691344E+02 -0.77107793153E+02 -0.38025555373E+02  0.21255011058E+03  0.17300000000E+03 0.  1.
<mgrwt>
<rscale>  2 0.20912103E+03</rscale>
<asrwt>0</asrwt>
<pdfrwt beam="1">  1       21 0.59951176E-01 0.20912103E+03</pdfrwt>
<pdfrwt beam="2">  1       21 0.24836796E-01 0.20912103E+03</pdfrwt>
<totfact> 0.39475119E+04</totfact>
</mgrwt>
</event>
<event>
 4    1  0.4391134E+000  0.2470683E+03  0.7546771E-02  0.1115172E+00
         21   -1    0    0  503  502  0.00000000000E+00  0.00000000000E+00  0.17543602160E+03  0.17543602160E+03  0.00000000000E+00 0.  1.
         21   -1    0    0  501  503 -0.00000000000E+00 -0.00000000000E+00 -0.42151510864E+03  0.42151510864E+03  0.00000000000E+00 0.  1.
          6    1    1    2  501    0  0.15688908574E+03 -0.80619739461E+02 -0.24773255764E+03  0.34987733240E+03  0.17300000000E+03 0.  1.
         -6    1    1    2    0  502 -0.15688908574E+03  0.80619739461E+02  0.16534705980E+01  0.24707379784E+03  0.17300000000E+03 0.  1.
<mgrwt>
<rscale>  2 0.24706827E+03</rscale>
<asrwt>0</asrwt>
<pdfrwt beam="1">  1       21 0.26990157E-01 0.24706827E+03</pdfrwt>
<pdfrwt beam="2">  1       21 0.64848479E-01 0.24706827E+03</pdfrwt>
<totfact> 0.27858163E+04</totfact>
</mgrwt>
</event>
<event>
 4    1  0.4391134E+000  0.3569708E+03  0.7546771E-02  0.1059790E+00
         21   -1    0    0  503  502  0.00000000000E+00  0.00000000000E+00  0.15829355985E+04  0.15829355985E+04  0.00000000000E+00 0.  1.
         21   -1    0    0  501  503 -0.00000000000E+00 -0.00000000000E+00 -0.80872453984E+02  0.80872453984E+02  0.00000000000E+00 0. -1.
          6    1    1    2  501    0  0.27457647332E+03  0.14868405328E+03  0.80739777094E+03  0.88279065917E+03  0.17300000000E+03 0. -1.
         -6    1    1    2    0  502 -0.27457647332E+03 -0.14868405328E+03  0.69466537354E+03  0.78101739328E+03  0.17300000000E+03 0.  1.
<mgrwt>
<rscale>  2 0.35697085E+03</rscale>
<asrwt>0</asrwt>
<pdfrwt beam="1">  1       21 0.24352853E+00 0.35697085E+03</pdfrwt>
<pdfrwt beam="2">  1       21 0.12441917E-01 0.35697085E+03</pdfrwt>
<totfact> 0.35201731E+03</totfact>
</mgrwt>
</event>
<event>
 4    1  0.4391134E+000  0.2421057E+03  0.7546771E-02  0.1118398E+00
         21   -1    0    0  501  502  0.00000000000E+00  0.00000000000E+00  0.55556770435E+02  0.55556770435E+02  0.00000000000E+00 0. -1.
         21   -1    0    0  502  503 -0.00000000000E+00 -0.00000000000E+00 -0.20034571045E+04  0.20034571045E+04  0.00000000000E+00 0. -1.
          6    1    1    2  501    0  0.15613556604E+03  0.65634404992E+02 -0.26561863949E+03  0.35940012764E+03  0.17300000000E+03 0. -1.
         -6    1    1    2    0  503 -0.15613556604E+03 -0.65634404992E+02 -0.16822816946E+04  0.16996137473E+04  0.17300000000E+03 0. -1.
<mgrwt>
<rscale>  2 0.24210574E+03</rscale>
<asrwt>0</asrwt>
<pdfrwt beam="1">  1       21 0.85471954E-02 0.24210574E+03</pdfrwt>
<pdfrwt beam="2">  1       21 0.30822417E+00 0.24210574E+03</pdfrwt>
<totfact> 0.30980979E+03</totfact>
</mgrwt>
</event>
<event>
 4    1  0.4391134E+000  0.2028645E+03  0.7546771E-02  0.1147344E+00
         21   -1    0    0  501  502  0.00000000000E+00  0.00000000000E+00  0.23947994743E+03  0.23947994743E+03  0.00000000000E+00 0. -1.
         21   -1    0    0  502  503 -0.00000000000E+00 -0.00000000000E+00 -0.36457383082E+03  0.36457383082E+03  0.00000000000E+00 0. -1.
          6    1    1    2  501    0 -0.76391456540E+02  0.73412319004E+02 -0.28214243522E+03  0.34750306037E+03  0.17300000000E+03 0. -1.
         -6    1    1    2    0  503  0.76391456540E+02 -0.73412319004E+02  0.15704855182E+03  0.25655071788E+03  0.17300000000E+03 0. -1.
<mgrwt>
<rscale>  2 0.20286454E+03</rscale>
<asrwt>0</asrwt>
<pdfrwt beam="1">  1       21 0.36843069E-01 0.20286454E+03</pdfrwt>
<pdfrwt beam="2">  1       21 0.56088281E-01 0.20286454E+03</pdfrwt>
<totfact> 0.21131600E+04</totfact>
</mgrwt>
</event>
<event>
 4    1  0.4391134E+000  0.1872302E+03  0.7546771E-02  0.1160984E+00
         21   -1    0    0  501  502  0.00000000000E+00  0.00000000000E+00  0.12666550700E+04  0.12666550700E+04  0.00000000000E+00 0. -1.
         21   -1    0    0  502  503 -0.00000000000E+00 -0.00000000000E+00 -0.38701316318E+02  0.38701316318E+02  0.00000000000E+00 0. -1.
          6    1    1    2  501    0 -0.44528913521E+02  0.56065274378E+02  0.96234972945E+03  0.98039387029E+03  0.17300000000E+03 0. -1.
         -6    1    1    2    0  503  0.44528913521E+02 -0.56065274378E+02  0.26560402420E+03  0.32496251599E+03  0.17300000000E+03 0. -1.
<mgrwt>
<rscale>  2 0.18723018E+03</rscale>
<asrwt>0</asrwt>
<pdfrwt beam="1">  1       21 0.19486998E+00 0.18723018E+03</pdfrwt>
<pdfrwt beam="2">  1       21 0.59540496E-02 0.18723018E+03</pdfrwt>
<totfact> 0.29065428E+04</totfact>
</mgrwt>
</event>
<event>
 4    1  0.4391134E+000  0.2005888E+03  0.7546771E-02  0.1149243E+00
         21   -1    0    0  501  502  0.00000000000E+00  0.00000000000E+00  0.73356040444E+02  0.73356040444E+02  0.00000000000E+00 0. -1.
         21   -1    0    0  502  503 -0.00000000000E+00 -0.00000000000E+00 -0.54894604053E+03  0.54894604053E+03  0.00000000000E+00 0.  1.
          6    1    1    2  501    0 -0.13090221706E+02  0.10067521471E+03 -0.24665562994E+03  0.31792271473E+03  0.17300000000E+03 0. -1.
         -6    1    1    2    0  503  0.13090221706E+02 -0.10067521471E+03 -0.22893437014E+03  0.30437936624E+03  0.17300000000E+03 0.  1.
<mgrwt>
<rscale>  2 0.20058877E+03</rscale>
<asrwt>0</asrwt>
<pdfrwt beam="1">  1       21 0.11285544E-01 0.20058877E+03</pdfrwt>
<pdfrwt beam="2">  1       21 0.84453240E-01 0.20058877E+03</pdfrwt>
<totfact> 0.79342281E+04</totfact>
</mgrwt>
</event>
<event>
 4    1  0.4391134E+000  0.1854502E+03  0.7546771E-02  0.1162630E+00
         21   -1    0    0  501  502  0.00000000000E+00  0.00000000000E+00  0.76376399664E+03  0.76376399664E+03  0.00000000000E+00 0.  1.
         21   -1    0    0  502  503 -0.00000000000E+00 -0.00000000000E+00 -0.17282663964E+03  0.17282663964E+03  0.00000000000E+00 0.  1.
          6    1    1    2  501    0 -0.63301692735E+02  0.21346419557E+02  0.69816285059E+03  0.72237326908E+03  0.17300000000E+03 0.  1.
         -6    1    1    2    0  503  0.63301692735E+02 -0.21346419557E+02 -0.10722549360E+03  0.21421736720E+03  0.17300000000E+03 0.  1.
<mgrwt>
<rscale>  2 0.18545019E+03</rscale>
<asrwt>0</asrwt>
<pdfrwt beam="1">  1       21 0.11750215E+00 0.18545019E+03</pdfrwt>
<pdfrwt beam="2">  1       21 0.26588714E-01 0.18545019E+03</pdfrwt>
<totfact> 0.75283005E+03</totfact>
</mgrwt>
</event>
<event>
 4    1  0.4391134E+000  0.3108983E+03  0.7546771E-02  0.1079916E+00
         21   -1    0    0  501  502  0.00000000000E+00  0.00000000000E+00  0.37463442961E+03  0.37463442961E+03  0.00000000000E+00 0. -1.
         21   -1    0    0  502  503 -0.00000000000E+00 -0.00000000000E+00 -0.28124382677E+03  0.28124382677E+03  0.00000000000E+00 0. -1.
          6    1    1    2  501    0 -0.22298254810E+02  0.25735494526E+03  0.14096090454E+03  0.34136162149E+03  0.17300000000E+03 0. -1.
         -6    1    1    2    0  503  0.22298254810E+02 -0.25735494526E+03 -0.47570301705E+02  0.31451663489E+03  0.17300000000E+03 0. -1.
<mgrwt>
<rscale>  2 0.31089834E+03</rscale>
<asrwt>0</asrwt>
<pdfrwt beam="1">  1       21 0.57636066E-01 0.31089834E+03</pdfrwt>
<pdfrwt beam="2">  1       21 0.43268281E-01 0.31089834E+03</pdfrwt>
<totfact> 0.13636495E+04</totfact>
</mgrwt>
</event>
<event>
 4    1  0.4391134E+000  0.1875210E+03  0.7546771E-02  0.1160716E+00
         21   -1    0    0  501  502  0.00000000000E+00  0.00000000000E+00  0.13099388789E+03  0.13099388789E+03  0.00000000000E+00 0. -1.
         21   -1    0    0  502  503 -0.00000000000E+00 -0.00000000000E+00 -0.29497883864E+03  0.29497883864E+03  0.00000000000E+00 0.  1.
          6    1    1    2  501    0 -0.13980591820E+02 -0.70990544731E+02 -0.18108764828E+02  0.18839331663E+03  0.17300000000E+03 0. -1.
         -6    1    1    2    0  503  0.13980591820E+02  0.70990544731E+02 -0.14587618592E+03  0.23757940990E+03  0.17300000000E+03 0.  1.
<mgrwt>
<rscale>  2 0.18752097E+03</rscale>
<asrwt>0</asrwt>
<pdfrwt beam="1">  1       21 0.20152906E-01 0.18752097E+03</pdfrwt>
<pdfrwt beam="2">  1       21 0.45381359E-01 0.18752097E+03</pdfrwt>
<totfact> 0.10618433E+05</totfact>
</mgrwt>
</event>
<event>
 4    1  0.4391134E+000  0.1799878E+03  0.7546771E-02  0.1167815E+00
         21   -1    0    0  501  502  0.00000000000E+00  0.00000000000E+00  0.82927818296E+03  0.82927818296E+03  0.00000000000E+00 0.  1.
         21   -1    0    0  502  503 -0.00000000000E+00 -0.00000000000E+00 -0.39064873088E+02  0.39064873088E+02  0.00000000000E+00 0.  1.
          6    1    1    2  501    0 -0.15572945357E+02 -0.47160295377E+02  0.39556993499E+03  0.43459312415E+03  0.17300000000E+03 0. -1.
         -6    1    1    2    0  503  0.15572945357E+02  0.47160295377E+02  0.39464337488E+03  0.43374993190E+03  0.17300000000E+03 0. -1.
<mgrwt>
<rscale>  2 0.17998781E+03</rscale>
<asrwt>0</asrwt>
<pdfrwt beam="1">  1       21 0.12758125E+00 0.17998781E+03</pdfrwt>
<pdfrwt beam="2">  1       21 0.60099811E-02 0.17998781E+03</pdfrwt>
<totfact> 0.89621685E+04</totfact>
</mgrwt>
</event>
<event>
 4    1  0.4391134E+000  0.2396504E+03  0.7546771E-02  0.1120026E+00
         21   -1    0    0  501  502  0.00000000000E+00  0.00000000000E+00  0.69220300814E+03  0.69220300814E+03  0.00000000000E+00 0. -1.
         21   -1    0    0  502  503 -0.00000000000E+00 -0.00000000000E+00 -0.93055900488E+02  0.93055900488E+02  0.00000000000E+00 0.  1.
          6    1    1    2  501    0  0.15774268292E+03  0.51191558276E+02  0.42883249802E+03  0.49125313333E+03  0.17300000000E+03 0.  1.
         -6    1    1    2    0  503 -0.15774268292E+03 -0.51191558276E+02  0.17031460963E+03  0.29400577530E+03  0.17300000000E+03 0. -1.
<mgrwt>
<rscale>  2 0.23965043E+03</rscale>
<asrwt>0</asrwt>
<pdfrwt beam="1">  1       21 0.10649277E+00 0.23965043E+03</pdfrwt>
<pdfrwt beam="2">  1       21 0.14316293E-01 0.23965043E+03</pdfrwt>
<totfact> 0.29399720E+04</totfact>
</mgrwt>
</event>
<event>
 4    1  0.4391134E+000  0.1883006E+03  0.7546771E-02  0.1160003E+00
         21   -1    0    0  501  502  0.00000000000E+00  0.00000000000E+00  0.58403251750E+03  0.58403251750E+03  0.00000000000E+00 0.  1.
         21   -1    0    0  502  503 -0.00000000000E+00 -0.00000000000E+00 -0.60915827759E+03  0.60915827759E+03  0.00000000000E+00 0.  1.
          6    1    1    2  501    0 -0.36673107083E+02 -0.64677560469E+02  0.55352301032E+03  0.58467497515E+03  0.17300000000E+03 0.  1.
         -6    1    1    2    0  503  0.36673107083E+02  0.64677560469E+02 -0.57864877042E+03  0.60851581994E+03  0.17300000000E+03 0.  1.
<mgrwt>
<rscale>  2 0.18830057E+03</rscale>
<asrwt>0</asrwt>
<pdfrwt beam="1">  1       21 0.89851156E-01 0.18830057E+03</pdfrwt>
<pdfrwt beam="2">  1       21 0.93716658E-01 0.18830057E+03</pdfrwt>
<totfact> 0.10129989E+03</totfact>
</mgrwt>
</event>
<event>
 4    1  0.4391134E+000  0.2478011E+03  0.7546771E-02  0.1114702E+00
         21   -1    0    0  501  502  0.00000000000E+00  0.00000000000E+00  0.10499909264E+03  0.10499909264E+03  0.00000000000E+00 0.  1.
         21   -1    0    0  502  503 -0.00000000000E+00 -0.00000000000E+00 -0.59044816623E+03  0.59044816623E+03  0.00000000000E+00 0.  1.
          6    1    1    2  501    0 -0.14388290631E+03  0.10379822239E+03 -0.20876958920E+03  0.32402176327E+03  0.17300000000E+03 0.  1.
         -6    1    1    2    0  503  0.14388290631E+03 -0.10379822239E+03 -0.27667948440E+03  0.37142549561E+03  0.17300000000E+03 0.  1.
<mgrwt>
<rscale>  2 0.24780105E+03</rscale>
<asrwt>0</asrwt>
<pdfrwt beam="1">  1       21 0.16153707E-01 0.24780105E+03</pdfrwt>
<pdfrwt beam="2">  1       21 0.90838179E-01 0.24780105E+03</pdfrwt>
<totfact> 0.34266624E+04</totfact>
</mgrwt>
</event>
<event>
 4    1  0.4391134E+000  0.1741454E+03  0.7546771E-02  0.1173592E+00
         21   -1    0    0  503  502  0.00000000000E+00  0.00000000000E+00  0.44926359960E+03  0.44926359960E+03  0.00000000000E+00 0.  1.
         21   -1    0    0  501  503 -0.00000000000E+00 -0.00000000000E+00 -0.85074365908E+02  0.85074365908E+02  0.00000000000E+00 0.  1.
          6    1    1    2  501    0  0.41312480793E+01  0.19508141824E+02  0.60674792119E+02  0.18441275771E+03  0.17300000000E+03 0. -1.
         -6    1    1    2    0  502 -0.41312480793E+01 -0.19508141824E+02  0.30351444157E+03  0.34992520780E+03  0.17300000000E+03 0. -1.
<mgrwt>
<rscale>  2 0.17414544E+03</rscale>
<asrwt>0</asrwt>
<pdfrwt beam="1">  1       21 0.69117476E-01 0.17414544E+03</pdfrwt>
<pdfrwt beam="2">  1       21 0.13088364E-01 0.17414544E+03</pdfrwt>
<totfact> 0.96384835E+04</totfact>
</mgrwt>
</event>
<event>
 4    1  0.4391134E+000  0.1755347E+03  0.7546771E-02  0.1172196E+00
         21   -1    0    0  503  502  0.00000000000E+00  0.00000000000E+00  0.41795592953E+02  0.41795592953E+02  0.00000000000E+00 0.  1.
         21   -1    0    0  501  503 -0.00000000000E+00 -0.00000000000E+00 -0.81622531199E+03  0.81622531199E+03  0.00000000000E+00 0.  1.
          6    1    1    2  501    0  0.26879903553E+02  0.12684581270E+02 -0.52068952169E+03  0.54948157914E+03  0.17300000000E+03 0. -1.
         -6    1    1    2    0  502 -0.26879903553E+02 -0.12684581270E+02 -0.25374019734E+03  0.30853932580E+03  0.17300000000E+03 0. -1.
<mgrwt>
<rscale>  2 0.17553469E+03</rscale>
<asrwt>0</asrwt>
<pdfrwt beam="1">  1       21 0.64300921E-02 0.17553469E+03</pdfrwt>
<pdfrwt beam="2">  1       21 0.12557311E+00 0.17553469E+03</pdfrwt>
<totfact> 0.83238600E+04</totfact>
</mgrwt>
</event>
<event>
 4    1  0.4391134E+000  0.1927099E+03  0.7546771E-02  0.1156040E+00
         21   -1    0    0  503  502  0.00000000000E+00  0.00000000000E+00  0.64875373634E+02  0.64875373634E+02  0.00000000000E+00 0. -1.
         21   -1    0    0  501  503 -0.00000000000E+00 -0.00000000000E+00 -0.57451848706E+03  0.57451848706E+03  0.00000000000E+00 0.  1.
          6    1    1    2  501    0  0.65835561718E+02  0.53607861971E+02 -0.27406031973E+03  0.33503161478E+03  0.17300000000E+03 0. -1.
         -6    1    1    2    0  502 -0.65835561718E+02 -0.53607861971E+02 -0.23558279369E+03  0.30436224591E+03  0.17300000000E+03 0.  1.
<mgrwt>
<rscale>  2 0.19270995E+03</rscale>
<asrwt>0</asrwt>
<pdfrwt beam="1">  1       21 0.99808268E-02 0.19270995E+03</pdfrwt>
<pdfrwt beam="2">  1       21 0.88387458E-01 0.19270995E+03</pdfrwt>
<totfact> 0.89190562E+04</totfact>
</mgrwt>
</event>
<event>
 4    1  0.4391134E+000  0.2145046E+03  0.7546771E-02  0.1138048E+00
         21   -1    0    0  503  502  0.00000000000E+00  0.00000000000E+00  0.11308857838E+04  0.11308857838E+04  0.00000000000E+00 0.  1.
         21   -1    0    0  501  503 -0.00000000000E+00 -0.00000000000E+00 -0.49121188995E+02  0.49121188995E+02  0.00000000000E+00 0. -1.
          6    1    1    2  501    0 -0.96332367353E+02 -0.82482035577E+02  0.29640138119E+03  0.36587701481E+03  0.17300000000E+03 0. -1.
         -6    1    1    2    0  502  0.96332367353E+02  0.82482035577E+02  0.78536321358E+03  0.81412995796E+03  0.17300000000E+03 0.  1.
<mgrwt>
<rscale>  2 0.21450457E+03</rscale>
<asrwt>0</asrwt>
<pdfrwt beam="1">  1       21 0.17398241E+00 0.21450457E+03</pdfrwt>
<pdfrwt beam="2">  1       21 0.75571068E-02 0.21450457E+03</pdfrwt>
<totfact> 0.26134361E+04</totfact>
</mgrwt>
</event>
<event>
 4    1  0.4391134E+000  0.2199234E+03  0.7546771E-02  0.1133940E+00
         21   -1    0    0  503  502  0.00000000000E+00  0.00000000000E+00  0.22701790487E+04  0.22701790487E+04  0.00000000000E+00 0.  1.
         21   -1    0    0  501  503 -0.00000000000E+00 -0.00000000000E+00 -0.26735528921E+02  0.26735528921E+02  0.00000000000E+00 0.  1.
          6    1    1    2  501    0  0.13566888727E+03 -0.55914028190E+01  0.60412809771E+03  0.64291295617E+03  0.17300000000E+03 0.  1.
         -6    1    1    2    0  502 -0.13566888727E+03  0.55914028190E+01  0.16393154221E+04  0.16540016214E+04  0.17300000000E+03 0.  1.
<mgrwt>
<rscale>  2 0.21992342E+03</rscale>
<asrwt>0</asrwt>
<pdfrwt beam="1">  1       21 0.34925816E+00 0.21992342E+03</pdfrwt>
<pdfrwt beam="2">  1       21 0.41131601E-02 0.21992342E+03</pdfrwt>
<totfact> 0.63976410E+03</totfact>
</mgrwt>
</event>
<event>
 4    1  0.4391134E+000  0.3237916E+03  0.7546771E-02  0.1073917E+00
         21   -1    0    0  501  502  0.00000000000E+00  0.00000000000E+00  0.12940684054E+04  0.12940684054E+04  0.00000000000E+00 0. -1.
         21   -1    0    0  502  503 -0.00000000000E+00 -0.00000000000E+00 -0.30809813374E+03  0.30809813374E+03  0.00000000000E+00 0.  1.
          6    1    1    2  501    0  0.15064899463E+03 -0.22851014708E+03  0.11807247628E+04  0.12243169411E+04  0.17300000000E+03 0. -1.
         -6    1    1    2    0  503 -0.15064899463E+03  0.22851014708E+03 -0.19475449112E+03  0.37784959801E+03  0.17300000000E+03 0.  1.
<mgrwt>
<rscale>  2 0.32379161E+03</rscale>
<asrwt>0</asrwt>
<pdfrwt beam="1">  1       21 0.19908744E+00 0.32379161E+03</pdfrwt>
<pdfrwt beam="2">  1       21 0.47399714E-01 0.32379161E+03</pdfrwt>
<totfact> 0.51343094E+02</totfact>
</mgrwt>
</event>
<event>
 4    1  0.4391134E+000  0.1845252E+03  0.7546771E-02  0.1163494E+00
         21   -1    0    0  501  502  0.00000000000E+00  0.00000000000E+00  0.42092229007E+02  0.42092229007E+02  0.00000000000E+00 0.  1.
         21   -1    0    0  502  503 -0.00000000000E+00 -0.00000000000E+00 -0.94933840604E+03  0.94933840604E+03  0.00000000000E+00 0. -1.
          6    1    1    2  501    0 -0.33647636482E+02  0.54666149925E+02 -0.26297932248E+03  0.32125951416E+03  0.17300000000E+03 0. -1.
         -6    1    1    2    0  503  0.33647636482E+02 -0.54666149925E+02 -0.64426685455E+03  0.67017112088E+03  0.17300000000E+03 0. -1.
<mgrwt>
<rscale>  2 0.18452521E+03</rscale>
<asrwt>0</asrwt>
<pdfrwt beam="1">  1       21 0.64757276E-02 0.18452521E+03</pdfrwt>
<pdfrwt beam="2">  1       21 0.14605206E+00 0.18452521E+03</pdfrwt>
<totfact> 0.55695021E+04</totfact>
</mgrwt>
</event>
<event>
 4    1  0.4391134E+000  0.2393245E+03  0.7546771E-02  0.1120244E+00
         21   -1    0    0  503  502  0.00000000000E+00  0.00000000000E+00  0.75540326705E+02  0.75540326705E+02  0.00000000000E+00 0. -1.
         21   -1    0    0  501  503 -0.00000000000E+00 -0.00000000000E+00 -0.10488602435E+04  0.10488602435E+04  0.00000000000E+00 0. -1.
          6    1    1    2  501    0  0.10159878674E+03 -0.13047948794E+03 -0.78260419667E+03  0.81837982556E+03  0.17300000000E+03 0. -1.
         -6    1    1    2    0  502 -0.10159878674E+03  0.13047948794E+03 -0.19071572008E+03  0.30602074460E+03  0.17300000000E+03 0. -1.
<mgrwt>
<rscale>  2 0.23932449E+03</rscale>
<asrwt>0</asrwt>
<pdfrwt beam="1">  1       21 0.11621588E-01 0.23932449E+03</pdfrwt>
<pdfrwt beam="2">  1       21 0.16136312E+00 0.23932449E+03</pdfrwt>
<totfact> 0.14812947E+04</totfact>
</mgrwt>
</event>
<event>
 4    1  0.4391134E+000  0.2117603E+03  0.7546771E-02  0.1140180E+00
         21   -1    0    0  501  502  0.00000000000E+00  0.00000000000E+00  0.19151249405E+03  0.19151249405E+03  0.00000000000E+00 0. -1.
         21   -1    0    0  502  503 -0.00000000000E+00 -0.00000000000E+00 -0.26568290587E+03  0.26568290587E+03  0.00000000000E+00 0.  1.
          6    1    1    2  501    0  0.38618366481E+02 -0.11585362072E+03  0.41670064623E+02  0.21582130096E+03  0.17300000000E+03 0. -1.
         -6    1    1    2    0  503 -0.38618366481E+02  0.11585362072E+03 -0.11584047645E+03  0.24137409896E+03  0.17300000000E+03 0. -1.
<mgrwt>
<rscale>  2 0.21176034E+03</rscale>
<asrwt>0</asrwt>
<pdfrwt beam="1">  1       21 0.29463461E-01 0.21176034E+03</pdfrwt>
<pdfrwt beam="2">  1       21 0.40874293E-01 0.21176034E+03</pdfrwt>
<totfact> 0.63088352E+04</totfact>
</mgrwt>
</event>
<event>
 4    1  0.4391134E+000  0.2160197E+03  0.7546771E-02  0.1136886E+00
         21   -1    0    0  503  502  0.00000000000E+00  0.00000000000E+00  0.44795004334E+03  0.44795004334E+03  0.00000000000E+00 0. -1.
         21   -1    0    0  501  503 -0.00000000000E+00 -0.00000000000E+00 -0.13216064518E+03  0.13216064518E+03  0.00000000000E+00 0. -1.
          6    1    1    2  501    0  0.20795234745E+02 -0.12768350058E+03  0.29137254713E+03  0.36271542472E+03  0.17300000000E+03 0. -1.
         -6    1    1    2    0  502 -0.20795234745E+02  0.12768350058E+03  0.24416851037E+02  0.21739526380E+03  0.17300000000E+03 0. -1.
<mgrwt>
<rscale>  2 0.21601972E+03</rscale>
<asrwt>0</asrwt>
<pdfrwt beam="1">  1       21 0.68915391E-01 0.21601972E+03</pdfrwt>
<pdfrwt beam="2">  1       21 0.20332407E-01 0.21601972E+03</pdfrwt>
<totfact> 0.42422145E+04</totfact>
</mgrwt>
</event>
<event>
 4    1  0.4391134E+000  0.1964236E+03  0.7546771E-02  0.1152792E+00
         21   -1    0    0  501  502  0.00000000000E+00  0.00000000000E+00  0.19521736907E+03  0.19521736907E+03  0.00000000000E+00 0. -1.
         21   -1    0    0  502  503 -0.00000000000E+00 -0.00000000000E+00 -0.20569591940E+03  0.20569591940E+03  0.00000000000E+00 0. -1.
          6    1    1    2  501    0 -0.31688372259E+02 -0.87459092890E+02  0.34437490818E+02  0.19941962451E+03  0.17300000000E+03 0. -1.
         -6    1    1    2    0  503  0.31688372259E+02  0.87459092890E+02 -0.44916041150E+02  0.20149366397E+03  0.17300000000E+03 0. -1.
<mgrwt>
<rscale>  2 0.19642364E+03</rscale>
<asrwt>0</asrwt>
<pdfrwt beam="1">  1       21 0.30033441E-01 0.19642364E+03</pdfrwt>
<pdfrwt beam="2">  1       21 0.31645526E-01 0.19642364E+03</pdfrwt>
<totfact> 0.10192534E+05</totfact>
</mgrwt>
</event>
<event>
 4    1  0.4391134E+000  0.1840993E+03  0.7546771E-02  0.1163894E+00
         21   -1    0    0  503  502  0.00000000000E+00  0.00000000000E+00  0.99347091109E+02  0.99347091109E+02  0.00000000000E+00 0.  1.
         21   -1    0    0  501  503 -0.00000000000E+00 -0.00000000000E+00 -0.35917635944E+03  0.35917635944E+03  0.00000000000E+00 0.  1.
          6    1    1    2  501    0 -0.39836889012E+02 -0.48750153273E+02 -0.78558074818E+02  0.20015975192E+03  0.17300000000E+03 0.  1.
         -6    1    1    2    0  502  0.39836889012E+02  0.48750153273E+02 -0.18127119351E+03  0.25836369862E+03  0.17300000000E+03 0.  1.
<mgrwt>
<rscale>  2 0.18409931E+03</rscale>
<asrwt>0</asrwt>
<pdfrwt beam="1">  1       21 0.15284168E-01 0.18409931E+03</pdfrwt>
<pdfrwt beam="2">  1       21 0.55257901E-01 0.18409931E+03</pdfrwt>
<totfact> 0.11744061E+05</totfact>
</mgrwt>
</event>
<event>
 4    1  0.4391134E+000  0.2692260E+03  0.7546771E-02  0.1101723E+00
         21   -1    0    0  501  502  0.00000000000E+00  0.00000000000E+00  0.21181235529E+03  0.21181235529E+03  0.00000000000E+00 0.  1.
         21   -1    0    0  502  503 -0.00000000000E+00 -0.00000000000E+00 -0.54157567283E+03  0.54157567283E+03  0.00000000000E+00 0. -1.
          6    1    1    2  501    0 -0.17601087074E+03 -0.10758156618E+03  0.63674541107E+02  0.27665333395E+03  0.17300000000E+03 0.  1.
         -6    1    1    2    0  503  0.17601087074E+03  0.10758156618E+03 -0.39343785865E+03  0.47673469417E+03  0.17300000000E+03 0. -1.
<mgrwt>
<rscale>  2 0.26922596E+03</rscale>
<asrwt>0</asrwt>
<pdfrwt beam="1">  1       21 0.32586516E-01 0.26922596E+03</pdfrwt>
<pdfrwt beam="2">  1       21 0.83319334E-01 0.26922596E+03</pdfrwt>
<totfact> 0.10859719E+04</totfact>
</mgrwt>
</event>
<event>
 4    1  0.4391134E+000  0.1886527E+03  0.7546771E-02  0.1159682E+00
         21   -1    0    0  503  502  0.00000000000E+00  0.00000000000E+00  0.16850850071E+02  0.16850850071E+02  0.00000000000E+00 0. -1.
         21   -1    0    0  501  503 -0.00000000000E+00 -0.00000000000E+00 -0.22647311588E+04  0.22647311588E+04  0.00000000000E+00 0. -1.
          6    1    1    2  501    0  0.25132099061E+02 -0.70916969480E+02 -0.14201437960E+04  0.14326193634E+04  0.17300000000E+03 0. -1.
         -6    1    1    2    0  502 -0.25132099061E+02  0.70916969480E+02 -0.82773651266E+03  0.84896264544E+03  0.17300000000E+03 0. -1.
<mgrwt>
<rscale>  2 0.18865269E+03</rscale>
<asrwt>0</asrwt>
<pdfrwt beam="1">  1       21 0.25924394E-02 0.18865269E+03</pdfrwt>
<pdfrwt beam="2">  1       21 0.34842006E+00 0.18865269E+03</pdfrwt>
<totfact> 0.14450699E+04</totfact>
</mgrwt>
</event>
<event>
 4    1  0.4391134E+000  0.2195190E+03  0.7546771E-02  0.1134242E+00
         21   -1    0    0  501  502  0.00000000000E+00  0.00000000000E+00  0.33237309203E+03  0.33237309203E+03  0.00000000000E+00 0. -1.
         21   -1    0    0  502  503 -0.00000000000E+00 -0.00000000000E+00 -0.27382740916E+03  0.27382740916E+03  0.00000000000E+00 0.  1.
          6    1    1    2  501    0  0.35113016912E+02  0.13048619451E+03  0.23718505523E+03  0.32318001383E+03  0.17300000000E+03 0. -1.
         -6    1    1    2    0  503 -0.35113016912E+02 -0.13048619451E+03 -0.17863937236E+03  0.28302048737E+03  0.17300000000E+03 0.  1.
<mgrwt>
<rscale>  2 0.21951895E+03</rscale>
<asrwt>0</asrwt>
<pdfrwt beam="1">  1       21 0.51134322E-01 0.21951895E+03</pdfrwt>
<pdfrwt beam="2">  1       21 0.42127294E-01 0.21951895E+03</pdfrwt>
<totfact> 0.19408847E+04</totfact>
</mgrwt>
</event>
<event>
 4    1  0.4391134E+000  0.1777768E+03  0.7546771E-02  0.1169972E+00
         21   -1    0    0  503  502  0.00000000000E+00  0.00000000000E+00  0.34209455611E+02  0.34209455611E+02  0.00000000000E+00 0.  1.
         21   -1    0    0  501  503 -0.00000000000E+00 -0.00000000000E+00 -0.11625379861E+04  0.11625379861E+04  0.00000000000E+00 0.  1.
          6    1    1    2  501    0 -0.15231796902E+02  0.37994388321E+02 -0.29303303436E+03  0.34274325727E+03  0.17300000000E+03 0.  1.
         -6    1    1    2    0  502  0.15231796902E+02 -0.37994388321E+02 -0.83529549613E+03  0.85400418444E+03  0.17300000000E+03 0.  1.
<mgrwt>
<rscale>  2 0.17777677E+03</rscale>
<asrwt>0</asrwt>
<pdfrwt beam="1">  1       21 0.52629931E-02 0.17777677E+03</pdfrwt>
<pdfrwt beam="2">  1       21 0.17885200E+00 0.17777677E+03</pdfrwt>
<totfact> 0.46110503E+04</totfact>
</mgrwt>
</event>
<event>
 4    1  0.4391134E+000  0.1976872E+03  0.7546771E-02  0.1151705E+00
         21   -1    0    0  501  502  0.00000000000E+00  0.00000000000E+00  0.12737994544E+03  0.12737994544E+03  0.00000000000E+00 0.  1.
         21   -1    0    0  502  503 -0.00000000000E+00 -0.00000000000E+00 -0.61111825628E+03  0.61111825628E+03  0.00000000000E+00 0.  1.
          6    1    1    2  501    0  0.53393015053E+02  0.79375103751E+02  0.18698508296E+02  0.19856952275E+03  0.17300000000E+03 0.  1.
         -6    1    1    2    0  503 -0.53393015053E+02 -0.79375103751E+02 -0.50243681914E+03  0.53992867897E+03  0.17300000000E+03 0.  1.
<mgrwt>
<rscale>  2 0.19768718E+03</rscale>
<asrwt>0</asrwt>
<pdfrwt beam="1">  1       21 0.19596915E-01 0.19768718E+03</pdfrwt>
<pdfrwt beam="2">  1       21 0.94018192E-01 0.19768718E+03</pdfrwt>
<totfact> 0.22688366E+04</totfact>
</mgrwt>
</event>
<event>
 4    1  0.4391134E+000  0.3131089E+03  0.7546771E-02  0.1078865E+00
         21   -1    0    0  501  502  0.00000000000E+00  0.00000000000E+00  0.10047925249E+04  0.10047925249E+04  0.00000000000E+00 0.  1.
         21   -1    0    0  502  503 -0.00000000000E+00 -0.00000000000E+00 -0.18531231491E+03  0.18531231491E+03  0.00000000000E+00 0. -1.
          6    1    1    2  501    0  0.17484822440E+03 -0.19374285170E+03  0.81919743033E+03  0.87699579476E+03  0.17300000000E+03 0.  1.
         -6    1    1    2    0  503 -0.17484822440E+03  0.19374285170E+03  0.28277969885E+00  0.31310904510E+03  0.17300000000E+03 0. -1.
<mgrwt>
<rscale>  2 0.31310892E+03</rscale>
<asrwt>0</asrwt>
<pdfrwt beam="1">  1       21 0.15458346E+00 0.31310892E+03</pdfrwt>
<pdfrwt beam="2">  1       21 0.28509588E-01 0.31310892E+03</pdfrwt>
<totfact> 0.29783462E+03</totfact>
</mgrwt>
</event>
<event>
 4    1  0.4391134E+000  0.2868987E+03  0.7546771E-02  0.1091980E+00
         21   -1    0    0  501  502  0.00000000000E+00  0.00000000000E+00  0.93483126006E+03  0.93483126006E+03  0.00000000000E+00 0.  1.
         21   -1    0    0  502  503 -0.00000000000E+00 -0.00000000000E+00 -0.17693971879E+03  0.17693971879E+03  0.00000000000E+00 0.  1.
          6    1    1    2  501    0  0.22865081107E+03  0.10032246536E+02  0.77295027716E+03  0.82447739225E+03  0.17300000000E+03 0.  1.
         -6    1    1    2    0  503 -0.22865081107E+03 -0.10032246536E+02 -0.15058735896E+02  0.28729358660E+03  0.17300000000E+03 0.  1.
<mgrwt>
<rscale>  2 0.28689866E+03</rscale>
<asrwt>0</asrwt>
<pdfrwt beam="1">  1       21 0.14382019E+00 0.28689866E+03</pdfrwt>
<pdfrwt beam="2">  1       21 0.27221496E-01 0.28689866E+03</pdfrwt>
<totfact> 0.40128452E+03</totfact>
</mgrwt>
</event>
<event>
 4    1  0.4391134E+000  0.1795871E+03  0.7546771E-02  0.1168203E+00
         21   -1    0    0  501  502  0.00000000000E+00  0.00000000000E+00  0.27735287113E+03  0.27735287113E+03  0.00000000000E+00 0. -1.
         21   -1    0    0  502  503 -0.00000000000E+00 -0.00000000000E+00 -0.11629647992E+03  0.11629647992E+03  0.00000000000E+00 0. -1.
          6    1    1    2  501    0  0.39667603660E+02 -0.27367871882E+02  0.78436327001E+02  0.19596881534E+03  0.17300000000E+03 0.  1.
         -6    1    1    2    0  503 -0.39667603660E+02  0.27367871882E+02  0.82620064201E+02  0.19768053571E+03  0.17300000000E+03 0.  1.
<mgrwt>
<rscale>  2 0.17958708E+03</rscale>
<asrwt>0</asrwt>
<pdfrwt beam="1">  1       21 0.42669672E-01 0.17958708E+03</pdfrwt>
<pdfrwt beam="2">  1       21 0.17891766E-01 0.17958708E+03</pdfrwt>
<totfact> 0.15062826E+05</totfact>
</mgrwt>
</event>
<event>
 4    1  0.4391134E+000  0.1963508E+03  0.7546771E-02  0.1152855E+00
         21   -1    0    0  501  502  0.00000000000E+00  0.00000000000E+00  0.13775504197E+03  0.13775504197E+03  0.00000000000E+00 0. -1.
         21   -1    0    0  502  503 -0.00000000000E+00 -0.00000000000E+00 -0.72463074325E+03  0.72463074325E+03  0.00000000000E+00 0.  1.
          6    1    1    2  501    0  0.36455485570E+02 -0.85414490609E+02  0.44374842988E+02  0.20130266845E+03  0.17300000000E+03 0. -1.
         -6    1    1    2    0  503 -0.36455485570E+02  0.85414490609E+02 -0.63125054427E+03  0.66108311677E+03  0.17300000000E+03 0.  1.
<mgrwt>
<rscale>  2 0.19635080E+03</rscale>
<asrwt>0</asrwt>
<pdfrwt beam="1">  1       21 0.21193083E-01 0.19635080E+03</pdfrwt>
<pdfrwt beam="2">  1       21 0.11148166E+00 0.19635080E+03</pdfrwt>
<totfact> 0.13060970E+04</totfact>
</mgrwt>
</event>
<event>
 4    1  0.4391134E+000  0.2776912E+03  0.7546771E-02  0.1096957E+00
         21   -1    0    0  503  502  0.00000000000E+00  0.00000000000E+00  0.56377892879E+03  0.56377892879E+03  0.00000000000E+00 0.  1.
         21   -1    0    0  501  503 -0.00000000000E+00 -0.00000000000E+00 -0.21240841429E+03  0.21240841429E+03  0.00000000000E+00 0.  1.
          6    1    1    2  501    0 -0.17076935240E+03  0.13424315715E+03 -0.55894046384E+02  0.28326055388E+03  0.17300000000E+03 0.  1.
         -6    1    1    2    0  502  0.17076935240E+03 -0.13424315715E+03  0.40726456088E+03  0.49292678920E+03  0.17300000000E+03 0.  1.
<mgrwt>
<rscale>  2 0.27769119E+03</rscale>
<asrwt>0</asrwt>
<pdfrwt beam="1">  1       21 0.86735219E-01 0.27769119E+03</pdfrwt>
<pdfrwt beam="2">  1       21 0.32678218E-01 0.27769119E+03</pdfrwt>
<totfact> 0.98000686E+03</totfact>
</mgrwt>
</event>
<event>
 4    1  0.4391134E+000  0.1785054E+03  0.7546771E-02  0.1169257E+00
         21   -1    0    0  501  502  0.00000000000E+00  0.00000000000E+00  0.18434671353E+04  0.18434671353E+04  0.00000000000E+00 0.  1.
         21   -1    0    0  502  503 -0.00000000000E+00 -0.00000000000E+00 -0.62431701088E+02  0.62431701088E+02  0.00000000000E+00 0.  1.
          6    1    1    2  501    0  0.22173699798E+02 -0.37993539375E+02  0.17008826892E+04  0.17102239925E+04  0.17300000000E+03 0.  1.
         -6    1    1    2    0  503 -0.22173699798E+02  0.37993539375E+02  0.80152744956E+02  0.19567484386E+03  0.17300000000E+03 0.  1.
<mgrwt>
<rscale>  2 0.17850541E+03</rscale>
<asrwt>0</asrwt>
<pdfrwt beam="1">  1       21 0.28361029E+00 0.17850541E+03</pdfrwt>
<pdfrwt beam="2">  1       21 0.96048785E-02 0.17850541E+03</pdfrwt>
<totfact> 0.37589575E+03</totfact>
</mgrwt>
</event>
<event>
 4    1  0.4391134E+000  0.2694001E+03  0.7546771E-02  0.1101623E+00
         21   -1    0    0  503  502  0.00000000000E+00  0.00000000000E+00  0.43562236603E+03  0.43562236603E+03  0.00000000000E+00 0. -1.
         21   -1    0    0  501  503 -0.00000000000E+00 -0.00000000000E+00 -0.17703187008E+03  0.17703187008E+03  0.00000000000E+00 0. -1.
          6    1    1    2  501    0  0.30263476843E+01 -0.20649027572E+03  0.20364152739E+03  0.33770736508E+03  0.17300000000E+03 0. -1.
         -6    1    1    2    0  502 -0.30263476843E+01  0.20649027572E+03  0.54948968554E+02  0.27494687104E+03  0.17300000000E+03 0. -1.
<mgrwt>
<rscale>  2 0.26940006E+03</rscale>
<asrwt>0</asrwt>
<pdfrwt beam="1">  1       21 0.67018825E-01 0.26940006E+03</pdfrwt>
<pdfrwt beam="2">  1       21 0.27235672E-01 0.26940006E+03</pdfrwt>
<totfact> 0.25212097E+04</totfact>
</mgrwt>
</event>
<event>
 4    1  0.4391134E+000  0.2007468E+03  0.7546771E-02  0.1149110E+00
         21   -1    0    0  501  502  0.00000000000E+00  0.00000000000E+00  0.18704020713E+03  0.18704020713E+03  0.00000000000E+00 0. -1.
         21   -1    0    0  502  503 -0.00000000000E+00 -0.00000000000E+00 -0.26339792238E+03  0.26339792238E+03  0.00000000000E+00 0. -1.
          6    1    1    2  501    0  0.25962816981E+02  0.98469265375E+02  0.57904623173E+02  0.20893111179E+03  0.17300000000E+03 0. -1.
         -6    1    1    2    0  503 -0.25962816981E+02 -0.98469265375E+02 -0.13426233842E+03  0.24150701772E+03  0.17300000000E+03 0. -1.
<mgrwt>
<rscale>  2 0.20074677E+03</rscale>
<asrwt>0</asrwt>
<pdfrwt beam="1">  1       21 0.28775416E-01 0.20074677E+03</pdfrwt>
<pdfrwt beam="2">  1       21 0.40522757E-01 0.20074677E+03</pdfrwt>
<totfact> 0.67554792E+04</totfact>
</mgrwt>
</event>
<event>
 4    1  0.4391134E+000  0.1768499E+03  0.7546771E-02  0.1170887E+00
         21   -1    0    0  501  502  0.00000000000E+00  0.00000000000E+00  0.91971576633E+03  0.91971576633E+03  0.00000000000E+00 0.  1.
         21   -1    0    0  502  503 -0.00000000000E+00 -0.00000000000E+00 -0.35933651537E+02  0.35933651537E+02  0.00000000000E+00 0.  1.
          6    1    1    2  501    0  0.29787339853E+02  0.21437907645E+02  0.33122094862E+03  0.37547727801E+03  0.17300000000E+03 0.  1.
         -6    1    1    2    0  503 -0.29787339853E+02 -0.21437907645E+02  0.55256116617E+03  0.58017213985E+03  0.17300000000E+03 0.  1.
<mgrwt>
<rscale>  2 0.17684985E+03</rscale>
<asrwt>0</asrwt>
<pdfrwt beam="1">  1       21 0.14149472E+00 0.17684985E+03</pdfrwt>
<pdfrwt beam="2">  1       21 0.55282548E-02 0.17684985E+03</pdfrwt>
<totfact> 0.79565700E+04</totfact>
</mgrwt>
</event>
<event>
 4    1  0.4391134E+000  0.1773682E+03  0.7546771E-02  0.1170375E+00
         21   -1    0    0  501  502  0.00000000000E+00  0.00000000000E+00  0.14518886540E+03  0.14518886540E+03  0.00000000000E+00 0. -1.
         21   -1    0    0  502  503 -0.00000000000E+00 -0.00000000000E+00 -0.22715262753E+03  0.22715262753E+03  0.00000000000E+00 0. -1.
          6    1    1    2  501    0  0.33951158541E+02  0.19436953841E+02 -0.80956754781E+02  0.19497044003E+03  0.17300000000E+03 0. -1.
         -6    1    1    2    0  503 -0.33951158541E+02 -0.19436953841E+02 -0.10070073515E+01  0.17737105289E+03  0.17300000000E+03 0. -1.
<mgrwt>
<rscale>  2 0.17736819E+03</rscale>
<asrwt>0</asrwt>
<pdfrwt beam="1">  1       21 0.22336749E-01 0.17736819E+03</pdfrwt>
<pdfrwt beam="2">  1       21 0.34946558E-01 0.17736819E+03</pdfrwt>
<totfact> 0.14879566E+05</totfact>
</mgrwt>
</event>
<event>
 4    1  0.4391134E+000  0.1881572E+03  0.7546771E-02  0.1160134E+00
         21   -1    0    0  501  502  0.00000000000E+00  0.00000000000E+00  0.13493926481E+03  0.13493926481E+03  0.00000000000E+00 0. -1.
         21   -1    0    0  502  503 -0.00000000000E+00 -0.00000000000E+00 -0.43996517598E+03  0.43996517598E+03  0.00000000000E+00 0. -1.
          6    1    1    2  501    0  0.45525091192E+02  0.58323111473E+02  0.30120448615E+02  0.19055277664E+03  0.17300000000E+03 0. -1.
         -6    1    1    2    0  503 -0.45525091192E+02 -0.58323111473E+02 -0.33514635978E+03  0.38435166415E+03  0.17300000000E+03 0. -1.
<mgrwt>
<rscale>  2 0.18815717E+03</rscale>
<asrwt>0</asrwt>
<pdfrwt beam="1">  1       21 0.20759887E-01 0.18815717E+03</pdfrwt>
<pdfrwt beam="2">  1       21 0.67686949E-01 0.18815717E+03</pdfrwt>
<totfact> 0.43042024E+04</totfact>
</mgrwt>
</event>
<event>
 4    1  0.4391134E+000  0.2267032E+03  0.7546771E-02  0.1128982E+00
         21   -1    0    0  501  502  0.00000000000E+00  0.00000000000E+00  0.32974507993E+03  0.32974507993E+03  0.00000000000E+00 0. -1.
         21   -1    0    0  502  503 -0.00000000000E+00 -0.00000000000E+00 -0.17063841781E+03  0.17063841781E+03  0.00000000000E+00 0.  1.
          6    1    1    2  501    0  0.12664567665E+03  0.73662845267E+02  0.59264617562E+01  0.22678065424E+03  0.17300000000E+03 0. -1.
         -6    1    1    2    0  503 -0.12664567665E+03 -0.73662845267E+02  0.15318020037E+03  0.27360284350E+03  0.17300000000E+03 0.  1.
<mgrwt>
<rscale>  2 0.22670320E+03</rscale>
<asrwt>0</asrwt>
<pdfrwt beam="1">  1       21 0.50730012E-01 0.22670320E+03</pdfrwt>
<pdfrwt beam="2">  1       21 0.26252064E-01 0.22670320E+03</pdfrwt>
<totfact> 0.50189975E+04</totfact>
</mgrwt>
</event>
<event>
 4    1  0.4391134E+000  0.1737214E+03  0.7546771E-02  0.1174022E+00
         21   -1    0    0  501  502  0.00000000000E+00  0.00000000000E+00  0.14599560212E+03  0.14599560212E+03  0.00000000000E+00 0.  1.
         21   -1    0    0  502  503 -0.00000000000E+00 -0.00000000000E+00 -0.28259587527E+03  0.28259587527E+03  0.00000000000E+00 0.  1.
          6    1    1    2  501    0 -0.13461724743E+02 -0.83016485668E+01  0.42746028135E+02  0.17890320937E+03  0.17300000000E+03 0. -1.
         -6    1    1    2    0  503  0.13461724743E+02  0.83016485668E+01 -0.17934630129E+03  0.24968826802E+03  0.17300000000E+03 0. -1.
<mgrwt>
<rscale>  2 0.17372143E+03</rscale>
<asrwt>0</asrwt>
<pdfrwt beam="1">  1       21 0.22460862E-01 0.17372143E+03</pdfrwt>
<pdfrwt beam="2">  1       21 0.43476288E-01 0.17372143E+03</pdfrwt>
<totfact> 0.95090821E+04</totfact>
</mgrwt>
</event>
<event>
 4    1  0.4391134E+000  0.2369344E+03  0.7546771E-02  0.1121852E+00
         21   -1    0    0  503  502  0.00000000000E+00  0.00000000000E+00  0.17689669997E+04  0.17689669997E+04  0.00000000000E+00 0. -1.
         21   -1    0    0  501  503 -0.00000000000E+00 -0.00000000000E+00 -0.36225237750E+02  0.36225237750E+02  0.00000000000E+00 0.  1.
          6    1    1    2  501    0 -0.66215517788E+02 -0.14773095565E+03  0.54858909212E+03  0.59756834090E+03  0.17300000000E+03 0.  1.
         -6    1    1    2    0  502  0.66215517788E+02  0.14773095565E+03  0.11841526698E+04  0.12076238965E+04  0.17300000000E+03 0. -1.
<mgrwt>
<rscale>  2 0.23693444E+03</rscale>
<asrwt>0</asrwt>
<pdfrwt beam="1">  1       21 0.27214870E+00 0.23693444E+03</pdfrwt>
<pdfrwt beam="2">  1       21 0.55731149E-02 0.23693444E+03</pdfrwt>
<totfact> 0.10607698E+04</totfact>
</mgrwt>
</event>
<event>
 4    1  0.4391134E+000  0.3771572E+03  0.7546771E-02  0.1051989E+00
         21   -1    0    0  501  502  0.00000000000E+00  0.00000000000E+00  0.35262835224E+03  0.35262835224E+03  0.00000000000E+00 0. -1.
         21   -1    0    0  502  503 -0.00000000000E+00 -0.00000000000E+00 -0.44065812926E+03  0.44065812926E+03  0.00000000000E+00 0.  1.
          6    1    1    2  501    0  0.28365680156E+03 -0.17848635796E+03 -0.15936142969E+03  0.40944306848E+03  0.17300000000E+03 0.  1.
         -6    1    1    2    0  503 -0.28365680156E+03  0.17848635796E+03  0.71331652675E+02  0.38384341303E+03  0.17300000000E+03 0.  1.
<mgrwt>
<rscale>  2 0.37715721E+03</rscale>
<asrwt>0</asrwt>
<pdfrwt beam="1">  1       21 0.54250516E-01 0.37715721E+03</pdfrwt>
<pdfrwt beam="2">  1       21 0.67793558E-01 0.37715721E+03</pdfrwt>
<totfact> 0.57782870E+03</totfact>
</mgrwt>
</event>
<event>
 4    1  0.4391134E+000  0.2420713E+03  0.7546771E-02  0.1118421E+00
         21   -1    0    0  503  502  0.00000000000E+00  0.00000000000E+00  0.31081716110E+03  0.31081716110E+03  0.00000000000E+00 0. -1.
         21   -1    0    0  501  503 -0.00000000000E+00 -0.00000000000E+00 -0.19440531127E+03  0.19440531127E+03  0.00000000000E+00 0.  1.
          6    1    1    2  501    0  0.16851962952E+03  0.16450914261E+02  0.10211937352E+03  0.26272964157E+03  0.17300000000E+03 0. -1.
         -6    1    1    2    0  502 -0.16851962952E+03 -0.16450914261E+02  0.14292476313E+02  0.24249283080E+03  0.17300000000E+03 0.  1.
<mgrwt>
<rscale>  2 0.24207127E+03</rscale>
<asrwt>0</asrwt>
<pdfrwt beam="1">  1       21 0.47818025E-01 0.24207127E+03</pdfrwt>
<pdfrwt beam="2">  1       21 0.29908509E-01 0.24207127E+03</pdfrwt>
<totfact> 0.43794086E+04</totfact>
</mgrwt>
</event>
<event>
 4    1  0.4391134E+000  0.2049125E+03  0.7546771E-02  0.1145659E+00
         21   -1    0    0  503  502  0.00000000000E+00  0.00000000000E+00  0.79289082865E+03  0.79289082865E+03  0.00000000000E+00 0. -1.
         21   -1    0    0  501  503 -0.00000000000E+00 -0.00000000000E+00 -0.20198453399E+03  0.20198453399E+03  0.00000000000E+00 0.  1.
          6    1    1    2  501    0  0.99637073310E+02 -0.46179748468E+02 -0.13182716954E+03  0.24365450575E+03  0.17300000000E+03 0.  1.
         -6    1    1    2    0  502 -0.99637073310E+02  0.46179748468E+02  0.72273346420E+03  0.75122085688E+03  0.17300000000E+03 0. -1.
<mgrwt>
<rscale>  2 0.20491246E+03</rscale>
<asrwt>0</asrwt>
<pdfrwt beam="1">  1       21 0.12198320E+00 0.20491246E+03</pdfrwt>
<pdfrwt beam="2">  1       21 0.31074544E-01 0.20491246E+03</pdfrwt>
<totfact> 0.49945639E+03</totfact>
</mgrwt>
</event>
<event>
 4    1  0.4391134E+000  0.1837775E+03  0.7546771E-02  0.1164196E+00
         21   -1    0    0  503  502  0.00000000000E+00  0.00000000000E+00  0.10208489649E+03  0.10208489649E+03  0.00000000000E+00 0. -1.
         21   -1    0    0  501  503 -0.00000000000E+00 -0.00000000000E+00 -0.51757547149E+03  0.51757547149E+03  0.00000000000E+00 0. -1.
          6    1    1    2  501    0  0.40942932763E+02 -0.46570964141E+02 -0.39384495960E+03  0.43461250631E+03  0.17300000000E+03 0. -1.
         -6    1    1    2    0  502 -0.40942932763E+02  0.46570964141E+02 -0.21645615405E+02  0.18504786168E+03  0.17300000000E+03 0. -1.
<mgrwt>
<rscale>  2 0.18377752E+03</rscale>
<asrwt>0</asrwt>
<pdfrwt beam="1">  1       21 0.15705368E-01 0.18377752E+03</pdfrwt>
<pdfrwt beam="2">  1       21 0.79626997E-01 0.18377752E+03</pdfrwt>
<totfact> 0.50355149E+04</totfact>
</mgrwt>
</event>
<event>
 4    1  0.4391134E+000  0.1770590E+03  0.7546771E-02  0.1170680E+00
         21   -1    0    0  503  502  0.00000000000E+00  0.00000000000E+00  0.28436736787E+03  0.28436736787E+03  0.00000000000E+00 0.  1.
         21   -1    0    0  501  503 -0.00000000000E+00 -0.00000000000E+00 -0.20764929689E+03  0.20764929689E+03  0.00000000000E+00 0.  1.
          6    1    1    2  501    0 -0.36785170149E+02 -0.82295305091E+01 -0.13013140349E+03  0.21973633311E+03  0.17300000000E+03 0.  1.
         -6    1    1    2    0  502  0.36785170149E+02  0.82295305091E+01  0.20684947446E+03  0.27228033165E+03  0.17300000000E+03 0.  1.
<mgrwt>
<rscale>  2 0.17705896E+03</rscale>
<asrwt>0</asrwt>
<pdfrwt beam="1">  1       21 0.43748826E-01 0.17705896E+03</pdfrwt>
<pdfrwt beam="2">  1       21 0.31946045E-01 0.17705896E+03</pdfrwt>
<totfact> 0.47666291E+04</totfact>
</mgrwt>
</event>
<event>
 4    1  0.4391134E+000  0.1868919E+03  0.7546771E-02  0.1161295E+00
         21   -1    0    0  501  502  0.00000000000E+00  0.00000000000E+00  0.13341603709E+03  0.13341603709E+03  0.00000000000E+00 0.  1.
         21   -1    0    0  502  503 -0.00000000000E+00 -0.00000000000E+00 -0.52009325113E+03  0.52009325113E+03  0.00000000000E+00 0.  1.
          6    1    1    2  501    0  0.67367183123E+02 -0.21476752763E+02  0.36930665659E+02  0.19050580657E+03  0.17300000000E+03 0.  1.
         -6    1    1    2    0  503 -0.67367183123E+02  0.21476752763E+02 -0.42360787970E+03  0.46300348165E+03  0.17300000000E+03 0.  1.
<mgrwt>
<rscale>  2 0.18689192E+03</rscale>
<asrwt>0</asrwt>
<pdfrwt beam="1">  1       21 0.20525544E-01 0.18689192E+03</pdfrwt>
<pdfrwt beam="2">  1       21 0.80014346E-01 0.18689192E+03</pdfrwt>
<totfact> 0.30327160E+04</totfact>
</mgrwt>
</event>
<event>
 4    1  0.4391134E+000  0.2122903E+03  0.7546771E-02  0.1139765E+00
         21   -1    0    0  503  502  0.00000000000E+00  0.00000000000E+00  0.70568389886E+03  0.70568389886E+03  0.00000000000E+00 0.  1.
         21   -1    0    0  501  503 -0.00000000000E+00 -0.00000000000E+00 -0.10324375663E+03  0.10324375663E+03  0.00000000000E+00 0. -1.
          6    1    1    2  501    0  0.33433820151E+02 -0.11840756259E+03  0.51421937956E+02  0.21842936366E+03  0.17300000000E+03 0. -1.
         -6    1    1    2    0  502 -0.33433820151E+02  0.11840756259E+03  0.55101820427E+03  0.59049829182E+03  0.17300000000E+03 0.  1.
<mgrwt>
<rscale>  2 0.21229030E+03</rscale>
<asrwt>0</asrwt>
<pdfrwt beam="1">  1       21 0.10856675E+00 0.21229030E+03</pdfrwt>
<pdfrwt beam="2">  1       21 0.15883655E-01 0.21229030E+03</pdfrwt>
<totfact> 0.23543312E+04</totfact>
</mgrwt>
</event>
<event>
 4    1  0.4391134E+000  0.3888195E+03  0.7546771E-02  0.1047721E+00
         21   -1    0    0  501  502  0.00000000000E+00  0.00000000000E+00  0.20755090595E+03  0.20755090595E+03  0.00000000000E+00 0.  1.
         21   -1    0    0  502  503 -0.00000000000E+00 -0.00000000000E+00 -0.90781863724E+03  0.90781863724E+03  0.00000000000E+00 0.  1.
          6    1    1    2  501    0  0.32185884864E+03  0.13288516918E+03 -0.10220901501E+03  0.40202894098E+03  0.17300000000E+03 0.  1.
         -6    1    1    2    0  503 -0.32185884864E+03 -0.13288516918E+03 -0.59805871629E+03  0.71334060221E+03  0.17300000000E+03 0.  1.
<mgrwt>
<rscale>  2 0.38881948E+03</rscale>
<asrwt>0</asrwt>
<pdfrwt beam="1">  1       21 0.31930909E-01 0.38881948E+03</pdfrwt>
<pdfrwt beam="2">  1       21 0.13966441E+00 0.38881948E+03</pdfrwt>
<totfact> 0.30082816E+03</totfact>
</mgrwt>
</event>
<event>
 4    1  0.4391134E+000  0.2002101E+03  0.7546771E-02  0.1149562E+00
         21   -1    0    0  501  502  0.00000000000E+00  0.00000000000E+00  0.58100312683E+02  0.58100312683E+02  0.00000000000E+00 0.  1.
         21   -1    0    0  502  503 -0.00000000000E+00 -0.00000000000E+00 -0.69004925264E+03  0.69004925264E+03  0.00000000000E+00 0.  1.
          6    1    1    2  501    0  0.44505815649E+02 -0.90412031866E+02 -0.32125008449E+03  0.37853100258E+03  0.17300000000E+03 0. -1.
         -6    1    1    2    0  503 -0.44505815649E+02  0.90412031866E+02 -0.31069885547E+03  0.36961856274E+03  0.17300000000E+03 0. -1.
<mgrwt>
<rscale>  2 0.20021015E+03</rscale>
<asrwt>0</asrwt>
<pdfrwt beam="1">  1       21 0.89385102E-02 0.20021015E+03</pdfrwt>
<pdfrwt beam="2">  1       21 0.10616142E+00 0.20021015E+03</pdfrwt>
<totfact> 0.70092098E+04</totfact>
</mgrwt>
</event>
<event>
 4    1  0.4391134E+000  0.1861222E+03  0.7546771E-02  0.1162006E+00
         21   -1    0    0  503  502  0.00000000000E+00  0.00000000000E+00  0.25407842252E+03  0.25407842252E+03  0.00000000000E+00 0.  1.
         21   -1    0    0  501  503 -0.00000000000E+00 -0.00000000000E+00 -0.23867913005E+03  0.23867913005E+03  0.00000000000E+00 0.  1.
          6    1    1    2  501    0  0.30213438769E+02  0.61640971130E+02 -0.15362975236E+03  0.24133702993E+03  0.17300000000E+03 0.  1.
         -6    1    1    2    0  502 -0.30213438769E+02 -0.61640971130E+02  0.16902904484E+03  0.25142052264E+03  0.17300000000E+03 0.  1.
<mgrwt>
<rscale>  2 0.18612217E+03</rscale>
<asrwt>0</asrwt>
<pdfrwt beam="1">  1       21 0.39088988E-01 0.18612217E+03</pdfrwt>
<pdfrwt beam="2">  1       21 0.36719866E-01 0.18612217E+03</pdfrwt>
<totfact> 0.45275131E+04</totfact>
</mgrwt>
</event>
<event>
 4    1  0.4391134E+000  0.1876825E+03  0.7546771E-02  0.1160568E+00
         21   -1    0    0  503  502  0.00000000000E+00  0.00000000000E+00  0.52141871298E+02  0.52141871298E+02  0.00000000000E+00 0.  1.
         21   -1    0    0  501  503 -0.00000000000E+00 -0.00000000000E+00 -0.68042309824E+03  0.68042309824E+03  0.00000000000E+00 0. -1.
          6    1    1    2  501    0  0.72656498757E+02  0.40951451331E+01 -0.28316098441E+03  0.33971293781E+03  0.17300000000E+03 0.  1.
         -6    1    1    2    0  502 -0.72656498757E+02 -0.40951451331E+01 -0.34512024253E+03  0.39285203172E+03  0.17300000000E+03 0. -1.
<mgrwt>
<rscale>  2 0.18768254E+03</rscale>
<asrwt>0</asrwt>
<pdfrwt beam="1">  1       21 0.80218266E-02 0.18768254E+03</pdfrwt>
<pdfrwt beam="2">  1       21 0.10468047E+00 0.18768254E+03</pdfrwt>
<totfact> 0.88089260E+04</totfact>
</mgrwt>
</event>
<event>
 4    1  0.4391134E+000  0.2720240E+03  0.7546771E-02  0.1100127E+00
         21   -1    0    0  501  502  0.00000000000E+00  0.00000000000E+00  0.18837770681E+03  0.18837770681E+03  0.00000000000E+00 0. -1.
         21   -1    0    0  502  503 -0.00000000000E+00 -0.00000000000E+00 -0.86515955904E+03  0.86515955904E+03  0.00000000000E+00 0.  1.
          6    1    1    2  501    0 -0.20983543578E+03  0.60963395347E+01  0.50835673991E+02  0.27673333955E+03  0.17300000000E+03 0. -1.
         -6    1    1    2    0  503  0.20983543578E+03 -0.60963395347E+01 -0.72761752622E+03  0.77680392631E+03  0.17300000000E+03 0.  1.
<mgrwt>
<rscale>  2 0.27202403E+03</rscale>
<asrwt>0</asrwt>
<pdfrwt beam="1">  1       21 0.28981186E-01 0.27202403E+03</pdfrwt>
<pdfrwt beam="2">  1       21 0.13310147E+00 0.27202403E+03</pdfrwt>
<totfact> 0.43838640E+03</totfact>
</mgrwt>
</event>
<event>
 4    1  0.4391134E+000  0.2590206E+03  0.7546771E-02  0.1107733E+00
         21   -1    0    0  501  502  0.00000000000E+00  0.00000000000E+00  0.33277615388E+03  0.33277615388E+03  0.00000000000E+00 0.  1.
         21   -1    0    0  502  503 -0.00000000000E+00 -0.00000000000E+00 -0.20431966828E+03  0.20431966828E+03  0.00000000000E+00 0. -1.
          6    1    1    2  501    0  0.12610677718E+03  0.14580724285E+03  0.33313679056E+02  0.26115411644E+03  0.17300000000E+03 0. -1.
         -6    1    1    2    0  503 -0.12610677718E+03 -0.14580724285E+03  0.95142806543E+02  0.27594170572E+03  0.17300000000E+03 0.  1.
<mgrwt>
<rscale>  2 0.25902060E+03</rscale>
<asrwt>0</asrwt>
<pdfrwt beam="1">  1       21 0.51196331E-01 0.25902060E+03</pdfrwt>
<pdfrwt beam="2">  1       21 0.31433795E-01 0.25902060E+03</pdfrwt>
<totfact> 0.34178063E+04</totfact>
</mgrwt>
</event>
<event>
 4    1  0.4391134E+000  0.1816524E+03  0.7546771E-02  0.1166213E+00
         21   -1    0    0  503  502  0.00000000000E+00  0.00000000000E+00  0.60678440707E+02  0.60678440707E+02  0.00000000000E+00 0. -1.
         21   -1    0    0  501  503 -0.00000000000E+00 -0.00000000000E+00 -0.59881706112E+03  0.59881706112E+03  0.00000000000E+00 0.  1.
          6    1    1    2  501    0  0.53939904285E+02 -0.12612310095E+02 -0.36900976608E+03  0.41129769159E+03  0.17300000000E+03 0. -1.
         -6    1    1    2    0  502 -0.53939904285E+02  0.12612310095E+02 -0.16912885433E+03  0.24819781024E+03  0.17300000000E+03 0. -1.
<mgrwt>
<rscale>  2 0.18165237E+03</rscale>
<asrwt>0</asrwt>
<pdfrwt beam="1">  1       21 0.93351449E-02 0.18165237E+03</pdfrwt>
<pdfrwt beam="2">  1       21 0.92125700E-01 0.18165237E+03</pdfrwt>
<totfact> 0.91582514E+04</totfact>
</mgrwt>
</event>
<event>
 4    1  0.4391134E+000  0.1784176E+03  0.7546771E-02  0.1169343E+00
         21   -1    0    0  503  502  0.00000000000E+00  0.00000000000E+00  0.97973099072E+03  0.97973099072E+03  0.00000000000E+00 0.  1.
         21   -1    0    0  501  503 -0.00000000000E+00 -0.00000000000E+00 -0.63756097279E+02  0.63756097279E+02  0.00000000000E+00 0.  1.
          6    1    1    2  501    0 -0.28095339992E+02 -0.33384137807E+02  0.92625583736E+02  0.20102822575E+03  0.17300000000E+03 0.  1.
         -6    1    1    2    0  502  0.28095339992E+02  0.33384137807E+02  0.82334930970E+03  0.84245886224E+03  0.17300000000E+03 0.  1.
<mgrwt>
<rscale>  2 0.17841762E+03</rscale>
<asrwt>0</asrwt>
<pdfrwt beam="1">  1       21 0.15072783E+00 0.17841762E+03</pdfrwt>
<pdfrwt beam="2">  1       21 0.98086310E-02 0.17841762E+03</pdfrwt>
<totfact> 0.25009410E+04</totfact>
</mgrwt>
</event>
<event>
 4    1  0.4391134E+000  0.2983081E+03  0.7546771E-02  0.1086089E+00
         21   -1    0    0  501  502  0.00000000000E+00  0.00000000000E+00  0.52173120690E+03  0.52173120690E+03  0.00000000000E+00 0. -1.
         21   -1    0    0  502  503 -0.00000000000E+00 -0.00000000000E+00 -0.24344998560E+03  0.24344998560E+03  0.00000000000E+00 0.  1.
          6    1    1    2  501    0 -0.17352196985E+02  0.24239971696E+03  0.34848254222E+03  0.45872410418E+03  0.17300000000E+03 0. -1.
         -6    1    1    2    0  503  0.17352196985E+02 -0.24239971696E+03 -0.70201320920E+02  0.30645708832E+03  0.17300000000E+03 0.  1.
<mgrwt>
<rscale>  2 0.29830810E+03</rscale>
<asrwt>0</asrwt>
<pdfrwt beam="1">  1       21 0.80266339E-01 0.29830810E+03</pdfrwt>
<pdfrwt beam="2">  1       21 0.37453844E-01 0.29830810E+03</pdfrwt>
<totfact> 0.88263973E+03</totfact>
</mgrwt>
</event>
<event>
 4    1  0.4391134E+000  0.1827883E+03  0.7546771E-02  0.1165132E+00
         21   -1    0    0  501  502  0.00000000000E+00  0.00000000000E+00  0.10977786397E+03  0.10977786397E+03  0.00000000000E+00 0.  1.
         21   -1    0    0  502  503 -0.00000000000E+00 -0.00000000000E+00 -0.66229859236E+03  0.66229859236E+03  0.00000000000E+00 0.  1.
          6    1    1    2  501    0 -0.56228262133E+02 -0.17914554314E+02  0.75381405255E+01  0.18294363143E+03  0.17300000000E+03 0.  1.
         -6    1    1    2    0  503  0.56228262133E+02  0.17914554314E+02 -0.56005886892E+03  0.58913282490E+03  0.17300000000E+03 0.  1.
<mgrwt>
<rscale>  2 0.18278826E+03</rscale>
<asrwt>0</asrwt>
<pdfrwt beam="1">  1       21 0.16888902E-01 0.18278826E+03</pdfrwt>
<pdfrwt beam="2">  1       21 0.10189209E+00 0.18278826E+03</pdfrwt>
<totfact> 0.24934670E+04</totfact>
</mgrwt>
</event>
<event>
 4    1  0.4391134E+000  0.1813009E+03  0.7546771E-02  0.1166550E+00
         21   -1    0    0  503  502  0.00000000000E+00  0.00000000000E+00  0.18809627486E+03  0.18809627486E+03  0.00000000000E+00 0.  1.
         21   -1    0    0  501  503 -0.00000000000E+00 -0.00000000000E+00 -0.57260513160E+03  0.57260513160E+03  0.00000000000E+00 0. -1.
          6    1    1    2  501    0  0.23095332637E+02 -0.49067517372E+02 -0.50929769324E+03  0.54060536068E+03  0.17300000000E+03 0. -1.
         -6    1    1    2    0  502 -0.23095332637E+02  0.49067517372E+02  0.12478883651E+03  0.22009604578E+03  0.17300000000E+03 0.  1.
<mgrwt>
<rscale>  2 0.18130090E+03</rscale>
<asrwt>0</asrwt>
<pdfrwt beam="1">  1       21 0.28937889E-01 0.18130090E+03</pdfrwt>
<pdfrwt beam="2">  1       21 0.88093096E-01 0.18130090E+03</pdfrwt>
<totfact> 0.12713351E+04</totfact>
</mgrwt>
</event>
<event>
 4    1  0.4391134E+000  0.2066743E+03  0.7546771E-02  0.1144227E+00
         21   -1    0    0  501  502  0.00000000000E+00  0.00000000000E+00  0.52504879945E+03  0.52504879945E+03  0.00000000000E+00 0.  1.
         21   -1    0    0  502  503 -0.00000000000E+00 -0.00000000000E+00 -0.15503782384E+03  0.15503782384E+03  0.00000000000E+00 0.  1.
          6    1    1    2  501    0  0.10825600832E+02  0.11255252499E+03  0.41943085284E+03  0.46758582616E+03  0.17300000000E+03 0.  1.
         -6    1    1    2    0  503 -0.10825600832E+02 -0.11255252499E+03 -0.49419877237E+02  0.21250079713E+03  0.17300000000E+03 0.  1.
<mgrwt>
<rscale>  2 0.20667430E+03</rscale>
<asrwt>0</asrwt>
<pdfrwt beam="1">  1       21 0.80776737E-01 0.20667430E+03</pdfrwt>
<pdfrwt beam="2">  1       21 0.23851973E-01 0.20667430E+03</pdfrwt>
<totfact> 0.22105646E+04</totfact>
</mgrwt>
</event>
<event>
 4    1  0.4391134E+000  0.1774220E+03  0.7546771E-02  0.1170322E+00
         21   -1    0    0  501  502  0.00000000000E+00  0.00000000000E+00  0.21166178399E+03  0.21166178399E+03  0.00000000000E+00 0. -1.
         21   -1    0    0  502  503 -0.00000000000E+00 -0.00000000000E+00 -0.19735651556E+03  0.19735651556E+03  0.00000000000E+00 0. -1.
          6    1    1    2  501    0 -0.13699836832E+02  0.36903734399E+02  0.10867538363E+03  0.20805987155E+03  0.17300000000E+03 0. -1.
         -6    1    1    2    0  503  0.13699836832E+02 -0.36903734399E+02 -0.94370115197E+02  0.20095842800E+03  0.17300000000E+03 0. -1.
<mgrwt>
<rscale>  2 0.17742201E+03</rscale>
<asrwt>0</asrwt>
<pdfrwt beam="1">  1       21 0.32563351E-01 0.17742201E+03</pdfrwt>
<pdfrwt beam="2">  1       21 0.30362541E-01 0.17742201E+03</pdfrwt>
<totfact> 0.95025783E+04</totfact>
</mgrwt>
</event>
<event>
 4    1  0.4391134E+000  0.2208882E+03  0.7546771E-02  0.1133223E+00
         21   -1    0    0  503  502  0.00000000000E+00  0.00000000000E+00  0.27869407963E+03  0.27869407963E+03  0.00000000000E+00 0.  1.
         21   -1    0    0  501  503 -0.00000000000E+00 -0.00000000000E+00 -0.19522876644E+03  0.19522876644E+03  0.00000000000E+00 0.  1.
          6    1    1    2  501    0 -0.91743981095E+02 -0.10220385780E+03 -0.34407538275E+02  0.22355192978E+03  0.17300000000E+03 0.  1.
         -6    1    1    2    0  502  0.91743981095E+02  0.10220385780E+03  0.11787285146E+03  0.25037091630E+03  0.17300000000E+03 0.  1.
<mgrwt>
<rscale>  2 0.22088818E+03</rscale>
<asrwt>0</asrwt>
<pdfrwt beam="1">  1       21 0.42876012E-01 0.22088818E+03</pdfrwt>
<pdfrwt beam="2">  1       21 0.30035195E-01 0.22088818E+03</pdfrwt>
<totfact> 0.54901223E+04</totfact>
</mgrwt>
</event>
<event>
 4    1  0.4391134E+000  0.1760645E+03  0.7546771E-02  0.1171667E+00
         21   -1    0    0  503  502  0.00000000000E+00  0.00000000000E+00  0.22197713444E+04  0.22197713444E+04  0.00000000000E+00 0. -1.
         21   -1    0    0  501  503 -0.00000000000E+00 -0.00000000000E+00 -0.13967278022E+02  0.13967278022E+02  0.00000000000E+00 0. -1.
          6    1    1    2  501    0 -0.63132997999E+01 -0.32091466700E+02  0.10881030324E+04  0.11022553829E+04  0.17300000000E+03 0. -1.
         -6    1    1    2    0  502  0.63132997999E+01  0.32091466700E+02  0.11177010340E+04  0.11314832395E+04  0.17300000000E+03 0. -1.
<mgrwt>
<rscale>  2 0.17606453E+03</rscale>
<asrwt>0</asrwt>
<pdfrwt beam="1">  1       21 0.34150300E+00 0.17606453E+03</pdfrwt>
<pdfrwt beam="2">  1       21 0.21488138E-02 0.17606453E+03</pdfrwt>
<totfact> 0.21891551E+04</totfact>
</mgrwt>
</event>
<event>
 4    1  0.4391134E+000  0.1821269E+03  0.7546771E-02  0.1165760E+00
         21   -1    0    0  501  502  0.00000000000E+00  0.00000000000E+00  0.14436329667E+03  0.14436329667E+03  0.00000000000E+00 0. -1.
         21   -1    0    0  502  503 -0.00000000000E+00 -0.00000000000E+00 -0.99334461087E+03  0.99334461087E+03  0.00000000000E+00 0.  1.
          6    1    1    2  501    0 -0.56885141521E+02  0.23015656897E+01  0.74252353890E+02  0.19668154105E+03  0.17300000000E+03 0. -1.
         -6    1    1    2    0  503  0.56885141521E+02 -0.23015656897E+01 -0.92323366809E+03  0.94102636649E+03  0.17300000000E+03 0.  1.
<mgrwt>
<rscale>  2 0.18212692E+03</rscale>
<asrwt>0</asrwt>
<pdfrwt beam="1">  1       21 0.22209738E-01 0.18212692E+03</pdfrwt>
<pdfrwt beam="2">  1       21 0.15282225E+00 0.18212692E+03</pdfrwt>
<totfact> 0.54438153E+03</totfact>
</mgrwt>
</event>
<event>
 4    1  0.4391134E+000  0.1793936E+03  0.7546771E-02  0.1168391E+00
         21   -1    0    0  501  502  0.00000000000E+00  0.00000000000E+00  0.55755801910E+02  0.55755801910E+02  0.00000000000E+00 0. -1.
         21   -1    0    0  502  503 -0.00000000000E+00 -0.00000000000E+00 -0.82495561756E+03  0.82495561756E+03  0.00000000000E+00 0. -1.
          6    1    1    2  501    0  0.42763426984E+02  0.20599637162E+02 -0.14327445447E+03  0.22958576838E+03  0.17300000000E+03 0. -1.
         -6    1    1    2    0  503 -0.42763426984E+02 -0.20599637162E+02 -0.62592536119E+03  0.65112565110E+03  0.17300000000E+03 0. -1.
<mgrwt>
<rscale>  2 0.17939358E+03</rscale>
<asrwt>0</asrwt>
<pdfrwt beam="1">  1       21 0.85778151E-02 0.17939358E+03</pdfrwt>
<pdfrwt beam="2">  1       21 0.12691626E+00 0.17939358E+03</pdfrwt>
<totfact> 0.49135258E+04</totfact>
</mgrwt>
</event>
<event>
 4    1  0.4391134E+000  0.2426933E+03  0.7546771E-02  0.1118012E+00
         21   -1    0    0  501  502  0.00000000000E+00  0.00000000000E+00  0.60241780807E+02  0.60241780807E+02  0.00000000000E+00 0. -1.
         21   -1    0    0  502  503 -0.00000000000E+00 -0.00000000000E+00 -0.11155779091E+04  0.11155779091E+04  0.00000000000E+00 0.  1.
          6    1    1    2  501    0 -0.94065345947E+02 -0.14185460580E+03 -0.32100373522E+03  0.40242193842E+03  0.17300000000E+03 0.  1.
         -6    1    1    2    0  503  0.94065345947E+02  0.14185460580E+03 -0.73433239309E+03  0.77339775151E+03  0.17300000000E+03 0. -1.
<mgrwt>
<rscale>  2 0.24269326E+03</rscale>
<asrwt>0</asrwt>
<pdfrwt beam="1">  1       21 0.92679666E-02 0.24269326E+03</pdfrwt>
<pdfrwt beam="2">  1       21 0.17162736E+00 0.24269326E+03</pdfrwt>
<totfact> 0.18658513E+04</totfact>
</mgrwt>
</event>
<event>
 4    1  0.4391134E+000  0.2043903E+03  0.7546771E-02  0.1146087E+00
         21   -1    0    0  503  502  0.00000000000E+00  0.00000000000E+00  0.17727136925E+03  0.17727136925E+03  0.00000000000E+00 0.  1.
         21   -1    0    0  501  503 -0.00000000000E+00 -0.00000000000E+00 -0.50645048165E+03  0.50645048165E+03  0.00000000000E+00 0. -1.
          6    1    1    2  501    0  0.45305142649E+02  0.98963831756E+02 -0.41456615983E+03  0.46221260998E+03  0.17300000000E+03 0. -1.
         -6    1    1    2    0  502 -0.45305142649E+02 -0.98963831756E+02  0.85387047428E+02  0.22150924092E+03  0.17300000000E+03 0.  1.
<mgrwt>
<rscale>  2 0.20439030E+03</rscale>
<asrwt>0</asrwt>
<pdfrwt beam="1">  1       21 0.27272518E-01 0.20439030E+03</pdfrwt>
<pdfrwt beam="2">  1       21 0.77915458E-01 0.20439030E+03</pdfrwt>
<totfact> 0.18576927E+04</totfact>
</mgrwt>
</event>
<event>
 4    1  0.4391134E+000  0.2268415E+03  0.7546771E-02  0.1128883E+00
         21   -1    0    0  503  502  0.00000000000E+00  0.00000000000E+00  0.71138828538E+03  0.71138828538E+03  0.00000000000E+00 0.  1.
         21   -1    0    0  501  503 -0.00000000000E+00 -0.00000000000E+00 -0.87553107534E+02  0.87553107534E+02  0.00000000000E+00 0.  1.
          6    1    1    2  501    0  0.12559014107E+02  0.14618602581E+03  0.14536426325E+03  0.26942132805E+03  0.17300000000E+03 0.  1.
         -6    1    1    2    0  502 -0.12559014107E+02 -0.14618602581E+03  0.47847091459E+03  0.52952006486E+03  0.17300000000E+03 0.  1.
<mgrwt>
<rscale>  2 0.22684154E+03</rscale>
<asrwt>0</asrwt>
<pdfrwt beam="1">  1       21 0.10944435E+00 0.22684154E+03</pdfrwt>
<pdfrwt beam="2">  1       21 0.13469709E-01 0.22684154E+03</pdfrwt>
<totfact> 0.30933737E+04</totfact>
</mgrwt>
</event>
<event>
 4    1  0.4391134E+000  0.1876937E+03  0.7546771E-02  0.1160558E+00
         21   -1    0    0  503  502  0.00000000000E+00  0.00000000000E+00  0.47676725178E+02  0.47676725178E+02  0.00000000000E+00 0.  1.
         21   -1    0    0  501  503 -0.00000000000E+00 -0.00000000000E+00 -0.85469621032E+03  0.85469621032E+03  0.00000000000E+00 0. -1.
          6    1    1    2  501    0 -0.10689394519E+02  0.72011628078E+02 -0.23744649288E+03  0.30267106686E+03  0.17300000000E+03 0.  1.
         -6    1    1    2    0  502  0.10689394519E+02 -0.72011628078E+02 -0.56957299226E+03  0.59970186863E+03  0.17300000000E+03 0. -1.
<mgrwt>
<rscale>  2 0.18769373E+03</rscale>
<asrwt>0</asrwt>
<pdfrwt beam="1">  1       21 0.73348805E-02 0.18769373E+03</pdfrwt>
<pdfrwt beam="2">  1       21 0.13149173E+00 0.18769373E+03</pdfrwt>
<totfact> 0.58743749E+04</totfact>
</mgrwt>
</event>
<event>
 4    1  0.4391134E+000  0.1819825E+03  0.7546771E-02  0.1165898E+00
         21   -1    0    0  501  502  0.00000000000E+00  0.00000000000E+00  0.33091613684E+03  0.33091613684E+03  0.00000000000E+00 0.  1.
         21   -1    0    0  502  503 -0.00000000000E+00 -0.00000000000E+00 -0.10008001856E+03  0.10008001856E+03  0.00000000000E+00 0.  1.
          6    1    1    2  501    0  0.49800796021E+02 -0.26617656485E+02  0.11460262373E+03  0.21506134076E+03  0.17300000000E+03 0.  1.
         -6    1    1    2    0  503 -0.49800796021E+02  0.26617656485E+02  0.11623349455E+03  0.21593481465E+03  0.17300000000E+03 0.  1.
<mgrwt>
<rscale>  2 0.18198247E+03</rscale>
<asrwt>0</asrwt>
<pdfrwt beam="1">  1       21 0.50910174E-01 0.18198247E+03</pdfrwt>
<pdfrwt beam="2">  1       21 0.15396926E-01 0.18198247E+03</pdfrwt>
<totfact> 0.13775184E+05</totfact>
</mgrwt>
</event>
<event>
 4    1  0.4391134E+000  0.2271422E+03  0.7546771E-02  0.1128668E+00
         21   -1    0    0  501  502  0.00000000000E+00  0.00000000000E+00  0.16936641218E+03  0.16936641218E+03  0.00000000000E+00 0. -1.
         21   -1    0    0  502  503 -0.00000000000E+00 -0.00000000000E+00 -0.30538453992E+03  0.30538453992E+03  0.00000000000E+00 0.  1.
          6    1    1    2  501    0  0.10821374648E+03  0.99771636399E+02 -0.56186974278E+02  0.23398839808E+03  0.17300000000E+03 0. -1.
         -6    1    1    2    0  503 -0.10821374648E+03 -0.99771636399E+02 -0.79831153469E+02  0.24076255402E+03  0.17300000000E+03 0. -1.
<mgrwt>
<rscale>  2 0.22714223E+03</rscale>
<asrwt>0</asrwt>
<pdfrwt beam="1">  1       21 0.26056371E-01 0.22714223E+03</pdfrwt>
<pdfrwt beam="2">  1       21 0.46982237E-01 0.22714223E+03</pdfrwt>
<totfact> 0.59749522E+04</totfact>
</mgrwt>
</event>
<event>
 4    1  0.4391134E+000  0.2222336E+03  0.7546771E-02  0.1132229E+00
         21   -1    0    0  503  502  0.00000000000E+00  0.00000000000E+00  0.13587553916E+03  0.13587553916E+03  0.00000000000E+00 0. -1.
         21   -1    0    0  501  503 -0.00000000000E+00 -0.00000000000E+00 -0.52498299000E+03  0.52498299000E+03  0.00000000000E+00 0. -1.
          6    1    1    2  501    0  0.56897514173E+02  0.12736347985E+03 -0.37782682416E+03  0.43833878698E+03  0.17300000000E+03 0. -1.
         -6    1    1    2    0  502 -0.56897514173E+02 -0.12736347985E+03 -0.11280626687E+02  0.22251974218E+03  0.17300000000E+03 0. -1.
<mgrwt>
<rscale>  2 0.22223362E+03</rscale>
<asrwt>0</asrwt>
<pdfrwt beam="1">  1       21 0.20903929E-01 0.22223362E+03</pdfrwt>
<pdfrwt beam="2">  1       21 0.80766614E-01 0.22223362E+03</pdfrwt>
<totfact> 0.28141934E+04</totfact>
</mgrwt>
</event>
<event>
 4    1  0.4391134E+000  0.2499038E+03  0.7546771E-02  0.1113366E+00
         21   -1    0    0  501  502  0.00000000000E+00  0.00000000000E+00  0.32687018070E+03  0.32687018070E+03  0.00000000000E+00 0.  1.
         21   -1    0    0  502  503 -0.00000000000E+00 -0.00000000000E+00 -0.29028103352E+03  0.29028103352E+03  0.00000000000E+00 0.  1.
          6    1    1    2  501    0  0.17640407654E+03 -0.37476933050E+02  0.19870160159E+03  0.31927142873E+03  0.17300000000E+03 0. -1.
         -6    1    1    2    0  503 -0.17640407654E+03  0.37476933050E+02 -0.16211245441E+03  0.29787978549E+03  0.17300000000E+03 0. -1.
<mgrwt>
<rscale>  2 0.24990382E+03</rscale>
<asrwt>0</asrwt>
<pdfrwt beam="1">  1       21 0.50287720E-01 0.24990382E+03</pdfrwt>
<pdfrwt beam="2">  1       21 0.44658620E-01 0.24990382E+03</pdfrwt>
<totfact> 0.17551191E+04</totfact>
</mgrwt>
</event>
<event>
 4    1  0.4391134E+000  0.1766180E+03  0.7546771E-02  0.1171117E+00
         21   -1    0    0  503  502  0.00000000000E+00  0.00000000000E+00  0.45280479867E+02  0.45280479867E+02  0.00000000000E+00 0. -1.
         21   -1    0    0  501  503 -0.00000000000E+00 -0.00000000000E+00 -0.93390832132E+03  0.93390832132E+03  0.00000000000E+00 0. -1.
          6    1    1    2  501    0 -0.54336461367E+01  0.35148326996E+02 -0.69508109654E+03  0.71716919912E+03  0.17300000000E+03 0. -1.
         -6    1    1    2    0  502  0.54336461367E+01 -0.35148326996E+02 -0.19354674491E+03  0.26201960207E+03  0.17300000000E+03 0. -1.
<mgrwt>
<rscale>  2 0.17661803E+03</rscale>
<asrwt>0</asrwt>
<pdfrwt beam="1">  1       21 0.69662283E-02 0.17661803E+03</pdfrwt>
<pdfrwt beam="2">  1       21 0.14367819E+00 0.17661803E+03</pdfrwt>
<totfact> 0.51485030E+04</totfact>
</mgrwt>
</event>
<event>
 4    1  0.4391134E+000  0.1752225E+03  0.7546771E-02  0.1172508E+00
         21   -1    0    0  501  502  0.00000000000E+00  0.00000000000E+00  0.11043891780E+04  0.11043891780E+04  0.00000000000E+00 0. -1.
         21   -1    0    0  502  503 -0.00000000000E+00 -0.00000000000E+00 -0.76028247906E+02  0.76028247906E+02  0.00000000000E+00 0. -1.
          6    1    1    2  501    0 -0.93085125192E+01 -0.26216278294E+02  0.98425324832E+03  0.99972866243E+03  0.17300000000E+03 0. -1.
         -6    1    1    2    0  503  0.93085125192E+01  0.26216278294E+02  0.44107681764E+02  0.18068876347E+03  0.17300000000E+03 0. -1.
<mgrwt>
<rscale>  2 0.17522255E+03</rscale>
<asrwt>0</asrwt>
<pdfrwt beam="1">  1       21 0.16990602E+00 0.17522255E+03</pdfrwt>
<pdfrwt beam="2">  1       21 0.11696654E-01 0.17522255E+03</pdfrwt>
<totfact> 0.13305751E+04</totfact>
</mgrwt>
</event>
<event>
 4    1  0.4391134E+000  0.2154087E+03  0.7546771E-02  0.1137353E+00
         21   -1    0    0  503  502  0.00000000000E+00  0.00000000000E+00  0.37471232493E+03  0.37471232493E+03  0.00000000000E+00 0. -1.
         21   -1    0    0  501  503 -0.00000000000E+00 -0.00000000000E+00 -0.14323307841E+03  0.14323307841E+03  0.00000000000E+00 0. -1.
          6    1    1    2  501    0  0.11093951999E+03  0.64531644503E+02  0.20425075825E+02  0.21637489217E+03  0.17300000000E+03 0. -1.
         -6    1    1    2    0  502 -0.11093951999E+03 -0.64531644503E+02  0.21105417070E+03  0.30157051117E+03  0.17300000000E+03 0. -1.
<mgrwt>
<rscale>  2 0.21540871E+03</rscale>
<asrwt>0</asrwt>
<pdfrwt beam="1">  1       21 0.57648050E-01 0.21540871E+03</pdfrwt>
<pdfrwt beam="2">  1       21 0.22035858E-01 0.21540871E+03</pdfrwt>
<totfact> 0.53739765E+04</totfact>
</mgrwt>
</event>
<event>
 4    1  0.4391134E+000  0.1825730E+03  0.7546771E-02  0.1165336E+00
         21   -1    0    0  501  502  0.00000000000E+00  0.00000000000E+00  0.37425909389E+02  0.37425909389E+02  0.00000000000E+00 0.  1.
         21   -1    0    0  502  503 -0.00000000000E+00 -0.00000000000E+00 -0.19947415111E+04  0.19947415111E+04  0.00000000000E+00 0.  1.
          6    1    1    2  501    0 -0.25644875209E+02 -0.52404468016E+02 -0.22271083183E+03  0.28798090650E+03  0.17300000000E+03 0.  1.
         -6    1    1    2    0  503  0.25644875209E+02  0.52404468016E+02 -0.17346047699E+04  0.17441865140E+04  0.17300000000E+03 0.  1.
<mgrwt>
<rscale>  2 0.18257297E+03</rscale>
<asrwt>0</asrwt>
<pdfrwt beam="1">  1       21 0.57578318E-02 0.18257297E+03</pdfrwt>
<pdfrwt beam="2">  1       21 0.30688333E+00 0.18257297E+03</pdfrwt>
<totfact> 0.66704704E+03</totfact>
</mgrwt>
</event>
<event>
 4    1  0.4391134E+000  0.2098875E+03  0.7546771E-02  0.1141655E+00
         21   -1    0    0  501  502  0.00000000000E+00  0.00000000000E+00  0.36337124206E+03  0.36337124206E+03  0.00000000000E+00 0.  1.
         21   -1    0    0  502  503 -0.00000000000E+00 -0.00000000000E+00 -0.12219643380E+03  0.12219643380E+03  0.00000000000E+00 0. -1.
          6    1    1    2  501    0  0.10563140927E+03 -0.54458884892E+02  0.99035263931E+02  0.23207918534E+03  0.17300000000E+03 0. -1.
         -6    1    1    2    0  503 -0.10563140927E+03  0.54458884892E+02  0.14213954433E+03  0.25348849053E+03  0.17300000000E+03 0.  1.
<mgrwt>
<rscale>  2 0.20988751E+03</rscale>
<asrwt>0</asrwt>
<pdfrwt beam="1">  1       21 0.55903268E-01 0.20988751E+03</pdfrwt>
<pdfrwt beam="2">  1       21 0.18799452E-01 0.20988751E+03</pdfrwt>
<totfact> 0.77477652E+04</totfact>
</mgrwt>
</event>
<event>
 4    1  0.4391134E+000  0.1915242E+03  0.7546771E-02  0.1157094E+00
         21   -1    0    0  503  502  0.00000000000E+00  0.00000000000E+00  0.60918927807E+03  0.60918927807E+03  0.00000000000E+00 0. -1.
         21   -1    0    0  501  503 -0.00000000000E+00 -0.00000000000E+00 -0.13952993463E+03  0.13952993463E+03  0.00000000000E+00 0. -1.
          6    1    1    2  501    0 -0.75439560015E+02 -0.32578877964E+02 -0.47421962701E+02  0.19730776227E+03  0.17300000000E+03 0. -1.
         -6    1    1    2    0  502  0.75439560015E+02  0.32578877964E+02  0.51708130614E+03  0.55141145043E+03  0.17300000000E+03 0. -1.
<mgrwt>
<rscale>  2 0.19152418E+03</rscale>
<asrwt>0</asrwt>
<pdfrwt beam="1">  1       21 0.93721426E-01 0.19152418E+03</pdfrwt>
<pdfrwt beam="2">  1       21 0.21466144E-01 0.19152418E+03</pdfrwt>
<totfact> 0.19344710E+04</totfact>
</mgrwt>
</event>
<event>
 4    1  0.4391134E+000  0.2276850E+03  0.7546771E-02  0.1128280E+00
         21   -1    0    0  503  502  0.00000000000E+00  0.00000000000E+00  0.22227655752E+04  0.22227655752E+04  0.00000000000E+00 0.  1.
         21   -1    0    0  501  503 -0.00000000000E+00 -0.00000000000E+00 -0.35115208914E+02  0.35115208914E+02  0.00000000000E+00 0.  1.
          6    1    1    2  501    0 -0.10147328070E+03  0.10777120987E+03  0.43959573593E+03  0.49506047249E+03  0.17300000000E+03 0.  1.
         -6    1    1    2    0  502  0.10147328070E+03 -0.10777120987E+03  0.17480546304E+04  0.17628203116E+04  0.17300000000E+03 0.  1.
<mgrwt>
<rscale>  2 0.22768500E+03</rscale>
<asrwt>0</asrwt>
<pdfrwt beam="1">  1       21 0.34196383E+00 0.22768500E+03</pdfrwt>
<pdfrwt beam="2">  1       21 0.54023416E-02 0.22768500E+03</pdfrwt>
<totfact> 0.44123203E+03</totfact>
</mgrwt>
</event>
<event>
 4    1  0.4391134E+000  0.1907655E+03  0.7546771E-02  0.1157773E+00
         21   -1    0    0  503  502  0.00000000000E+00  0.00000000000E+00  0.14414246280E+04  0.14414246280E+04  0.00000000000E+00 0. -1.
         21   -1    0    0  501  503 -0.00000000000E+00 -0.00000000000E+00 -0.37449238114E+02  0.37449238114E+02  0.00000000000E+00 0. -1.
          6    1    1    2  501    0  0.75071420315E+02  0.28753207206E+02  0.27990101561E+03  0.33872709312E+03  0.17300000000E+03 0. -1.
         -6    1    1    2    0  502 -0.75071420315E+02 -0.28753207206E+02  0.11240743743E+04  0.11401467730E+04  0.17300000000E+03 0. -1.
<mgrwt>
<rscale>  2 0.19076547E+03</rscale>
<asrwt>0</asrwt>
<pdfrwt beam="1">  1       21 0.22175759E+00 0.19076547E+03</pdfrwt>
<pdfrwt beam="2">  1       21 0.57614224E-02 0.19076547E+03</pdfrwt>
<totfact> 0.20771555E+04</totfact>
</mgrwt>
</event>
<event>
 4    1  0.4391134E+000  0.1936507E+03  0.7546771E-02  0.1155209E+00
         21   -1    0    0  503  502  0.00000000000E+00  0.00000000000E+00  0.47344227547E+03  0.47344227547E+03  0.00000000000E+00 0.  1.
         21   -1    0    0  501  503 -0.00000000000E+00 -0.00000000000E+00 -0.10231117644E+03  0.10231117644E+03  0.00000000000E+00 0.  1.
          6    1    1    2  501    0 -0.27717266509E+02 -0.82482487604E+02  0.48768398154E+02  0.19969718146E+03  0.17300000000E+03 0.  1.
         -6    1    1    2    0  502  0.27717266509E+02  0.82482487604E+02  0.32236270088E+03  0.37605627045E+03  0.17300000000E+03 0.  1.
<mgrwt>
<rscale>  2 0.19365074E+03</rscale>
<asrwt>0</asrwt>
<pdfrwt beam="1">  1       21 0.72837272E-01 0.19365074E+03</pdfrwt>
<pdfrwt beam="2">  1       21 0.15740181E-01 0.19365074E+03</pdfrwt>
<totfact> 0.60944021E+04</totfact>
</mgrwt>
</event>
<event>
 4    1  0.4391134E+000  0.3937882E+03  0.7546771E-02  0.1045952E+00
         21   -1    0    0  501  502  0.00000000000E+00  0.00000000000E+00  0.38245699282E+03  0.38245699282E+03  0.00000000000E+00 0.  1.
         21   -1    0    0  502  503 -0.00000000000E+00 -0.00000000000E+00 -0.41132182564E+03  0.41132182564E+03  0.00000000000E+00 0. -1.
          6    1    1    2  501    0  0.30763769786E+03 -0.17464025308E+03 -0.61831870665E+02  0.39861303462E+03  0.17300000000E+03 0.  1.
         -6    1    1    2    0  503 -0.30763769786E+03  0.17464025308E+03  0.32967037843E+02  0.39516578385E+03  0.17300000000E+03 0. -1.
<mgrwt>
<rscale>  2 0.39378823E+03</rscale>
<asrwt>0</asrwt>
<pdfrwt beam="1">  1       21 0.58839537E-01 0.39378823E+03</pdfrwt>
<pdfrwt beam="2">  1       21 0.63280281E-01 0.39378823E+03</pdfrwt>
<totfact> 0.56126866E+03</totfact>
</mgrwt>
</event>
<event>
 4    1  0.4391134E+000  0.1784787E+03  0.7546771E-02  0.1169283E+00
         21   -1    0    0  503  502  0.00000000000E+00  0.00000000000E+00  0.35137553471E+03  0.35137553471E+03  0.00000000000E+00 0. -1.
         21   -1    0    0  501  503 -0.00000000000E+00 -0.00000000000E+00 -0.11797079415E+03  0.11797079415E+03  0.00000000000E+00 0. -1.
          6    1    1    2  501    0 -0.17418417218E+01  0.43847795164E+02  0.37833924057E+01  0.17851884273E+03  0.17300000000E+03 0. -1.
         -6    1    1    2    0  502  0.17418417218E+01 -0.43847795164E+02  0.22962134816E+03  0.29082748612E+03  0.17300000000E+03 0. -1.
<mgrwt>
<rscale>  2 0.17847875E+03</rscale>
<asrwt>0</asrwt>
<pdfrwt beam="1">  1       21 0.54057774E-01 0.17847875E+03</pdfrwt>
<pdfrwt beam="2">  1       21 0.18149353E-01 0.17847875E+03</pdfrwt>
<totfact> 0.89954403E+04</totfact>
</mgrwt>
</event>
<event>
 4    1  0.4391134E+000  0.2170199E+03  0.7546771E-02  0.1136124E+00
         21   -1    0    0  501  502  0.00000000000E+00  0.00000000000E+00  0.54300355442E+02  0.54300355442E+02  0.00000000000E+00 0.  1.
         21   -1    0    0  502  503 -0.00000000000E+00 -0.00000000000E+00 -0.92536573849E+03  0.92536573849E+03  0.00000000000E+00 0.  1.
          6    1    1    2  501    0  0.46475864885E+02 -0.12250977981E+03 -0.55817711902E+03  0.59888174823E+03  0.17300000000E+03 0.  1.
         -6    1    1    2    0  503 -0.46475864885E+02  0.12250977981E+03 -0.31288826404E+03  0.38078434571E+03  0.17300000000E+03 0.  1.
<mgrwt>
<rscale>  2 0.21701993E+03</rscale>
<asrwt>0</asrwt>
<pdfrwt beam="1">  1       21 0.83539012E-02 0.21701993E+03</pdfrwt>
<pdfrwt beam="2">  1       21 0.14236395E+00 0.21701993E+03</pdfrwt>
<totfact> 0.37597708E+04</totfact>
</mgrwt>
</event>
<event>
 4    1  0.4391134E+000  0.2103525E+03  0.7546771E-02  0.1141287E+00
         21   -1    0    0  503  502  0.00000000000E+00  0.00000000000E+00  0.10307932679E+03  0.10307932679E+03  0.00000000000E+00 0.  1.
         21   -1    0    0  501  503 -0.00000000000E+00 -0.00000000000E+00 -0.96772846033E+03  0.96772846033E+03  0.00000000000E+00 0.  1.
          6    1    1    2  501    0 -0.10855417528E+03 -0.50350530751E+02 -0.83170200065E+03  0.85789067066E+03  0.17300000000E+03 0.  1.
         -6    1    1    2    0  502  0.10855417528E+03  0.50350530751E+02 -0.32947132891E+02  0.21291711646E+03  0.17300000000E+03 0.  1.
<mgrwt>
<rscale>  2 0.21035253E+03</rscale>
<asrwt>0</asrwt>
<pdfrwt beam="1">  1       21 0.15858358E-01 0.21035253E+03</pdfrwt>
<pdfrwt beam="2">  1       21 0.14888130E+00 0.21035253E+03</pdfrwt>
<totfact> 0.10663786E+04</totfact>
</mgrwt>
</event>
<event>
 4    1  0.4391134E+000  0.2922358E+03  0.7546771E-02  0.1089188E+00
         21   -1    0    0  503  502  0.00000000000E+00  0.00000000000E+00  0.17467562843E+03  0.17467562843E+03  0.00000000000E+00 0.  1.
         21   -1    0    0  501  503 -0.00000000000E+00 -0.00000000000E+00 -0.49269911828E+03  0.49269911828E+03  0.00000000000E+00 0.  1.
          6    1    1    2  501    0 -0.21866406685E+03  0.87514641242E+02 -0.18824980356E+03  0.34762015923E+03  0.17300000000E+03 0.  1.
         -6    1    1    2    0  502  0.21866406685E+03 -0.87514641242E+02 -0.12977368630E+03  0.31975458748E+03  0.17300000000E+03 0.  1.
<mgrwt>
<rscale>  2 0.29223584E+03</rscale>
<asrwt>0</asrwt>
<pdfrwt beam="1">  1       21 0.26873174E-01 0.29223584E+03</pdfrwt>
<pdfrwt beam="2">  1       21 0.75799864E-01 0.29223584E+03</pdfrwt>
<totfact> 0.19466269E+04</totfact>
</mgrwt>
</event>
<event>
 4    1  0.4391134E+000  0.3425898E+03  0.7546771E-02  0.1065698E+00
         21   -1    0    0  501  502  0.00000000000E+00  0.00000000000E+00  0.20077102639E+04  0.20077102639E+04  0.00000000000E+00 0. -1.
         21   -1    0    0  502  503 -0.00000000000E+00 -0.00000000000E+00 -0.14956953641E+03  0.14956953641E+03  0.00000000000E+00 0.  1.
          6    1    1    2  501    0 -0.27193633149E+03 -0.11614392277E+03  0.87209456318E+02  0.35351558446E+03  0.17300000000E+03 0.  1.
         -6    1    1    2    0  503  0.27193633149E+03  0.11614392277E+03  0.17709312712E+04  0.18037642158E+04  0.17300000000E+03 0. -1.
<mgrwt>
<rscale>  2 0.34258981E+03</rscale>
<asrwt>0</asrwt>
<pdfrwt beam="1">  1       21 0.30887848E+00 0.34258981E+03</pdfrwt>
<pdfrwt beam="2">  1       21 0.23010699E-01 0.34258981E+03</pdfrwt>
<totfact> 0.45844634E+02</totfact>
</mgrwt>
</event>
<event>
 4    1  0.4391134E+000  0.2418680E+03  0.7546771E-02  0.1118555E+00
         21   -1    0    0  503  502  0.00000000000E+00  0.00000000000E+00  0.10088112099E+04  0.10088112099E+04  0.00000000000E+00 0.  1.
         21   -1    0    0  501  503 -0.00000000000E+00 -0.00000000000E+00 -0.74694138433E+02  0.74694138433E+02  0.00000000000E+00 0. -1.
          6    1    1    2  501    0  0.72665746300E+02 -0.15261333359E+03  0.21085776481E+03  0.32087557909E+03  0.17300000000E+03 0. -1.
         -6    1    1    2    0  502 -0.72665746300E+02  0.15261333359E+03  0.72325930662E+03  0.76262976921E+03  0.17300000000E+03 0.  1.
<mgrwt>
<rscale>  2 0.24186802E+03</rscale>
<asrwt>0</asrwt>
<pdfrwt beam="1">  1       21 0.15520172E+00 0.24186802E+03</pdfrwt>
<pdfrwt beam="2">  1       21 0.11491407E-01 0.24186802E+03</pdfrwt>
<totfact> 0.16773319E+04</totfact>
</mgrwt>
</event>
<event>
 4    1  0.4391134E+000  0.1821173E+03  0.7546771E-02  0.1165769E+00
         21   -1    0    0  503  502  0.00000000000E+00  0.00000000000E+00  0.46852461020E+03  0.46852461020E+03  0.00000000000E+00 0. -1.
         21   -1    0    0  501  503 -0.00000000000E+00 -0.00000000000E+00 -0.75739596701E+02  0.75739596701E+02  0.00000000000E+00 0.  1.
          6    1    1    2  501    0 -0.31619929555E+02  0.47306410951E+02  0.12682340994E+03  0.22192542390E+03  0.17300000000E+03 0.  1.
         -6    1    1    2    0  502  0.31619929555E+02 -0.47306410951E+02  0.26596160355E+03  0.32233878300E+03  0.17300000000E+03 0. -1.
<mgrwt>
<rscale>  2 0.18211732E+03</rscale>
<asrwt>0</asrwt>
<pdfrwt beam="1">  1       21 0.72080708E-01 0.18211732E+03</pdfrwt>
<pdfrwt beam="2">  1       21 0.11652246E-01 0.18211732E+03</pdfrwt>
<totfact> 0.10784331E+05</totfact>
</mgrwt>
</event>
<event>
 4    1  0.4391134E+000  0.1880206E+03  0.7546771E-02  0.1160259E+00
         21   -1    0    0  503  502  0.00000000000E+00  0.00000000000E+00  0.42761807197E+02  0.42761807197E+02  0.00000000000E+00 0.  1.
         21   -1    0    0  501  503 -0.00000000000E+00 -0.00000000000E+00 -0.10613268072E+04  0.10613268072E+04  0.00000000000E+00 0.  1.
          6    1    1    2  501    0  0.69140698827E+02  0.25344082321E+02 -0.76883534173E+03  0.79149197181E+03  0.17300000000E+03 0.  1.
         -6    1    1    2    0  502 -0.69140698827E+02 -0.25344082321E+02 -0.24972965832E+03  0.31259664263E+03  0.17300000000E+03 0.  1.
<mgrwt>
<rscale>  2 0.18802063E+03</rscale>
<asrwt>0</asrwt>
<pdfrwt beam="1">  1       21 0.65787399E-02 0.18802063E+03</pdfrwt>
<pdfrwt beam="2">  1       21 0.16328104E+00 0.18802063E+03</pdfrwt>
<totfact> 0.40221054E+04</totfact>
</mgrwt>
</event>
<event>
 4    1  0.4391134E+000  0.1971839E+03  0.7546771E-02  0.1152137E+00
         21   -1    0    0  501  502  0.00000000000E+00  0.00000000000E+00  0.44582581586E+03  0.44582581586E+03  0.00000000000E+00 0.  1.
         21   -1    0    0  502  503 -0.00000000000E+00 -0.00000000000E+00 -0.89959849816E+02  0.89959849816E+02  0.00000000000E+00 0. -1.
          6    1    1    2  501    0  0.88802334545E+02  0.32659182026E+02  0.22475096758E+03  0.29898908712E+03  0.17300000000E+03 0. -1.
         -6    1    1    2    0  503 -0.88802334545E+02 -0.32659182026E+02  0.13111499846E+03  0.23679657855E+03  0.17300000000E+03 0.  1.
<mgrwt>
<rscale>  2 0.19718387E+03</rscale>
<asrwt>0</asrwt>
<pdfrwt beam="1">  1       21 0.68588586E-01 0.19718387E+03</pdfrwt>
<pdfrwt beam="2">  1       21 0.13839977E-01 0.19718387E+03</pdfrwt>
<totfact> 0.87808757E+04</totfact>
</mgrwt>
</event>
<event>
 4    1  0.4391134E+000  0.2047551E+03  0.7546771E-02  0.1145788E+00
         21   -1    0    0  501  502  0.00000000000E+00  0.00000000000E+00  0.25043823442E+04  0.25043823442E+04  0.00000000000E+00 0. -1.
         21   -1    0    0  502  503 -0.00000000000E+00 -0.00000000000E+00 -0.16773188640E+02  0.16773188640E+02  0.00000000000E+00 0. -1.
          6    1    1    2  501    0  0.10050368031E+03  0.43527720137E+02  0.12994405065E+04  0.13154734061E+04  0.17300000000E+03 0. -1.
         -6    1    1    2    0  503 -0.10050368031E+03 -0.43527720137E+02  0.11881686490E+04  0.12056821267E+04  0.17300000000E+03 0. -1.
<mgrwt>
<rscale>  2 0.20475510E+03</rscale>
<asrwt>0</asrwt>
<pdfrwt beam="1">  1       21 0.38528929E+00 0.20475510E+03</pdfrwt>
<pdfrwt beam="2">  1       21 0.25804925E-02 0.20475510E+03</pdfrwt>
<totfact> 0.85801986E+03</totfact>
</mgrwt>
</event>
<event>
 4    1  0.4391134E+000  0.2135597E+03  0.7546771E-02  0.1138778E+00
         21   -1    0    0  503  502  0.00000000000E+00  0.00000000000E+00  0.35905708930E+03  0.35905708930E+03  0.00000000000E+00 0. -1.
         21   -1    0    0  501  503 -0.00000000000E+00 -0.00000000000E+00 -0.12819338277E+03  0.12819338277E+03  0.00000000000E+00 0. -1.
          6    1    1    2  501    0  0.63053862912E+02  0.10818017595E+03  0.92132160093E+02  0.23258562944E+03  0.17300000000E+03 0. -1.
         -6    1    1    2    0  502 -0.63053862912E+02 -0.10818017595E+03  0.13873154643E+03  0.25466484263E+03  0.17300000000E+03 0. -1.
<mgrwt>
<rscale>  2 0.21355969E+03</rscale>
<asrwt>0</asrwt>
<pdfrwt beam="1">  1       21 0.55239552E-01 0.21355969E+03</pdfrwt>
<pdfrwt beam="2">  1       21 0.19722059E-01 0.21355969E+03</pdfrwt>
<totfact> 0.72561372E+04</totfact>
</mgrwt>
</event>
<event>
 4    1  0.4391134E+000  0.1948334E+03  0.7546771E-02  0.1154173E+00
         21   -1    0    0  503  502  0.00000000000E+00  0.00000000000E+00  0.11915725549E+04  0.11915725549E+04  0.00000000000E+00 0.  1.
         21   -1    0    0  501  503 -0.00000000000E+00 -0.00000000000E+00 -0.34475734585E+02  0.34475734585E+02  0.00000000000E+00 0. -1.
          6    1    1    2  501    0 -0.12121732776E+02  0.88792576921E+02  0.40959871029E+03  0.45357597114E+03  0.17300000000E+03 0. -1.
         -6    1    1    2    0  502  0.12121732776E+02 -0.88792576921E+02  0.74749811002E+03  0.77247231834E+03  0.17300000000E+03 0. -1.
<mgrwt>
<rscale>  2 0.19483341E+03</rscale>
<asrwt>0</asrwt>
<pdfrwt beam="1">  1       21 0.18331882E+00 0.19483341E+03</pdfrwt>
<pdfrwt beam="2">  1       21 0.53039601E-02 0.19483341E+03</pdfrwt>
<totfact> 0.41988656E+04</totfact>
</mgrwt>
</event>
<event>
 4    1  0.4391134E+000  0.2566621E+03  0.7546771E-02  0.1109165E+00
         21   -1    0    0  501  502  0.00000000000E+00  0.00000000000E+00  0.35663134424E+03  0.35663134424E+03  0.00000000000E+00 0.  1.
         21   -1    0    0  502  503 -0.00000000000E+00 -0.00000000000E+00 -0.33374934059E+03  0.33374934059E+03  0.00000000000E+00 0. -1.
          6    1    1    2  501    0 -0.11481615259E+02 -0.18924743310E+03  0.24211069759E+03  0.35283566757E+03  0.17300000000E+03 0.  1.
         -6    1    1    2    0  503  0.11481615259E+02  0.18924743310E+03 -0.21922869394E+03  0.33754501725E+03  0.17300000000E+03 0. -1.
<mgrwt>
<rscale>  2 0.25666207E+03</rscale>
<asrwt>0</asrwt>
<pdfrwt beam="1">  1       21 0.54866361E-01 0.25666207E+03</pdfrwt>
<pdfrwt beam="2">  1       21 0.51346053E-01 0.25666207E+03</pdfrwt>
<totfact> 0.10872972E+04</totfact>
</mgrwt>
</event>
<event>
 4    1  0.4391134E+000  0.2015719E+03  0.7546771E-02  0.1148420E+00
         21   -1    0    0  503  502  0.00000000000E+00  0.00000000000E+00  0.54712004275E+03  0.54712004275E+03  0.00000000000E+00 0. -1.
         21   -1    0    0  501  503 -0.00000000000E+00 -0.00000000000E+00 -0.79692434492E+02  0.79692434492E+02  0.00000000000E+00 0. -1.
          6    1    1    2  501    0 -0.40858110356E+02 -0.95041259579E+02  0.15191565871E+03  0.25240759411E+03  0.17300000000E+03 0. -1.
         -6    1    1    2    0  502  0.40858110356E+02  0.95041259579E+02  0.31551194955E+03  0.37440488313E+03  0.17300000000E+03 0. -1.
<mgrwt>
<rscale>  2 0.20157189E+03</rscale>
<asrwt>0</asrwt>
<pdfrwt beam="1">  1       21 0.84172312E-01 0.20157189E+03</pdfrwt>
<pdfrwt beam="2">  1       21 0.12260375E-01 0.20157189E+03</pdfrwt>
<totfact> 0.68908714E+04</totfact>
</mgrwt>
</event>
<event>
 4    1  0.4391134E+000  0.3082421E+03  0.7546771E-02  0.1081192E+00
         21   -1    0    0  501  502  0.00000000000E+00  0.00000000000E+00  0.64940507300E+03  0.64940507300E+03  0.00000000000E+00 0. -1.
         21   -1    0    0  502  503 -0.00000000000E+00 -0.00000000000E+00 -0.15910318755E+03  0.15910318755E+03  0.00000000000E+00 0.  1.
          6    1    1    2  501    0 -0.19418699566E+03 -0.16545574337E+03  0.13051060884E+03  0.33473304485E+03  0.17300000000E+03 0. -1.
         -6    1    1    2    0  503  0.19418699566E+03  0.16545574337E+03  0.35979127661E+03  0.47377521571E+03  0.17300000000E+03 0. -1.
<mgrwt>
<rscale>  2 0.30824210E+03</rscale>
<asrwt>0</asrwt>
<pdfrwt beam="1">  1       21 0.99908471E-01 0.30824210E+03</pdfrwt>
<pdfrwt beam="2">  1       21 0.24477414E-01 0.30824210E+03</pdfrwt>
<totfact> 0.12177365E+04</totfact>
</mgrwt>
</event>
<event>
 4    1  0.4391134E+000  0.3866027E+03  0.7546771E-02  0.1048520E+00
         21   -1    0    0  501  502  0.00000000000E+00  0.00000000000E+00  0.14813447432E+04  0.14813447432E+04  0.00000000000E+00 0.  1.
         21   -1    0    0  502  503 -0.00000000000E+00 -0.00000000000E+00 -0.19564235347E+03  0.19564235347E+03  0.00000000000E+00 0.  1.
          6    1    1    2  501    0 -0.30512007681E+03 -0.16258663703E+03  0.12263630274E+04  0.12858568936E+04  0.17300000000E+03 0.  1.
         -6    1    1    2    0  503  0.30512007681E+03  0.16258663703E+03  0.59339362286E+02  0.39113020304E+03  0.17300000000E+03 0.  1.
<mgrwt>
<rscale>  2 0.38660274E+03</rscale>
<asrwt>0</asrwt>
<pdfrwt beam="1">  1       21 0.22789918E+00 0.38660274E+03</pdfrwt>
<pdfrwt beam="2">  1       21 0.30098825E-01 0.38660274E+03</pdfrwt>
<totfact> 0.81226528E+02</totfact>
</mgrwt>
</event>
<event>
 4    1  0.4391134E+000  0.2062734E+03  0.7546771E-02  0.1144552E+00
         21   -1    0    0  503  502  0.00000000000E+00  0.00000000000E+00  0.13534764807E+03  0.13534764807E+03  0.00000000000E+00 0. -1.
         21   -1    0    0  501  503 -0.00000000000E+00 -0.00000000000E+00 -0.51169915888E+03  0.51169915888E+03  0.00000000000E+00 0. -1.
          6    1    1    2  501    0  0.10761693348E+03  0.32222586436E+02 -0.38908428696E+03  0.44038083724E+03  0.17300000000E+03 0. -1.
         -6    1    1    2    0  502 -0.10761693348E+03 -0.32222586436E+02  0.12732776150E+02  0.20666596971E+03  0.17300000000E+03 0. -1.
<mgrwt>
<rscale>  2 0.20627336E+03</rscale>
<asrwt>0</asrwt>
<pdfrwt beam="1">  1       21 0.20822715E-01 0.20627336E+03</pdfrwt>
<pdfrwt beam="2">  1       21 0.78722948E-01 0.20627336E+03</pdfrwt>
<totfact> 0.30298736E+04</totfact>
</mgrwt>
</event>
<event>
 4    1  0.4391134E+000  0.2647003E+03  0.7546771E-02  0.1104352E+00
         21   -1    0    0  501  502  0.00000000000E+00  0.00000000000E+00  0.15825440494E+04  0.15825440494E+04  0.00000000000E+00 0.  1.
         21   -1    0    0  502  503 -0.00000000000E+00 -0.00000000000E+00 -0.48786955006E+02  0.48786955006E+02  0.00000000000E+00 0. -1.
          6    1    1    2  501    0  0.18278840741E+03 -0.82009898400E+02  0.10149463304E+04  0.10488957427E+04  0.17300000000E+03 0.  1.
         -6    1    1    2    0  503 -0.18278840741E+03  0.82009898400E+02  0.51881076394E+03  0.58243526172E+03  0.17300000000E+03 0. -1.
<mgrwt>
<rscale>  2 0.26470026E+03</rscale>
<asrwt>0</asrwt>
<pdfrwt beam="1">  1       21 0.24346828E+00 0.26470026E+03</pdfrwt>
<pdfrwt beam="2">  1       21 0.75056866E-02 0.26470026E+03</pdfrwt>
<totfact> 0.91826736E+03</totfact>
</mgrwt>
</event>
<event>
 4    1  0.4391134E+000  0.2159598E+03  0.7546771E-02  0.1136931E+00
         21   -1    0    0  503  502  0.00000000000E+00  0.00000000000E+00  0.11974306112E+03  0.11974306112E+03  0.00000000000E+00 0.  1.
         21   -1    0    0  501  503 -0.00000000000E+00 -0.00000000000E+00 -0.58927474967E+03  0.58927474967E+03  0.00000000000E+00 0.  1.
          6    1    1    2  501    0  0.15552766200E+02 -0.12832677123E+03 -0.44118504455E+03  0.49120554994E+03  0.17300000000E+03 0.  1.
         -6    1    1    2    0  502 -0.15552766200E+02  0.12832677123E+03 -0.28346644002E+02  0.21781226085E+03  0.17300000000E+03 0.  1.
<mgrwt>
<rscale>  2 0.21595983E+03</rscale>
<asrwt>0</asrwt>
<pdfrwt beam="1">  1       21 0.18422010E-01 0.21595983E+03</pdfrwt>
<pdfrwt beam="2">  1       21 0.90657653E-01 0.21595983E+03</pdfrwt>
<totfact> 0.27421811E+04</totfact>
</mgrwt>
</event>
<event>
 4    1  0.4391134E+000  0.1880511E+03  0.7546771E-02  0.1160231E+00
         21   -1    0    0  503  502  0.00000000000E+00  0.00000000000E+00  0.24993320079E+03  0.24993320079E+03  0.00000000000E+00 0. -1.
         21   -1    0    0  501  503 -0.00000000000E+00 -0.00000000000E+00 -0.14801605506E+03  0.14801605506E+03  0.00000000000E+00 0.  1.
          6    1    1    2  501    0 -0.49349650838E+02  0.54761420711E+02  0.91805069009E+01  0.18827501943E+03  0.17300000000E+03 0. -1.
         -6    1    1    2    0  502  0.49349650838E+02 -0.54761420711E+02  0.92736638832E+02  0.20967423642E+03  0.17300000000E+03 0. -1.
<mgrwt>
<rscale>  2 0.18805106E+03</rscale>
<asrwt>0</asrwt>
<pdfrwt beam="1">  1       21 0.38451262E-01 0.18805106E+03</pdfrwt>
<pdfrwt beam="2">  1       21 0.22771701E-01 0.18805106E+03</pdfrwt>
<totfact> 0.11815792E+05</totfact>
</mgrwt>
</event>
<event>
 4    1  0.4391134E+000  0.2744769E+03  0.7546771E-02  0.1098744E+00
         21   -1    0    0  503  502  0.00000000000E+00  0.00000000000E+00  0.16236862624E+04  0.16236862624E+04  0.00000000000E+00 0.  1.
         21   -1    0    0  501  503 -0.00000000000E+00 -0.00000000000E+00 -0.74577820072E+02  0.74577820072E+02  0.00000000000E+00 0. -1.
          6    1    1    2  501    0  0.20682689735E+03  0.51295519068E+02  0.25260176067E+03  0.37302177583E+03  0.17300000000E+03 0. -1.
         -6    1    1    2    0  502 -0.20682689735E+03 -0.51295519068E+02  0.12965066816E+04  0.13252423066E+04  0.17300000000E+03 0.  1.
<mgrwt>
<rscale>  2 0.27447695E+03</rscale>
<asrwt>0</asrwt>
<pdfrwt beam="1">  1       21 0.24979786E+00 0.27447695E+03</pdfrwt>
<pdfrwt beam="2">  1       21 0.11473512E-01 0.27447695E+03</pdfrwt>
<totfact> 0.39387599E+03</totfact>
</mgrwt>
</event>
<event>
 4    1  0.4391134E+000  0.2053206E+03  0.7546771E-02  0.1145326E+00
         21   -1    0    0  503  502  0.00000000000E+00  0.00000000000E+00  0.84706431619E+02  0.84706431619E+02  0.00000000000E+00 0.  1.
         21   -1    0    0  501  503 -0.00000000000E+00 -0.00000000000E+00 -0.55511099512E+03  0.55511099512E+03  0.00000000000E+00 0. -1.
          6    1    1    2  501    0 -0.77893115064E+02  0.78487002793E+02 -0.33810243376E+03  0.39556264067E+03  0.17300000000E+03 0. -1.
         -6    1    1    2    0  502  0.77893115064E+02 -0.78487002793E+02 -0.13230212974E+03  0.24425478606E+03  0.17300000000E+03 0.  1.
<mgrwt>
<rscale>  2 0.20532060E+03</rscale>
<asrwt>0</asrwt>
<pdfrwt beam="1">  1       21 0.13031758E-01 0.20532060E+03</pdfrwt>
<pdfrwt beam="2">  1       21 0.85401693E-01 0.20532060E+03</pdfrwt>
<totfact> 0.59626089E+04</totfact>
</mgrwt>
</event>
<event>
 4    1  0.4391134E+000  0.3048966E+03  0.7546771E-02  0.1082818E+00
         21   -1    0    0  503  502  0.00000000000E+00  0.00000000000E+00  0.27812914496E+03  0.27812914496E+03  0.00000000000E+00 0. -1.
         21   -1    0    0  501  503 -0.00000000000E+00 -0.00000000000E+00 -0.46051305493E+03  0.46051305493E+03  0.00000000000E+00 0.  1.
          6    1    1    2  501    0  0.25077182638E+03 -0.12101552723E+02 -0.28458375315E+03  0.41707297807E+03  0.17300000000E+03 0.  1.
         -6    1    1    2    0  502 -0.25077182638E+03  0.12101552723E+02  0.10219984318E+03  0.32156922183E+03  0.17300000000E+03 0. -1.
<mgrwt>
<rscale>  2 0.30489663E+03</rscale>
<asrwt>0</asrwt>
<pdfrwt beam="1">  1       21 0.42789100E-01 0.30489663E+03</pdfrwt>
<pdfrwt beam="2">  1       21 0.70848162E-01 0.30489663E+03</pdfrwt>
<totfact> 0.88908210E+03</totfact>
</mgrwt>
</event>
<event>
 4    1  0.4391134E+000  0.1883188E+03  0.7546771E-02  0.1159986E+00
         21   -1    0    0  501  502  0.00000000000E+00  0.00000000000E+00  0.34048135276E+03  0.34048135276E+03  0.00000000000E+00 0.  1.
         21   -1    0    0  502  503 -0.00000000000E+00 -0.00000000000E+00 -0.33443343525E+03  0.33443343525E+03  0.00000000000E+00 0.  1.
          6    1    1    2  501    0  0.40273172316E+01  0.74288415995E+02  0.28304298804E+03  0.33996664706E+03  0.17300000000E+03 0.  1.
         -6    1    1    2    0  503 -0.40273172316E+01 -0.74288415995E+02 -0.27699507052E+03  0.33494814096E+03  0.17300000000E+03 0.  1.
<mgrwt>
<rscale>  2 0.18831885E+03</rscale>
<asrwt>0</asrwt>
<pdfrwt beam="1">  1       21 0.52381746E-01 0.18831885E+03</pdfrwt>
<pdfrwt beam="2">  1       21 0.51451298E-01 0.18831885E+03</pdfrwt>
<totfact> 0.12443187E+04</totfact>
</mgrwt>
</event>
<event>
 4    1  0.4391134E+000  0.2415667E+03  0.7546771E-02  0.1118754E+00
         21   -1    0    0  501  502  0.00000000000E+00  0.00000000000E+00  0.31295514916E+02  0.31295514916E+02  0.00000000000E+00 0.  1.
         21   -1    0    0  502  503 -0.00000000000E+00 -0.00000000000E+00 -0.22508539485E+04  0.22508539485E+04  0.00000000000E+00 0.  1.
          6    1    1    2  501    0 -0.16813682057E+03 -0.12468453288E+02 -0.15824534023E+04  0.16007851896E+04  0.17300000000E+03 0.  1.
         -6    1    1    2    0  503  0.16813682057E+03  0.12468453288E+02 -0.63710503132E+03  0.68136427386E+03  0.17300000000E+03 0.  1.
<mgrwt>
<rscale>  2 0.24156666E+03</rscale>
<asrwt>0</asrwt>
<pdfrwt beam="1">  1       21 0.48146943E-02 0.24156666E+03</pdfrwt>
<pdfrwt beam="2">  1       21 0.34628524E+00 0.24156666E+03</pdfrwt>
<totfact> 0.49888742E+03</totfact>
</mgrwt>
</event>
<event>
 4    1  0.4391134E+000  0.2000266E+03  0.7546771E-02  0.1149717E+00
         21   -1    0    0  501  502  0.00000000000E+00  0.00000000000E+00  0.65268821048E+02  0.65268821048E+02  0.00000000000E+00 0. -1.
         21   -1    0    0  502  503 -0.00000000000E+00 -0.00000000000E+00 -0.79996992566E+03  0.79996992566E+03  0.00000000000E+00 0. -1.
          6    1    1    2  501    0 -0.85334297415E+02  0.52912002931E+02 -0.15820908452E+03  0.25503085459E+03  0.17300000000E+03 0. -1.
         -6    1    1    2    0  503  0.85334297415E+02 -0.52912002931E+02 -0.57649202010E+03  0.61020789212E+03  0.17300000000E+03 0. -1.
<mgrwt>
<rscale>  2 0.20002655E+03</rscale>
<asrwt>0</asrwt>
<pdfrwt beam="1">  1       21 0.10041357E-01 0.20002655E+03</pdfrwt>
<pdfrwt beam="2">  1       21 0.12307230E+00 0.20002655E+03</pdfrwt>
<totfact> 0.39783223E+04</totfact>
</mgrwt>
</event>
<event>
 4    1  0.4391134E+000  0.1998785E+03  0.7546771E-02  0.1149842E+00
         21   -1    0    0  503  502  0.00000000000E+00  0.00000000000E+00  0.12602152668E+03  0.12602152668E+03  0.00000000000E+00 0. -1.
         21   -1    0    0  501  503 -0.00000000000E+00 -0.00000000000E+00 -0.53446732135E+03  0.53446732135E+03  0.00000000000E+00 0. -1.
          6    1    1    2  501    0  0.56351102179E+02  0.82746412830E+02 -0.41486800769E+03  0.46050719794E+03  0.17300000000E+03 0. -1.
         -6    1    1    2    0  502 -0.56351102179E+02 -0.82746412830E+02  0.64222130223E+01  0.19998165009E+03  0.17300000000E+03 0. -1.
<mgrwt>
<rscale>  2 0.19987850E+03</rscale>
<asrwt>0</asrwt>
<pdfrwt beam="1">  1       21 0.19387927E-01 0.19987850E+03</pdfrwt>
<pdfrwt beam="2">  1       21 0.82225741E-01 0.19987850E+03</pdfrwt>
<totfact> 0.31486988E+04</totfact>
</mgrwt>
</event>
<event>
 4    1  0.4391134E+000  0.2248393E+03  0.7546771E-02  0.1130326E+00
         21   -1    0    0  501  502  0.00000000000E+00  0.00000000000E+00  0.30168008773E+02  0.30168008773E+02  0.00000000000E+00 0. -1.
         21   -1    0    0  502  503 -0.00000000000E+00 -0.00000000000E+00 -0.17240680871E+04  0.17240680871E+04  0.00000000000E+00 0.  1.
          6    1    1    2  501    0  0.10727599319E+03 -0.95475473581E+02 -0.70004569822E+03  0.73526640368E+03  0.17300000000E+03 0.  1.
         -6    1    1    2    0  503 -0.10727599319E+03  0.95475473581E+02 -0.99385438010E+03  0.10189696922E+04  0.17300000000E+03 0. -1.
<mgrwt>
<rscale>  2 0.22483929E+03</rscale>
<asrwt>0</asrwt>
<pdfrwt beam="1">  1       21 0.46412317E-02 0.22483929E+03</pdfrwt>
<pdfrwt beam="2">  1       21 0.26524127E+00 0.22483929E+03</pdfrwt>
<totfact> 0.16063378E+04</totfact>
</mgrwt>
</event>
<event>
 4    1  0.4391134E+000  0.2155938E+03  0.7546771E-02  0.1137211E+00
         21   -1    0    0  501  502  0.00000000000E+00  0.00000000000E+00  0.67033710136E+03  0.67033710136E+03  0.00000000000E+00 0.  1.
         21   -1    0    0  502  503 -0.00000000000E+00 -0.00000000000E+00 -0.11269616771E+03  0.11269616771E+03  0.00000000000E+00 0.  1.
          6    1    1    2  501    0  0.11469418534E+03  0.58283138903E+02  0.52166301476E+03  0.56445813078E+03  0.17300000000E+03 0.  1.
         -6    1    1    2    0  503 -0.11469418534E+03 -0.58283138903E+02  0.35977918884E+02  0.21857513829E+03  0.17300000000E+03 0.  1.
<mgrwt>
<rscale>  2 0.21559379E+03</rscale>
<asrwt>0</asrwt>
<pdfrwt beam="1">  1       21 0.10312878E+00 0.21559379E+03</pdfrwt>
<pdfrwt beam="2">  1       21 0.17337872E-01 0.21559379E+03</pdfrwt>
<totfact> 0.22638392E+04</totfact>
</mgrwt>
</event>
<event>
 4    1  0.4391134E+000  0.1816544E+03  0.7546771E-02  0.1166211E+00
         21   -1    0    0  501  502  0.00000000000E+00  0.00000000000E+00  0.41102229929E+03  0.41102229929E+03  0.00000000000E+00 0.  1.
         21   -1    0    0  502  503 -0.00000000000E+00 -0.00000000000E+00 -0.81352485042E+02  0.81352485042E+02  0.00000000000E+00 0. -1.
          6    1    1    2  501    0  0.55185049664E+02 -0.48925652296E+01  0.19305492256E+03  0.26508211940E+03  0.17300000000E+03 0. -1.
         -6    1    1    2    0  503 -0.55185049664E+02  0.48925652296E+01  0.13661489169E+03  0.22729266493E+03  0.17300000000E+03 0.  1.
<mgrwt>
<rscale>  2 0.18165442E+03</rscale>
<asrwt>0</asrwt>
<pdfrwt beam="1">  1       21 0.63234199E-01 0.18165442E+03</pdfrwt>
<pdfrwt beam="2">  1       21 0.12515767E-01 0.18165442E+03</pdfrwt>
<totfact> 0.12640710E+05</totfact>
</mgrwt>
</event>
<event>
 4    1  0.4391134E+000  0.2315593E+03  0.7546771E-02  0.1125547E+00
         21   -1    0    0  501  502  0.00000000000E+00  0.00000000000E+00  0.12736054080E+03  0.12736054080E+03  0.00000000000E+00 0. -1.
         21   -1    0    0  502  503 -0.00000000000E+00 -0.00000000000E+00 -0.46866252351E+03  0.46866252351E+03  0.00000000000E+00 0.  1.
          6    1    1    2  501    0  0.85474435984E+02  0.12800330593E+03 -0.75621605728E+02  0.24359464852E+03  0.17300000000E+03 0. -1.
         -6    1    1    2    0  503 -0.85474435984E+02 -0.12800330593E+03 -0.26568037698E+03  0.35242841578E+03  0.17300000000E+03 0.  1.
<mgrwt>
<rscale>  2 0.23155933E+03</rscale>
<asrwt>0</asrwt>
<pdfrwt beam="1">  1       21 0.19593929E-01 0.23155933E+03</pdfrwt>
<pdfrwt beam="2">  1       21 0.72101927E-01 0.23155933E+03</pdfrwt>
<totfact> 0.40835805E+04</totfact>
</mgrwt>
</event>
<event>
 4    1  0.4391134E+000  0.1955232E+03  0.7546771E-02  0.1153572E+00
         21   -1    0    0  501  502  0.00000000000E+00  0.00000000000E+00  0.21600143550E+03  0.21600143550E+03  0.00000000000E+00 0. -1.
         21   -1    0    0  502  503 -0.00000000000E+00 -0.00000000000E+00 -0.19555294002E+03  0.19555294002E+03  0.00000000000E+00 0. -1.
          6    1    1    2  501    0 -0.31679421743E+02  0.85420982597E+02 -0.53181672098E+02  0.20262680049E+03  0.17300000000E+03 0. -1.
         -6    1    1    2    0  503  0.31679421743E+02 -0.85420982597E+02  0.73630167581E+02  0.20892757503E+03  0.17300000000E+03 0. -1.
<mgrwt>
<rscale>  2 0.19552322E+03</rscale>
<asrwt>0</asrwt>
<pdfrwt beam="1">  1       21 0.33230990E-01 0.19552322E+03</pdfrwt>
<pdfrwt beam="2">  1       21 0.30085068E-01 0.19552322E+03</pdfrwt>
<totfact> 0.92303657E+04</totfact>
</mgrwt>
</event>
<event>
 4    1  0.4391134E+000  0.1856273E+03  0.7546771E-02  0.1162465E+00
         21   -1    0    0  501  502  0.00000000000E+00  0.00000000000E+00  0.94990585729E+03  0.94990585729E+03  0.00000000000E+00 0.  1.
         21   -1    0    0  502  503 -0.00000000000E+00 -0.00000000000E+00 -0.14692310630E+03  0.14692310630E+03  0.00000000000E+00 0.  1.
          6    1    1    2  501    0  0.37607474871E+02 -0.55804807020E+02  0.87741421959E+03  0.89683510825E+03  0.17300000000E+03 0.  1.
         -6    1    1    2    0  503 -0.37607474871E+02  0.55804807020E+02 -0.74431468608E+02  0.19999385534E+03  0.17300000000E+03 0.  1.
<mgrwt>
<rscale>  2 0.18562731E+03</rscale>
<asrwt>0</asrwt>
<pdfrwt beam="1">  1       21 0.14613936E+00 0.18562731E+03</pdfrwt>
<pdfrwt beam="2">  1       21 0.22603555E-01 0.18562731E+03</pdfrwt>
<totfact> 0.59045476E+03</totfact>
</mgrwt>
</event>
<event>
 4    1  0.4391134E+000  0.1824058E+03  0.7546771E-02  0.1165495E+00
         21   -1    0    0  503  502  0.00000000000E+00  0.00000000000E+00  0.20616702459E+02  0.20616702459E+02  0.00000000000E+00 0.  1.
         21   -1    0    0  501  503 -0.00000000000E+00 -0.00000000000E+00 -0.19960526498E+04  0.19960526498E+04  0.00000000000E+00 0. -1.
          6    1    1    2  501    0 -0.21368152457E+02  0.53723936893E+02 -0.14289598669E+04  0.14405548100E+04  0.17300000000E+03 0. -1.
         -6    1    1    2    0  502  0.21368152457E+02 -0.53723936893E+02 -0.54647608043E+03  0.57611454227E+03  0.17300000000E+03 0.  1.
<mgrwt>
<rscale>  2 0.18240575E+03</rscale>
<asrwt>0</asrwt>
<pdfrwt beam="1">  1       21 0.31718006E-02 0.18240575E+03</pdfrwt>
<pdfrwt beam="2">  1       21 0.30708501E+00 0.18240575E+03</pdfrwt>
<totfact> 0.18123794E+04</totfact>
</mgrwt>
</event>
<event>
 4    1  0.4391134E+000  0.2211030E+03  0.7546771E-02  0.1133063E+00
         21   -1    0    0  501  502  0.00000000000E+00  0.00000000000E+00  0.24958069855E+02  0.24958069855E+02  0.00000000000E+00 0. -1.
         21   -1    0    0  502  503 -0.00000000000E+00 -0.00000000000E+00 -0.19593035209E+04  0.19593035209E+04  0.00000000000E+00 0. -1.
          6    1    1    2  501    0 -0.43887979754E+02 -0.13050440598E+03 -0.95045805510E+03  0.97583659967E+03  0.17300000000E+03 0. -1.
         -6    1    1    2    0  503  0.43887979754E+02  0.13050440598E+03 -0.98388739590E+03  0.10084249910E+04  0.17300000000E+03 0. -1.
<mgrwt>
<rscale>  2 0.22110304E+03</rscale>
<asrwt>0</asrwt>
<pdfrwt beam="1">  1       21 0.38397031E-02 0.22110304E+03</pdfrwt>
<pdfrwt beam="2">  1       21 0.30143131E+00 0.22110304E+03</pdfrwt>
<totfact> 0.13665363E+04</totfact>
</mgrwt>
</event>
<event>
 4    1  0.4391134E+000  0.1740855E+03  0.7546771E-02  0.1173653E+00
         21   -1    0    0  501  502  0.00000000000E+00  0.00000000000E+00  0.47973609048E+03  0.47973609048E+03  0.00000000000E+00 0. -1.
         21   -1    0    0  502  503 -0.00000000000E+00 -0.00000000000E+00 -0.65010381736E+02  0.65010381736E+02  0.00000000000E+00 0. -1.
          6    1    1    2  501    0  0.31211701443E+01  0.19158122449E+02  0.25316847050E+03  0.30724591098E+03  0.17300000000E+03 0.  1.
         -6    1    1    2    0  503 -0.31211701443E+01 -0.19158122449E+02  0.16155723825E+03  0.23750056124E+03  0.17300000000E+03 0.  1.
<mgrwt>
<rscale>  2 0.17408554E+03</rscale>
<asrwt>0</asrwt>
<pdfrwt beam="1">  1       21 0.73805550E-01 0.17408554E+03</pdfrwt>
<pdfrwt beam="2">  1       21 0.10001598E-01 0.17408554E+03</pdfrwt>
<totfact> 0.13456455E+05</totfact>
</mgrwt>
</event>
<event>
 4    1  0.4391134E+000  0.1834665E+03  0.7546771E-02  0.1164490E+00
         21   -1    0    0  501  502  0.00000000000E+00  0.00000000000E+00  0.37829327749E+02  0.37829327749E+02  0.00000000000E+00 0.  1.
         21   -1    0    0  502  503 -0.00000000000E+00 -0.00000000000E+00 -0.13984631179E+04  0.13984631179E+04  0.00000000000E+00 0.  1.
          6    1    1    2  501    0  0.44093878506E+02 -0.42269294579E+02 -0.24719617904E+03  0.30784072882E+03  0.17300000000E+03 0.  1.
         -6    1    1    2    0  503 -0.44093878506E+02  0.42269294579E+02 -0.11134376111E+04  0.11284517168E+04  0.17300000000E+03 0.  1.
<mgrwt>
<rscale>  2 0.18346652E+03</rscale>
<asrwt>0</asrwt>
<pdfrwt beam="1">  1       21 0.58198971E-02 0.18346652E+03</pdfrwt>
<pdfrwt beam="2">  1       21 0.21514815E+00 0.18346652E+03</pdfrwt>
<totfact> 0.22550119E+04</totfact>
</mgrwt>
</event>
<event>
 4    1  0.4391134E+000  0.1828465E+03  0.7546771E-02  0.1165076E+00
         21   -1    0    0  501  502  0.00000000000E+00  0.00000000000E+00  0.10974885525E+04  0.10974885525E+04  0.00000000000E+00 0. -1.
         21   -1    0    0  502  503 -0.00000000000E+00 -0.00000000000E+00 -0.89654839814E+02  0.89654839814E+02  0.00000000000E+00 0. -1.
          6    1    1    2  501    0 -0.18412583543E+02 -0.56256657133E+02  0.98621667328E+03  0.10030235099E+04  0.17300000000E+03 0. -1.
         -6    1    1    2    0  503  0.18412583543E+02  0.56256657133E+02  0.21617039368E+02  0.18411988240E+03  0.17300000000E+03 0. -1.
<mgrwt>
<rscale>  2 0.18284648E+03</rscale>
<asrwt>0</asrwt>
<pdfrwt beam="1">  1       21 0.16884438E+00 0.18284648E+03</pdfrwt>
<pdfrwt beam="2">  1       21 0.13793053E-01 0.18284648E+03</pdfrwt>
<totfact> 0.10009088E+04</totfact>
</mgrwt>
</event>
<event>
 4    1  0.4391134E+000  0.1931256E+03  0.7546771E-02  0.1155672E+00
         21   -1    0    0  503  502  0.00000000000E+00  0.00000000000E+00  0.65435102740E+03  0.65435102740E+03  0.00000000000E+00 0. -1.
         21   -1    0    0  501  503 -0.00000000000E+00 -0.00000000000E+00 -0.68777467541E+02  0.68777467541E+02  0.00000000000E+00 0. -1.
          6    1    1    2  501    0 -0.65121502371E+02  0.55925828830E+02  0.14316237376E+03  0.24040169231E+03  0.17300000000E+03 0. -1.
         -6    1    1    2    0  502  0.65121502371E+02 -0.55925828830E+02  0.44241118609E+03  0.48272680263E+03  0.17300000000E+03 0. -1.
<mgrwt>
<rscale>  2 0.19312563E+03</rscale>
<asrwt>0</asrwt>
<pdfrwt beam="1">  1       21 0.10066938E+00 0.19312563E+03</pdfrwt>
<pdfrwt beam="2">  1       21 0.10581149E-01 0.19312563E+03</pdfrwt>
<totfact> 0.59320004E+04</totfact>
</mgrwt>
</event>
<event>
 4    1  0.4391134E+000  0.2197667E+03  0.7546771E-02  0.1134057E+00
         21   -1    0    0  501  502  0.00000000000E+00  0.00000000000E+00  0.55081607044E+02  0.55081607044E+02  0.00000000000E+00 0. -1.
         21   -1    0    0  502  503 -0.00000000000E+00 -0.00000000000E+00 -0.10080971375E+04  0.10080971375E+04  0.00000000000E+00 0.  1.
          6    1    1    2  501    0  0.26028295942E+02  0.13300717993E+03 -0.28468603556E+03  0.35964360268E+03  0.17300000000E+03 0.  1.
         -6    1    1    2    0  503 -0.26028295942E+02 -0.13300717993E+03 -0.66832949492E+03  0.70353514189E+03  0.17300000000E+03 0. -1.
<mgrwt>
<rscale>  2 0.21976665E+03</rscale>
<asrwt>0</asrwt>
<pdfrwt beam="1">  1       21 0.84740933E-02 0.21976665E+03</pdfrwt>
<pdfrwt beam="2">  1       21 0.15509187E+00 0.21976665E+03</pdfrwt>
<totfact> 0.29207560E+04</totfact>
</mgrwt>
</event>
<event>
 4    1  0.4391134E+000  0.1935425E+03  0.7546771E-02  0.1155305E+00
         21   -1    0    0  503  502  0.00000000000E+00  0.00000000000E+00  0.71783279073E+02  0.71783279073E+02  0.00000000000E+00 0.  1.
         21   -1    0    0  501  503 -0.00000000000E+00 -0.00000000000E+00 -0.13151194525E+04  0.13151194525E+04  0.00000000000E+00 0.  1.
          6    1    1    2  501    0 -0.92587502284E+00  0.86768812022E+02 -0.11602468045E+04  0.11762785943E+04  0.17300000000E+03 0.  1.
         -6    1    1    2    0  502  0.92587502284E+00 -0.86768812022E+02 -0.83089368919E+02  0.21062413730E+03  0.17300000000E+03 0.  1.
<mgrwt>
<rscale>  2 0.19354246E+03</rscale>
<asrwt>0</asrwt>
<pdfrwt beam="1">  1       21 0.11043582E-01 0.19354246E+03</pdfrwt>
<pdfrwt beam="2">  1       21 0.20232606E+00 0.19354246E+03</pdfrwt>
<totfact> 0.88230116E+03</totfact>
</mgrwt>
</event>
<event>
 4    1  0.4391134E+000  0.1814806E+03  0.7546771E-02  0.1166378E+00
         21   -1    0    0  501  502  0.00000000000E+00  0.00000000000E+00  0.99098994709E+02  0.99098994709E+02  0.00000000000E+00 0. -1.
         21   -1    0    0  502  503 -0.00000000000E+00 -0.00000000000E+00 -0.78668666074E+03  0.78668666074E+03  0.00000000000E+00 0. -1.
          6    1    1    2  501    0 -0.47875542165E+02 -0.26723650343E+02 -0.72138873542E+01  0.18162395546E+03  0.17300000000E+03 0. -1.
         -6    1    1    2    0  503  0.47875542165E+02  0.26723650343E+02 -0.68037377867E+03  0.70416169999E+03  0.17300000000E+03 0. -1.
<mgrwt>
<rscale>  2 0.18148064E+03</rscale>
<asrwt>0</asrwt>
<pdfrwt beam="1">  1       21 0.15245999E-01 0.18148064E+03</pdfrwt>
<pdfrwt beam="2">  1       21 0.12102872E+00 0.18148064E+03</pdfrwt>
<totfact> 0.19830641E+04</totfact>
</mgrwt>
</event>
<event>
 4    1  0.4391134E+000  0.2678610E+03  0.7546771E-02  0.1102510E+00
         21   -1    0    0  503  502  0.00000000000E+00  0.00000000000E+00  0.15987511604E+03  0.15987511604E+03  0.00000000000E+00 0. -1.
         21   -1    0    0  501  503 -0.00000000000E+00 -0.00000000000E+00 -0.61500120014E+03  0.61500120014E+03  0.00000000000E+00 0.  1.
          6    1    1    2  501    0 -0.20210657942E+03 -0.31200516147E+02 -0.42898238971E+03  0.50574245653E+03  0.17300000000E+03 0. -1.
         -6    1    1    2    0  502  0.20210657942E+03  0.31200516147E+02 -0.26143694380E+02  0.26913385965E+03  0.17300000000E+03 0.  1.
<mgrwt>
<rscale>  2 0.26786105E+03</rscale>
<asrwt>0</asrwt>
<pdfrwt beam="1">  1       21 0.24596172E-01 0.26786105E+03</pdfrwt>
<pdfrwt beam="2">  1       21 0.94615570E-01 0.26786105E+03</pdfrwt>
<totfact> 0.13991906E+04</totfact>
</mgrwt>
</event>
<event>
 4    1  0.4391134E+000  0.1736460E+03  0.7546771E-02  0.1174098E+00
         21   -1    0    0  501  502  0.00000000000E+00  0.00000000000E+00  0.37500834689E+03  0.37500834689E+03  0.00000000000E+00 0.  1.
         21   -1    0    0  502  503 -0.00000000000E+00 -0.00000000000E+00 -0.56380044105E+03  0.56380044105E+03  0.00000000000E+00 0.  1.
          6    1    1    2  501    0 -0.17414051315E+01 -0.14863186231E+02  0.34024950547E+03  0.38199826278E+03  0.17300000000E+03 0.  1.
         -6    1    1    2    0  503  0.17414051315E+01  0.14863186231E+02 -0.52904159962E+03  0.55681052516E+03  0.17300000000E+03 0.  1.
<mgrwt>
<rscale>  2 0.17364604E+03</rscale>
<asrwt>0</asrwt>
<pdfrwt beam="1">  1       21 0.57693592E-01 0.17364604E+03</pdfrwt>
<pdfrwt beam="2">  1       21 0.86738530E-01 0.17364604E+03</pdfrwt>
<totfact> 0.32773167E+03</totfact>
</mgrwt>
</event>
<event>
 4    1  0.4391134E+000  0.2307797E+03  0.7546771E-02  0.1126092E+00
         21   -1    0    0  503  502  0.00000000000E+00  0.00000000000E+00  0.12912864136E+03  0.12912864136E+03  0.00000000000E+00 0.  1.
         21   -1    0    0  501  503 -0.00000000000E+00 -0.00000000000E+00 -0.42315700351E+03  0.42315700351E+03  0.00000000000E+00 0.  1.
          6    1    1    2  501    0 -0.14468579682E+03  0.48951952644E+02 -0.19093707998E+03  0.29952669661E+03  0.17300000000E+03 0.  1.
         -6    1    1    2    0  502  0.14468579682E+03 -0.48951952644E+02 -0.10309128217E+03  0.25275894827E+03  0.17300000000E+03 0.  1.
<mgrwt>
<rscale>  2 0.23077971E+03</rscale>
<asrwt>0</asrwt>
<pdfrwt beam="1">  1       21 0.19865945E-01 0.23077971E+03</pdfrwt>
<pdfrwt beam="2">  1       21 0.65101078E-01 0.23077971E+03</pdfrwt>
<totfact> 0.49874420E+04</totfact>
</mgrwt>
</event>
<event>
 4    1  0.4391134E+000  0.1795762E+03  0.7546771E-02  0.1168214E+00
         21   -1    0    0  503  502  0.00000000000E+00  0.00000000000E+00  0.49300603165E+02  0.49300603165E+02  0.00000000000E+00 0.  1.
         21   -1    0    0  501  503 -0.00000000000E+00 -0.00000000000E+00 -0.75835039048E+03  0.75835039048E+03  0.00000000000E+00 0.  1.
          6    1    1    2  501    0 -0.47989824812E+02  0.39464673381E+01 -0.50424996353E+03  0.53527154194E+03  0.17300000000E+03 0.  1.
         -6    1    1    2    0  502  0.47989824812E+02 -0.39464673381E+01 -0.20479982379E+03  0.27237945171E+03  0.17300000000E+03 0.  1.
<mgrwt>
<rscale>  2 0.17957616E+03</rscale>
<asrwt>0</asrwt>
<pdfrwt beam="1">  1       21 0.75847083E-02 0.17957616E+03</pdfrwt>
<pdfrwt beam="2">  1       21 0.11666929E+00 0.17957616E+03</pdfrwt>
<totfact> 0.74968680E+04</totfact>
</mgrwt>
</event>
<event>
 4    1  0.4391134E+000  0.1898516E+03  0.7546771E-02  0.1158595E+00
         21   -1    0    0  501  502  0.00000000000E+00  0.00000000000E+00  0.30369268351E+03  0.30369268351E+03  0.00000000000E+00 0. -1.
         21   -1    0    0  502  503 -0.00000000000E+00 -0.00000000000E+00 -0.13482337652E+03  0.13482337652E+03  0.00000000000E+00 0. -1.
          6    1    1    2  501    0  0.72867735565E+02 -0.28371156709E+02  0.85753436366E+01  0.19004516815E+03  0.17300000000E+03 0.  1.
         -6    1    1    2    0  503 -0.72867735565E+02  0.28371156709E+02  0.16029396335E+03  0.24847089187E+03  0.17300000000E+03 0.  1.
<mgrwt>
<rscale>  2 0.18985160E+03</rscale>
<asrwt>0</asrwt>
<pdfrwt beam="1">  1       21 0.46721951E-01 0.18985160E+03</pdfrwt>
<pdfrwt beam="2">  1       21 0.20742058E-01 0.18985160E+03</pdfrwt>
<totfact> 0.94676395E+04</totfact>
</mgrwt>
</event>
<event>
 4    1  0.4391134E+000  0.1880981E+03  0.7546771E-02  0.1160188E+00
         21   -1    0    0  501  502  0.00000000000E+00  0.00000000000E+00  0.15481299819E+03  0.15481299819E+03  0.00000000000E+00 0. -1.
         21   -1    0    0  502  503 -0.00000000000E+00 -0.00000000000E+00 -0.37858124680E+03  0.37858124680E+03  0.00000000000E+00 0.  1.
          6    1    1    2  501    0  0.10930683089E+01 -0.73828748851E+02  0.56013633168E+02  0.19626106607E+03  0.17300000000E+03 0. -1.
         -6    1    1    2    0  503 -0.10930683089E+01  0.73828748851E+02 -0.27978188178E+03  0.33713317892E+03  0.17300000000E+03 0.  1.
<mgrwt>
<rscale>  2 0.18809806E+03</rscale>
<asrwt>0</asrwt>
<pdfrwt beam="1">  1       21 0.23817384E-01 0.18809806E+03</pdfrwt>
<pdfrwt beam="2">  1       21 0.58243269E-01 0.18809806E+03</pdfrwt>
<totfact> 0.45972776E+04</totfact>
</mgrwt>
</event>
<event>
 4    1  0.4391134E+000  0.1910913E+03  0.7546771E-02  0.1157481E+00
         21   -1    0    0  503  502  0.00000000000E+00  0.00000000000E+00  0.29863406556E+02  0.29863406556E+02  0.00000000000E+00 0. -1.
         21   -1    0    0  501  503 -0.00000000000E+00 -0.00000000000E+00 -0.13434301827E+04  0.13434301827E+04  0.00000000000E+00 0. -1.
          6    1    1    2  501    0  0.37480464105E+02  0.71986748852E+02 -0.45099545073E+03  0.48980891558E+03  0.17300000000E+03 0. -1.
         -6    1    1    2    0  502 -0.37480464105E+02 -0.71986748852E+02 -0.86257132544E+03  0.88348467370E+03  0.17300000000E+03 0. -1.
<mgrwt>
<rscale>  2 0.19109128E+03</rscale>
<asrwt>0</asrwt>
<pdfrwt beam="1">  1       21 0.45943704E-02 0.19109128E+03</pdfrwt>
<pdfrwt beam="2">  1       21 0.20668156E+00 0.19109128E+03</pdfrwt>
<totfact> 0.37830417E+04</totfact>
</mgrwt>
</event>
<event>
 4    1  0.4391134E+000  0.5118590E+03  0.7546771E-02  0.1010729E+00
         21   -1    0    0  501  502  0.00000000000E+00  0.00000000000E+00  0.17176181144E+04  0.17176181144E+04  0.00000000000E+00 0. -1.
         21   -1    0    0  502  503 -0.00000000000E+00 -0.00000000000E+00 -0.15602020792E+03  0.15602020792E+03  0.00000000000E+00 0.  1.
          6    1    1    2  501    0 -0.48142623990E+03  0.17303499354E+02  0.92078336358E+03  0.10534902174E+04  0.17300000000E+03 0.  1.
         -6    1    1    2    0  503  0.48142623990E+03 -0.17303499354E+02  0.64081454288E+03  0.82014810487E+03  0.17300000000E+03 0. -1.
<mgrwt>
<rscale>  2 0.51185900E+03</rscale>
<asrwt>0</asrwt>
<pdfrwt beam="1">  1       21 0.26424893E+00 0.51185900E+03</pdfrwt>
<pdfrwt beam="2">  1       21 0.24003110E-01 0.51185900E+03</pdfrwt>
<totfact> 0.70830569E+02</totfact>
</mgrwt>
</event>
<event>
 4    1  0.4391134E+000  0.1989565E+03  0.7546771E-02  0.1150622E+00
         21   -1    0    0  501  502  0.00000000000E+00  0.00000000000E+00  0.15145638014E+03  0.15145638014E+03  0.00000000000E+00 0.  1.
         21   -1    0    0  502  503 -0.00000000000E+00 -0.00000000000E+00 -0.43026735373E+03  0.43026735373E+03  0.00000000000E+00 0. -1.
          6    1    1    2  501    0  0.47165844529E+01 -0.98145075431E+02  0.42837081117E+02  0.20351589009E+03  0.17300000000E+03 0.  1.
         -6    1    1    2    0  503 -0.47165844529E+01  0.98145075431E+02 -0.32164805470E+03  0.37820784378E+03  0.17300000000E+03 0. -1.
<mgrwt>
<rscale>  2 0.19895653E+03</rscale>
<asrwt>0</asrwt>
<pdfrwt beam="1">  1       21 0.23300982E-01 0.19895653E+03</pdfrwt>
<pdfrwt beam="2">  1       21 0.66194975E-01 0.19895653E+03</pdfrwt>
<totfact> 0.36150646E+04</totfact>
</mgrwt>
</event>
<event>
 4    1  0.4391134E+000  0.1762761E+03  0.7546771E-02  0.1171457E+00
         21   -1    0    0  501  502  0.00000000000E+00  0.00000000000E+00  0.70406962246E+02  0.70406962246E+02  0.00000000000E+00 0. -1.
         21   -1    0    0  502  503 -0.00000000000E+00 -0.00000000000E+00 -0.53444173238E+03  0.53444173238E+03  0.00000000000E+00 0. -1.
          6    1    1    2  501    0  0.18222707329E+02 -0.28498951436E+02 -0.10579090618E+03  0.20558446713E+03  0.17300000000E+03 0. -1.
         -6    1    1    2    0  503 -0.18222707329E+02  0.28498951436E+02 -0.35824386396E+03  0.39926422750E+03  0.17300000000E+03 0. -1.
<mgrwt>
<rscale>  2 0.17627608E+03</rscale>
<asrwt>0</asrwt>
<pdfrwt beam="1">  1       21 0.10831841E-01 0.17627608E+03</pdfrwt>
<pdfrwt beam="2">  1       21 0.82221801E-01 0.17627608E+03</pdfrwt>
<totfact> 0.91655849E+04</totfact>
</mgrwt>
</event>
<event>
 4    1  0.4391134E+000  0.2077385E+03  0.7546771E-02  0.1143369E+00
         21   -1    0    0  503  502  0.00000000000E+00  0.00000000000E+00  0.14614575359E+03  0.14614575359E+03  0.00000000000E+00 0. -1.
         21   -1    0    0  501  503 -0.00000000000E+00 -0.00000000000E+00 -0.32024623199E+03  0.32024623199E+03  0.00000000000E+00 0.  1.
          6    1    1    2  501    0 -0.67143532085E+02  0.93370401655E+02 -0.15214921546E+03  0.25749693119E+03  0.17300000000E+03 0. -1.
         -6    1    1    2    0  502  0.67143532085E+02 -0.93370401655E+02 -0.21951262944E+02  0.20889505440E+03  0.17300000000E+03 0. -1.
<mgrwt>
<rscale>  2 0.20773850E+03</rscale>
<asrwt>0</asrwt>
<pdfrwt beam="1">  1       21 0.22483963E-01 0.20773850E+03</pdfrwt>
<pdfrwt beam="2">  1       21 0.49268650E-01 0.20773850E+03</pdfrwt>
<totfact> 0.72310998E+04</totfact>
</mgrwt>
</event>
<event>
 4    1  0.4391134E+000  0.2021828E+03  0.7546771E-02  0.1147910E+00
         21   -1    0    0  503  502  0.00000000000E+00  0.00000000000E+00  0.47827278292E+02  0.47827278292E+02  0.00000000000E+00 0.  1.
         21   -1    0    0  501  503 -0.00000000000E+00 -0.00000000000E+00 -0.93715140117E+03  0.93715140117E+03  0.00000000000E+00 0.  1.
          6    1    1    2  501    0 -0.96447351248E+02  0.40580739475E+02 -0.59074374100E+03  0.62438454137E+03  0.17300000000E+03 0.  1.
         -6    1    1    2    0  502  0.96447351248E+02 -0.40580739475E+02 -0.29858038188E+03  0.36059413809E+03  0.17300000000E+03 0.  1.
<mgrwt>
<rscale>  2 0.20218281E+03</rscale>
<asrwt>0</asrwt>
<pdfrwt beam="1">  1       21 0.73580429E-02 0.20218281E+03</pdfrwt>
<pdfrwt beam="2">  1       21 0.14417714E+00 0.20218281E+03</pdfrwt>
<totfact> 0.45756660E+04</totfact>
</mgrwt>
</event>
<event>
 4    1  0.4391134E+000  0.1990492E+03  0.7546771E-02  0.1150544E+00
         21   -1    0    0  503  502  0.00000000000E+00  0.00000000000E+00  0.12903086367E+04  0.12903086367E+04  0.00000000000E+00 0. -1.
         21   -1    0    0  501  503 -0.00000000000E+00 -0.00000000000E+00 -0.42565076001E+02  0.42565076001E+02  0.00000000000E+00 0. -1.
          6    1    1    2  501    0 -0.71638125754E+02 -0.67524622129E+02  0.27210700115E+03  0.33713916374E+03  0.17300000000E+03 0. -1.
         -6    1    1    2    0  502  0.71638125754E+02  0.67524622129E+02  0.97563655954E+03  0.99573454894E+03  0.17300000000E+03 0. -1.
<mgrwt>
<rscale>  2 0.19904923E+03</rscale>
<asrwt>0</asrwt>
<pdfrwt beam="1">  1       21 0.19850899E+00 0.19904923E+03</pdfrwt>
<pdfrwt beam="2">  1       21 0.65484742E-02 0.19904923E+03</pdfrwt>
<totfact> 0.23183003E+04</totfact>
</mgrwt>
</event>
<event>
 4    1  0.4391134E+000  0.1904839E+03  0.7546771E-02  0.1158026E+00
         21   -1    0    0  501  502  0.00000000000E+00  0.00000000000E+00  0.96650764592E+02  0.96650764592E+02  0.00000000000E+00 0. -1.
         21   -1    0    0  502  503 -0.00000000000E+00 -0.00000000000E+00 -0.38347613288E+03  0.38347613288E+03  0.00000000000E+00 0.  1.
          6    1    1    2  501    0 -0.54408454003E+02  0.58265350370E+02 -0.10860626594E+03  0.21927027141E+03  0.17300000000E+03 0. -1.
         -6    1    1    2    0  503  0.54408454003E+02 -0.58265350370E+02 -0.17821910234E+03  0.26085662606E+03  0.17300000000E+03 0.  1.
<mgrwt>
<rscale>  2 0.19048394E+03</rscale>
<asrwt>0</asrwt>
<pdfrwt beam="1">  1       21 0.14869348E-01 0.19048394E+03</pdfrwt>
<pdfrwt beam="2">  1       21 0.58996328E-01 0.19048394E+03</pdfrwt>
<totfact> 0.10717417E+05</totfact>
</mgrwt>
</event>
<event>
 4    1  0.4391134E+000  0.1746164E+03  0.7546771E-02  0.1173117E+00
         21   -1    0    0  503  502  0.00000000000E+00  0.00000000000E+00  0.39982053385E+03  0.39982053385E+03  0.00000000000E+00 0. -1.
         21   -1    0    0  501  503 -0.00000000000E+00 -0.00000000000E+00 -0.12558709566E+03  0.12558709566E+03  0.00000000000E+00 0. -1.
          6    1    1    2  501    0  0.10595026821E+02 -0.21204417775E+02 -0.27521397490E+02  0.17677191306E+03  0.17300000000E+03 0. -1.
         -6    1    1    2    0  502 -0.10595026821E+02  0.21204417775E+02  0.30175483568E+03  0.34863571645E+03  0.17300000000E+03 0. -1.
<mgrwt>
<rscale>  2 0.17461639E+03</rscale>
<asrwt>0</asrwt>
<pdfrwt beam="1">  1       21 0.61510851E-01 0.17461639E+03</pdfrwt>
<pdfrwt beam="2">  1       21 0.19321092E-01 0.17461639E+03</pdfrwt>
<totfact> 0.60964818E+04</totfact>
</mgrwt>
</event>
<event>
 4    1  0.4391134E+000  0.2815097E+03  0.7546771E-02  0.1094867E+00
         21   -1    0    0  503  502  0.00000000000E+00  0.00000000000E+00  0.22966382954E+03  0.22966382954E+03  0.00000000000E+00 0. -1.
         21   -1    0    0  501  503 -0.00000000000E+00 -0.00000000000E+00 -0.38681557903E+03  0.38681557903E+03  0.00000000000E+00 0.  1.
          6    1    1    2  501    0  0.15325748884E+03 -0.16071981210E+03  0.22697616981E+02  0.28242325985E+03  0.17300000000E+03 0. -1.
         -6    1    1    2    0  502 -0.15325748884E+03  0.16071981210E+03 -0.17984936647E+03  0.33405614873E+03  0.17300000000E+03 0.  1.
<mgrwt>
<rscale>  2 0.28150971E+03</rscale>
<asrwt>0</asrwt>
<pdfrwt beam="1">  1       21 0.35332897E-01 0.28150971E+03</pdfrwt>
<pdfrwt beam="2">  1       21 0.59510088E-01 0.28150971E+03</pdfrwt>
<totfact> 0.19455636E+04</totfact>
</mgrwt>
</event>
<event>
 4    1  0.4391134E+000  0.2143921E+03  0.7546771E-02  0.1138134E+00
         21   -1    0    0  503  502  0.00000000000E+00  0.00000000000E+00  0.58407499864E+03  0.58407499864E+03  0.00000000000E+00 0. -1.
         21   -1    0    0  501  503 -0.00000000000E+00 -0.00000000000E+00 -0.16060021702E+03  0.16060021702E+03  0.00000000000E+00 0.  1.
          6    1    1    2  501    0 -0.12278748061E+03  0.30954622395E+02 -0.54162918266E+02  0.22112796240E+03  0.17300000000E+03 0.  1.
         -6    1    1    2    0  502  0.12278748061E+03 -0.30954622395E+02  0.47763769988E+03  0.52354725326E+03  0.17300000000E+03 0. -1.
<mgrwt>
<rscale>  2 0.21439206E+03</rscale>
<asrwt>0</asrwt>
<pdfrwt beam="1">  1       21 0.89857691E-01 0.21439206E+03</pdfrwt>
<pdfrwt beam="2">  1       21 0.24707726E-01 0.21439206E+03</pdfrwt>
<totfact> 0.16112285E+04</totfact>
</mgrwt>
</event>
<event>
 4    1  0.4391134E+000  0.2013423E+03  0.7546771E-02  0.1148611E+00
         21   -1    0    0  501  502  0.00000000000E+00  0.00000000000E+00  0.60621106700E+03  0.60621106700E+03  0.00000000000E+00 0. -1.
         21   -1    0    0  502  503 -0.00000000000E+00 -0.00000000000E+00 -0.67239084923E+02  0.67239084923E+02  0.00000000000E+00 0. -1.
          6    1    1    2  501    0 -0.52861598601E+02 -0.88404530553E+02  0.29435672309E+03  0.35662948568E+03  0.17300000000E+03 0.  1.
         -6    1    1    2    0  503  0.52861598601E+02  0.88404530553E+02  0.24461525899E+03  0.31682066625E+03  0.17300000000E+03 0.  1.
<mgrwt>
<rscale>  2 0.20134227E+03</rscale>
<asrwt>0</asrwt>
<pdfrwt beam="1">  1       21 0.93263237E-01 0.20134227E+03</pdfrwt>
<pdfrwt beam="2">  1       21 0.10344475E-01 0.20134227E+03</pdfrwt>
<totfact> 0.73619913E+04</totfact>
</mgrwt>
</event>
<event>
 4    1  0.4391134E+000  0.2250650E+03  0.7546771E-02  0.1130162E+00
         21   -1    0    0  501  502  0.00000000000E+00  0.00000000000E+00  0.13160587260E+03  0.13160587260E+03  0.00000000000E+00 0.  1.
         21   -1    0    0  502  503 -0.00000000000E+00 -0.00000000000E+00 -0.39952222893E+03  0.39952222893E+03  0.00000000000E+00 0.  1.
          6    1    1    2  501    0 -0.49466266397E+02  0.13519748134E+03 -0.18477403177E+03  0.29119703517E+03  0.17300000000E+03 0.  1.
         -6    1    1    2    0  503  0.49466266397E+02 -0.13519748134E+03 -0.83142324552E+02  0.23993106636E+03  0.17300000000E+03 0.  1.
<mgrwt>
<rscale>  2 0.22506504E+03</rscale>
<asrwt>0</asrwt>
<pdfrwt beam="1">  1       21 0.20247057E-01 0.22506504E+03</pdfrwt>
<pdfrwt beam="2">  1       21 0.61464959E-01 0.22506504E+03</pdfrwt>
<totfact> 0.54674092E+04</totfact>
</mgrwt>
</event>
<event>
 4    1  0.4391134E+000  0.1854946E+03  0.7546771E-02  0.1162589E+00
         21   -1    0    0  503  502  0.00000000000E+00  0.00000000000E+00  0.95603533112E+03  0.95603533112E+03  0.00000000000E+00 0.  1.
         21   -1    0    0  501  503 -0.00000000000E+00 -0.00000000000E+00 -0.10191598643E+03  0.10191598643E+03  0.00000000000E+00 0.  1.
          6    1    1    2  501    0 -0.23425197710E+02  0.62693699861E+02  0.16170174892E+01  0.18550162974E+03  0.17300000000E+03 0.  1.
         -6    1    1    2    0  502  0.23425197710E+02 -0.62693699861E+02  0.85250232720E+03  0.87244968781E+03  0.17300000000E+03 0.  1.
<mgrwt>
<rscale>  2 0.18549458E+03</rscale>
<asrwt>0</asrwt>
<pdfrwt beam="1">  1       21 0.14708235E+00 0.18549458E+03</pdfrwt>
<pdfrwt beam="2">  1       21 0.15679383E-01 0.18549458E+03</pdfrwt>
<totfact> 0.11447923E+04</totfact>
</mgrwt>
</event>
<event>
 4    1  0.4391134E+000  0.2414174E+03  0.7546771E-02  0.1118852E+00
         21   -1    0    0  501  502  0.00000000000E+00  0.00000000000E+00  0.57228011227E+03  0.57228011227E+03  0.00000000000E+00 0. -1.
         21   -1    0    0  502  503 -0.00000000000E+00 -0.00000000000E+00 -0.11074041138E+03  0.11074041138E+03  0.00000000000E+00 0. -1.
          6    1    1    2  501    0 -0.11628160295E+03  0.12178653168E+03  0.32757480389E+03  0.40692459084E+03  0.17300000000E+03 0. -1.
         -6    1    1    2    0  503  0.11628160295E+03 -0.12178653168E+03  0.13396489700E+03  0.27609593280E+03  0.17300000000E+03 0. -1.
<mgrwt>
<rscale>  2 0.24141742E+03</rscale>
<asrwt>0</asrwt>
<pdfrwt beam="1">  1       21 0.88043093E-01 0.24141742E+03</pdfrwt>
<pdfrwt beam="2">  1       21 0.17036987E-01 0.24141742E+03</pdfrwt>
<totfact> 0.33498469E+04</totfact>
</mgrwt>
</event>
<event>
 4    1  0.4391134E+000  0.2217531E+03  0.7546771E-02  0.1132583E+00
         21   -1    0    0  501  502  0.00000000000E+00  0.00000000000E+00  0.35277905306E+03  0.35277905306E+03  0.00000000000E+00 0. -1.
         21   -1    0    0  502  503 -0.00000000000E+00 -0.00000000000E+00 -0.15893593762E+03  0.15893593762E+03  0.00000000000E+00 0.  1.
          6    1    1    2  501    0  0.88560836655E+02 -0.10678217708E+03  0.18664315285E+03  0.28984499588E+03  0.17300000000E+03 0. -1.
         -6    1    1    2    0  503 -0.88560836655E+02  0.10678217708E+03  0.71999625902E+01  0.22186999480E+03  0.17300000000E+03 0.  1.
<mgrwt>
<rscale>  2 0.22175314E+03</rscale>
<asrwt>0</asrwt>
<pdfrwt beam="1">  1       21 0.54273700E-01 0.22175314E+03</pdfrwt>
<pdfrwt beam="2">  1       21 0.24451683E-01 0.22175314E+03</pdfrwt>
<totfact> 0.49996673E+04</totfact>
</mgrwt>
</event>
<event>
 4    1  0.4391134E+000  0.1956437E+03  0.7546771E-02  0.1153467E+00
         21   -1    0    0  503  502  0.00000000000E+00  0.00000000000E+00  0.10960958670E+03  0.10960958670E+03  0.00000000000E+00 0.  1.
         21   -1    0    0  501  503 -0.00000000000E+00 -0.00000000000E+00 -0.74459913270E+03  0.74459913270E+03  0.00000000000E+00 0.  1.
          6    1    1    2  501    0 -0.88964972164E+02 -0.20801527429E+02 -0.62872844643E+03  0.65846482759E+03  0.17300000000E+03 0.  1.
         -6    1    1    2    0  502  0.88964972164E+02  0.20801527429E+02 -0.62610995618E+01  0.19574389182E+03  0.17300000000E+03 0.  1.
<mgrwt>
<rscale>  2 0.19564373E+03</rscale>
<asrwt>0</asrwt>
<pdfrwt beam="1">  1       21 0.16863013E-01 0.19564373E+03</pdfrwt>
<pdfrwt beam="2">  1       21 0.11455371E+00 0.19564373E+03</pdfrwt>
<totfact> 0.18704969E+04</totfact>
</mgrwt>
</event>
<event>
 4    1  0.4391134E+000  0.1903210E+03  0.7546771E-02  0.1158172E+00
         21   -1    0    0  503  502  0.00000000000E+00  0.00000000000E+00  0.71655146451E+03  0.71655146451E+03  0.00000000000E+00 0. -1.
         21   -1    0    0  501  503 -0.00000000000E+00 -0.00000000000E+00 -0.90296870951E+02  0.90296870951E+02  0.00000000000E+00 0. -1.
          6    1    1    2  501    0  0.78659243887E+02  0.10286236888E+02  0.45473177265E+02  0.19567803446E+03  0.17300000000E+03 0. -1.
         -6    1    1    2    0  502 -0.78659243887E+02 -0.10286236888E+02  0.58078141630E+03  0.61117030101E+03  0.17300000000E+03 0. -1.
<mgrwt>
<rscale>  2 0.19032100E+03</rscale>
<asrwt>0</asrwt>
<pdfrwt beam="1">  1       21 0.11023868E+00 0.19032100E+03</pdfrwt>
<pdfrwt beam="2">  1       21 0.13891827E-01 0.19032100E+03</pdfrwt>
<totfact> 0.29336162E+04</totfact>
</mgrwt>
</event>
<event>
 4    1  0.4391134E+000  0.2162785E+03  0.7546771E-02  0.1136688E+00
         21   -1    0    0  501  502  0.00000000000E+00  0.00000000000E+00  0.31751281938E+02  0.31751281938E+02  0.00000000000E+00 0. -1.
         21   -1    0    0  502  503 -0.00000000000E+00 -0.00000000000E+00 -0.15128005499E+04  0.15128005499E+04  0.00000000000E+00 0. -1.
          6    1    1    2  501    0  0.15426361177E+02 -0.12887752170E+03 -0.61559564388E+03  0.65248324499E+03  0.17300000000E+03 0. -1.
         -6    1    1    2    0  503 -0.15426361177E+02  0.12887752170E+03 -0.86545362407E+03  0.89206858685E+03  0.17300000000E+03 0. -1.
<mgrwt>
<rscale>  2 0.21627850E+03</rscale>
<asrwt>0</asrwt>
<pdfrwt beam="1">  1       21 0.48848129E-02 0.21627850E+03</pdfrwt>
<pdfrwt beam="2">  1       21 0.23273853E+00 0.21627850E+03</pdfrwt>
<totfact> 0.23124925E+04</totfact>
</mgrwt>
</event>
<event>
 4    1  0.4391134E+000  0.2106268E+03  0.7546771E-02  0.1141071E+00
         21   -1    0    0  503  502  0.00000000000E+00  0.00000000000E+00  0.18562466919E+04  0.18562466919E+04  0.00000000000E+00 0.  1.
         21   -1    0    0  501  503 -0.00000000000E+00 -0.00000000000E+00 -0.43321218093E+02  0.43321218093E+02  0.00000000000E+00 0.  1.
          6    1    1    2  501    0 -0.11241185890E+03 -0.42405298898E+02  0.27052190571E+03  0.34284943760E+03  0.17300000000E+03 0.  1.
         -6    1    1    2    0  502  0.11241185890E+03  0.42405298898E+02  0.15424035681E+04  0.15567184724E+04  0.17300000000E+03 0.  1.
<mgrwt>
<rscale>  2 0.21062677E+03</rscale>
<asrwt>0</asrwt>
<pdfrwt beam="1">  1       21 0.28557635E+00 0.21062677E+03</pdfrwt>
<pdfrwt beam="2">  1       21 0.66648042E-02 0.21062677E+03</pdfrwt>
<totfact> 0.66761869E+03</totfact>
</mgrwt>
</event>
<event>
 4    1  0.4391134E+000  0.2758409E+03  0.7546771E-02  0.1097982E+00
         21   -1    0    0  501  502  0.00000000000E+00  0.00000000000E+00  0.13262042152E+03  0.13262042152E+03  0.00000000000E+00 0. -1.
         21   -1    0    0  502  503 -0.00000000000E+00 -0.00000000000E+00 -0.93213904891E+03  0.93213904891E+03  0.00000000000E+00 0. -1.
          6    1    1    2  501    0  0.11152889642E+03 -0.18363140607E+03 -0.69639778074E+02  0.28449584658E+03  0.17300000000E+03 0. -1.
         -6    1    1    2    0  503 -0.11152889642E+03  0.18363140607E+03 -0.72987884931E+03  0.78026362385E+03  0.17300000000E+03 0. -1.
<mgrwt>
<rscale>  2 0.27584087E+03</rscale>
<asrwt>0</asrwt>
<pdfrwt beam="1">  1       21 0.20403142E-01 0.27584087E+03</pdfrwt>
<pdfrwt beam="2">  1       21 0.14340601E+00 0.27584087E+03</pdfrwt>
<totfact> 0.70681706E+03</totfact>
</mgrwt>
</event>
<event>
 4    1  0.4391134E+000  0.1742405E+03  0.7546771E-02  0.1173496E+00
         21   -1    0    0  503  502  0.00000000000E+00  0.00000000000E+00  0.43002550214E+03  0.43002550214E+03  0.00000000000E+00 0. -1.
         21   -1    0    0  501  503 -0.00000000000E+00 -0.00000000000E+00 -0.15201549547E+03  0.15201549547E+03  0.00000000000E+00 0. -1.
          6    1    1    2  501    0 -0.19969364283E+02 -0.56557881524E+01 -0.73972345054E+02  0.18929255475E+03  0.17300000000E+03 0. -1.
         -6    1    1    2    0  502  0.19969364283E+02  0.56557881524E+01  0.35198235172E+03  0.39274844287E+03  0.17300000000E+03 0. -1.
<mgrwt>
<rscale>  2 0.17424053E+03</rscale>
<asrwt>0</asrwt>
<pdfrwt beam="1">  1       21 0.66157769E-01 0.17424053E+03</pdfrwt>
<pdfrwt beam="2">  1       21 0.23386999E-01 0.17424053E+03</pdfrwt>
<totfact> 0.36414639E+04</totfact>
</mgrwt>
</event>
<event>
 4    1  0.4391134E+000  0.1772192E+03  0.7546771E-02  0.1170522E+00
         21   -1    0    0  501  502  0.00000000000E+00  0.00000000000E+00  0.37819818585E+02  0.37819818585E+02  0.00000000000E+00 0.  1.
         21   -1    0    0  502  503 -0.00000000000E+00 -0.00000000000E+00 -0.10461574750E+04  0.10461574750E+04  0.00000000000E+00 0.  1.
          6    1    1    2  501    0  0.35480672114E+02 -0.14791162113E+02 -0.25804942005E+03  0.31304338319E+03  0.17300000000E+03 0.  1.
         -6    1    1    2    0  503 -0.35480672114E+02  0.14791162113E+02 -0.75028823638E+03  0.77093391041E+03  0.17300000000E+03 0.  1.
<mgrwt>
<rscale>  2 0.17721923E+03</rscale>
<asrwt>0</asrwt>
<pdfrwt beam="1">  1       21 0.58184344E-02 0.17721923E+03</pdfrwt>
<pdfrwt beam="2">  1       21 0.16094728E+00 0.17721923E+03</pdfrwt>
<totfact> 0.51941945E+04</totfact>
</mgrwt>
</event>
<event>
 4    1  0.4391134E+000  0.2176037E+03  0.7546771E-02  0.1135682E+00
         21   -1    0    0  501  502  0.00000000000E+00  0.00000000000E+00  0.71998981289E+03  0.71998981289E+03  0.00000000000E+00 0.  1.
         21   -1    0    0  502  503 -0.00000000000E+00 -0.00000000000E+00 -0.11151939195E+03  0.11151939195E+03  0.00000000000E+00 0.  1.
          6    1    1    2  501    0 -0.19409419120E+02  0.13055895670E+03  0.57053456350E+03  0.61062349682E+03  0.17300000000E+03 0.  1.
         -6    1    1    2    0  503  0.19409419120E+02 -0.13055895670E+03  0.37935857439E+02  0.22088570801E+03  0.17300000000E+03 0.  1.
<mgrwt>
<rscale>  2 0.21760369E+03</rscale>
<asrwt>0</asrwt>
<pdfrwt beam="1">  1       21 0.11076766E+00 0.21760369E+03</pdfrwt>
<pdfrwt beam="2">  1       21 0.17156830E-01 0.21760369E+03</pdfrwt>
<totfact> 0.19397841E+04</totfact>
</mgrwt>
</event>
<event>
 4    1  0.4391134E+000  0.2093886E+03  0.7546771E-02  0.1142051E+00
         21   -1    0    0  501  502  0.00000000000E+00  0.00000000000E+00  0.17680628596E+03  0.17680628596E+03  0.00000000000E+00 0. -1.
         21   -1    0    0  502  503 -0.00000000000E+00 -0.00000000000E+00 -0.30348103220E+03  0.30348103220E+03  0.00000000000E+00 0.  1.
          6    1    1    2  501    0  0.61664290337E+02 -0.10055900313E+03  0.39363499216E+02  0.21305652509E+03  0.17300000000E+03 0. -1.
         -6    1    1    2    0  503 -0.61664290337E+02  0.10055900313E+03 -0.16603824546E+03  0.26723079307E+03  0.17300000000E+03 0.  1.
<mgrwt>
<rscale>  2 0.20938863E+03</rscale>
<asrwt>0</asrwt>
<pdfrwt beam="1">  1       21 0.27200967E-01 0.20938863E+03</pdfrwt>
<pdfrwt beam="2">  1       21 0.46689390E-01 0.20938863E+03</pdfrwt>
<totfact> 0.56147829E+04</totfact>
</mgrwt>
</event>
<event>
 4    1  0.4391134E+000  0.2745215E+03  0.7546771E-02  0.1098719E+00
         21   -1    0    0  503  502  0.00000000000E+00  0.00000000000E+00  0.11737955868E+04  0.11737955868E+04  0.00000000000E+00 0.  1.
         21   -1    0    0  501  503 -0.00000000000E+00 -0.00000000000E+00 -0.27830761807E+03  0.27830761807E+03  0.00000000000E+00 0. -1.
          6    1    1    2  501    0 -0.20185706165E+03  0.68460261670E+02 -0.18907675081E+03  0.33333481436E+03  0.17300000000E+03 0. -1.
         -6    1    1    2    0  502  0.20185706165E+03 -0.68460261670E+02  0.10845647195E+04  0.11187683905E+04  0.17300000000E+03 0.  1.
<mgrwt>
<rscale>  2 0.27452155E+03</rscale>
<asrwt>0</asrwt>
<pdfrwt beam="1">  1       21 0.18058393E+00 0.27452155E+03</pdfrwt>
<pdfrwt beam="2">  1       21 0.42816557E-01 0.27452155E+03</pdfrwt>
<totfact> 0.87619855E+02</totfact>
</mgrwt>
</event>
<event>
 4    1  0.4391134E+000  0.1969927E+03  0.7546771E-02  0.1152301E+00
         21   -1    0    0  503  502  0.00000000000E+00  0.00000000000E+00  0.32082533523E+03  0.32082533523E+03  0.00000000000E+00 0. -1.
         21   -1    0    0  501  503 -0.00000000000E+00 -0.00000000000E+00 -0.17348639931E+03  0.17348639931E+03  0.00000000000E+00 0. -1.
          6    1    1    2  501    0 -0.65204464999E+02  0.68011012261E+02 -0.62330492279E+02  0.20661851396E+03  0.17300000000E+03 0. -1.
         -6    1    1    2    0  502  0.65204464999E+02 -0.68011012261E+02  0.20966942820E+03  0.28769322058E+03  0.17300000000E+03 0. -1.
<mgrwt>
<rscale>  2 0.19699269E+03</rscale>
<asrwt>0</asrwt>
<pdfrwt beam="1">  1       21 0.49357744E-01 0.19699269E+03</pdfrwt>
<pdfrwt beam="2">  1       21 0.26690215E-01 0.19699269E+03</pdfrwt>
<totfact> 0.52198524E+04</totfact>
</mgrwt>
</event>
<event>
 4    1  0.4391134E+000  0.2076632E+03  0.7546771E-02  0.1143430E+00
         21   -1    0    0  503  502  0.00000000000E+00  0.00000000000E+00  0.95135142463E+03  0.95135142463E+03  0.00000000000E+00 0. -1.
         21   -1    0    0  501  503 -0.00000000000E+00 -0.00000000000E+00 -0.56982616005E+02  0.56982616005E+02  0.00000000000E+00 0.  1.
          6    1    1    2  501    0  0.10560392616E+03 -0.45197418065E+02  0.21918698622E+03  0.30193862083E+03  0.17300000000E+03 0.  1.
         -6    1    1    2    0  502 -0.10560392616E+03  0.45197418065E+02  0.67518182240E+03  0.70639541980E+03  0.17300000000E+03 0. -1.
<mgrwt>
<rscale>  2 0.20766318E+03</rscale>
<asrwt>0</asrwt>
<pdfrwt beam="1">  1       21 0.14636175E+00 0.20766318E+03</pdfrwt>
<pdfrwt beam="2">  1       21 0.87665570E-02 0.20766318E+03</pdfrwt>
<totfact> 0.32311152E+04</totfact>
</mgrwt>
</event>
<event>
 4    1  0.4391134E+000  0.1799641E+03  0.7546771E-02  0.1167838E+00
         21   -1    0    0  503  502  0.00000000000E+00  0.00000000000E+00  0.37554226663E+03  0.37554226663E+03  0.00000000000E+00 0.  1.
         21   -1    0    0  501  503 -0.00000000000E+00 -0.00000000000E+00 -0.38372868393E+03  0.38372868393E+03  0.00000000000E+00 0.  1.
          6    1    1    2  501    0 -0.21832931715E+02  0.44512816049E+02 -0.33835696820E+03  0.38323948861E+03  0.17300000000E+03 0.  1.
         -6    1    1    2    0  502  0.21832931715E+02 -0.44512816049E+02  0.33017055090E+03  0.37603146196E+03  0.17300000000E+03 0.  1.
<mgrwt>
<rscale>  2 0.17996407E+03</rscale>
<asrwt>0</asrwt>
<pdfrwt beam="1">  1       21 0.57775733E-01 0.17996407E+03</pdfrwt>
<pdfrwt beam="2">  1       21 0.59035182E-01 0.17996407E+03</pdfrwt>
<totfact> 0.76076766E+03</totfact>
</mgrwt>
</event>
<event>
 4    1  0.4391134E+000  0.1864244E+03  0.7546771E-02  0.1161726E+00
         21   -1    0    0  501  502  0.00000000000E+00  0.00000000000E+00  0.16350638085E+03  0.16350638085E+03  0.00000000000E+00 0.  1.
         21   -1    0    0  502  503 -0.00000000000E+00 -0.00000000000E+00 -0.21977680752E+03  0.21977680752E+03  0.00000000000E+00 0.  1.
          6    1    1    2  501    0  0.68300418828E+02 -0.12653913505E+02 -0.62875014137E+02  0.19674180070E+03  0.17300000000E+03 0.  1.
         -6    1    1    2    0  503 -0.68300418828E+02  0.12653913505E+02  0.66045874735E+01  0.18654138767E+03  0.17300000000E+03 0.  1.
<mgrwt>
<rscale>  2 0.18642443E+03</rscale>
<asrwt>0</asrwt>
<pdfrwt beam="1">  1       21 0.25154828E-01 0.18642443E+03</pdfrwt>
<pdfrwt beam="2">  1       21 0.33811816E-01 0.18642443E+03</pdfrwt>
<totfact> 0.12640892E+05</totfact>
</mgrwt>
</event>
<event>
 4    1  0.4391134E+000  0.2004271E+03  0.7546771E-02  0.1149379E+00
         21   -1    0    0  503  502  0.00000000000E+00  0.00000000000E+00  0.34114741861E+03  0.34114741861E+03  0.00000000000E+00 0.  1.
         21   -1    0    0  501  503 -0.00000000000E+00 -0.00000000000E+00 -0.19051859796E+03  0.19051859796E+03  0.00000000000E+00 0.  1.
          6    1    1    2  501    0  0.57339677743E-01 -0.10120276675E+03 -0.88973041900E+02  0.21928795104E+03  0.17300000000E+03 0.  1.
         -6    1    1    2    0  502 -0.57339677743E-01  0.10120276675E+03  0.23960186255E+03  0.31237806553E+03  0.17300000000E+03 0.  1.
<mgrwt>
<rscale>  2 0.20042705E+03</rscale>
<asrwt>0</asrwt>
<pdfrwt beam="1">  1       21 0.52484218E-01 0.20042705E+03</pdfrwt>
<pdfrwt beam="2">  1       21 0.29310554E-01 0.20042705E+03</pdfrwt>
<totfact> 0.38229191E+04</totfact>
</mgrwt>
</event>
<event>
 4    1  0.4391134E+000  0.2449191E+03  0.7546771E-02  0.1116559E+00
         21   -1    0    0  501  502  0.00000000000E+00  0.00000000000E+00  0.11829232178E+03  0.11829232178E+03  0.00000000000E+00 0. -1.
         21   -1    0    0  502  503 -0.00000000000E+00 -0.00000000000E+00 -0.52558128305E+03  0.52558128305E+03  0.00000000000E+00 0.  1.
          6    1    1    2  501    0 -0.13053809691E+03 -0.11408834994E+03 -0.14326557064E+03  0.28374349344E+03  0.17300000000E+03 0.  1.
         -6    1    1    2    0  503  0.13053809691E+03  0.11408834994E+03 -0.26402339062E+03  0.36013011140E+03  0.17300000000E+03 0.  1.
<mgrwt>
<rscale>  2 0.24491906E+03</rscale>
<asrwt>0</asrwt>
<pdfrwt beam="1">  1       21 0.18198819E-01 0.24491906E+03</pdfrwt>
<pdfrwt beam="2">  1       21 0.80858659E-01 0.24491906E+03</pdfrwt>
<totfact> 0.35989704E+04</totfact>
</mgrwt>
</event>
<event>
 4    1  0.4391134E+000  0.2022010E+03  0.7546771E-02  0.1147895E+00
         21   -1    0    0  503  502  0.00000000000E+00  0.00000000000E+00  0.10933001993E+04  0.10933001993E+04  0.00000000000E+00 0. -1.
         21   -1    0    0  501  503 -0.00000000000E+00 -0.00000000000E+00 -0.52887170123E+02  0.52887170123E+02  0.00000000000E+00 0. -1.
          6    1    1    2  501    0  0.63958099916E+02 -0.82858904875E+02  0.21004334157E+03  0.29155349766E+03  0.17300000000E+03 0. -1.
         -6    1    1    2    0  502 -0.63958099916E+02  0.82858904875E+02  0.83036968758E+03  0.85463387173E+03  0.17300000000E+03 0. -1.
<mgrwt>
<rscale>  2 0.20220098E+03</rscale>
<asrwt>0</asrwt>
<pdfrwt beam="1">  1       21 0.16820001E+00 0.20220098E+03</pdfrwt>
<pdfrwt beam="2">  1       21 0.81364885E-02 0.20220098E+03</pdfrwt>
<totfact> 0.25436059E+04</totfact>
</mgrwt>
</event>
<event>
 4    1  0.4391134E+000  0.3355715E+03  0.7546771E-02  0.1068698E+00
         21   -1    0    0  503  502  0.00000000000E+00  0.00000000000E+00  0.56250957022E+02  0.56250957022E+02  0.00000000000E+00 0.  1.
         21   -1    0    0  501  503 -0.00000000000E+00 -0.00000000000E+00 -0.20045748887E+04  0.20045748887E+04  0.00000000000E+00 0. -1.
          6    1    1    2  501    0  0.28752521569E+03  0.29178512497E+01 -0.93645576850E+03  0.99476513302E+03  0.17300000000E+03 0. -1.
         -6    1    1    2    0  502 -0.28752521569E+03 -0.29178512497E+01 -0.10118681632E+04  0.10660607127E+04  0.17300000000E+03 0.  1.
<mgrwt>
<rscale>  2 0.33557155E+03</rscale>
<asrwt>0</asrwt>
<pdfrwt beam="1">  1       21 0.86539928E-02 0.33557155E+03</pdfrwt>
<pdfrwt beam="2">  1       21 0.30839616E+00 0.33557155E+03</pdfrwt>
<totfact> 0.27998559E+03</totfact>
</mgrwt>
</event>
<event>
 4    1  0.4391134E+000  0.1764174E+03  0.7546771E-02  0.1171316E+00
         21   -1    0    0  501  502  0.00000000000E+00  0.00000000000E+00  0.56191971849E+03  0.56191971849E+03  0.00000000000E+00 0.  1.
         21   -1    0    0  502  503 -0.00000000000E+00 -0.00000000000E+00 -0.55393616856E+02  0.55393616856E+02  0.00000000000E+00 0.  1.
          6    1    1    2  501    0  0.13401900166E+02  0.31850991156E+02  0.24991197724E+03  0.30590700047E+03  0.17300000000E+03 0.  1.
         -6    1    1    2    0  503 -0.13401900166E+02 -0.31850991156E+02  0.25661412439E+03  0.31140633488E+03  0.17300000000E+03 0.  1.
<mgrwt>
<rscale>  2 0.17641739E+03</rscale>
<asrwt>0</asrwt>
<pdfrwt beam="1">  1       21 0.86449183E-01 0.17641739E+03</pdfrwt>
<pdfrwt beam="2">  1       21 0.85220953E-02 0.17641739E+03</pdfrwt>
<totfact> 0.12464068E+05</totfact>
</mgrwt>
</event>
<event>
 4    1  0.4391134E+000  0.1873198E+03  0.7546771E-02  0.1160901E+00
         21   -1    0    0  503  502  0.00000000000E+00  0.00000000000E+00  0.15429778240E+03  0.15429778240E+03  0.00000000000E+00 0.  1.
         21   -1    0    0  501  503 -0.00000000000E+00 -0.00000000000E+00 -0.29342879143E+03  0.29342879143E+03  0.00000000000E+00 0.  1.
          6    1    1    2  501    0  0.39173456370E+02  0.60209056978E+02 -0.17575190267E+03  0.25686070450E+03  0.17300000000E+03 0.  1.
         -6    1    1    2    0  502 -0.39173456370E+02 -0.60209056978E+02  0.36620893639E+02  0.19086586934E+03  0.17300000000E+03 0.  1.
<mgrwt>
<rscale>  2 0.18731975E+03</rscale>
<asrwt>0</asrwt>
<pdfrwt beam="1">  1       21 0.23738121E-01 0.18731975E+03</pdfrwt>
<pdfrwt beam="2">  1       21 0.45142891E-01 0.18731975E+03</pdfrwt>
<totfact> 0.78871677E+04</totfact>
</mgrwt>
</event>
<event>
 4    1  0.4391134E+000  0.1835652E+03  0.7546771E-02  0.1164397E+00
         21   -1    0    0  503  502  0.00000000000E+00  0.00000000000E+00  0.98354740001E+02  0.98354740001E+02  0.00000000000E+00 0.  1.
         21   -1    0    0  501  503 -0.00000000000E+00 -0.00000000000E+00 -0.48900201671E+03  0.48900201671E+03  0.00000000000E+00 0.  1.
          6    1    1    2  501    0 -0.15948095491E+02  0.59269339148E+02 -0.35601489724E+03  0.40055312179E+03  0.17300000000E+03 0.  1.
         -6    1    1    2    0  502  0.15948095491E+02 -0.59269339148E+02 -0.34632379463E+02  0.18680363492E+03  0.17300000000E+03 0.  1.
<mgrwt>
<rscale>  2 0.18356524E+03</rscale>
<asrwt>0</asrwt>
<pdfrwt beam="1">  1       21 0.15131498E-01 0.18356524E+03</pdfrwt>
<pdfrwt beam="2">  1       21 0.75231079E-01 0.18356524E+03</pdfrwt>
<totfact> 0.61217080E+04</totfact>
</mgrwt>
</event>
<event>
 4    1  0.4391134E+000  0.3348196E+03  0.7546771E-02  0.1069024E+00
         21   -1    0    0  503  502  0.00000000000E+00  0.00000000000E+00  0.26702704766E+03  0.26702704766E+03  0.00000000000E+00 0.  1.
         21   -1    0    0  501  503 -0.00000000000E+00 -0.00000000000E+00 -0.42614097465E+03  0.42614097465E+03  0.00000000000E+00 0. -1.
          6    1    1    2  501    0  0.22892742887E+03  0.17253231122E+03 -0.37357024632E+02  0.33689718519E+03  0.17300000000E+03 0.  1.
         -6    1    1    2    0  502 -0.22892742887E+03 -0.17253231122E+03 -0.12175690236E+03  0.35627083711E+03  0.17300000000E+03 0. -1.
<mgrwt>
<rscale>  2 0.33481960E+03</rscale>
<asrwt>0</asrwt>
<pdfrwt beam="1">  1       21 0.41081084E-01 0.33481960E+03</pdfrwt>
<pdfrwt beam="2">  1       21 0.65560150E-01 0.33481960E+03</pdfrwt>
<totfact> 0.11343052E+04</totfact>
</mgrwt>
</event>
<event>
 4    1  0.4391134E+000  0.1868690E+03  0.7546771E-02  0.1161316E+00
         21   -1    0    0  501  502  0.00000000000E+00  0.00000000000E+00  0.91617162023E+02  0.91617162023E+02  0.00000000000E+00 0.  1.
         21   -1    0    0  502  503 -0.00000000000E+00 -0.00000000000E+00 -0.45945365976E+03  0.45945365976E+03  0.00000000000E+00 0.  1.
          6    1    1    2  501    0 -0.70596529921E+02  0.26743325016E+01 -0.70170363390E+02  0.19960937350E+03  0.17300000000E+03 0.  1.
         -6    1    1    2    0  503  0.70596529921E+02 -0.26743325016E+01 -0.29766613434E+03  0.35146144828E+03  0.17300000000E+03 0.  1.
<mgrwt>
<rscale>  2 0.18686900E+03</rscale>
<asrwt>0</asrwt>
<pdfrwt beam="1">  1       21 0.14094948E-01 0.18686900E+03</pdfrwt>
<pdfrwt beam="2">  1       21 0.70685181E-01 0.18686900E+03</pdfrwt>
<totfact> 0.79846534E+04</totfact>
</mgrwt>
</event>
<event>
 4    1  0.4391134E+000  0.1872880E+03  0.7546771E-02  0.1160930E+00
         21   -1    0    0  503  502  0.00000000000E+00  0.00000000000E+00  0.12930282723E+03  0.12930282723E+03  0.00000000000E+00 0. -1.
         21   -1    0    0  501  503 -0.00000000000E+00 -0.00000000000E+00 -0.29660602547E+03  0.29660602547E+03  0.00000000000E+00 0.  1.
          6    1    1    2  501    0  0.27103814768E+02 -0.66431684776E+02 -0.14588340368E+03  0.23739998523E+03  0.17300000000E+03 0.  1.
         -6    1    1    2    0  502 -0.27103814768E+02  0.66431684776E+02 -0.21419794550E+02  0.18850886747E+03  0.17300000000E+03 0. -1.
<mgrwt>
<rscale>  2 0.18728797E+03</rscale>
<asrwt>0</asrwt>
<pdfrwt beam="1">  1       21 0.19892743E-01 0.18728797E+03</pdfrwt>
<pdfrwt beam="2">  1       21 0.45631696E-01 0.18728797E+03</pdfrwt>
<totfact> 0.10757736E+05</totfact>
</mgrwt>
</event>
<event>
 4    1  0.4391134E+000  0.1744473E+03  0.7546771E-02  0.1173288E+00
         21   -1    0    0  501  502  0.00000000000E+00  0.00000000000E+00  0.23830323429E+03  0.23830323429E+03  0.00000000000E+00 0. -1.
         21   -1    0    0  502  503 -0.00000000000E+00 -0.00000000000E+00 -0.16666647038E+03  0.16666647038E+03  0.00000000000E+00 0. -1.
          6    1    1    2  501    0 -0.20342547784E+02 -0.94358513727E+01  0.13372262750E+03  0.21980353875E+03  0.17300000000E+03 0. -1.
         -6    1    1    2    0  503  0.20342547784E+02  0.94358513727E+01 -0.62085863602E+02  0.18516616592E+03  0.17300000000E+03 0. -1.
<mgrwt>
<rscale>  2 0.17444728E+03</rscale>
<asrwt>0</asrwt>
<pdfrwt beam="1">  1       21 0.36662036E-01 0.17444728E+03</pdfrwt>
<pdfrwt beam="2">  1       21 0.25640995E-01 0.17444728E+03</pdfrwt>
<totfact> 0.10425425E+05</totfact>
</mgrwt>
</event>
<event>
 4    1  0.4391134E+000  0.1916928E+03  0.7546771E-02  0.1156943E+00
         21   -1    0    0  503  502  0.00000000000E+00  0.00000000000E+00  0.46888124062E+02  0.46888124062E+02  0.00000000000E+00 0. -1.
         21   -1    0    0  501  503 -0.00000000000E+00 -0.00000000000E+00 -0.79641318443E+03  0.79641318443E+03  0.00000000000E+00 0. -1.
          6    1    1    2  501    0  0.15233752354E+02  0.81148445429E+02 -0.42803978593E+03  0.46900340697E+03  0.17300000000E+03 0. -1.
         -6    1    1    2    0  502 -0.15233752354E+02 -0.81148445429E+02 -0.32148527443E+03  0.37429790152E+03  0.17300000000E+03 0. -1.
<mgrwt>
<rscale>  2 0.19169282E+03</rscale>
<asrwt>0</asrwt>
<pdfrwt beam="1">  1       21 0.72135571E-02 0.19169282E+03</pdfrwt>
<pdfrwt beam="2">  1       21 0.12252511E+00 0.19169282E+03</pdfrwt>
<totfact> 0.72048287E+04</totfact>
</mgrwt>
</event>
<event>
 4    1  0.4391134E+000  0.2124706E+03  0.7546771E-02  0.1139624E+00
         21   -1    0    0  503  502  0.00000000000E+00  0.00000000000E+00  0.63704391571E+03  0.63704391571E+03  0.00000000000E+00 0. -1.
         21   -1    0    0  501  503 -0.00000000000E+00 -0.00000000000E+00 -0.10502720390E+03  0.10502720390E+03  0.00000000000E+00 0. -1.
          6    1    1    2  501    0 -0.60065626722E+02  0.10773512419E+03  0.54395830547E+02  0.21932314715E+03  0.17300000000E+03 0. -1.
         -6    1    1    2    0  502  0.60065626722E+02 -0.10773512419E+03  0.47762088126E+03  0.52274797246E+03  0.17300000000E+03 0. -1.
<mgrwt>
<rscale>  2 0.21247055E+03</rscale>
<asrwt>0</asrwt>
<pdfrwt beam="1">  1       21 0.98006754E-01 0.21247055E+03</pdfrwt>
<pdfrwt beam="2">  1       21 0.16158032E-01 0.21247055E+03</pdfrwt>
<totfact> 0.29155680E+04</totfact>
</mgrwt>
</event>
<event>
 4    1  0.4391134E+000  0.1964130E+03  0.7546771E-02  0.1152801E+00
         21   -1    0    0  503  502  0.00000000000E+00  0.00000000000E+00  0.16530023065E+03  0.16530023065E+03  0.00000000000E+00 0. -1.
         21   -1    0    0  501  503 -0.00000000000E+00 -0.00000000000E+00 -0.25330193939E+03  0.25330193939E+03  0.00000000000E+00 0. -1.
          6    1    1    2  501    0 -0.85978954829E+02  0.35449890860E+02 -0.10269540001E+03  0.22164029556E+03  0.17300000000E+03 0.  1.
         -6    1    1    2    0  502  0.85978954829E+02 -0.35449890860E+02  0.14693691265E+02  0.19696187448E+03  0.17300000000E+03 0.  1.
<mgrwt>
<rscale>  2 0.19641302E+03</rscale>
<asrwt>0</asrwt>
<pdfrwt beam="1">  1       21 0.25430805E-01 0.19641302E+03</pdfrwt>
<pdfrwt beam="2">  1       21 0.38969529E-01 0.19641302E+03</pdfrwt>
<totfact> 0.92937000E+04</totfact>
</mgrwt>
</event>
<event>
 4    1  0.4391134E+000  0.2051821E+03  0.7546771E-02  0.1145439E+00
         21   -1    0    0  501  502  0.00000000000E+00  0.00000000000E+00  0.70818693450E+02  0.70818693450E+02  0.00000000000E+00 0. -1.
         21   -1    0    0  502  503 -0.00000000000E+00 -0.00000000000E+00 -0.73217472989E+03  0.73217472989E+03  0.00000000000E+00 0. -1.
          6    1    1    2  501    0  0.84587125032E+02 -0.70821681346E+02 -0.15655878442E+03  0.25808980075E+03  0.17300000000E+03 0. -1.
         -6    1    1    2    0  503 -0.84587125032E+02  0.70821681346E+02 -0.50479725202E+03  0.54490362260E+03  0.17300000000E+03 0. -1.
<mgrwt>
<rscale>  2 0.20518210E+03</rscale>
<asrwt>0</asrwt>
<pdfrwt beam="1">  1       21 0.10895184E-01 0.20518210E+03</pdfrwt>
<pdfrwt beam="2">  1       21 0.11264226E+00 0.20518210E+03</pdfrwt>
<totfact> 0.42690673E+04</totfact>
</mgrwt>
</event>
<event>
 4    1  0.4391134E+000  0.1860795E+03  0.7546771E-02  0.1162046E+00
         21   -1    0    0  503  502  0.00000000000E+00  0.00000000000E+00  0.34930410097E+03  0.34930410097E+03  0.00000000000E+00 0.  1.
         21   -1    0    0  501  503 -0.00000000000E+00 -0.00000000000E+00 -0.21097140030E+03  0.21097140030E+03  0.00000000000E+00 0. -1.
          6    1    1    2  501    0 -0.21718161222E+01 -0.68497064983E+02 -0.13480371144E+03  0.22977729504E+03  0.17300000000E+03 0. -1.
         -6    1    1    2    0  502  0.21718161222E+01  0.68497064983E+02  0.27313641211E+03  0.33049820622E+03  0.17300000000E+03 0.  1.
<mgrwt>
<rscale>  2 0.18607946E+03</rscale>
<asrwt>0</asrwt>
<pdfrwt beam="1">  1       21 0.53739093E-01 0.18607946E+03</pdfrwt>
<pdfrwt beam="2">  1       21 0.32457138E-01 0.18607946E+03</pdfrwt>
<totfact> 0.30026801E+04</totfact>
</mgrwt>
</event>
<event>
 4    1  0.4391134E+000  0.2268909E+03  0.7546771E-02  0.1128847E+00
         21   -1    0    0  503  502  0.00000000000E+00  0.00000000000E+00  0.28591334687E+02  0.28591334687E+02  0.00000000000E+00 0.  1.
         21   -1    0    0  501  503 -0.00000000000E+00 -0.00000000000E+00 -0.18083018638E+04  0.18083018638E+04  0.00000000000E+00 0.  1.
          6    1    1    2  501    0  0.14948167703E+02 -0.14603777718E+03 -0.95007724845E+03  0.97679386674E+03  0.17300000000E+03 0.  1.
         -6    1    1    2    0  502 -0.14948167703E+02  0.14603777718E+03 -0.82963328063E+03  0.86009933171E+03  0.17300000000E+03 0.  1.
<mgrwt>
<rscale>  2 0.22689090E+03</rscale>
<asrwt>0</asrwt>
<pdfrwt beam="1">  1       21 0.43986656E-02 0.22689090E+03</pdfrwt>
<pdfrwt beam="2">  1       21 0.27820037E+00 0.22689090E+03</pdfrwt>
<totfact> 0.14751951E+04</totfact>
</mgrwt>
</event>
<event>
 4    1  0.4391134E+000  0.2032898E+03  0.7546771E-02  0.1146993E+00
         21   -1    0    0  503  502  0.00000000000E+00  0.00000000000E+00  0.18982493857E+02  0.18982493857E+02  0.00000000000E+00 0.  1.
         21   -1    0    0  501  503 -0.00000000000E+00 -0.00000000000E+00 -0.21944452954E+04  0.21944452954E+04  0.00000000000E+00 0.  1.
          6    1    1    2  501    0 -0.94804014277E+02 -0.49091202491E+02 -0.98933249438E+03  0.10100027385E+04  0.17300000000E+03 0.  1.
         -6    1    1    2    0  502  0.94804014277E+02  0.49091202491E+02 -0.11861303072E+04  0.12034250508E+04  0.17300000000E+03 0.  1.
<mgrwt>
<rscale>  2 0.20328981E+03</rscale>
<asrwt>0</asrwt>
<pdfrwt beam="1">  1       21 0.29203857E-02 0.20328981E+03</pdfrwt>
<pdfrwt beam="2">  1       21 0.33760674E+00 0.20328981E+03</pdfrwt>
<totfact> 0.13519196E+04</totfact>
</mgrwt>
</event>
<event>
 4    1  0.4391134E+000  0.3489557E+03  0.7546771E-02  0.1063044E+00
         21   -1    0    0  503  502  0.00000000000E+00  0.00000000000E+00  0.60214844736E+03  0.60214844736E+03  0.00000000000E+00 0. -1.
         21   -1    0    0  501  503 -0.00000000000E+00 -0.00000000000E+00 -0.20703266605E+03  0.20703266605E+03  0.00000000000E+00 0.  1.
          6    1    1    2  501    0  0.23437525354E+01  0.30304386720E+03  0.13591006318E+03  0.37448848300E+03  0.17300000000E+03 0. -1.
         -6    1    1    2    0  502 -0.23437525354E+01 -0.30304386720E+03  0.25920571813E+03  0.43469263041E+03  0.17300000000E+03 0. -1.
<mgrwt>
<rscale>  2 0.34895570E+03</rscale>
<asrwt>0</asrwt>
<pdfrwt beam="1">  1       21 0.92638222E-01 0.34895570E+03</pdfrwt>
<pdfrwt beam="2">  1       21 0.31851180E-01 0.34895570E+03</pdfrwt>
<totfact> 0.85611352E+03</totfact>
</mgrwt>
</event>
<event>
 4    1  0.4391134E+000  0.2243261E+03  0.7546771E-02  0.1130698E+00
         21   -1    0    0  503  502  0.00000000000E+00  0.00000000000E+00  0.74452478014E+02  0.74452478014E+02  0.00000000000E+00 0.  1.
         21   -1    0    0  501  503 -0.00000000000E+00 -0.00000000000E+00 -0.86598475473E+03  0.86598475473E+03  0.00000000000E+00 0.  1.
          6    1    1    2  501    0  0.61503051163E+01  0.14267225060E+03 -0.61606989731E+03  0.65564038597E+03  0.17300000000E+03 0.  1.
         -6    1    1    2    0  502 -0.61503051163E+01 -0.14267225060E+03 -0.17546237940E+03  0.28479684677E+03  0.17300000000E+03 0.  1.
<mgrwt>
<rscale>  2 0.22432610E+03</rscale>
<asrwt>0</asrwt>
<pdfrwt beam="1">  1       21 0.11454227E-01 0.22432610E+03</pdfrwt>
<pdfrwt beam="2">  1       21 0.13322842E+00 0.22432610E+03</pdfrwt>
<totfact> 0.25417912E+04</totfact>
</mgrwt>
</event>
<event>
 4    1  0.4391134E+000  0.1985981E+03  0.7546771E-02  0.1150927E+00
         21   -1    0    0  503  502  0.00000000000E+00  0.00000000000E+00  0.74270168754E+02  0.74270168754E+02  0.00000000000E+00 0.  1.
         21   -1    0    0  501  503 -0.00000000000E+00 -0.00000000000E+00 -0.55966891407E+03  0.55966891407E+03  0.00000000000E+00 0. -1.
          6    1    1    2  501    0  0.54592546192E-01  0.97530499006E+02 -0.31437568337E+03  0.37185114160E+03  0.17300000000E+03 0. -1.
         -6    1    1    2    0  502 -0.54592546192E-01 -0.97530499006E+02 -0.17102306195E+03  0.26208794123E+03  0.17300000000E+03 0.  1.
<mgrwt>
<rscale>  2 0.19859809E+03</rscale>
<asrwt>0</asrwt>
<pdfrwt beam="1">  1       21 0.11426180E-01 0.19859809E+03</pdfrwt>
<pdfrwt beam="2">  1       21 0.86102906E-01 0.19859809E+03</pdfrwt>
<totfact> 0.74311475E+04</totfact>
</mgrwt>
</event>
<event>
 4    1  0.4391134E+000  0.1865859E+03  0.7546771E-02  0.1161577E+00
         21   -1    0    0  503  502  0.00000000000E+00  0.00000000000E+00  0.17230237398E+03  0.17230237398E+03  0.00000000000E+00 0. -1.
         21   -1    0    0  501  503 -0.00000000000E+00 -0.00000000000E+00 -0.33668471579E+03  0.33668471579E+03  0.00000000000E+00 0. -1.
          6    1    1    2  501    0 -0.28940558611E+02  0.63621804653E+02 -0.24312154724E+03  0.30646757853E+03  0.17300000000E+03 0. -1.
         -6    1    1    2    0  502  0.28940558611E+02 -0.63621804653E+02  0.78739205426E+02  0.20251951124E+03  0.17300000000E+03 0. -1.
<mgrwt>
<rscale>  2 0.18658588E+03</rscale>
<asrwt>0</asrwt>
<pdfrwt beam="1">  1       21 0.26508058E-01 0.18658588E+03</pdfrwt>
<pdfrwt beam="2">  1       21 0.51797648E-01 0.18658588E+03</pdfrwt>
<totfact> 0.48057271E+04</totfact>
</mgrwt>
</event>
<event>
 4    1  0.4391134E+000  0.2196045E+03  0.7546771E-02  0.1134178E+00
         21   -1    0    0  501  502  0.00000000000E+00  0.00000000000E+00  0.12024952497E+04  0.12024952497E+04  0.00000000000E+00 0.  1.
         21   -1    0    0  502  503 -0.00000000000E+00 -0.00000000000E+00 -0.40262043435E+02  0.40262043435E+02  0.00000000000E+00 0. -1.
          6    1    1    2  501    0  0.79193625531E+02 -0.10966090384E+03  0.54231628250E+03  0.58509238110E+03  0.17300000000E+03 0.  1.
         -6    1    1    2    0  503 -0.79193625531E+02  0.10966090384E+03  0.61991692379E+03  0.65766491206E+03  0.17300000000E+03 0. -1.
<mgrwt>
<rscale>  2 0.21960452E+03</rscale>
<asrwt>0</asrwt>
<pdfrwt beam="1">  1       21 0.18499924E+00 0.21960452E+03</pdfrwt>
<pdfrwt beam="2">  1       21 0.61941615E-02 0.21960452E+03</pdfrwt>
<totfact> 0.30880390E+04</totfact>
</mgrwt>
</event>
<event>
 4    1  0.4391134E+000  0.2246880E+03  0.7546771E-02  0.1130435E+00
         21   -1    0    0  501  502  0.00000000000E+00  0.00000000000E+00  0.48996850004E+02  0.48996850004E+02  0.00000000000E+00 0. -1.
         21   -1    0    0  502  503 -0.00000000000E+00 -0.00000000000E+00 -0.10838530032E+04  0.10838530032E+04  0.00000000000E+00 0. -1.
          6    1    1    2  501    0  0.10701706598E+03 -0.95409965401E+02 -0.39159953017E+03  0.45148079243E+03  0.17300000000E+03 0. -1.
         -6    1    1    2    0  503 -0.10701706598E+03  0.95409965401E+02 -0.64325662305E+03  0.68136906079E+03  0.17300000000E+03 0. -1.
<mgrwt>
<rscale>  2 0.22468804E+03</rscale>
<asrwt>0</asrwt>
<pdfrwt beam="1">  1       21 0.75379766E-02 0.22468804E+03</pdfrwt>
<pdfrwt beam="2">  1       21 0.16674662E+00 0.22468804E+03</pdfrwt>
<totfact> 0.29342543E+04</totfact>
</mgrwt>
</event>
<event>
 4    1  0.4391134E+000  0.2365037E+03  0.7546771E-02  0.1122144E+00
         21   -1    0    0  503  502  0.00000000000E+00  0.00000000000E+00  0.20252332872E+04  0.20252332872E+04  0.00000000000E+00 0. -1.
         21   -1    0    0  501  503 -0.00000000000E+00 -0.00000000000E+00 -0.27817006224E+02  0.27817006224E+02  0.00000000000E+00 0. -1.
          6    1    1    2  501    0  0.95692847497E+02  0.12979944144E+03  0.91200361622E+03  0.94217016088E+03  0.17300000000E+03 0. -1.
         -6    1    1    2    0  502 -0.95692847497E+02 -0.12979944144E+03  0.10854126647E+04  0.11108801325E+04  0.17300000000E+03 0. -1.
<mgrwt>
<rscale>  2 0.23650373E+03</rscale>
<asrwt>0</asrwt>
<pdfrwt beam="1">  1       21 0.31157424E+00 0.23650373E+03</pdfrwt>
<pdfrwt beam="2">  1       21 0.42795410E-02 0.23650373E+03</pdfrwt>
<totfact> 0.97962846E+03</totfact>
</mgrwt>
</event>
<event>
 4    1  0.4391134E+000  0.1835413E+03  0.7546771E-02  0.1164419E+00
         21   -1    0    0  501  502  0.00000000000E+00  0.00000000000E+00  0.68103117778E+03  0.68103117778E+03  0.00000000000E+00 0.  1.
         21   -1    0    0  502  503 -0.00000000000E+00 -0.00000000000E+00 -0.81609282570E+02  0.81609282570E+02  0.00000000000E+00 0.  1.
          6    1    1    2  501    0 -0.51279361409E+02  0.33598164289E+02  0.53902595170E+03  0.56941758504E+03  0.17300000000E+03 0. -1.
         -6    1    1    2    0  503  0.51279361409E+02 -0.33598164289E+02  0.60395943511E+02  0.19322287531E+03  0.17300000000E+03 0. -1.
<mgrwt>
<rscale>  2 0.18354130E+03</rscale>
<asrwt>0</asrwt>
<pdfrwt beam="1">  1       21 0.10477402E+00 0.18354130E+03</pdfrwt>
<pdfrwt beam="2">  1       21 0.12555275E-01 0.18354130E+03</pdfrwt>
<totfact> 0.39932978E+04</totfact>
</mgrwt>
</event>
<event>
 4    1  0.4391134E+000  0.2515004E+03  0.7546771E-02  0.1112360E+00
         21   -1    0    0  501  502  0.00000000000E+00  0.00000000000E+00  0.49718443891E+02  0.49718443891E+02  0.00000000000E+00 0.  1.
         21   -1    0    0  502  503 -0.00000000000E+00 -0.00000000000E+00 -0.18321888593E+04  0.18321888593E+04  0.00000000000E+00 0. -1.
          6    1    1    2  501    0  0.10517450283E+02  0.18224395291E+03 -0.14114318857E+04  0.14336639924E+04  0.17300000000E+03 0. -1.
         -6    1    1    2    0  503 -0.10517450283E+02 -0.18224395291E+03 -0.37103852966E+03  0.44824331074E+03  0.17300000000E+03 0.  1.
<mgrwt>
<rscale>  2 0.25150045E+03</rscale>
<asrwt>0</asrwt>
<pdfrwt beam="1">  1       21 0.76489904E-02 0.25150045E+03</pdfrwt>
<pdfrwt beam="2">  1       21 0.28187525E+00 0.25150045E+03</pdfrwt>
<totfact> 0.53172330E+03</totfact>
</mgrwt>
</event>
<event>
 4    1  0.4391134E+000  0.1997941E+03  0.7546771E-02  0.1149913E+00
         21   -1    0    0  503  502  0.00000000000E+00  0.00000000000E+00  0.79668627883E+02  0.79668627883E+02  0.00000000000E+00 0. -1.
         21   -1    0    0  501  503 -0.00000000000E+00 -0.00000000000E+00 -0.55279558336E+03  0.55279558336E+03  0.00000000000E+00 0. -1.
          6    1    1    2  501    0  0.11982371978E+02  0.99222512358E+02 -0.33331886697E+03  0.38861182596E+03  0.17300000000E+03 0. -1.
         -6    1    1    2    0  502 -0.11982371978E+02 -0.99222512358E+02 -0.13980808851E+03  0.24385238528E+03  0.17300000000E+03 0. -1.
<mgrwt>
<rscale>  2 0.19979410E+03</rscale>
<asrwt>0</asrwt>
<pdfrwt beam="1">  1       21 0.12256712E-01 0.19979410E+03</pdfrwt>
<pdfrwt beam="2">  1       21 0.85045475E-01 0.19979410E+03</pdfrwt>
<totfact> 0.67392695E+04</totfact>
</mgrwt>
</event>
<event>
 4    1  0.4391134E+000  0.3608726E+03  0.7546771E-02  0.1058239E+00
         21   -1    0    0  501  502  0.00000000000E+00  0.00000000000E+00  0.86455840437E+03  0.86455840437E+03  0.00000000000E+00 0. -1.
         21   -1    0    0  502  503 -0.00000000000E+00 -0.00000000000E+00 -0.15137217023E+03  0.15137217023E+03  0.00000000000E+00 0.  1.
          6    1    1    2  501    0 -0.10140764430E+03  0.30002751679E+03  0.32104116412E+03  0.48300771237E+03  0.17300000000E+03 0.  1.
         -6    1    1    2    0  503  0.10140764430E+03 -0.30002751679E+03  0.39214507001E+03  0.53292286223E+03  0.17300000000E+03 0. -1.
<mgrwt>
<rscale>  2 0.36087258E+03</rscale>
<asrwt>0</asrwt>
<pdfrwt beam="1">  1       21 0.13300898E+00 0.36087258E+03</pdfrwt>
<pdfrwt beam="2">  1       21 0.23288027E-01 0.36087258E+03</pdfrwt>
<totfact> 0.64181081E+03</totfact>
</mgrwt>
</event>
<event>
 4    1  0.4391134E+000  0.1859580E+03  0.7546771E-02  0.1162158E+00
         21   -1    0    0  503  502  0.00000000000E+00  0.00000000000E+00  0.29704981380E+03  0.29704981380E+03  0.00000000000E+00 0.  1.
         21   -1    0    0  501  503 -0.00000000000E+00 -0.00000000000E+00 -0.17307732699E+03  0.17307732699E+03  0.00000000000E+00 0.  1.
          6    1    1    2  501    0  0.67558199091E+02 -0.93422505065E+01 -0.72513369962E+02  0.19959603386E+03  0.17300000000E+03 0.  1.
         -6    1    1    2    0  502 -0.67558199091E+02  0.93422505065E+01  0.19648585677E+03  0.27053110693E+03  0.17300000000E+03 0.  1.
<mgrwt>
<rscale>  2 0.18595803E+03</rscale>
<asrwt>0</asrwt>
<pdfrwt beam="1">  1       21 0.45699971E-01 0.18595803E+03</pdfrwt>
<pdfrwt beam="2">  1       21 0.26627281E-01 0.18595803E+03</pdfrwt>
<totfact> 0.61803487E+04</totfact>
</mgrwt>
</event>
<event>
 4    1  0.4391134E+000  0.2663311E+03  0.7546771E-02  0.1103398E+00
         21   -1    0    0  503  502  0.00000000000E+00  0.00000000000E+00  0.35240797426E+03  0.35240797426E+03  0.00000000000E+00 0. -1.
         21   -1    0    0  501  503 -0.00000000000E+00 -0.00000000000E+00 -0.28535070576E+03  0.28535070576E+03  0.00000000000E+00 0. -1.
          6    1    1    2  501    0 -0.18707291891E+03  0.77504712031E+02 -0.13955752041E+03  0.30068016043E+03  0.17300000000E+03 0. -1.
         -6    1    1    2    0  502  0.18707291891E+03 -0.77504712031E+02  0.20661478890E+03  0.33707851959E+03  0.17300000000E+03 0. -1.
<mgrwt>
<rscale>  2 0.26633110E+03</rscale>
<asrwt>0</asrwt>
<pdfrwt beam="1">  1       21 0.54216611E-01 0.26633110E+03</pdfrwt>
<pdfrwt beam="2">  1       21 0.43900109E-01 0.26633110E+03</pdfrwt>
<totfact> 0.15386625E+04</totfact>
</mgrwt>
</event>
<event>
 4    1  0.4391134E+000  0.2323377E+03  0.7546771E-02  0.1125005E+00
         21   -1    0    0  501  502  0.00000000000E+00  0.00000000000E+00  0.59484337448E+02  0.59484337448E+02  0.00000000000E+00 0. -1.
         21   -1    0    0  502  503 -0.00000000000E+00 -0.00000000000E+00 -0.10539694576E+04  0.10539694576E+04  0.00000000000E+00 0. -1.
          6    1    1    2  501    0 -0.13246766109E+03  0.80648043879E+02 -0.28968773677E+03  0.37134858698E+03  0.17300000000E+03 0. -1.
         -6    1    1    2    0  503  0.13246766109E+03 -0.80648043879E+02 -0.70479738338E+03  0.74210520806E+03  0.17300000000E+03 0. -1.
<mgrwt>
<rscale>  2 0.23233766E+03</rscale>
<asrwt>0</asrwt>
<pdfrwt beam="1">  1       21 0.91514370E-02 0.23233766E+03</pdfrwt>
<pdfrwt beam="2">  1       21 0.16214914E+00 0.23233766E+03</pdfrwt>
<totfact> 0.22451550E+04</totfact>
</mgrwt>
</event>
<event>
 4    1  0.4391134E+000  0.1799372E+03  0.7546771E-02  0.1167864E+00
         21   -1    0    0  503  502  0.00000000000E+00  0.00000000000E+00  0.21859276647E+03  0.21859276647E+03  0.00000000000E+00 0.  1.
         21   -1    0    0  501  503 -0.00000000000E+00 -0.00000000000E+00 -0.15774399324E+03  0.15774399324E+03  0.00000000000E+00 0.  1.
          6    1    1    2  501    0 -0.47168960202E+02 -0.14949307278E+02 -0.16059935651E+02  0.18065246782E+03  0.17300000000E+03 0.  1.
         -6    1    1    2    0  502  0.47168960202E+02  0.14949307278E+02  0.76908708879E+02  0.19568429190E+03  0.17300000000E+03 0.  1.
<mgrwt>
<rscale>  2 0.17993719E+03</rscale>
<asrwt>0</asrwt>
<pdfrwt beam="1">  1       21 0.33629656E-01 0.17993719E+03</pdfrwt>
<pdfrwt beam="2">  1       21 0.24268307E-01 0.17993719E+03</pdfrwt>
<totfact> 0.13709947E+05</totfact>
</mgrwt>
</event>
<event>
 4    1  0.4391134E+000  0.3415873E+03  0.7546771E-02  0.1066122E+00
         21   -1    0    0  503  502  0.00000000000E+00  0.00000000000E+00  0.49683596145E+03  0.49683596145E+03  0.00000000000E+00 0. -1.
         21   -1    0    0  501  503 -0.00000000000E+00 -0.00000000000E+00 -0.26736263067E+03  0.26736263067E+03  0.00000000000E+00 0.  1.
          6    1    1    2  501    0 -0.24554854596E+03 -0.16266152061E+03 -0.18508922872E+02  0.34208834960E+03  0.17300000000E+03 0.  1.
         -6    1    1    2    0  502  0.24554854596E+03  0.16266152061E+03  0.24798225365E+03  0.42211024251E+03  0.17300000000E+03 0. -1.
<mgrwt>
<rscale>  2 0.34158726E+03</rscale>
<asrwt>0</asrwt>
<pdfrwt beam="1">  1       21 0.76436301E-01 0.34158726E+03</pdfrwt>
<pdfrwt beam="2">  1       21 0.41132713E-01 0.34158726E+03</pdfrwt>
<totfact> 0.79982553E+03</totfact>
</mgrwt>
</event>
<event>
 4    1  0.4391134E+000  0.2017430E+03  0.7546771E-02  0.1148277E+00
         21   -1    0    0  503  502  0.00000000000E+00  0.00000000000E+00  0.54392817546E+03  0.54392817546E+03  0.00000000000E+00 0. -1.
         21   -1    0    0  501  503 -0.00000000000E+00 -0.00000000000E+00 -0.11604238713E+03  0.11604238713E+03  0.00000000000E+00 0. -1.
          6    1    1    2  501    0 -0.57119612169E+02  0.86652098423E+02  0.17281723585E+02  0.20248183678E+03  0.17300000000E+03 0. -1.
         -6    1    1    2    0  502  0.57119612169E+02 -0.86652098423E+02  0.41060406475E+03  0.45748872581E+03  0.17300000000E+03 0. -1.
<mgrwt>
<rscale>  2 0.20174300E+03</rscale>
<asrwt>0</asrwt>
<pdfrwt beam="1">  1       21 0.83681256E-01 0.20174300E+03</pdfrwt>
<pdfrwt beam="2">  1       21 0.17852675E-01 0.20174300E+03</pdfrwt>
<totfact> 0.35224083E+04</totfact>
</mgrwt>
</event>
<event>
 4    1  0.4391134E+000  0.1928772E+03  0.7546771E-02  0.1155892E+00
         21   -1    0    0  501  502  0.00000000000E+00  0.00000000000E+00  0.35558707733E+03  0.35558707733E+03  0.00000000000E+00 0. -1.
         21   -1    0    0  502  503 -0.00000000000E+00 -0.00000000000E+00 -0.42257107474E+03  0.42257107474E+03  0.00000000000E+00 0.  1.
          6    1    1    2  501    0 -0.75287275780E+02  0.40055649896E+02  0.30400345912E+03  0.36002740471E+03  0.17300000000E+03 0. -1.
         -6    1    1    2    0  503  0.75287275780E+02 -0.40055649896E+02 -0.37098745653E+03  0.41813074736E+03  0.17300000000E+03 0.  1.
<mgrwt>
<rscale>  2 0.19287724E+03</rscale>
<asrwt>0</asrwt>
<pdfrwt beam="1">  1       21 0.54705704E-01 0.19287724E+03</pdfrwt>
<pdfrwt beam="2">  1       21 0.65010935E-01 0.19287724E+03</pdfrwt>
<totfact> 0.68726234E+03</totfact>
</mgrwt>
</event>
<event>
 4    1  0.4391134E+000  0.2495338E+03  0.7546771E-02  0.1113600E+00
         21   -1    0    0  503  502  0.00000000000E+00  0.00000000000E+00  0.90795412322E+03  0.90795412322E+03  0.00000000000E+00 0.  1.
         21   -1    0    0  501  503 -0.00000000000E+00 -0.00000000000E+00 -0.30526888669E+03  0.30526888669E+03  0.00000000000E+00 0.  1.
          6    1    1    2  501    0 -0.16391291900E+03  0.73963992176E+02 -0.23280178892E+03  0.34126791540E+03  0.17300000000E+03 0.  1.
         -6    1    1    2    0  502  0.16391291900E+03 -0.73963992176E+02  0.83548702545E+03  0.87195509452E+03  0.17300000000E+03 0.  1.
<mgrwt>
<rscale>  2 0.24953380E+03</rscale>
<asrwt>0</asrwt>
<pdfrwt beam="1">  1       21 0.13968525E+00 0.24953380E+03</pdfrwt>
<pdfrwt beam="2">  1       21 0.46964444E-01 0.24953380E+03</pdfrwt>
<totfact> 0.14856611E+03</totfact>
</mgrwt>
</event>
<event>
 4    1  0.4391134E+000  0.2233908E+03  0.7546771E-02  0.1131380E+00
         21   -1    0    0  501  502  0.00000000000E+00  0.00000000000E+00  0.23541169679E+03  0.23541169679E+03  0.00000000000E+00 0.  1.
         21   -1    0    0  502  503 -0.00000000000E+00 -0.00000000000E+00 -0.24355709573E+03  0.24355709573E+03  0.00000000000E+00 0.  1.
          6    1    1    2  501    0 -0.11685420585E+03  0.79495688331E+02  0.82152989889E+02  0.23801803217E+03  0.17300000000E+03 0.  1.
         -6    1    1    2    0  503  0.11685420585E+03 -0.79495688331E+02 -0.90298388824E+02  0.24095076035E+03  0.17300000000E+03 0.  1.
<mgrwt>
<rscale>  2 0.22339085E+03</rscale>
<asrwt>0</asrwt>
<pdfrwt beam="1">  1       21 0.36217184E-01 0.22339085E+03</pdfrwt>
<pdfrwt beam="2">  1       21 0.37470322E-01 0.22339085E+03</pdfrwt>
<totfact> 0.49777630E+04</totfact>
</mgrwt>
</event>
<event>
 4    1  0.4391134E+000  0.1763404E+03  0.7546771E-02  0.1171393E+00
         21   -1    0    0  501  502  0.00000000000E+00  0.00000000000E+00  0.37494953502E+03  0.37494953502E+03  0.00000000000E+00 0.  1.
         21   -1    0    0  502  503 -0.00000000000E+00 -0.00000000000E+00 -0.96311259955E+02  0.96311259955E+02  0.00000000000E+00 0.  1.
          6    1    1    2  501    0  0.32571330671E+02 -0.10298654457E+02  0.22713665725E+03  0.28755349925E+03  0.17300000000E+03 0.  1.
         -6    1    1    2    0  503 -0.32571330671E+02  0.10298654457E+02  0.51501617821E+02  0.18370729573E+03  0.17300000000E+03 0.  1.
<mgrwt>
<rscale>  2 0.17634045E+03</rscale>
<asrwt>0</asrwt>
<pdfrwt beam="1">  1       21 0.57684543E-01 0.17634045E+03</pdfrwt>
<pdfrwt beam="2">  1       21 0.14817117E-01 0.17634045E+03</pdfrwt>
<totfact> 0.11375780E+05</totfact>
</mgrwt>
</event>
<event>
 4    1  0.4391134E+000  0.1811651E+03  0.7546771E-02  0.1166680E+00
         21   -1    0    0  501  502  0.00000000000E+00  0.00000000000E+00  0.13293654559E+03  0.13293654559E+03  0.00000000000E+00 0.  1.
         21   -1    0    0  502  503 -0.00000000000E+00 -0.00000000000E+00 -0.24697856457E+03  0.24697856457E+03  0.00000000000E+00 0.  1.
          6    1    1    2  501    0 -0.39297479353E+02 -0.36708148757E+02 -0.53435551858E+02  0.18888128089E+03  0.17300000000E+03 0. -1.
         -6    1    1    2    0  503  0.39297479353E+02  0.36708148757E+02 -0.60606467116E+02  0.19103382927E+03  0.17300000000E+03 0. -1.
<mgrwt>
<rscale>  2 0.18116506E+03</rscale>
<asrwt>0</asrwt>
<pdfrwt beam="1">  1       21 0.20451776E-01 0.18116506E+03</pdfrwt>
<pdfrwt beam="2">  1       21 0.37996702E-01 0.18116506E+03</pdfrwt>
<totfact> 0.14843097E+05</totfact>
</mgrwt>
</event>
<event>
 4    1  0.4391134E+000  0.1773060E+03  0.7546771E-02  0.1170436E+00
         21   -1    0    0  501  502  0.00000000000E+00  0.00000000000E+00  0.10397082824E+04  0.10397082824E+04  0.00000000000E+00 0. -1.
         21   -1    0    0  502  503 -0.00000000000E+00 -0.00000000000E+00 -0.55430970204E+02  0.55430970204E+02  0.00000000000E+00 0. -1.
          6    1    1    2  501    0 -0.26819427312E+02 -0.28091753757E+02  0.86129754539E+03  0.87935822621E+03  0.17300000000E+03 0. -1.
         -6    1    1    2    0  503  0.26819427312E+02  0.28091753757E+02  0.12297976682E+03  0.21578102641E+03  0.17300000000E+03 0. -1.
<mgrwt>
<rscale>  2 0.17730603E+03</rscale>
<asrwt>0</asrwt>
<pdfrwt beam="1">  1       21 0.15995511E+00 0.17730603E+03</pdfrwt>
<pdfrwt beam="2">  1       21 0.85278424E-02 0.17730603E+03</pdfrwt>
<totfact> 0.27313729E+04</totfact>
</mgrwt>
</event>
<event>
 4    1  0.4391134E+000  0.2303625E+03  0.7546771E-02  0.1126385E+00
         21   -1    0    0  501  502  0.00000000000E+00  0.00000000000E+00  0.26820242140E+03  0.26820242140E+03  0.00000000000E+00 0. -1.
         21   -1    0    0  502  503 -0.00000000000E+00 -0.00000000000E+00 -0.20283501730E+03  0.20283501730E+03  0.00000000000E+00 0. -1.
          6    1    1    2  501    0 -0.89156995938E+01 -0.15184982633E+03  0.69564288514E+02  0.24063675881E+03  0.17300000000E+03 0. -1.
         -6    1    1    2    0  503  0.89156995938E+01  0.15184982633E+03 -0.41968844110E+01  0.23040067989E+03  0.17300000000E+03 0. -1.
<mgrwt>
<rscale>  2 0.23036245E+03</rscale>
<asrwt>0</asrwt>
<pdfrwt beam="1">  1       21 0.41261911E-01 0.23036245E+03</pdfrwt>
<pdfrwt beam="2">  1       21 0.31205387E-01 0.23036245E+03</pdfrwt>
<totfact> 0.54867036E+04</totfact>
</mgrwt>
</event>
<event>
 4    1  0.4391134E+000  0.1946329E+03  0.7546771E-02  0.1154348E+00
         21   -1    0    0  501  502  0.00000000000E+00  0.00000000000E+00  0.25057096541E+02  0.25057096541E+02  0.00000000000E+00 0. -1.
         21   -1    0    0  502  503 -0.00000000000E+00 -0.00000000000E+00 -0.28989008849E+04  0.28989008849E+04  0.00000000000E+00 0. -1.
          6    1    1    2  501    0  0.53813370965E+02 -0.71113196563E+02 -0.42563488137E+03  0.46802459109E+03  0.17300000000E+03 0. -1.
         -6    1    1    2    0  503 -0.53813370965E+02  0.71113196563E+02 -0.24482089070E+04  0.24559333904E+04  0.17300000000E+03 0. -1.
<mgrwt>
<rscale>  2 0.19463290E+03</rscale>
<asrwt>0</asrwt>
<pdfrwt beam="1">  1       21 0.38549369E-02 0.19463290E+03</pdfrwt>
<pdfrwt beam="2">  1       21 0.44598487E+00 0.19463290E+03</pdfrwt>
<totfact> 0.18380389E+03</totfact>
</mgrwt>
</event>
<event>
 4    1  0.4391134E+000  0.1966567E+03  0.7546771E-02  0.1152591E+00
         21   -1    0    0  501  502  0.00000000000E+00  0.00000000000E+00  0.14644691721E+04  0.14644691721E+04  0.00000000000E+00 0. -1.
         21   -1    0    0  502  503 -0.00000000000E+00 -0.00000000000E+00 -0.47449981333E+02  0.47449981333E+02  0.00000000000E+00 0.  1.
          6    1    1    2  501    0 -0.66305816170E+02 -0.65942284949E+02  0.12119207666E+04  0.12277726951E+04  0.17300000000E+03 0. -1.
         -6    1    1    2    0  503  0.66305816170E+02  0.65942284949E+02  0.20509842409E+03  0.28414645831E+03  0.17300000000E+03 0.  1.
<mgrwt>
<rscale>  2 0.19665667E+03</rscale>
<asrwt>0</asrwt>
<pdfrwt beam="1">  1       21 0.22530291E+00 0.19665667E+03</pdfrwt>
<pdfrwt beam="2">  1       21 0.72999983E-02 0.19665667E+03</pdfrwt>
<totfact> 0.13089883E+04</totfact>
</mgrwt>
</event>
<event>
 4    1  0.4391134E+000  0.2383642E+03  0.7546771E-02  0.1120887E+00
         21   -1    0    0  501  502  0.00000000000E+00  0.00000000000E+00  0.28298284277E+03  0.28298284277E+03  0.00000000000E+00 0. -1.
         21   -1    0    0  502  503 -0.00000000000E+00 -0.00000000000E+00 -0.62110002882E+03  0.62110002882E+03  0.00000000000E+00 0.  1.
          6    1    1    2  501    0  0.12687180256E+03 -0.10388468916E+03  0.20280800509E+03  0.31296736229E+03  0.17300000000E+03 0. -1.
         -6    1    1    2    0  503 -0.12687180256E+03  0.10388468916E+03 -0.54092519114E+03  0.59111550930E+03  0.17300000000E+03 0.  1.
<mgrwt>
<rscale>  2 0.23836418E+03</rscale>
<asrwt>0</asrwt>
<pdfrwt beam="1">  1       21 0.43535823E-01 0.23836418E+03</pdfrwt>
<pdfrwt beam="2">  1       21 0.95553849E-01 0.23836418E+03</pdfrwt>
<totfact> 0.44791095E+03</totfact>
</mgrwt>
</event>
<event>
 4    1  0.4391134E+000  0.1985684E+03  0.7546771E-02  0.1150952E+00
         21   -1    0    0  503  502  0.00000000000E+00  0.00000000000E+00  0.13387213819E+03  0.13387213819E+03  0.00000000000E+00 0. -1.
         21   -1    0    0  501  503 -0.00000000000E+00 -0.00000000000E+00 -0.37732122655E+03  0.37732122655E+03  0.00000000000E+00 0.  1.
          6    1    1    2  501    0  0.95353355369E+02 -0.20202701291E+02 -0.24145117449E+03  0.31261490876E+03  0.17300000000E+03 0. -1.
         -6    1    1    2    0  502 -0.95353355369E+02  0.20202701291E+02 -0.19979138689E+01  0.19857845598E+03  0.17300000000E+03 0.  1.
<mgrwt>
<rscale>  2 0.19856841E+03</rscale>
<asrwt>0</asrwt>
<pdfrwt beam="1">  1       21 0.20595714E-01 0.19856841E+03</pdfrwt>
<pdfrwt beam="2">  1       21 0.58049419E-01 0.19856841E+03</pdfrwt>
<totfact> 0.60602463E+04</totfact>
</mgrwt>
</event>
<event>
 4    1  0.4391134E+000  0.2212776E+03  0.7546771E-02  0.1132934E+00
         21   -1    0    0  501  502  0.00000000000E+00  0.00000000000E+00  0.79255952726E+03  0.79255952726E+03  0.00000000000E+00 0. -1.
         21   -1    0    0  502  503 -0.00000000000E+00 -0.00000000000E+00 -0.71372834061E+02  0.71372834061E+02  0.00000000000E+00 0. -1.
          6    1    1    2  501    0 -0.34103166665E+02 -0.13368518763E+03  0.51896340772E+03  0.56416910046E+03  0.17300000000E+03 0. -1.
         -6    1    1    2    0  503  0.34103166665E+02  0.13368518763E+03  0.20222328548E+03  0.29976326086E+03  0.17300000000E+03 0. -1.
<mgrwt>
<rscale>  2 0.22127755E+03</rscale>
<asrwt>0</asrwt>
<pdfrwt beam="1">  1       21 0.12193223E+00 0.22127755E+03</pdfrwt>
<pdfrwt beam="2">  1       21 0.10980437E-01 0.22127755E+03</pdfrwt>
<totfact> 0.34340885E+04</totfact>
</mgrwt>
</event>
<event>
 4    1  0.4391134E+000  0.1828324E+03  0.7546771E-02  0.1165090E+00
         21   -1    0    0  501  502  0.00000000000E+00  0.00000000000E+00  0.15982340066E+03  0.15982340066E+03  0.00000000000E+00 0. -1.
         21   -1    0    0  502  503 -0.00000000000E+00 -0.00000000000E+00 -0.48197406875E+03  0.48197406875E+03  0.00000000000E+00 0.  1.
          6    1    1    2  501    0 -0.31377853139E+02 -0.50140796647E+02  0.80356479424E+02  0.19971187481E+03  0.17300000000E+03 0. -1.
         -6    1    1    2    0  503  0.31377853139E+02  0.50140796647E+02 -0.40250714751E+03  0.44208559460E+03  0.17300000000E+03 0.  1.
<mgrwt>
<rscale>  2 0.18283235E+03</rscale>
<asrwt>0</asrwt>
<pdfrwt beam="1">  1       21 0.24588215E-01 0.18283235E+03</pdfrwt>
<pdfrwt beam="2">  1       21 0.74149857E-01 0.18283235E+03</pdfrwt>
<totfact> 0.25639715E+04</totfact>
</mgrwt>
</event>
<event>
 4    1  0.4391134E+000  0.1822973E+03  0.7546771E-02  0.1165598E+00
         21   -1    0    0  501  502  0.00000000000E+00  0.00000000000E+00  0.13555495550E+04  0.13555495550E+04  0.00000000000E+00 0.  1.
         21   -1    0    0  502  503 -0.00000000000E+00 -0.00000000000E+00 -0.12878996416E+03  0.12878996416E+03  0.00000000000E+00 0.  1.
          6    1    1    2  501    0 -0.35603222847E+02 -0.45118730170E+02  0.12811864527E+04  0.12940908067E+04  0.17300000000E+03 0.  1.
         -6    1    1    2    0  503  0.35603222847E+02  0.45118730170E+02 -0.54426861918E+02  0.19024871245E+03  0.17300000000E+03 0.  1.
<mgrwt>
<rscale>  2 0.18229726E+03</rscale>
<asrwt>0</asrwt>
<pdfrwt beam="1">  1       21 0.20854608E+00 0.18229726E+03</pdfrwt>
<pdfrwt beam="2">  1       21 0.19813842E-01 0.18229726E+03</pdfrwt>
<totfact> 0.28136753E+03</totfact>
</mgrwt>
</event>
<event>
 4    1  0.4391134E+000  0.1968043E+03  0.7546771E-02  0.1152464E+00
         21   -1    0    0  503  502  0.00000000000E+00  0.00000000000E+00  0.72250717829E+02  0.72250717829E+02  0.00000000000E+00 0. -1.
         21   -1    0    0  501  503 -0.00000000000E+00 -0.00000000000E+00 -0.59397980831E+03  0.59397980831E+03  0.00000000000E+00 0.  1.
          6    1    1    2  501    0  0.30597065340E+02  0.88694710506E+02 -0.36487077050E+03  0.41456315713E+03  0.17300000000E+03 0. -1.
         -6    1    1    2    0  502 -0.30597065340E+02 -0.88694710506E+02 -0.15685831998E+03  0.25166736901E+03  0.17300000000E+03 0. -1.
<mgrwt>
<rscale>  2 0.19680430E+03</rscale>
<asrwt>0</asrwt>
<pdfrwt beam="1">  1       21 0.11115495E-01 0.19680430E+03</pdfrwt>
<pdfrwt beam="2">  1       21 0.91381511E-01 0.19680430E+03</pdfrwt>
<totfact> 0.68090475E+04</totfact>
</mgrwt>
</event>
<event>
 4    1  0.4391134E+000  0.2231073E+03  0.7546771E-02  0.1131587E+00
         21   -1    0    0  503  502  0.00000000000E+00  0.00000000000E+00  0.42565479937E+03  0.42565479937E+03  0.00000000000E+00 0.  1.
         21   -1    0    0  501  503 -0.00000000000E+00 -0.00000000000E+00 -0.18711758814E+03  0.18711758814E+03  0.00000000000E+00 0.  1.
          6    1    1    2  501    0  0.61028262983E+02  0.12697808411E+03 -0.68362662262E+02  0.23334595844E+03  0.17300000000E+03 0.  1.
         -6    1    1    2    0  502 -0.61028262983E+02 -0.12697808411E+03  0.30689987349E+03  0.37942642907E+03  0.17300000000E+03 0.  1.
<mgrwt>
<rscale>  2 0.22310733E+03</rscale>
<asrwt>0</asrwt>
<pdfrwt beam="1">  1       21 0.65485354E-01 0.22310733E+03</pdfrwt>
<pdfrwt beam="2">  1       21 0.28787321E-01 0.22310733E+03</pdfrwt>
<totfact> 0.24343280E+04</totfact>
</mgrwt>
</event>
<event>
 4    1  0.4391134E+000  0.2076251E+03  0.7546771E-02  0.1143461E+00
         21   -1    0    0  503  502  0.00000000000E+00  0.00000000000E+00  0.43440650424E+03  0.43440650424E+03  0.00000000000E+00 0. -1.
         21   -1    0    0  501  503 -0.00000000000E+00 -0.00000000000E+00 -0.10173859039E+03  0.10173859039E+03  0.00000000000E+00 0. -1.
          6    1    1    2  501    0  0.10466928291E+03 -0.47154156393E+02  0.20838940896E+03  0.29416716169E+03  0.17300000000E+03 0. -1.
         -6    1    1    2    0  502 -0.10466928291E+03  0.47154156393E+02  0.12427850489E+03  0.24197793294E+03  0.17300000000E+03 0. -1.
<mgrwt>
<rscale>  2 0.20762508E+03</rscale>
<asrwt>0</asrwt>
<pdfrwt beam="1">  1       21 0.66831769E-01 0.20762508E+03</pdfrwt>
<pdfrwt beam="2">  1       21 0.15652091E-01 0.20762508E+03</pdfrwt>
<totfact> 0.73964078E+04</totfact>
</mgrwt>
</event>
<event>
 4    1  0.4391134E+000  0.2635311E+03  0.7546771E-02  0.1105040E+00
         21   -1    0    0  503  502  0.00000000000E+00  0.00000000000E+00  0.41846493406E+03  0.41846493406E+03  0.00000000000E+00 0.  1.
         21   -1    0    0  501  503 -0.00000000000E+00 -0.00000000000E+00 -0.18892421571E+03  0.18892421571E+03  0.00000000000E+00 0. -1.
          6    1    1    2  501    0 -0.15876195155E+02  0.19816050341E+03  0.88902087979E+01  0.26368100898E+03  0.17300000000E+03 0. -1.
         -6    1    1    2    0  502  0.15876195155E+02 -0.19816050341E+03  0.22065050955E+03  0.34370814079E+03  0.17300000000E+03 0.  1.
<mgrwt>
<rscale>  2 0.26353110E+03</rscale>
<asrwt>0</asrwt>
<pdfrwt beam="1">  1       21 0.64379220E-01 0.26353110E+03</pdfrwt>
<pdfrwt beam="2">  1       21 0.29065264E-01 0.26353110E+03</pdfrwt>
<totfact> 0.24323545E+04</totfact>
</mgrwt>
</event>
<event>
 4    1  0.4391134E+000  0.1808715E+03  0.7546771E-02  0.1166962E+00
         21   -1    0    0  503  502  0.00000000000E+00  0.00000000000E+00  0.21850903225E+03  0.21850903225E+03  0.00000000000E+00 0.  1.
         21   -1    0    0  501  503 -0.00000000000E+00 -0.00000000000E+00 -0.15599141624E+03  0.15599141624E+03  0.00000000000E+00 0.  1.
          6    1    1    2  501    0 -0.30498807823E+02  0.43073285203E+02 -0.62958373176E+01  0.18098100106E+03  0.17300000000E+03 0.  1.
         -6    1    1    2    0  502  0.30498807823E+02 -0.43073285203E+02  0.68813453327E+02  0.19351944743E+03  0.17300000000E+03 0.  1.
<mgrwt>
<rscale>  2 0.18087146E+03</rscale>
<asrwt>0</asrwt>
<pdfrwt beam="1">  1       21 0.33616774E-01 0.18087146E+03</pdfrwt>
<pdfrwt beam="2">  1       21 0.23998680E-01 0.18087146E+03</pdfrwt>
<totfact> 0.14010130E+05</totfact>
</mgrwt>
</event>
<event>
 4    1  0.4391134E+000  0.2958352E+03  0.7546771E-02  0.1087341E+00
         21   -1    0    0  501  502  0.00000000000E+00  0.00000000000E+00  0.12631130179E+04  0.12631130179E+04  0.00000000000E+00 0. -1.
         21   -1    0    0  502  503 -0.00000000000E+00 -0.00000000000E+00 -0.91337626298E+02  0.91337626298E+02  0.00000000000E+00 0. -1.
          6    1    1    2  501    0 -0.16243290980E+03 -0.17664944467E+03  0.91863129586E+03  0.96509167141E+03  0.17300000000E+03 0. -1.
         -6    1    1    2    0  503  0.16243290980E+03  0.17664944467E+03  0.25314409576E+03  0.38935897281E+03  0.17300000000E+03 0. -1.
<mgrwt>
<rscale>  2 0.29583522E+03</rscale>
<asrwt>0</asrwt>
<pdfrwt beam="1">  1       21 0.19432507E+00 0.29583522E+03</pdfrwt>
<pdfrwt beam="2">  1       21 0.14051943E-01 0.29583522E+03</pdfrwt>
<totfact> 0.59864945E+03</totfact>
</mgrwt>
</event>
<event>
 4    1  0.4391134E+000  0.2060916E+03  0.7546771E-02  0.1144699E+00
         21   -1    0    0  501  502  0.00000000000E+00  0.00000000000E+00  0.58130359964E+02  0.58130359964E+02  0.00000000000E+00 0. -1.
         21   -1    0    0  502  503 -0.00000000000E+00 -0.00000000000E+00 -0.10401403721E+04  0.10401403721E+04  0.00000000000E+00 0. -1.
          6    1    1    2  501    0 -0.11099791275E+03 -0.14973022172E+02 -0.19146999757E+03  0.28130852812E+03  0.17300000000E+03 0. -1.
         -6    1    1    2    0  503  0.11099791275E+03  0.14973022172E+02 -0.79054001454E+03  0.81696220391E+03  0.17300000000E+03 0. -1.
<mgrwt>
<rscale>  2 0.20609155E+03</rscale>
<asrwt>0</asrwt>
<pdfrwt beam="1">  1       21 0.89431319E-02 0.20609155E+03</pdfrwt>
<pdfrwt beam="2">  1       21 0.16002160E+00 0.20609155E+03</pdfrwt>
<totfact> 0.24632287E+04</totfact>
</mgrwt>
</event>
<event>
 4    1  0.4391134E+000  0.1751348E+03  0.7546771E-02  0.1172596E+00
         21   -1    0    0  501  502  0.00000000000E+00  0.00000000000E+00  0.22884257762E+03  0.22884257762E+03  0.00000000000E+00 0. -1.
         21   -1    0    0  502  503 -0.00000000000E+00 -0.00000000000E+00 -0.29450373391E+03  0.29450373391E+03  0.00000000000E+00 0. -1.
          6    1    1    2  501    0 -0.57733455836E+01  0.26643537779E+02  0.16032762321E+03  0.23743874239E+03  0.17300000000E+03 0. -1.
         -6    1    1    2    0  503  0.57733455836E+01 -0.26643537779E+02 -0.22598877951E+03  0.28590756914E+03  0.17300000000E+03 0. -1.
<mgrwt>
<rscale>  2 0.17513483E+03</rscale>
<asrwt>0</asrwt>
<pdfrwt beam="1">  1       21 0.35206550E-01 0.17513483E+03</pdfrwt>
<pdfrwt beam="2">  1       21 0.45308267E-01 0.17513483E+03</pdfrwt>
<totfact> 0.36675042E+04</totfact>
</mgrwt>
</event>
<event>
 4    1  0.4391134E+000  0.2056310E+03  0.7546771E-02  0.1145073E+00
         21   -1    0    0  503  502  0.00000000000E+00  0.00000000000E+00  0.40149594974E+03  0.40149594974E+03  0.00000000000E+00 0. -1.
         21   -1    0    0  501  503 -0.00000000000E+00 -0.00000000000E+00 -0.18659912282E+03  0.18659912282E+03  0.00000000000E+00 0. -1.
          6    1    1    2  501    0 -0.99411103041E+02 -0.49724725427E+02 -0.86623110643E+02  0.22313152853E+03  0.17300000000E+03 0. -1.
         -6    1    1    2    0  502  0.99411103041E+02  0.49724725427E+02  0.30151993756E+03  0.36496354403E+03  0.17300000000E+03 0. -1.
<mgrwt>
<rscale>  2 0.20563102E+03</rscale>
<asrwt>0</asrwt>
<pdfrwt beam="1">  1       21 0.61768607E-01 0.20563102E+03</pdfrwt>
<pdfrwt beam="2">  1       21 0.28707558E-01 0.20563102E+03</pdfrwt>
<totfact> 0.28052609E+04</totfact>
</mgrwt>
</event>
<event>
 4    1  0.4391134E+000  0.1805997E+03  0.7546771E-02  0.1167224E+00
         21   -1    0    0  503  502  0.00000000000E+00  0.00000000000E+00  0.34753699388E+02  0.34753699388E+02  0.00000000000E+00 0.  1.
         21   -1    0    0  501  503 -0.00000000000E+00 -0.00000000000E+00 -0.96292454671E+03  0.96292454671E+03  0.00000000000E+00 0.  1.
          6    1    1    2  501    0  0.51718969473E+02 -0.35188428109E+01 -0.54353772717E+03  0.57275605184E+03  0.17300000000E+03 0. -1.
         -6    1    1    2    0  502 -0.51718969473E+02  0.35188428109E+01 -0.38463312015E+03  0.42492219426E+03  0.17300000000E+03 0. -1.
<mgrwt>
<rscale>  2 0.18059965E+03</rscale>
<asrwt>0</asrwt>
<pdfrwt beam="1">  1       21 0.53467220E-02 0.18059965E+03</pdfrwt>
<pdfrwt beam="2">  1       21 0.14814227E+00 0.18059965E+03</pdfrwt>
<totfact> 0.74593475E+04</totfact>
</mgrwt>
</event>
<event>
 4    1  0.4391134E+000  0.1761044E+03  0.7546771E-02  0.1171627E+00
         21   -1    0    0  503  502  0.00000000000E+00  0.00000000000E+00  0.13056446646E+02  0.13056446646E+02  0.00000000000E+00 0. -1.
         21   -1    0    0  501  503 -0.00000000000E+00 -0.00000000000E+00 -0.23848399720E+04  0.23848399720E+04  0.00000000000E+00 0. -1.
          6    1    1    2  501    0 -0.21115180006E+02 -0.25256596289E+02 -0.11099908319E+04  0.11238738334E+04  0.17300000000E+03 0. -1.
         -6    1    1    2    0  502  0.21115180006E+02  0.25256596289E+02 -0.12617926934E+04  0.12740225852E+04  0.17300000000E+03 0. -1.
<mgrwt>
<rscale>  2 0.17610436E+03</rscale>
<asrwt>0</asrwt>
<pdfrwt beam="1">  1       21 0.20086837E-02 0.17610436E+03</pdfrwt>
<pdfrwt beam="2">  1       21 0.36689853E+00 0.17610436E+03</pdfrwt>
<totfact> 0.17304295E+04</totfact>
</mgrwt>
</event>
<event>
 4    1  0.4391134E+000  0.2168867E+03  0.7546771E-02  0.1136226E+00
         21   -1    0    0  501  502  0.00000000000E+00  0.00000000000E+00  0.45190900032E+03  0.45190900032E+03  0.00000000000E+00 0. -1.
         21   -1    0    0  502  503 -0.00000000000E+00 -0.00000000000E+00 -0.10748604450E+03  0.10748604450E+03  0.00000000000E+00 0.  1.
          6    1    1    2  501    0 -0.96622639333E+02 -0.88175376081E+02  0.22191773047E+03  0.31030196660E+03  0.17300000000E+03 0. -1.
         -6    1    1    2    0  503  0.96622639333E+02  0.88175376081E+02  0.12250522535E+03  0.24909307822E+03  0.17300000000E+03 0. -1.
<mgrwt>
<rscale>  2 0.21688668E+03</rscale>
<asrwt>0</asrwt>
<pdfrwt beam="1">  1       21 0.69524461E-01 0.21688668E+03</pdfrwt>
<pdfrwt beam="2">  1       21 0.16536315E-01 0.21688668E+03</pdfrwt>
<totfact> 0.61053949E+04</totfact>
</mgrwt>
</event>
<event>
 4    1  0.4391134E+000  0.3275525E+03  0.7546771E-02  0.1072225E+00
         21   -1    0    0  501  502  0.00000000000E+00  0.00000000000E+00  0.14671688859E+03  0.14671688859E+03  0.00000000000E+00 0. -1.
         21   -1    0    0  502  503 -0.00000000000E+00 -0.00000000000E+00 -0.77769637017E+03  0.77769637017E+03  0.00000000000E+00 0. -1.
          6    1    1    2  501    0  0.24404499410E+03  0.13343046405E+03 -0.20256685303E+03  0.38512852119E+03  0.17300000000E+03 0. -1.
         -6    1    1    2    0  503 -0.24404499410E+03 -0.13343046405E+03 -0.42841262855E+03  0.53928473758E+03  0.17300000000E+03 0. -1.
<mgrwt>
<rscale>  2 0.32755251E+03</rscale>
<asrwt>0</asrwt>
<pdfrwt beam="1">  1       21 0.22571829E-01 0.32755251E+03</pdfrwt>
<pdfrwt beam="2">  1       21 0.11964559E+00 0.32755251E+03</pdfrwt>
<totfact> 0.90608015E+03</totfact>
</mgrwt>
</event>
<event>
 4    1  0.4391134E+000  0.4797902E+03  0.7546771E-02  0.1019193E+00
         21   -1    0    0  503  502  0.00000000000E+00  0.00000000000E+00  0.19104762896E+03  0.19104762896E+03  0.00000000000E+00 0. -1.
         21   -1    0    0  501  503 -0.00000000000E+00 -0.00000000000E+00 -0.12387272564E+04  0.12387272564E+04  0.00000000000E+00 0. -1.
          6    1    1    2  501    0 -0.14640694279E+03  0.42288841812E+03 -0.64192744644E+03  0.80141715328E+03  0.17300000000E+03 0. -1.
         -6    1    1    2    0  502  0.14640694279E+03 -0.42288841812E+03 -0.40575218097E+03  0.62835773206E+03  0.17300000000E+03 0. -1.
<mgrwt>
<rscale>  2 0.47979017E+03</rscale>
<asrwt>0</asrwt>
<pdfrwt beam="1">  1       21 0.29391944E-01 0.47979017E+03</pdfrwt>
<pdfrwt beam="2">  1       21 0.19057342E+00 0.47979017E+03</pdfrwt>
<totfact> 0.14266448E+03</totfact>
</mgrwt>
</event>
<event>
 4    1  0.4391134E+000  0.2175435E+03  0.7546771E-02  0.1135728E+00
         21   -1    0    0  503  502  0.00000000000E+00  0.00000000000E+00  0.44461653529E+03  0.44461653529E+03  0.00000000000E+00 0. -1.
         21   -1    0    0  501  503 -0.00000000000E+00 -0.00000000000E+00 -0.21039539659E+03  0.21039539659E+03  0.00000000000E+00 0.  1.
          6    1    1    2  501    0  0.13115822339E+03 -0.13917919602E+02 -0.11309915255E+03  0.24518688047E+03  0.17300000000E+03 0.  1.
         -6    1    1    2    0  502 -0.13115822339E+03  0.13917919602E+02  0.34732029125E+03  0.40982505141E+03  0.17300000000E+03 0. -1.
<mgrwt>
<rscale>  2 0.21754353E+03</rscale>
<asrwt>0</asrwt>
<pdfrwt beam="1">  1       21 0.68402544E-01 0.21754353E+03</pdfrwt>
<pdfrwt beam="2">  1       21 0.32368523E-01 0.21754353E+03</pdfrwt>
<totfact> 0.17635429E+04</totfact>
</mgrwt>
</event>
<event>
 4    1  0.4391134E+000  0.1993710E+03  0.7546771E-02  0.1150271E+00
         21   -1    0    0  503  502  0.00000000000E+00  0.00000000000E+00  0.19102765260E+03  0.19102765260E+03  0.00000000000E+00 0.  1.
         21   -1    0    0  501  503 -0.00000000000E+00 -0.00000000000E+00 -0.41995245889E+03  0.41995245889E+03  0.00000000000E+00 0.  1.
          6    1    1    2  501    0  0.49342696429E+02  0.85936523103E+02 -0.33145033881E+03  0.38679208212E+03  0.17300000000E+03 0.  1.
         -6    1    1    2    0  502 -0.49342696429E+02 -0.85936523103E+02  0.10252553252E+03  0.22418802937E+03  0.17300000000E+03 0.  1.
<mgrwt>
<rscale>  2 0.19937098E+03</rscale>
<asrwt>0</asrwt>
<pdfrwt beam="1">  1       21 0.29388870E-01 0.19937098E+03</pdfrwt>
<pdfrwt beam="2">  1       21 0.64608070E-01 0.19937098E+03</pdfrwt>
<totfact> 0.24399388E+04</totfact>
</mgrwt>
</event>
<event>
 4    1  0.4391134E+000  0.2094112E+03  0.7546771E-02  0.1142033E+00
         21   -1    0    0  501  502  0.00000000000E+00  0.00000000000E+00  0.13945906577E+03  0.13945906577E+03  0.00000000000E+00 0. -1.
         21   -1    0    0  502  503 -0.00000000000E+00 -0.00000000000E+00 -0.35188962369E+03  0.35188962369E+03  0.00000000000E+00 0. -1.
          6    1    1    2  501    0 -0.97923530631E+02  0.65840991706E+02 -0.26081422933E+02  0.21102913226E+03  0.17300000000E+03 0. -1.
         -6    1    1    2    0  503  0.97923530631E+02 -0.65840991706E+02 -0.18634913498E+03  0.28031955720E+03  0.17300000000E+03 0. -1.
<mgrwt>
<rscale>  2 0.20941121E+03</rscale>
<asrwt>0</asrwt>
<pdfrwt beam="1">  1       21 0.21455241E-01 0.20941121E+03</pdfrwt>
<pdfrwt beam="2">  1       21 0.54136865E-01 0.20941121E+03</pdfrwt>
<totfact> 0.64770052E+04</totfact>
</mgrwt>
</event>
<event>
 4    1  0.4391134E+000  0.1880735E+03  0.7546771E-02  0.1160210E+00
         21   -1    0    0  503  502  0.00000000000E+00  0.00000000000E+00  0.15808716602E+03  0.15808716602E+03  0.00000000000E+00 0. -1.
         21   -1    0    0  501  503 -0.00000000000E+00 -0.00000000000E+00 -0.39089649314E+03  0.39089649314E+03  0.00000000000E+00 0. -1.
          6    1    1    2  501    0 -0.37160255137E+01  0.73680543241E+02 -0.29589878399E+03  0.35061049851E+03  0.17300000000E+03 0. -1.
         -6    1    1    2    0  502  0.37160255137E+01 -0.73680543241E+02  0.63089456867E+02  0.19837316065E+03  0.17300000000E+03 0. -1.
<mgrwt>
<rscale>  2 0.18807347E+03</rscale>
<asrwt>0</asrwt>
<pdfrwt beam="1">  1       21 0.24321103E-01 0.18807347E+03</pdfrwt>
<pdfrwt beam="2">  1       21 0.60137922E-01 0.18807347E+03</pdfrwt>
<totfact> 0.41253899E+04</totfact>
</mgrwt>
</event>
<event>
 4    1  0.4391134E+000  0.2095449E+03  0.7546771E-02  0.1141927E+00
         21   -1    0    0  503  502  0.00000000000E+00  0.00000000000E+00  0.57764138719E+03  0.57764138719E+03  0.00000000000E+00 0. -1.
         21   -1    0    0  501  503 -0.00000000000E+00 -0.00000000000E+00 -0.12415872493E+03  0.12415872493E+03  0.00000000000E+00 0.  1.
          6    1    1    2  501    0  0.11823560011E+03  0.62611261984E+00  0.82332625916E+01  0.20970654678E+03  0.17300000000E+03 0.  1.
         -6    1    1    2    0  502 -0.11823560011E+03 -0.62611261984E+00  0.44524939966E+03  0.49209356534E+03  0.17300000000E+03 0. -1.
<mgrwt>
<rscale>  2 0.20954486E+03</rscale>
<asrwt>0</asrwt>
<pdfrwt beam="1">  1       21 0.88867905E-01 0.20954486E+03</pdfrwt>
<pdfrwt beam="2">  1       21 0.19101343E-01 0.20954486E+03</pdfrwt>
<totfact> 0.26943050E+04</totfact>
</mgrwt>
</event>
<event>
 4    1  0.4391134E+000  0.1949964E+03  0.7546771E-02  0.1154031E+00
         21   -1    0    0  501  502  0.00000000000E+00  0.00000000000E+00  0.46596632272E+03  0.46596632272E+03  0.00000000000E+00 0.  1.
         21   -1    0    0  502  503 -0.00000000000E+00 -0.00000000000E+00 -0.97369021929E+02  0.97369021929E+02  0.00000000000E+00 0. -1.
          6    1    1    2  501    0  0.30414789446E+02 -0.84673079489E+02  0.29764490462E+03  0.35583153184E+03  0.17300000000E+03 0.  1.
         -6    1    1    2    0  503 -0.30414789446E+02  0.84673079489E+02  0.70952396172E+02  0.20750381281E+03  0.17300000000E+03 0.  1.
<mgrwt>
<rscale>  2 0.19499638E+03</rscale>
<asrwt>0</asrwt>
<pdfrwt beam="1">  1       21 0.71687126E-01 0.19499638E+03</pdfrwt>
<pdfrwt beam="2">  1       21 0.14979850E-01 0.19499638E+03</pdfrwt>
<totfact> 0.69058439E+04</totfact>
</mgrwt>
</event>
<event>
 4    1  0.4391134E+000  0.1828228E+03  0.7546771E-02  0.1165099E+00
         21   -1    0    0  503  502  0.00000000000E+00  0.00000000000E+00  0.25243330008E+03  0.25243330008E+03  0.00000000000E+00 0. -1.
         21   -1    0    0  501  503 -0.00000000000E+00 -0.00000000000E+00 -0.13630016532E+03  0.13630016532E+03  0.00000000000E+00 0. -1.
          6    1    1    2  501    0 -0.40481602080E+01 -0.58981197611E+02  0.90911895829E+02  0.20417919109E+03  0.17300000000E+03 0. -1.
         -6    1    1    2    0  502  0.40481602080E+01  0.58981197611E+02  0.25221238929E+02  0.18455427431E+03  0.17300000000E+03 0. -1.
<mgrwt>
<rscale>  2 0.18282278E+03</rscale>
<asrwt>0</asrwt>
<pdfrwt beam="1">  1       21 0.38835892E-01 0.18282278E+03</pdfrwt>
<pdfrwt beam="2">  1       21 0.20969256E-01 0.18282278E+03</pdfrwt>
<totfact> 0.13550389E+05</totfact>
</mgrwt>
</event>
<event>
 4    1  0.4391134E+000  0.1912344E+03  0.7546771E-02  0.1157353E+00
         21   -1    0    0  503  502  0.00000000000E+00  0.00000000000E+00  0.10213831583E+03  0.10213831583E+03  0.00000000000E+00 0. -1.
         21   -1    0    0  501  503 -0.00000000000E+00 -0.00000000000E+00 -0.40846649742E+03  0.40846649742E+03  0.00000000000E+00 0. -1.
          6    1    1    2  501    0  0.81113078536E+02 -0.78895622238E+01 -0.24285842640E+03  0.30911291137E+03  0.17300000000E+03 0. -1.
         -6    1    1    2    0  502 -0.81113078536E+02  0.78895622238E+01 -0.63469755188E+02  0.20149190189E+03  0.17300000000E+03 0. -1.
<mgrwt>
<rscale>  2 0.19123435E+03</rscale>
<asrwt>0</asrwt>
<pdfrwt beam="1">  1       21 0.15713587E-01 0.19123435E+03</pdfrwt>
<pdfrwt beam="2">  1       21 0.62841001E-01 0.19123435E+03</pdfrwt>
<totfact> 0.84573965E+04</totfact>
</mgrwt>
</event>
<event>
 4    1  0.4391134E+000  0.2697760E+03  0.7546771E-02  0.1101408E+00
         21   -1    0    0  503  502  0.00000000000E+00  0.00000000000E+00  0.11262031048E+04  0.11262031048E+04  0.00000000000E+00 0. -1.
         21   -1    0    0  501  503 -0.00000000000E+00 -0.00000000000E+00 -0.82486723405E+02  0.82486723405E+02  0.00000000000E+00 0. -1.
          6    1    1    2  501    0  0.16518071986E+03  0.12476134628E+03  0.24062013711E+03  0.36149289636E+03  0.17300000000E+03 0. -1.
         -6    1    1    2    0  502 -0.16518071986E+03 -0.12476134628E+03  0.80309624427E+03  0.84719693183E+03  0.17300000000E+03 0. -1.
<mgrwt>
<rscale>  2 0.26977595E+03</rscale>
<asrwt>0</asrwt>
<pdfrwt beam="1">  1       21 0.17326200E+00 0.26977595E+03</pdfrwt>
<pdfrwt beam="2">  1       21 0.12690266E-01 0.26977595E+03</pdfrwt>
<totfact> 0.10196147E+04</totfact>
</mgrwt>
</event>
<event>
 4    1  0.4391134E+000  0.2128613E+03  0.7546771E-02  0.1139320E+00
         21   -1    0    0  503  502  0.00000000000E+00  0.00000000000E+00  0.15940387238E+04  0.15940387238E+04  0.00000000000E+00 0.  1.
         21   -1    0    0  501  503 -0.00000000000E+00 -0.00000000000E+00 -0.10904848903E+03  0.10904848903E+03  0.00000000000E+00 0.  1.
          6    1    1    2  501    0 -0.12206280121E+03  0.21945267770E+02  0.10296469512E+02  0.21311015814E+03  0.17300000000E+03 0.  1.
         -6    1    1    2    0  502  0.12206280121E+03 -0.21945267770E+02  0.14746937652E+04  0.14899770547E+04  0.17300000000E+03 0.  1.
<mgrwt>
<rscale>  2 0.21286127E+03</rscale>
<asrwt>0</asrwt>
<pdfrwt beam="1">  1       21 0.24523671E+00 0.21286127E+03</pdfrwt>
<pdfrwt beam="2">  1       21 0.16776692E-01 0.21286127E+03</pdfrwt>
<totfact> 0.22182876E+03</totfact>
</mgrwt>
</event>
<event>
 4    1  0.4391134E+000  0.2562687E+03  0.7546771E-02  0.1109406E+00
         21   -1    0    0  501  502  0.00000000000E+00  0.00000000000E+00  0.12030346263E+04  0.12030346263E+04  0.00000000000E+00 0.  1.
         21   -1    0    0  502  503 -0.00000000000E+00 -0.00000000000E+00 -0.59499756952E+02  0.59499756952E+02  0.00000000000E+00 0. -1.
          6    1    1    2  501    0  0.17918598938E+03 -0.60307683494E+02  0.39043039134E+03  0.46702197589E+03  0.17300000000E+03 0. -1.
         -6    1    1    2    0  503 -0.17918598938E+03  0.60307683494E+02  0.75310447804E+03  0.79551240740E+03  0.17300000000E+03 0.  1.
<mgrwt>
<rscale>  2 0.25626868E+03</rscale>
<asrwt>0</asrwt>
<pdfrwt beam="1">  1       21 0.18508223E+00 0.25626868E+03</pdfrwt>
<pdfrwt beam="2">  1       21 0.91538096E-02 0.25626868E+03</pdfrwt>
<totfact> 0.15269165E+04</totfact>
</mgrwt>
</event>
<event>
 4    1  0.4391134E+000  0.2217327E+03  0.7546771E-02  0.1132598E+00
         21   -1    0    0  503  502  0.00000000000E+00  0.00000000000E+00  0.49217673425E+02  0.49217673425E+02  0.00000000000E+00 0.  1.
         21   -1    0    0  501  503 -0.00000000000E+00 -0.00000000000E+00 -0.11113967372E+04  0.11113967372E+04  0.00000000000E+00 0. -1.
          6    1    1    2  501    0  0.90844006713E+02 -0.10480342116E+03 -0.71568478951E+03  0.74924636040E+03  0.17300000000E+03 0. -1.
         -6    1    1    2    0  502 -0.90844006713E+02  0.10480342116E+03 -0.34649427424E+03  0.41136805019E+03  0.17300000000E+03 0.  1.
<mgrwt>
<rscale>  2 0.22173270E+03</rscale>
<asrwt>0</asrwt>
<pdfrwt beam="1">  1       21 0.75719506E-02 0.22173270E+03</pdfrwt>
<pdfrwt beam="2">  1       21 0.17098409E+00 0.22173270E+03</pdfrwt>
<totfact> 0.27212356E+04</totfact>
</mgrwt>
</event>
<event>
 4    1  0.4391134E+000  0.2685551E+03  0.7546771E-02  0.1102109E+00
         21   -1    0    0  501  502  0.00000000000E+00  0.00000000000E+00  0.64449722330E+03  0.64449722330E+03  0.00000000000E+00 0. -1.
         21   -1    0    0  502  503 -0.00000000000E+00 -0.00000000000E+00 -0.14031899490E+03  0.14031899490E+03  0.00000000000E+00 0. -1.
          6    1    1    2  501    0  0.14409219015E+03 -0.14639077354E+03  0.75504229791E+02  0.27896721412E+03  0.17300000000E+03 0. -1.
         -6    1    1    2    0  503 -0.14409219015E+03  0.14639077354E+03  0.42867399862E+03  0.50584900408E+03  0.17300000000E+03 0. -1.
<mgrwt>
<rscale>  2 0.26855506E+03</rscale>
<asrwt>0</asrwt>
<pdfrwt beam="1">  1       21 0.99153417E-01 0.26855506E+03</pdfrwt>
<pdfrwt beam="2">  1       21 0.21587538E-01 0.26855506E+03</pdfrwt>
<totfact> 0.16053423E+04</totfact>
</mgrwt>
</event>
<event>
 4    1  0.4391134E+000  0.1947500E+03  0.7546771E-02  0.1154246E+00
         21   -1    0    0  501  502  0.00000000000E+00  0.00000000000E+00  0.61358766387E+02  0.61358766387E+02  0.00000000000E+00 0. -1.
         21   -1    0    0  502  503 -0.00000000000E+00 -0.00000000000E+00 -0.63329590996E+03  0.63329590996E+03  0.00000000000E+00 0. -1.
          6    1    1    2  501    0  0.76752628937E+02  0.45908625394E+02 -0.33972115508E+03  0.39158400267E+03  0.17300000000E+03 0. -1.
         -6    1    1    2    0  503 -0.76752628937E+02 -0.45908625394E+02 -0.23221598849E+03  0.30307067368E+03  0.17300000000E+03 0. -1.
<mgrwt>
<rscale>  2 0.19475001E+03</rscale>
<asrwt>0</asrwt>
<pdfrwt beam="1">  1       21 0.94398097E-02 0.19475001E+03</pdfrwt>
<pdfrwt beam="2">  1       21 0.97430145E-01 0.19475001E+03</pdfrwt>
<totfact> 0.78348375E+04</totfact>
</mgrwt>
</event>
<event>
 4    1  0.4391134E+000  0.2097581E+03  0.7546771E-02  0.1141758E+00
         21   -1    0    0  501  502  0.00000000000E+00  0.00000000000E+00  0.11750583476E+03  0.11750583476E+03  0.00000000000E+00 0.  1.
         21   -1    0    0  502  503 -0.00000000000E+00 -0.00000000000E+00 -0.62721957597E+03  0.62721957597E+03  0.00000000000E+00 0. -1.
          6    1    1    2  501    0  0.98373778741E+02  0.66272553125E+02 -0.18466091730E+02  0.21056934294E+03  0.17300000000E+03 0.  1.
         -6    1    1    2    0  503 -0.98373778741E+02 -0.66272553125E+02 -0.49124764948E+03  0.53415606779E+03  0.17300000000E+03 0. -1.
<mgrwt>
<rscale>  2 0.20975808E+03</rscale>
<asrwt>0</asrwt>
<pdfrwt beam="1">  1       21 0.18077820E-01 0.20975808E+03</pdfrwt>
<pdfrwt beam="2">  1       21 0.96495321E-01 0.20975808E+03</pdfrwt>
<totfact> 0.24624453E+04</totfact>
</mgrwt>
</event>
<event>
 4    1  0.4391134E+000  0.2404365E+03  0.7546771E-02  0.1119502E+00
         21   -1    0    0  501  502  0.00000000000E+00  0.00000000000E+00  0.34109991180E+02  0.34109991180E+02  0.00000000000E+00 0. -1.
         21   -1    0    0  502  503 -0.00000000000E+00 -0.00000000000E+00 -0.17091458378E+04  0.17091458378E+04  0.00000000000E+00 0. -1.
          6    1    1    2  501    0  0.76966768465E+02 -0.14817839419E+03 -0.75767120272E+03  0.79490588838E+03  0.17300000000E+03 0. -1.
         -6    1    1    2    0  503 -0.76966768465E+02  0.14817839419E+03 -0.91736464389E+03  0.94834994059E+03  0.17300000000E+03 0. -1.
<mgrwt>
<rscale>  2 0.24043652E+03</rscale>
<asrwt>0</asrwt>
<pdfrwt beam="1">  1       21 0.52476903E-02 0.24043652E+03</pdfrwt>
<pdfrwt beam="2">  1       21 0.26294555E+00 0.24043652E+03</pdfrwt>
<totfact> 0.13278399E+04</totfact>
</mgrwt>
</event>
<event>
 4    1  0.4391134E+000  0.2333218E+03  0.7546771E-02  0.1124323E+00
         21   -1    0    0  503  502  0.00000000000E+00  0.00000000000E+00  0.83347811714E+02  0.83347811714E+02  0.00000000000E+00 0.  1.
         21   -1    0    0  501  503 -0.00000000000E+00 -0.00000000000E+00 -0.65499109944E+03  0.65499109944E+03  0.00000000000E+00 0.  1.
          6    1    1    2  501    0  0.97787087266E+02 -0.12226091229E+03 -0.26627605069E+03  0.35403669341E+03  0.17300000000E+03 0.  1.
         -6    1    1    2    0  502 -0.97787087266E+02  0.12226091229E+03 -0.30536723703E+03  0.38430221774E+03  0.17300000000E+03 0.  1.
<mgrwt>
<rscale>  2 0.23332176E+03</rscale>
<asrwt>0</asrwt>
<pdfrwt beam="1">  1       21 0.12822740E-01 0.23332176E+03</pdfrwt>
<pdfrwt beam="2">  1       21 0.10076787E+00 0.23332176E+03</pdfrwt>
<totfact> 0.41145234E+04</totfact>
</mgrwt>
</event>
<event>
 4    1  0.4391134E+000  0.2154533E+03  0.7546771E-02  0.1137319E+00
         21   -1    0    0  503  502  0.00000000000E+00  0.00000000000E+00  0.33398292983E+02  0.33398292983E+02  0.00000000000E+00 0. -1.
         21   -1    0    0  501  503 -0.00000000000E+00 -0.00000000000E+00 -0.18761479365E+04  0.18761479365E+04  0.00000000000E+00 0. -1.
          6    1    1    2  501    0 -0.12826246534E+03 -0.63143723850E+01 -0.14074434751E+04  0.14238389189E+04  0.17300000000E+03 0. -1.
         -6    1    1    2    0  502  0.12826246534E+03  0.63143723850E+01 -0.43530616844E+03  0.48570731063E+03  0.17300000000E+03 0. -1.
<mgrwt>
<rscale>  2 0.21545332E+03</rscale>
<asrwt>0</asrwt>
<pdfrwt beam="1">  1       21 0.51381983E-02 0.21545332E+03</pdfrwt>
<pdfrwt beam="2">  1       21 0.28863818E+00 0.21545332E+03</pdfrwt>
<totfact> 0.99608571E+03</totfact>
</mgrwt>
</event>
<event>
 4    1  0.4391134E+000  0.5439366E+03  0.7546771E-02  0.1002907E+00
         21   -1    0    0  501  502  0.00000000000E+00  0.00000000000E+00  0.17564369919E+03  0.17564369919E+03  0.00000000000E+00 0. -1.
         21   -1    0    0  502  503 -0.00000000000E+00 -0.00000000000E+00 -0.18151752827E+04  0.18151752827E+04  0.00000000000E+00 0.  1.
          6    1    1    2  501    0 -0.51365943222E+03 -0.45738641079E+02 -0.55265933022E+03  0.77543495593E+03  0.17300000000E+03 0.  1.
         -6    1    1    2    0  503  0.51365943222E+03  0.45738641079E+02 -0.10868722533E+04  0.12153840260E+04  0.17300000000E+03 0. -1.
<mgrwt>
<rscale>  2 0.54393661E+03</rscale>
<asrwt>0</asrwt>
<pdfrwt beam="1">  1       21 0.27022107E-01 0.54393661E+03</pdfrwt>
<pdfrwt beam="2">  1       21 0.27925774E+00 0.54393661E+03</pdfrwt>
<totfact> 0.44857943E+02</totfact>
</mgrwt>
</event>
<event>
 4    1  0.4391134E+000  0.2019387E+03  0.7546771E-02  0.1148114E+00
         21   -1    0    0  501  502  0.00000000000E+00  0.00000000000E+00  0.31587879042E+03  0.31587879042E+03  0.00000000000E+00 0. -1.
         21   -1    0    0  502  503 -0.00000000000E+00 -0.00000000000E+00 -0.12999436716E+03  0.12999436716E+03  0.00000000000E+00 0.  1.
          6    1    1    2  501    0  0.36951591929E+02  0.97390042774E+02  0.11145718113E+03  0.23065546558E+03  0.17300000000E+03 0.  1.
         -6    1    1    2    0  503 -0.36951591929E+02 -0.97390042774E+02  0.74427242131E+02  0.21521769200E+03  0.17300000000E+03 0.  1.
<mgrwt>
<rscale>  2 0.20193871E+03</rscale>
<asrwt>0</asrwt>
<pdfrwt beam="1">  1       21 0.48596737E-01 0.20193871E+03</pdfrwt>
<pdfrwt beam="2">  1       21 0.19999133E-01 0.20193871E+03</pdfrwt>
<totfact> 0.92972949E+04</totfact>
</mgrwt>
</event>
<event>
 4    1  0.4391134E+000  0.2193132E+03  0.7546771E-02  0.1134396E+00
         21   -1    0    0  503  502  0.00000000000E+00  0.00000000000E+00  0.64283188538E+02  0.64283188538E+02  0.00000000000E+00 0.  1.
         21   -1    0    0  501  503 -0.00000000000E+00 -0.00000000000E+00 -0.86236644473E+03  0.86236644473E+03  0.00000000000E+00 0. -1.
          6    1    1    2  501    0 -0.13268356365E+03 -0.23756414254E+02 -0.56760419141E+03  0.60850046294E+03  0.17300000000E+03 0. -1.
         -6    1    1    2    0  502  0.13268356365E+03  0.23756414254E+02 -0.23047906477E+03  0.31814917033E+03  0.17300000000E+03 0.  1.
<mgrwt>
<rscale>  2 0.21931324E+03</rscale>
<asrwt>0</asrwt>
<pdfrwt beam="1">  1       21 0.98897220E-02 0.21931324E+03</pdfrwt>
<pdfrwt beam="2">  1       21 0.13267175E+00 0.21931324E+03</pdfrwt>
<totfact> 0.33458416E+04</totfact>
</mgrwt>
</event>
<event>
 4    1  0.4391134E+000  0.2401508E+03  0.7546771E-02  0.1119692E+00
         21   -1    0    0  503  502  0.00000000000E+00  0.00000000000E+00  0.21151551279E+03  0.21151551279E+03  0.00000000000E+00 0.  1.
         21   -1    0    0  501  503 -0.00000000000E+00 -0.00000000000E+00 -0.27532088843E+03  0.27532088843E+03  0.00000000000E+00 0.  1.
          6    1    1    2  501    0 -0.11062143387E+03 -0.12452428798E+03 -0.79847999774E+01  0.24028349290E+03  0.17300000000E+03 0.  1.
         -6    1    1    2    0  502  0.11062143387E+03  0.12452428798E+03 -0.55820575662E+02  0.24655290831E+03  0.17300000000E+03 0.  1.
<mgrwt>
<rscale>  2 0.24015079E+03</rscale>
<asrwt>0</asrwt>
<pdfrwt beam="1">  1       21 0.32540848E-01 0.24015079E+03</pdfrwt>
<pdfrwt beam="2">  1       21 0.42357060E-01 0.24015079E+03</pdfrwt>
<totfact> 0.47688594E+04</totfact>
</mgrwt>
</event>
<event>
 4    1  0.4391134E+000  0.2191334E+03  0.7546771E-02  0.1134531E+00
         21   -1    0    0  503  502  0.00000000000E+00  0.00000000000E+00  0.88762395223E+02  0.88762395223E+02  0.00000000000E+00 0.  1.
         21   -1    0    0  501  503 -0.00000000000E+00 -0.00000000000E+00 -0.56073081357E+03  0.56073081357E+03  0.00000000000E+00 0.  1.
          6    1    1    2  501    0 -0.10643988381E+03  0.82225214636E+02 -0.29691915966E+03  0.36902631635E+03  0.17300000000E+03 0.  1.
         -6    1    1    2    0  502  0.10643988381E+03 -0.82225214636E+02 -0.17504925869E+03  0.28046689244E+03  0.17300000000E+03 0.  1.
<mgrwt>
<rscale>  2 0.21913337E+03</rscale>
<asrwt>0</asrwt>
<pdfrwt beam="1">  1       21 0.13655753E-01 0.21913337E+03</pdfrwt>
<pdfrwt beam="2">  1       21 0.86266278E-01 0.21913337E+03</pdfrwt>
<totfact> 0.53193111E+04</totfact>
</mgrwt>
</event>
<event>
 4    1  0.4391134E+000  0.1871344E+03  0.7546771E-02  0.1161072E+00
         21   -1    0    0  503  502  0.00000000000E+00  0.00000000000E+00  0.67430614719E+03  0.67430614719E+03  0.00000000000E+00 0.  1.
         21   -1    0    0  501  503 -0.00000000000E+00 -0.00000000000E+00 -0.10042143368E+03  0.10042143368E+03  0.00000000000E+00 0.  1.
          6    1    1    2  501    0  0.20756046883E+02 -0.68260302445E+02  0.17775677724E+02  0.18797674614E+03  0.17300000000E+03 0.  1.
         -6    1    1    2    0  502 -0.20756046883E+02  0.68260302445E+02  0.55610903578E+03  0.58675083472E+03  0.17300000000E+03 0.  1.
<mgrwt>
<rscale>  2 0.18713440E+03</rscale>
<asrwt>0</asrwt>
<pdfrwt beam="1">  1       21 0.10373940E+00 0.18713440E+03</pdfrwt>
<pdfrwt beam="2">  1       21 0.15449452E-01 0.18713440E+03</pdfrwt>
<totfact> 0.28045773E+04</totfact>
</mgrwt>
</event>
<event>
 4    1  0.4391134E+000  0.2158096E+03  0.7546771E-02  0.1137046E+00
         21   -1    0    0  503  502  0.00000000000E+00  0.00000000000E+00  0.48438240594E+03  0.48438240594E+03  0.00000000000E+00 0.  1.
         21   -1    0    0  501  503 -0.00000000000E+00 -0.00000000000E+00 -0.11144469008E+03  0.11144469008E+03  0.00000000000E+00 0. -1.
          6    1    1    2  501    0  0.84961673164E+02  0.97089085080E+02  0.29683070092E+03  0.36699079192E+03  0.17300000000E+03 0.  1.
         -6    1    1    2    0  502 -0.84961673164E+02 -0.97089085080E+02  0.76107014939E+02  0.22883630409E+03  0.17300000000E+03 0. -1.
<mgrwt>
<rscale>  2 0.21580958E+03</rscale>
<asrwt>0</asrwt>
<pdfrwt beam="1">  1       21 0.74520369E-01 0.21580958E+03</pdfrwt>
<pdfrwt beam="2">  1       21 0.17145337E-01 0.21580958E+03</pdfrwt>
<totfact> 0.48975991E+04</totfact>
</mgrwt>
</event>
<event>
 4    1  0.4391134E+000  0.1862267E+03  0.7546771E-02  0.1161909E+00
         21   -1    0    0  503  502  0.00000000000E+00  0.00000000000E+00  0.18915689769E+03  0.18915689769E+03  0.00000000000E+00 0.  1.
         21   -1    0    0  501  503 -0.00000000000E+00 -0.00000000000E+00 -0.18347238968E+03  0.18347238968E+03  0.00000000000E+00 0. -1.
          6    1    1    2  501    0  0.58217804632E+02  0.36906484724E+02 -0.21248774263E+01  0.18623886945E+03  0.17300000000E+03 0. -1.
         -6    1    1    2    0  502 -0.58217804632E+02 -0.36906484724E+02  0.78093854352E+01  0.18639041792E+03  0.17300000000E+03 0.  1.
<mgrwt>
<rscale>  2 0.18622675E+03</rscale>
<asrwt>0</asrwt>
<pdfrwt beam="1">  1       21 0.29101061E-01 0.18622675E+03</pdfrwt>
<pdfrwt beam="2">  1       21 0.28226521E-01 0.18622675E+03</pdfrwt>
<totfact> 0.13590660E+05</totfact>
</mgrwt>
</event>
<event>
 4    1  0.4391134E+000  0.2306575E+03  0.7546771E-02  0.1126178E+00
         21   -1    0    0  501  502  0.00000000000E+00  0.00000000000E+00  0.65780726716E+03  0.65780726716E+03  0.00000000000E+00 0. -1.
         21   -1    0    0  502  503 -0.00000000000E+00 -0.00000000000E+00 -0.14904205788E+03  0.14904205788E+03  0.00000000000E+00 0. -1.
          6    1    1    2  501    0  0.13526302936E+03  0.70553503590E+02  0.52720632180E+03  0.57545581040E+03  0.17300000000E+03 0. -1.
         -6    1    1    2    0  503 -0.13526302936E+03 -0.70553503590E+02 -0.18441112521E+02  0.23139351463E+03  0.17300000000E+03 0. -1.
<mgrwt>
<rscale>  2 0.23065750E+03</rscale>
<asrwt>0</asrwt>
<pdfrwt beam="1">  1       21 0.10120112E+00 0.23065750E+03</pdfrwt>
<pdfrwt beam="2">  1       21 0.22929548E-01 0.23065750E+03</pdfrwt>
<totfact> 0.13907505E+04</totfact>
</mgrwt>
</event>
<event>
 4    1  0.4391134E+000  0.2083673E+03  0.7546771E-02  0.1142865E+00
         21   -1    0    0  501  502  0.00000000000E+00  0.00000000000E+00  0.89021085475E+02  0.89021085475E+02  0.00000000000E+00 0.  1.
         21   -1    0    0  502  503 -0.00000000000E+00 -0.00000000000E+00 -0.51914741371E+03  0.51914741371E+03  0.00000000000E+00 0.  1.
          6    1    1    2  501    0 -0.59756252213E+02  0.99584829032E+02 -0.28988617538E+03  0.35700272062E+03  0.17300000000E+03 0.  1.
         -6    1    1    2    0  503  0.59756252213E+02 -0.99584829032E+02 -0.14024015286E+03  0.25116577857E+03  0.17300000000E+03 0.  1.
<mgrwt>
<rscale>  2 0.20836734E+03</rscale>
<asrwt>0</asrwt>
<pdfrwt beam="1">  1       21 0.13695551E-01 0.20836734E+03</pdfrwt>
<pdfrwt beam="2">  1       21 0.79868836E-01 0.20836734E+03</pdfrwt>
<totfact> 0.63403739E+04</totfact>
</mgrwt>
</event>
<event>
 4    1  0.4391134E+000  0.2833568E+03  0.7546771E-02  0.1093870E+00
         21   -1    0    0  501  502  0.00000000000E+00  0.00000000000E+00  0.11308353709E+03  0.11308353709E+03  0.00000000000E+00 0.  1.
         21   -1    0    0  502  503 -0.00000000000E+00 -0.00000000000E+00 -0.12746100822E+04  0.12746100822E+04  0.00000000000E+00 0. -1.
          6    1    1    2  501    0 -0.20396345645E+03 -0.93600111461E+02 -0.11897463162E+03  0.30732073702E+03  0.17300000000E+03 0.  1.
         -6    1    1    2    0  503  0.20396345645E+03  0.93600111461E+02 -0.10425519135E+04  0.10803728823E+04  0.17300000000E+03 0. -1.
<mgrwt>
<rscale>  2 0.28335679E+03</rscale>
<asrwt>0</asrwt>
<pdfrwt beam="1">  1       21 0.17397466E-01 0.28335679E+03</pdfrwt>
<pdfrwt beam="2">  1       21 0.19609387E+00 0.28335679E+03</pdfrwt>
<totfact> 0.39599467E+03</totfact>
</mgrwt>
</event>
<event>
 4    1  0.4391134E+000  0.1903437E+03  0.7546771E-02  0.1158152E+00
         21   -1    0    0  503  502  0.00000000000E+00  0.00000000000E+00  0.10303150749E+03  0.10303150749E+03  0.00000000000E+00 0. -1.
         21   -1    0    0  501  503 -0.00000000000E+00 -0.00000000000E+00 -0.35337073838E+03  0.35337073838E+03  0.00000000000E+00 0.  1.
          6    1    1    2  501    0  0.30498369797E+02  0.73290981630E+02 -0.10923136802E+03  0.21945890346E+03  0.17300000000E+03 0.  1.
         -6    1    1    2    0  502 -0.30498369797E+02 -0.73290981630E+02 -0.14110786287E+03  0.23694334241E+03  0.17300000000E+03 0.  1.
<mgrwt>
<rscale>  2 0.19034369E+03</rscale>
<asrwt>0</asrwt>
<pdfrwt beam="1">  1       21 0.15851001E-01 0.19034369E+03</pdfrwt>
<pdfrwt beam="2">  1       21 0.54364729E-01 0.19034369E+03</pdfrwt>
<totfact> 0.11348698E+05</totfact>
</mgrwt>
</event>
<event>
 4    1  0.4391134E+000  0.2116783E+03  0.7546771E-02  0.1140244E+00
         21   -1    0    0  501  502  0.00000000000E+00  0.00000000000E+00  0.46994324488E+03  0.46994324488E+03  0.00000000000E+00 0. -1.
         21   -1    0    0  502  503 -0.00000000000E+00 -0.00000000000E+00 -0.11247503664E+03  0.11247503664E+03  0.00000000000E+00 0. -1.
          6    1    1    2  501    0  0.10600255099E+03  0.60350288292E+02  0.29237383477E+03  0.36095727915E+03  0.17300000000E+03 0. -1.
         -6    1    1    2    0  503 -0.10600255099E+03 -0.60350288292E+02  0.65094373460E+02  0.22146100237E+03  0.17300000000E+03 0. -1.
<mgrwt>
<rscale>  2 0.21167829E+03</rscale>
<asrwt>0</asrwt>
<pdfrwt beam="1">  1       21 0.72298960E-01 0.21167829E+03</pdfrwt>
<pdfrwt beam="2">  1       21 0.17303852E-01 0.21167829E+03</pdfrwt>
<totfact> 0.51612367E+04</totfact>
</mgrwt>
</event>
<event>
 4    1  0.4391134E+000  0.2310766E+03  0.7546771E-02  0.1125884E+00
         21   -1    0    0  501  502  0.00000000000E+00  0.00000000000E+00  0.66117284359E+02  0.66117284359E+02  0.00000000000E+00 0. -1.
         21   -1    0    0  502  503 -0.00000000000E+00 -0.00000000000E+00 -0.80970787854E+03  0.80970787854E+03  0.00000000000E+00 0.  1.
          6    1    1    2  501    0  0.16295238345E+02 -0.15232162178E+03 -0.34945947163E+03  0.41894908231E+03  0.17300000000E+03 0. -1.
         -6    1    1    2    0  503 -0.16295238345E+02  0.15232162178E+03 -0.39413112255E+03  0.45687608059E+03  0.17300000000E+03 0.  1.
<mgrwt>
<rscale>  2 0.23107664E+03</rscale>
<asrwt>0</asrwt>
<pdfrwt beam="1">  1       21 0.10171890E-01 0.23107664E+03</pdfrwt>
<pdfrwt beam="2">  1       21 0.12457044E+00 0.23107664E+03</pdfrwt>
<totfact> 0.37103554E+04</totfact>
</mgrwt>
</event>
<event>
 4    1  0.4391134E+000  0.2729693E+03  0.7546771E-02  0.1099592E+00
         21   -1    0    0  501  502  0.00000000000E+00  0.00000000000E+00  0.63437129319E+03  0.63437129319E+03  0.00000000000E+00 0.  1.
         21   -1    0    0  502  503 -0.00000000000E+00 -0.00000000000E+00 -0.18002226182E+03  0.18002226182E+03  0.00000000000E+00 0.  1.
          6    1    1    2  501    0 -0.21094098429E+03 -0.93344374075E+01  0.46722524802E+03  0.54112074712E+03  0.17300000000E+03 0.  1.
         -6    1    1    2    0  503  0.21094098429E+03  0.93344374075E+01 -0.12876216649E+02  0.27327280788E+03  0.17300000000E+03 0.  1.
<mgrwt>
<rscale>  2 0.27296929E+03</rscale>
<asrwt>0</asrwt>
<pdfrwt beam="1">  1       21 0.97595582E-01 0.27296929E+03</pdfrwt>
<pdfrwt beam="2">  1       21 0.27695733E-01 0.27296929E+03</pdfrwt>
<totfact> 0.10308190E+04</totfact>
</mgrwt>
</event>
<event>
 4    1  0.4391134E+000  0.2124521E+03  0.7546771E-02  0.1139639E+00
         21   -1    0    0  501  502  0.00000000000E+00  0.00000000000E+00  0.53723259558E+03  0.53723259558E+03  0.00000000000E+00 0.  1.
         21   -1    0    0  502  503 -0.00000000000E+00 -0.00000000000E+00 -0.17279684833E+03  0.17279684833E+03  0.00000000000E+00 0. -1.
          6    1    1    2  501    0 -0.11211533392E+03  0.51351995602E+02  0.43668944714E+03  0.48562696465E+03  0.17300000000E+03 0.  1.
         -6    1    1    2    0  503  0.11211533392E+03 -0.51351995602E+02 -0.72253699892E+02  0.22440247927E+03  0.17300000000E+03 0. -1.
<mgrwt>
<rscale>  2 0.21245205E+03</rscale>
<asrwt>0</asrwt>
<pdfrwt beam="1">  1       21 0.82651168E-01 0.21245205E+03</pdfrwt>
<pdfrwt beam="2">  1       21 0.26584131E-01 0.21245205E+03</pdfrwt>
<totfact> 0.16990074E+04</totfact>
</mgrwt>
</event>
<event>
 4    1  0.4391134E+000  0.2150606E+03  0.7546771E-02  0.1137620E+00
         21   -1    0    0  503  502  0.00000000000E+00  0.00000000000E+00  0.14825806083E+03  0.14825806083E+03  0.00000000000E+00 0. -1.
         21   -1    0    0  501  503 -0.00000000000E+00 -0.00000000000E+00 -0.32268879863E+03  0.32268879863E+03  0.00000000000E+00 0.  1.
          6    1    1    2  501    0 -0.72554312927E+01 -0.12755169599E+03 -0.13014511950E+03  0.25137388202E+03  0.17300000000E+03 0.  1.
         -6    1    1    2    0  502  0.72554312927E+01  0.12755169599E+03 -0.44285618295E+02  0.21957297744E+03  0.17300000000E+03 0. -1.
<mgrwt>
<rscale>  2 0.21506063E+03</rscale>
<asrwt>0</asrwt>
<pdfrwt beam="1">  1       21 0.22808933E-01 0.21506063E+03</pdfrwt>
<pdfrwt beam="2">  1       21 0.49644430E-01 0.21506063E+03</pdfrwt>
<totfact> 0.69048359E+04</totfact>
</mgrwt>
</event>
<event>
 4    1  0.4391134E+000  0.2328492E+03  0.7546771E-02  0.1124650E+00
         21   -1    0    0  501  502  0.00000000000E+00  0.00000000000E+00  0.21027135981E+03  0.21027135981E+03  0.00000000000E+00 0.  1.
         21   -1    0    0  502  503 -0.00000000000E+00 -0.00000000000E+00 -0.27845275742E+03  0.27845275742E+03  0.00000000000E+00 0.  1.
          6    1    1    2  501    0 -0.13573973095E+02 -0.15525946577E+03  0.32376356092E+02  0.23508930833E+03  0.17300000000E+03 0.  1.
         -6    1    1    2    0  503  0.13573973095E+02  0.15525946577E+03 -0.10055775371E+03  0.25363480890E+03  0.17300000000E+03 0.  1.
<mgrwt>
<rscale>  2 0.23284921E+03</rscale>
<asrwt>0</asrwt>
<pdfrwt beam="1">  1       21 0.32349440E-01 0.23284921E+03</pdfrwt>
<pdfrwt beam="2">  1       21 0.42838886E-01 0.23284921E+03</pdfrwt>
<totfact> 0.47287671E+04</totfact>
</mgrwt>
</event>
<event>
 4    1  0.4391134E+000  0.2749221E+03  0.7546771E-02  0.1098495E+00
         21   -1    0    0  501  502  0.00000000000E+00  0.00000000000E+00  0.29161326656E+03  0.29161326656E+03  0.00000000000E+00 0. -1.
         21   -1    0    0  502  503 -0.00000000000E+00 -0.00000000000E+00 -0.52576083623E+03  0.52576083623E+03  0.00000000000E+00 0.  1.
          6    1    1    2  501    0 -0.85031114943E+02 -0.19601746199E+03  0.17393504741E+03  0.32532374127E+03  0.17300000000E+03 0. -1.
         -6    1    1    2    0  503  0.85031114943E+02  0.19601746199E+03 -0.40808261708E+03  0.49205036152E+03  0.17300000000E+03 0. -1.
<mgrwt>
<rscale>  2 0.27492205E+03</rscale>
<asrwt>0</asrwt>
<pdfrwt beam="1">  1       21 0.44863580E-01 0.27492205E+03</pdfrwt>
<pdfrwt beam="2">  1       21 0.80886281E-01 0.27492205E+03</pdfrwt>
<totfact> 0.60644675E+03</totfact>
</mgrwt>
</event>
<event>
 4    1  0.4391134E+000  0.3149169E+03  0.7546771E-02  0.1078013E+00
         21   -1    0    0  503  502  0.00000000000E+00  0.00000000000E+00  0.36097128923E+03  0.36097128923E+03  0.00000000000E+00 0.  1.
         21   -1    0    0  501  503 -0.00000000000E+00 -0.00000000000E+00 -0.30139734249E+03  0.30139734249E+03  0.00000000000E+00 0. -1.
          6    1    1    2  501    0 -0.23946766972E+03  0.10908195242E+03 -0.68709878923E+02  0.32232543283E+03  0.17300000000E+03 0. -1.
         -6    1    1    2    0  502  0.23946766972E+03 -0.10908195242E+03  0.12828382566E+03  0.34004319889E+03  0.17300000000E+03 0.  1.
<mgrwt>
<rscale>  2 0.31491687E+03</rscale>
<asrwt>0</asrwt>
<pdfrwt beam="1">  1       21 0.55534045E-01 0.31491687E+03</pdfrwt>
<pdfrwt beam="2">  1       21 0.46368822E-01 0.31491687E+03</pdfrwt>
<totfact> 0.12772570E+04</totfact>
</mgrwt>
</event>
<event>
 4    1  0.4391134E+000  0.2097953E+03  0.7546771E-02  0.1141728E+00
         21   -1    0    0  501  502  0.00000000000E+00  0.00000000000E+00  0.31762566221E+03  0.31762566221E+03  0.00000000000E+00 0.  1.
         21   -1    0    0  502  503 -0.00000000000E+00 -0.00000000000E+00 -0.17379438309E+03  0.17379438309E+03  0.00000000000E+00 0.  1.
          6    1    1    2  501    0  0.11450116408E+03  0.31217723145E+02  0.18253053275E+03  0.27808534337E+03  0.17300000000E+03 0.  1.
         -6    1    1    2    0  503 -0.11450116408E+03 -0.31217723145E+02 -0.38699253627E+02  0.21333470192E+03  0.17300000000E+03 0.  1.
<mgrwt>
<rscale>  2 0.20979529E+03</rscale>
<asrwt>0</asrwt>
<pdfrwt beam="1">  1       21 0.48865486E-01 0.20979529E+03</pdfrwt>
<pdfrwt beam="2">  1       21 0.26737597E-01 0.20979529E+03</pdfrwt>
<totfact> 0.52793252E+04</totfact>
</mgrwt>
</event>
<event>
 4    1  0.4391134E+000  0.2292810E+03  0.7546771E-02  0.1127147E+00
         21   -1    0    0  503  502  0.00000000000E+00  0.00000000000E+00  0.33860410510E+03  0.33860410510E+03  0.00000000000E+00 0. -1.
         21   -1    0    0  501  503 -0.00000000000E+00 -0.00000000000E+00 -0.20673339271E+03  0.20673339271E+03  0.00000000000E+00 0. -1.
          6    1    1    2  501    0 -0.11310910168E+03  0.99232676669E+02 -0.70129157125E+02  0.23976632724E+03  0.17300000000E+03 0.  1.
         -6    1    1    2    0  502  0.11310910168E+03 -0.99232676669E+02  0.20199986951E+03  0.30557117057E+03  0.17300000000E+03 0.  1.
<mgrwt>
<rscale>  2 0.22928103E+03</rscale>
<asrwt>0</asrwt>
<pdfrwt beam="1">  1       21 0.52092939E-01 0.22928103E+03</pdfrwt>
<pdfrwt beam="2">  1       21 0.31805137E-01 0.22928103E+03</pdfrwt>
<totfact> 0.32622515E+04</totfact>
</mgrwt>
</event>
<event>
 4    1  0.4391134E+000  0.1758788E+03  0.7546771E-02  0.1171852E+00
         21   -1    0    0  501  502  0.00000000000E+00  0.00000000000E+00  0.10213669778E+03  0.10213669778E+03  0.00000000000E+00 0.  1.
         21   -1    0    0  502  503 -0.00000000000E+00 -0.00000000000E+00 -0.33612157839E+03  0.33612157839E+03  0.00000000000E+00 0.  1.
          6    1    1    2  501    0  0.16809757436E+02  0.26866156913E+02 -0.48062461568E+02  0.18232761322E+03  0.17300000000E+03 0.  1.
         -6    1    1    2    0  503 -0.16809757436E+02 -0.26866156913E+02 -0.18592241905E+03  0.25593066295E+03  0.17300000000E+03 0.  1.
<mgrwt>
<rscale>  2 0.17587882E+03</rscale>
<asrwt>0</asrwt>
<pdfrwt beam="1">  1       21 0.15713338E-01 0.17587882E+03</pdfrwt>
<pdfrwt beam="2">  1       21 0.51711011E-01 0.17587882E+03</pdfrwt>
<totfact> 0.12875346E+05</totfact>
</mgrwt>
</event>
<event>
 4    1  0.4391134E+000  0.1902036E+03  0.7546771E-02  0.1158278E+00
         21   -1    0    0  503  502  0.00000000000E+00  0.00000000000E+00  0.19059158194E+03  0.19059158194E+03  0.00000000000E+00 0. -1.
         21   -1    0    0  501  503 -0.00000000000E+00 -0.00000000000E+00 -0.19606556882E+03  0.19606556882E+03  0.00000000000E+00 0. -1.
          6    1    1    2  501    0  0.62932297787E+02  0.47832280240E+02 -0.37251983711E+02  0.19381721138E+03  0.17300000000E+03 0. -1.
         -6    1    1    2    0  502 -0.62932297787E+02 -0.47832280240E+02  0.31777996836E+02  0.19283993938E+03  0.17300000000E+03 0. -1.
<mgrwt>
<rscale>  2 0.19020358E+03</rscale>
<asrwt>0</asrwt>
<pdfrwt beam="1">  1       21 0.29321782E-01 0.19020358E+03</pdfrwt>
<pdfrwt beam="2">  1       21 0.30163934E-01 0.19020358E+03</pdfrwt>
<totfact> 0.11757336E+05</totfact>
</mgrwt>
</event>
<event>
 4    1  0.4391134E+000  0.1853389E+03  0.7546771E-02  0.1162734E+00
         21   -1    0    0  503  502  0.00000000000E+00  0.00000000000E+00  0.30988978732E+02  0.30988978732E+02  0.00000000000E+00 0.  1.
         21   -1    0    0  501  503 -0.00000000000E+00 -0.00000000000E+00 -0.11388869795E+04  0.11388869795E+04  0.00000000000E+00 0.  1.
          6    1    1    2  501    0 -0.48806875333E+01 -0.66314968363E+02 -0.64953507548E+03  0.67546007315E+03  0.17300000000E+03 0.  1.
         -6    1    1    2    0  502  0.48806875333E+01  0.66314968363E+02 -0.45836292525E+03  0.49441588504E+03  0.17300000000E+03 0.  1.
<mgrwt>
<rscale>  2 0.18533887E+03</rscale>
<asrwt>0</asrwt>
<pdfrwt beam="1">  1       21 0.47675343E-02 0.18533887E+03</pdfrwt>
<pdfrwt beam="2">  1       21 0.17521342E+00 0.18533887E+03</pdfrwt>
<totfact> 0.57468591E+04</totfact>
</mgrwt>
</event>
<event>
 4    1  0.4391134E+000  0.1986743E+03  0.7546771E-02  0.1150862E+00
         21   -1    0    0  501  502  0.00000000000E+00  0.00000000000E+00  0.23817142025E+02  0.23817142025E+02  0.00000000000E+00 0.  1.
         21   -1    0    0  502  503 -0.00000000000E+00 -0.00000000000E+00 -0.22691116064E+04  0.22691116064E+04  0.00000000000E+00 0.  1.
          6    1    1    2  501    0 -0.48044623885E+02 -0.85054163263E+02 -0.52732620782E+03  0.56351080382E+03  0.17300000000E+03 0.  1.
         -6    1    1    2    0  503  0.48044623885E+02  0.85054163263E+02 -0.17179682565E+04  0.17294179446E+04  0.17300000000E+03 0.  1.
<mgrwt>
<rscale>  2 0.19867435E+03</rscale>
<asrwt>0</asrwt>
<pdfrwt beam="1">  1       21 0.36641750E-02 0.19867435E+03</pdfrwt>
<pdfrwt beam="2">  1       21 0.34909416E+00 0.19867435E+03</pdfrwt>
<totfact> 0.79754552E+03</totfact>
</mgrwt>
</event>
<event>
 4    1  0.4391134E+000  0.1773471E+03  0.7546771E-02  0.1170396E+00
         21   -1    0    0  503  502  0.00000000000E+00  0.00000000000E+00  0.13978689830E+04  0.13978689830E+04  0.00000000000E+00 0. -1.
         21   -1    0    0  501  503 -0.00000000000E+00 -0.00000000000E+00 -0.28428936238E+02  0.28428936238E+02  0.00000000000E+00 0. -1.
          6    1    1    2  501    0  0.21408371804E+02 -0.32629331537E+02  0.35904089867E+03  0.40045269206E+03  0.17300000000E+03 0. -1.
         -6    1    1    2    0  502 -0.21408371804E+02  0.32629331537E+02  0.10103991481E+04  0.10258452271E+04  0.17300000000E+03 0. -1.
<mgrwt>
<rscale>  2 0.17734709E+03</rscale>
<asrwt>0</asrwt>
<pdfrwt beam="1">  1       21 0.21505671E+00 0.17734709E+03</pdfrwt>
<pdfrwt beam="2">  1       21 0.43736836E-02 0.17734709E+03</pdfrwt>
<totfact> 0.36806425E+04</totfact>
</mgrwt>
</event>
<event>
 4    1  0.4391134E+000  0.2282957E+03  0.7546771E-02  0.1127845E+00
         21   -1    0    0  501  502  0.00000000000E+00  0.00000000000E+00  0.13148576693E+03  0.13148576693E+03  0.00000000000E+00 0.  1.
         21   -1    0    0  502  503 -0.00000000000E+00 -0.00000000000E+00 -0.40333031920E+03  0.40333031920E+03  0.00000000000E+00 0.  1.
          6    1    1    2  501    0 -0.15665969620E+02  0.14813672893E+03 -0.17101421897E+03  0.28524511591E+03  0.17300000000E+03 0.  1.
         -6    1    1    2    0  503  0.15665969620E+02 -0.14813672893E+03 -0.10083033329E+03  0.24957097021E+03  0.17300000000E+03 0.  1.
<mgrwt>
<rscale>  2 0.22829567E+03</rscale>
<asrwt>0</asrwt>
<pdfrwt beam="1">  1       21 0.20228580E-01 0.22829567E+03</pdfrwt>
<pdfrwt beam="2">  1       21 0.62050816E-01 0.22829567E+03</pdfrwt>
<totfact> 0.53579015E+04</totfact>
</mgrwt>
</event>
<event>
 4    1  0.4391134E+000  0.2549325E+03  0.7546771E-02  0.1110227E+00
         21   -1    0    0  503  502  0.00000000000E+00  0.00000000000E+00  0.96412327178E+03  0.96412327178E+03  0.00000000000E+00 0. -1.
         21   -1    0    0  501  503 -0.00000000000E+00 -0.00000000000E+00 -0.10478635495E+03  0.10478635495E+03  0.00000000000E+00 0.  1.
          6    1    1    2  501    0 -0.33644104231E+02 -0.18420009121E+03  0.11046850027E+03  0.27783788241E+03  0.17300000000E+03 0.  1.
         -6    1    1    2    0  502  0.33644104231E+02  0.18420009121E+03  0.74886841656E+03  0.79107174432E+03  0.17300000000E+03 0. -1.
<mgrwt>
<rscale>  2 0.25493254E+03</rscale>
<asrwt>0</asrwt>
<pdfrwt beam="1">  1       21 0.14832665E+00 0.25493254E+03</pdfrwt>
<pdfrwt beam="2">  1       21 0.16120978E-01 0.25493254E+03</pdfrwt>
<totfact> 0.10152691E+04</totfact>
</mgrwt>
</event>
<event>
 4    1  0.4391134E+000  0.1900893E+03  0.7546771E-02  0.1158381E+00
         21   -1    0    0  501  502  0.00000000000E+00  0.00000000000E+00  0.38869518356E+03  0.38869518356E+03  0.00000000000E+00 0. -1.
         21   -1    0    0  502  503 -0.00000000000E+00 -0.00000000000E+00 -0.20360502258E+03  0.20360502258E+03  0.00000000000E+00 0. -1.
          6    1    1    2  501    0  0.39911668679E+02 -0.67911599072E+02  0.31085799795E+03  0.36437154317E+03  0.17300000000E+03 0. -1.
         -6    1    1    2    0  503 -0.39911668679E+02  0.67911599072E+02 -0.12576783697E+03  0.22792866297E+03  0.17300000000E+03 0. -1.
<mgrwt>
<rscale>  2 0.19008926E+03</rscale>
<asrwt>0</asrwt>
<pdfrwt beam="1">  1       21 0.59799259E-01 0.19008926E+03</pdfrwt>
<pdfrwt beam="2">  1       21 0.31323850E-01 0.19008926E+03</pdfrwt>
<totfact> 0.25598824E+04</totfact>
</mgrwt>
</event>
<event>
 4    1  0.4391134E+000  0.1977807E+03  0.7546771E-02  0.1151625E+00
         21   -1    0    0  503  502  0.00000000000E+00  0.00000000000E+00  0.17404289017E+03  0.17404289017E+03  0.00000000000E+00 0. -1.
         21   -1    0    0  501  503 -0.00000000000E+00 -0.00000000000E+00 -0.25893891683E+03  0.25893891683E+03  0.00000000000E+00 0.  1.
          6    1    1    2  501    0 -0.19294391409E+02  0.93893223220E+02 -0.12110631407E+03  0.23191366975E+03  0.17300000000E+03 0.  1.
         -6    1    1    2    0  502  0.19294391409E+02 -0.93893223220E+02  0.36210287412E+02  0.20106813726E+03  0.17300000000E+03 0. -1.
<mgrwt>
<rscale>  2 0.19778071E+03</rscale>
<asrwt>0</asrwt>
<pdfrwt beam="1">  1       21 0.26775829E-01 0.19778071E+03</pdfrwt>
<pdfrwt beam="2">  1       21 0.39836756E-01 0.19778071E+03</pdfrwt>
<totfact> 0.80483462E+04</totfact>
</mgrwt>
</event>
<event>
 4    1  0.4391134E+000  0.1921250E+03  0.7546771E-02  0.1156559E+00
         21   -1    0    0  501  502  0.00000000000E+00  0.00000000000E+00  0.77888866697E+02  0.77888866697E+02  0.00000000000E+00 0.  1.
         21   -1    0    0  502  503 -0.00000000000E+00 -0.00000000000E+00 -0.58881663742E+03  0.58881663742E+03  0.00000000000E+00 0.  1.
          6    1    1    2  501    0  0.75020510729E+02  0.36809297480E+02 -0.10820072323E+03  0.22049806783E+03  0.17300000000E+03 0.  1.
         -6    1    1    2    0  503 -0.75020510729E+02 -0.36809297480E+02 -0.40272704749E+03  0.44620743628E+03  0.17300000000E+03 0.  1.
<mgrwt>
<rscale>  2 0.19212496E+03</rscale>
<asrwt>0</asrwt>
<pdfrwt beam="1">  1       21 0.11982903E-01 0.19212496E+03</pdfrwt>
<pdfrwt beam="2">  1       21 0.90587173E-01 0.19212496E+03</pdfrwt>
<totfact> 0.60901784E+04</totfact>
</mgrwt>
</event>
<event>
 4    1  0.4391134E+000  0.1875740E+03  0.7546771E-02  0.1160668E+00
         21   -1    0    0  501  502  0.00000000000E+00  0.00000000000E+00  0.19726024446E+03  0.19726024446E+03  0.00000000000E+00 0.  1.
         21   -1    0    0  502  503 -0.00000000000E+00 -0.00000000000E+00 -0.26598465852E+03  0.26598465852E+03  0.00000000000E+00 0.  1.
          6    1    1    2  501    0  0.37487617195E+02  0.62045709189E+02  0.98578293455E+02  0.21190014491E+03  0.17300000000E+03 0.  1.
         -6    1    1    2    0  503 -0.37487617195E+02 -0.62045709189E+02 -0.16730270752E+03  0.25134475808E+03  0.17300000000E+03 0.  1.
<mgrwt>
<rscale>  2 0.18757396E+03</rscale>
<asrwt>0</asrwt>
<pdfrwt beam="1">  1       21 0.30347730E-01 0.18757396E+03</pdfrwt>
<pdfrwt beam="2">  1       21 0.40920717E-01 0.18757396E+03</pdfrwt>
<totfact> 0.60071582E+04</totfact>
</mgrwt>
</event>
<event>
 4    1  0.4391134E+000  0.1787655E+03  0.7546771E-02  0.1169003E+00
         21   -1    0    0  501  502  0.00000000000E+00  0.00000000000E+00  0.67805557366E+03  0.67805557366E+03  0.00000000000E+00 0. -1.
         21   -1    0    0  502  503 -0.00000000000E+00 -0.00000000000E+00 -0.72548396427E+02  0.72548396427E+02  0.00000000000E+00 0. -1.
          6    1    1    2  501    0  0.10052317329E+01 -0.45023298288E+02  0.52489863525E+03  0.55450490094E+03  0.17300000000E+03 0. -1.
         -6    1    1    2    0  503 -0.10052317329E+01  0.45023298288E+02  0.80608541983E+02  0.19609906915E+03  0.17300000000E+03 0. -1.
<mgrwt>
<rscale>  2 0.17876551E+03</rscale>
<asrwt>0</asrwt>
<pdfrwt beam="1">  1       21 0.10431624E+00 0.17876551E+03</pdfrwt>
<pdfrwt beam="2">  1       21 0.11161292E-01 0.17876551E+03</pdfrwt>
<totfact> 0.49911088E+04</totfact>
</mgrwt>
</event>
<event>
 4    1  0.4391134E+000  0.1951895E+03  0.7546771E-02  0.1153862E+00
         21   -1    0    0  503  502  0.00000000000E+00  0.00000000000E+00  0.13262067447E+03  0.13262067447E+03  0.00000000000E+00 0.  1.
         21   -1    0    0  501  503 -0.00000000000E+00 -0.00000000000E+00 -0.29540661665E+03  0.29540661665E+03  0.00000000000E+00 0.  1.
          6    1    1    2  501    0  0.12868723402E+02 -0.89466915259E+02 -0.11689503535E+03  0.22751567475E+03  0.17300000000E+03 0.  1.
         -6    1    1    2    0  502 -0.12868723402E+02  0.89466915259E+02 -0.45890906832E+02  0.20051161637E+03  0.17300000000E+03 0.  1.
<mgrwt>
<rscale>  2 0.19518948E+03</rscale>
<asrwt>0</asrwt>
<pdfrwt beam="1">  1       21 0.20403181E-01 0.19518948E+03</pdfrwt>
<pdfrwt beam="2">  1       21 0.45447171E-01 0.19518948E+03</pdfrwt>
<totfact> 0.10315656E+05</totfact>
</mgrwt>
</event>
<event>
 4    1  0.4391134E+000  0.1847389E+03  0.7546771E-02  0.1163294E+00
         21   -1    0    0  501  502  0.00000000000E+00  0.00000000000E+00  0.16744387277E+04  0.16744387277E+04  0.00000000000E+00 0.  1.
         21   -1    0    0  502  503 -0.00000000000E+00 -0.00000000000E+00 -0.26352199890E+02  0.26352199890E+02  0.00000000000E+00 0.  1.
          6    1    1    2  501    0 -0.59828770369E+02  0.24899569187E+02  0.12288107562E+04  0.12426199519E+04  0.17300000000E+03 0.  1.
         -6    1    1    2    0  503  0.59828770369E+02 -0.24899569187E+02  0.41927577168E+03  0.45817097576E+03  0.17300000000E+03 0.  1.
<mgrwt>
<rscale>  2 0.18473892E+03</rscale>
<asrwt>0</asrwt>
<pdfrwt beam="1">  1       21 0.25760588E+00 0.18473892E+03</pdfrwt>
<pdfrwt beam="2">  1       21 0.40541859E-02 0.18473892E+03</pdfrwt>
<totfact> 0.23151772E+04</totfact>
</mgrwt>
</event>
<event>
 4    1  0.4391134E+000  0.2651626E+03  0.7546771E-02  0.1104081E+00
         21   -1    0    0  503  502  0.00000000000E+00  0.00000000000E+00  0.12267076329E+04  0.12267076329E+04  0.00000000000E+00 0.  1.
         21   -1    0    0  501  503 -0.00000000000E+00 -0.00000000000E+00 -0.58107538715E+02  0.58107538715E+02  0.00000000000E+00 0. -1.
          6    1    1    2  501    0 -0.16696520973E+03 -0.11182492841E+03  0.50936978906E+03  0.57425497637E+03  0.17300000000E+03 0. -1.
         -6    1    1    2    0  502  0.16696520973E+03  0.11182492841E+03  0.65923030511E+03  0.71056019523E+03  0.17300000000E+03 0.  1.
<mgrwt>
<rscale>  2 0.26516258E+03</rscale>
<asrwt>0</asrwt>
<pdfrwt beam="1">  1       21 0.18872423E+00 0.26516258E+03</pdfrwt>
<pdfrwt beam="2">  1       21 0.89396223E-02 0.26516258E+03</pdfrwt>
<totfact> 0.14968019E+04</totfact>
</mgrwt>
</event>
<event>
 4    1  0.4391134E+000  0.1811129E+03  0.7546771E-02  0.1166730E+00
         21   -1    0    0  503  502  0.00000000000E+00  0.00000000000E+00  0.31010715801E+03  0.31010715801E+03  0.00000000000E+00 0. -1.
         21   -1    0    0  501  503 -0.00000000000E+00 -0.00000000000E+00 -0.10581450649E+03  0.10581450649E+03  0.00000000000E+00 0.  1.
          6    1    1    2  501    0  0.53418768127E+02 -0.43967679101E+01  0.10611318353E+03  0.20990927582E+03  0.17300000000E+03 0.  1.
         -6    1    1    2    0  502 -0.53418768127E+02  0.43967679101E+01  0.98179467979E+02  0.20601238868E+03  0.17300000000E+03 0. -1.
<mgrwt>
<rscale>  2 0.18111294E+03</rscale>
<asrwt>0</asrwt>
<pdfrwt beam="1">  1       21 0.47708793E-01 0.18111294E+03</pdfrwt>
<pdfrwt beam="2">  1       21 0.16279155E-01 0.18111294E+03</pdfrwt>
<totfact> 0.14244010E+05</totfact>
</mgrwt>
</event>
<event>
 4    1  0.4391134E+000  0.1996989E+03  0.7546771E-02  0.1149993E+00
         21   -1    0    0  503  502  0.00000000000E+00  0.00000000000E+00  0.10926779155E+04  0.10926779155E+04  0.00000000000E+00 0.  1.
         21   -1    0    0  501  503 -0.00000000000E+00 -0.00000000000E+00 -0.37731124421E+02  0.37731124421E+02  0.00000000000E+00 0. -1.
          6    1    1    2  501    0 -0.99359662392E+02  0.88480953335E+01  0.42525981862E+03  0.46981437253E+03  0.17300000000E+03 0.  1.
         -6    1    1    2    0  502  0.99359662392E+02 -0.88480953335E+01  0.62968697244E+03  0.66059466738E+03  0.17300000000E+03 0.  1.
<mgrwt>
<rscale>  2 0.19969885E+03</rscale>
<asrwt>0</asrwt>
<pdfrwt beam="1">  1       21 0.16810427E+00 0.19969885E+03</pdfrwt>
<pdfrwt beam="2">  1       21 0.58047892E-02 0.19969885E+03</pdfrwt>
<totfact> 0.45718527E+04</totfact>
</mgrwt>
</event>
<event>
 4    1  0.4391134E+000  0.2256914E+03  0.7546771E-02  0.1129710E+00
         21   -1    0    0  501  502  0.00000000000E+00  0.00000000000E+00  0.24147315844E+03  0.24147315844E+03  0.00000000000E+00 0. -1.
         21   -1    0    0  502  503 -0.00000000000E+00 -0.00000000000E+00 -0.21438012302E+03  0.21438012302E+03  0.00000000000E+00 0. -1.
          6    1    1    2  501    0 -0.91280587480E+02 -0.11258528901E+03  0.42415122086E+02  0.22964240796E+03  0.17300000000E+03 0. -1.
         -6    1    1    2    0  503  0.91280587480E+02  0.11258528901E+03 -0.15322086666E+02  0.22621087351E+03  0.17300000000E+03 0. -1.
<mgrwt>
<rscale>  2 0.22569137E+03</rscale>
<asrwt>0</asrwt>
<pdfrwt beam="1">  1       21 0.37149717E-01 0.22569137E+03</pdfrwt>
<pdfrwt beam="2">  1       21 0.32981557E-01 0.22569137E+03</pdfrwt>
<totfact> 0.60946874E+04</totfact>
</mgrwt>
</event>
<event>
 4    1  0.4391134E+000  0.2674800E+03  0.7546771E-02  0.1102731E+00
         21   -1    0    0  503  502  0.00000000000E+00  0.00000000000E+00  0.33542185854E+03  0.33542185854E+03  0.00000000000E+00 0. -1.
         21   -1    0    0  501  503 -0.00000000000E+00 -0.00000000000E+00 -0.21650178520E+03  0.21650178520E+03  0.00000000000E+00 0.  1.
          6    1    1    2  501    0 -0.69736144847E+02  0.19171183420E+03  0.93018280498E+02  0.28319243948E+03  0.17300000000E+03 0. -1.
         -6    1    1    2    0  502  0.69736144847E+02 -0.19171183420E+03  0.25901792844E+02  0.26873120426E+03  0.17300000000E+03 0.  1.
<mgrwt>
<rscale>  2 0.26748001E+03</rscale>
<asrwt>0</asrwt>
<pdfrwt beam="1">  1       21 0.51603363E-01 0.26748001E+03</pdfrwt>
<pdfrwt beam="2">  1       21 0.33307967E-01 0.26748001E+03</pdfrwt>
<totfact> 0.29863785E+04</totfact>
</mgrwt>
</event>
<event>
 4    1  0.4391134E+000  0.2318440E+03  0.7546771E-02  0.1125349E+00
         21   -1    0    0  503  502  0.00000000000E+00  0.00000000000E+00  0.42417338844E+02  0.42417338844E+02  0.00000000000E+00 0. -1.
         21   -1    0    0  501  503 -0.00000000000E+00 -0.00000000000E+00 -0.13184759391E+04  0.13184759391E+04  0.00000000000E+00 0.  1.
          6    1    1    2  501    0  0.14201731613E+03  0.60445974324E+02 -0.77220585233E+03  0.80625896105E+03  0.17300000000E+03 0.  1.
         -6    1    1    2    0  502 -0.14201731613E+03 -0.60445974324E+02 -0.50385274795E+03  0.55463431693E+03  0.17300000000E+03 0. -1.
<mgrwt>
<rscale>  2 0.23184399E+03</rscale>
<asrwt>0</asrwt>
<pdfrwt beam="1">  1       21 0.65257462E-02 0.23184399E+03</pdfrwt>
<pdfrwt beam="2">  1       21 0.20284240E+00 0.23184399E+03</pdfrwt>
<totfact> 0.21373798E+04</totfact>
</mgrwt>
</event>
<event>
 4    1  0.4391134E+000  0.2086527E+03  0.7546771E-02  0.1142637E+00
         21   -1    0    0  501  502  0.00000000000E+00  0.00000000000E+00  0.13628695141E+04  0.13628695141E+04  0.00000000000E+00 0. -1.
         21   -1    0    0  502  503 -0.00000000000E+00 -0.00000000000E+00 -0.36004205452E+02  0.36004205452E+02  0.00000000000E+00 0. -1.
          6    1    1    2  501    0  0.10492351806E+03  0.50970764915E+02  0.89830282442E+03  0.92221685512E+03  0.17300000000E+03 0. -1.
         -6    1    1    2    0  503 -0.10492351806E+03 -0.50970764915E+02  0.42856248427E+03  0.47665686446E+03  0.17300000000E+03 0. -1.
<mgrwt>
<rscale>  2 0.20865273E+03</rscale>
<asrwt>0</asrwt>
<pdfrwt beam="1">  1       21 0.20967219E+00 0.20865273E+03</pdfrwt>
<pdfrwt beam="2">  1       21 0.55391096E-02 0.20865273E+03</pdfrwt>
<totfact> 0.26042148E+04</totfact>
</mgrwt>
</event>
<event>
 4    1  0.4391134E+000  0.1785563E+03  0.7546771E-02  0.1169208E+00
         21   -1    0    0  503  502  0.00000000000E+00  0.00000000000E+00  0.40956839439E+02  0.40956839439E+02  0.00000000000E+00 0.  1.
         21   -1    0    0  501  503 -0.00000000000E+00 -0.00000000000E+00 -0.81446646601E+03  0.81446646601E+03  0.00000000000E+00 0.  1.
          6    1    1    2  501    0  0.35749570136E+02 -0.25987065242E+02 -0.47671233660E+03  0.50905501784E+03  0.17300000000E+03 0.  1.
         -6    1    1    2    0  502 -0.35749570136E+02  0.25987065242E+02 -0.29679728997E+03  0.34636828761E+03  0.17300000000E+03 0.  1.
<mgrwt>
<rscale>  2 0.17855632E+03</rscale>
<asrwt>0</asrwt>
<pdfrwt beam="1">  1       21 0.63010521E-02 0.17855632E+03</pdfrwt>
<pdfrwt beam="2">  1       21 0.12530254E+00 0.17855632E+03</pdfrwt>
<totfact> 0.86523544E+04</totfact>
</mgrwt>
</event>
<event>
 4    1  0.4391134E+000  0.2024219E+03  0.7546771E-02  0.1147712E+00
         21   -1    0    0  503  502  0.00000000000E+00  0.00000000000E+00  0.15700845340E+04  0.15700845340E+04  0.00000000000E+00 0. -1.
         21   -1    0    0  501  503 -0.00000000000E+00 -0.00000000000E+00 -0.50244708474E+02  0.50244708474E+02  0.00000000000E+00 0. -1.
          6    1    1    2  501    0 -0.51188974545E+02  0.91789409259E+02  0.19827033464E+03  0.28334737050E+03  0.17300000000E+03 0. -1.
         -6    1    1    2    0  502  0.51188974545E+02 -0.91789409259E+02  0.13215694909E+04  0.13369818720E+04  0.17300000000E+03 0. -1.
<mgrwt>
<rscale>  2 0.20242185E+03</rscale>
<asrwt>0</asrwt>
<pdfrwt beam="1">  1       21 0.24155143E+00 0.20242185E+03</pdfrwt>
<pdfrwt beam="2">  1       21 0.77299564E-02 0.20242185E+03</pdfrwt>
<totfact> 0.94155706E+03</totfact>
</mgrwt>
</event>
<event>
 4    1  0.4391134E+000  0.2133980E+03  0.7546771E-02  0.1138903E+00
         21   -1    0    0  501  502  0.00000000000E+00  0.00000000000E+00  0.18293618847E+03  0.18293618847E+03  0.00000000000E+00 0. -1.
         21   -1    0    0  502  503 -0.00000000000E+00 -0.00000000000E+00 -0.24897546352E+03  0.24897546352E+03  0.00000000000E+00 0. -1.
          6    1    1    2  501    0 -0.65341517281E+02 -0.10649034145E+03 -0.35866583240E+02  0.21639112389E+03  0.17300000000E+03 0. -1.
         -6    1    1    2    0  503  0.65341517281E+02  0.10649034145E+03 -0.30172691811E+02  0.21552052811E+03  0.17300000000E+03 0. -1.
<mgrwt>
<rscale>  2 0.21339800E+03</rscale>
<asrwt>0</asrwt>
<pdfrwt beam="1">  1       21 0.28144029E-01 0.21339800E+03</pdfrwt>
<pdfrwt beam="2">  1       21 0.38303917E-01 0.21339800E+03</pdfrwt>
<totfact> 0.78590946E+04</totfact>
</mgrwt>
</event>
<event>
 4    1  0.4391134E+000  0.1921256E+03  0.7546771E-02  0.1156558E+00
         21   -1    0    0  503  502  0.00000000000E+00  0.00000000000E+00  0.24266242547E+03  0.24266242547E+03  0.00000000000E+00 0.  1.
         21   -1    0    0  501  503 -0.00000000000E+00 -0.00000000000E+00 -0.15221883415E+03  0.15221883415E+03  0.00000000000E+00 0.  1.
          6    1    1    2  501    0 -0.24546522737E+02  0.79879394178E+02  0.40029858816E+02  0.19625146876E+03  0.17300000000E+03 0.  1.
         -6    1    1    2    0  502  0.24546522737E+02 -0.79879394178E+02  0.50413732498E+02  0.19862979086E+03  0.17300000000E+03 0.  1.
<mgrwt>
<rscale>  2 0.19212561E+03</rscale>
<asrwt>0</asrwt>
<pdfrwt beam="1">  1       21 0.37332681E-01 0.19212561E+03</pdfrwt>
<pdfrwt beam="2">  1       21 0.23418282E-01 0.19212561E+03</pdfrwt>
<totfact> 0.11872268E+05</totfact>
</mgrwt>
</event>
<event>
 4    1  0.4391134E+000  0.1836359E+03  0.7546771E-02  0.1164330E+00
         21   -1    0    0  503  502  0.00000000000E+00  0.00000000000E+00  0.13535071607E+04  0.13535071607E+04  0.00000000000E+00 0.  1.
         21   -1    0    0  501  503 -0.00000000000E+00 -0.00000000000E+00 -0.37983710232E+02  0.37983710232E+02  0.00000000000E+00 0.  1.
          6    1    1    2  501    0 -0.55306293646E+02  0.27099141313E+02  0.24965481659E+03  0.30991882328E+03  0.17300000000E+03 0.  1.
         -6    1    1    2    0  502  0.55306293646E+02 -0.27099141313E+02  0.10658686339E+04  0.10815720476E+04  0.17300000000E+03 0.  1.
<mgrwt>
<rscale>  2 0.18363592E+03</rscale>
<asrwt>0</asrwt>
<pdfrwt beam="1">  1       21 0.20823183E+00 0.18363592E+03</pdfrwt>
<pdfrwt beam="2">  1       21 0.58436488E-02 0.18363592E+03</pdfrwt>
<totfact> 0.24725598E+04</totfact>
</mgrwt>
</event>
<event>
 4    1  0.4391134E+000  0.1958085E+03  0.7546771E-02  0.1153324E+00
         21   -1    0    0  501  502  0.00000000000E+00  0.00000000000E+00  0.92972028014E+03  0.92972028014E+03  0.00000000000E+00 0. -1.
         21   -1    0    0  502  503 -0.00000000000E+00 -0.00000000000E+00 -0.54282951290E+02  0.54282951290E+02  0.00000000000E+00 0. -1.
          6    1    1    2  501    0 -0.27419000620E+02  0.87522471199E+02  0.67889512213E+03  0.70656887238E+03  0.17300000000E+03 0. -1.
         -6    1    1    2    0  503  0.27419000620E+02 -0.87522471199E+02  0.19654220671E+03  0.27743435905E+03  0.17300000000E+03 0. -1.
<mgrwt>
<rscale>  2 0.19580854E+03</rscale>
<asrwt>0</asrwt>
<pdfrwt beam="1">  1       21 0.14303388E+00 0.19580854E+03</pdfrwt>
<pdfrwt beam="2">  1       21 0.83512240E-02 0.19580854E+03</pdfrwt>
<totfact> 0.37618670E+04</totfact>
</mgrwt>
</event>
<event>
 4    1  0.4391134E+000  0.1746170E+03  0.7546771E-02  0.1173117E+00
         21   -1    0    0  501  502  0.00000000000E+00  0.00000000000E+00  0.41591675506E+03  0.41591675506E+03  0.00000000000E+00 0.  1.
         21   -1    0    0  502  503 -0.00000000000E+00 -0.00000000000E+00 -0.11243284928E+03  0.11243284928E+03  0.00000000000E+00 0.  1.
          6    1    1    2  501    0  0.13545417611E+02 -0.19458044755E+02  0.30757403171E+03  0.35368471670E+03  0.17300000000E+03 0.  1.
         -6    1    1    2    0  503 -0.13545417611E+02  0.19458044755E+02 -0.40901259352E+01  0.17466488764E+03  0.17300000000E+03 0.  1.
<mgrwt>
<rscale>  2 0.17461699E+03</rscale>
<asrwt>0</asrwt>
<pdfrwt beam="1">  1       21 0.63987192E-01 0.17461699E+03</pdfrwt>
<pdfrwt beam="2">  1       21 0.17297362E-01 0.17461699E+03</pdfrwt>
<totfact> 0.68685262E+04</totfact>
</mgrwt>
</event>
<event>
 4    1  0.4391134E+000  0.1895922E+03  0.7546771E-02  0.1158830E+00
         21   -1    0    0  503  502  0.00000000000E+00  0.00000000000E+00  0.15899974988E+03  0.15899974988E+03  0.00000000000E+00 0.  1.
         21   -1    0    0  501  503 -0.00000000000E+00 -0.00000000000E+00 -0.72027537655E+03  0.72027537655E+03  0.00000000000E+00 0.  1.
          6    1    1    2  501    0 -0.69754407168E+02  0.33919371749E+02 -0.64480338759E+03  0.67209866072E+03  0.17300000000E+03 0.  1.
         -6    1    1    2    0  502  0.69754407168E+02 -0.33919371749E+02  0.83527760924E+02  0.20717646571E+03  0.17300000000E+03 0.  1.
<mgrwt>
<rscale>  2 0.18959220E+03</rscale>
<asrwt>0</asrwt>
<pdfrwt beam="1">  1       21 0.24461500E-01 0.18959220E+03</pdfrwt>
<pdfrwt beam="2">  1       21 0.11081159E+00 0.18959220E+03</pdfrwt>
<totfact> 0.10152142E+04</totfact>
</mgrwt>
</event>
<event>
 4    1  0.4391134E+000  0.1750949E+03  0.7546771E-02  0.1172636E+00
         21   -1    0    0  503  502  0.00000000000E+00  0.00000000000E+00  0.32742027457E+03  0.32742027457E+03  0.00000000000E+00 0. -1.
         21   -1    0    0  501  503 -0.00000000000E+00 -0.00000000000E+00 -0.21853623602E+03  0.21853623602E+03  0.00000000000E+00 0. -1.
          6    1    1    2  501    0 -0.70938669637E+01 -0.26055498411E+02 -0.15192892592E+03  0.23182021153E+03  0.17300000000E+03 0. -1.
         -6    1    1    2    0  502  0.70938669637E+01  0.26055498411E+02  0.26081296447E+03  0.31413629905E+03  0.17300000000E+03 0. -1.
<mgrwt>
<rscale>  2 0.17509487E+03</rscale>
<asrwt>0</asrwt>
<pdfrwt beam="1">  1       21 0.50372350E-01 0.17509487E+03</pdfrwt>
<pdfrwt beam="2">  1       21 0.33620959E-01 0.17509487E+03</pdfrwt>
<totfact> 0.32273730E+04</totfact>
</mgrwt>
</event>
<event>
 4    1  0.4391134E+000  0.1963968E+03  0.7546771E-02  0.1152815E+00
         21   -1    0    0  501  502  0.00000000000E+00  0.00000000000E+00  0.12828430238E+03  0.12828430238E+03  0.00000000000E+00 0.  1.
         21   -1    0    0  502  503 -0.00000000000E+00 -0.00000000000E+00 -0.48306315417E+03  0.48306315417E+03  0.00000000000E+00 0. -1.
          6    1    1    2  501    0 -0.91983644706E+02  0.13480472249E+02  0.10436715384E+02  0.19667394096E+03  0.17300000000E+03 0.  1.
         -6    1    1    2    0  503  0.91983644706E+02 -0.13480472249E+02 -0.36521556717E+03  0.41467351559E+03  0.17300000000E+03 0. -1.
<mgrwt>
<rscale>  2 0.19639683E+03</rscale>
<asrwt>0</asrwt>
<pdfrwt beam="1">  1       21 0.19736047E-01 0.19639683E+03</pdfrwt>
<pdfrwt beam="2">  1       21 0.74317408E-01 0.19639683E+03</pdfrwt>
<totfact> 0.38322020E+04</totfact>
</mgrwt>
</event>
<event>
 4    1  0.4391134E+000  0.1786773E+03  0.7546771E-02  0.1169089E+00
         21   -1    0    0  501  502  0.00000000000E+00  0.00000000000E+00  0.65442007498E+03  0.65442007498E+03  0.00000000000E+00 0. -1.
         21   -1    0    0  502  503 -0.00000000000E+00 -0.00000000000E+00 -0.12176590020E+03  0.12176590020E+03  0.00000000000E+00 0. -1.
          6    1    1    2  501    0 -0.39917228022E+02  0.20079759690E+02  0.56678173930E+03  0.59427865673E+03  0.17300000000E+03 0. -1.
         -6    1    1    2    0  503  0.39917228022E+02 -0.20079759690E+02 -0.34127564519E+02  0.18190731844E+03  0.17300000000E+03 0. -1.
<mgrwt>
<rscale>  2 0.17867731E+03</rscale>
<asrwt>0</asrwt>
<pdfrwt beam="1">  1       21 0.10068001E+00 0.17867731E+03</pdfrwt>
<pdfrwt beam="2">  1       21 0.18733216E-01 0.17867731E+03</pdfrwt>
<totfact> 0.21245245E+04</totfact>
</mgrwt>
</event>
<event>
 4    1  0.4391134E+000  0.1785797E+03  0.7546771E-02  0.1169185E+00
         21   -1    0    0  503  502  0.00000000000E+00  0.00000000000E+00  0.25165015132E+03  0.25165015132E+03  0.00000000000E+00 0. -1.
         21   -1    0    0  501  503 -0.00000000000E+00 -0.00000000000E+00 -0.27156758293E+03  0.27156758293E+03  0.00000000000E+00 0. -1.
          6    1    1    2  501    0  0.42757250246E+02  0.11556008390E+02 -0.20101419283E+03  0.26888181326E+03  0.17300000000E+03 0. -1.
         -6    1    1    2    0  502 -0.42757250246E+02 -0.11556008390E+02  0.18109676123E+03  0.25433592099E+03  0.17300000000E+03 0. -1.
<mgrwt>
<rscale>  2 0.17857974E+03</rscale>
<asrwt>0</asrwt>
<pdfrwt beam="1">  1       21 0.38715408E-01 0.17857974E+03</pdfrwt>
<pdfrwt beam="2">  1       21 0.41779628E-01 0.17857974E+03</pdfrwt>
<totfact> 0.35737135E+04</totfact>
</mgrwt>
</event>
<event>
 4    1  0.4391134E+000  0.2072364E+03  0.7546771E-02  0.1143773E+00
         21   -1    0    0  501  502  0.00000000000E+00  0.00000000000E+00  0.95705705694E+02  0.95705705694E+02  0.00000000000E+00 0. -1.
         21   -1    0    0  502  503 -0.00000000000E+00 -0.00000000000E+00 -0.61720384043E+03  0.61720384043E+03  0.00000000000E+00 0. -1.
          6    1    1    2  501    0  0.15056435042E+02  0.11309836063E+03 -0.74521465088E+02  0.22022802767E+03  0.17300000000E+03 0. -1.
         -6    1    1    2    0  503 -0.15056435042E+02 -0.11309836063E+03 -0.44697666964E+03  0.49268151845E+03  0.17300000000E+03 0. -1.
<mgrwt>
<rscale>  2 0.20723642E+03</rscale>
<asrwt>0</asrwt>
<pdfrwt beam="1">  1       21 0.14723954E-01 0.20723642E+03</pdfrwt>
<pdfrwt beam="2">  1       21 0.94954439E-01 0.20723642E+03</pdfrwt>
<totfact> 0.37334836E+04</totfact>
</mgrwt>
</event>
<event>
 4    1  0.4391134E+000  0.1791107E+03  0.7546771E-02  0.1168666E+00
         21   -1    0    0  503  502  0.00000000000E+00  0.00000000000E+00  0.20205345423E+03  0.20205345423E+03  0.00000000000E+00 0. -1.
         21   -1    0    0  501  503 -0.00000000000E+00 -0.00000000000E+00 -0.24147595372E+03  0.24147595372E+03  0.00000000000E+00 0. -1.
          6    1    1    2  501    0 -0.23648275383E+02 -0.39905055025E+02 -0.14949362377E+03  0.23330023123E+03  0.17300000000E+03 0. -1.
         -6    1    1    2    0  502  0.23648275383E+02  0.39905055025E+02  0.11007112428E+03  0.21022917672E+03  0.17300000000E+03 0. -1.
<mgrwt>
<rscale>  2 0.17911073E+03</rscale>
<asrwt>0</asrwt>
<pdfrwt beam="1">  1       21 0.31085147E-01 0.17911073E+03</pdfrwt>
<pdfrwt beam="2">  1       21 0.37150147E-01 0.17911073E+03</pdfrwt>
<totfact> 0.69874673E+04</totfact>
</mgrwt>
</event>
<event>
 4    1  0.4391134E+000  0.2172057E+03  0.7546771E-02  0.1135984E+00
         21   -1    0    0  501  502  0.00000000000E+00  0.00000000000E+00  0.35480495671E+03  0.35480495671E+03  0.00000000000E+00 0. -1.
         21   -1    0    0  502  503 -0.00000000000E+00 -0.00000000000E+00 -0.13566948436E+03  0.13566948436E+03  0.00000000000E+00 0.  1.
          6    1    1    2  501    0 -0.20140452944E+02 -0.12978315090E+03  0.74972932714E+02  0.22978086244E+03  0.17300000000E+03 0.  1.
         -6    1    1    2    0  503  0.20140452944E+02  0.12978315090E+03  0.14416253964E+03  0.26069357863E+03  0.17300000000E+03 0. -1.
<mgrwt>
<rscale>  2 0.21720567E+03</rscale>
<asrwt>0</asrwt>
<pdfrwt beam="1">  1       21 0.54585378E-01 0.21720567E+03</pdfrwt>
<pdfrwt beam="2">  1       21 0.20872228E-01 0.21720567E+03</pdfrwt>
<totfact> 0.66810469E+04</totfact>
</mgrwt>
</event>
<event>
 4    1  0.4391134E+000  0.1732102E+03  0.7546771E-02  0.1174541E+00
         21   -1    0    0  503  502  0.00000000000E+00  0.00000000000E+00  0.97629283664E+03  0.97629283664E+03  0.00000000000E+00 0.  1.
         21   -1    0    0  501  503 -0.00000000000E+00 -0.00000000000E+00 -0.32885238828E+02  0.32885238828E+02  0.00000000000E+00 0.  1.
          6    1    1    2  501    0  0.54325064157E+01  0.65762278988E+01  0.34253544906E+03  0.38383888907E+03  0.17300000000E+03 0.  1.
         -6    1    1    2    0  502 -0.54325064157E+01 -0.65762278988E+01  0.60087214875E+03  0.62533918640E+03  0.17300000000E+03 0.  1.
<mgrwt>
<rscale>  2 0.17321016E+03</rscale>
<asrwt>0</asrwt>
<pdfrwt beam="1">  1       21 0.15019888E+00 0.17321016E+03</pdfrwt>
<pdfrwt beam="2">  1       21 0.50592683E-02 0.17321016E+03</pdfrwt>
<totfact> 0.79322426E+04</totfact>
</mgrwt>
</event>
<event>
 4    1  0.4391134E+000  0.1848062E+03  0.7546771E-02  0.1163231E+00
         21   -1    0    0  501  502  0.00000000000E+00  0.00000000000E+00  0.11730932454E+03  0.11730932454E+03  0.00000000000E+00 0.  1.
         21   -1    0    0  502  503 -0.00000000000E+00 -0.00000000000E+00 -0.32108858287E+03  0.32108858287E+03  0.00000000000E+00 0.  1.
          6    1    1    2  501    0 -0.41167911615E+02  0.50294300210E+02 -0.34944066498E+02  0.18808083731E+03  0.17300000000E+03 0.  1.
         -6    1    1    2    0  503  0.41167911615E+02 -0.50294300210E+02 -0.16883519184E+03  0.25031707010E+03  0.17300000000E+03 0.  1.
<mgrwt>
<rscale>  2 0.18480615E+03</rscale>
<asrwt>0</asrwt>
<pdfrwt beam="1">  1       21 0.18047589E-01 0.18480615E+03</pdfrwt>
<pdfrwt beam="2">  1       21 0.49398242E-01 0.18480615E+03</pdfrwt>
<totfact> 0.10949202E+05</totfact>
</mgrwt>
</event>
<event>
 4    1  0.4391134E+000  0.2392781E+03  0.7546771E-02  0.1120275E+00
         21   -1    0    0  501  502  0.00000000000E+00  0.00000000000E+00  0.50090862498E+03  0.50090862498E+03  0.00000000000E+00 0.  1.
         21   -1    0    0  502  503 -0.00000000000E+00 -0.00000000000E+00 -0.14522092746E+03  0.14522092746E+03  0.00000000000E+00 0. -1.
          6    1    1    2  501    0  0.13450589701E+03 -0.96089402263E+02  0.32691688848E+03  0.40512795698E+03  0.17300000000E+03 0.  1.
         -6    1    1    2    0  503 -0.13450589701E+03  0.96089402263E+02  0.28770809040E+02  0.24100159545E+03  0.17300000000E+03 0. -1.
<mgrwt>
<rscale>  2 0.23927810E+03</rscale>
<asrwt>0</asrwt>
<pdfrwt beam="1">  1       21 0.77062865E-01 0.23927810E+03</pdfrwt>
<pdfrwt beam="2">  1       21 0.22341681E-01 0.23927810E+03</pdfrwt>
<totfact> 0.27369345E+04</totfact>
</mgrwt>
</event>
<event>
 4    1  0.4391134E+000  0.1833971E+03  0.7546771E-02  0.1164555E+00
         21   -1    0    0  501  502  0.00000000000E+00  0.00000000000E+00  0.32190881440E+02  0.32190881440E+02  0.00000000000E+00 0.  1.
         21   -1    0    0  502  503 -0.00000000000E+00 -0.00000000000E+00 -0.17863799530E+04  0.17863799530E+04  0.00000000000E+00 0.  1.
          6    1    1    2  501    0  0.59113037605E+02 -0.14531452414E+02 -0.29125480325E+03  0.34418581427E+03  0.17300000000E+03 0.  1.
         -6    1    1    2    0  503 -0.59113037605E+02  0.14531452414E+02 -0.14629342683E+04  0.14743850202E+04  0.17300000000E+03 0.  1.
<mgrwt>
<rscale>  2 0.18339715E+03</rscale>
<asrwt>0</asrwt>
<pdfrwt beam="1">  1       21 0.49524440E-02 0.18339715E+03</pdfrwt>
<pdfrwt beam="2">  1       21 0.27482765E+00 0.18339715E+03</pdfrwt>
<totfact> 0.13153349E+04</totfact>
</mgrwt>
</event>
<event>
 4    1  0.4391134E+000  0.2067078E+03  0.7546771E-02  0.1144200E+00
         21   -1    0    0  501  502  0.00000000000E+00  0.00000000000E+00  0.33143703511E+03  0.33143703511E+03  0.00000000000E+00 0. -1.
         21   -1    0    0  502  503 -0.00000000000E+00 -0.00000000000E+00 -0.13262176479E+03  0.13262176479E+03  0.00000000000E+00 0.  1.
          6    1    1    2  501    0 -0.10485268794E+03  0.42485660914E+02  0.13818442423E+03  0.24864241925E+03  0.17300000000E+03 0. -1.
         -6    1    1    2    0  503  0.10485268794E+03 -0.42485660914E+02  0.60630846092E+02  0.21541638064E+03  0.17300000000E+03 0. -1.
<mgrwt>
<rscale>  2 0.20670781E+03</rscale>
<asrwt>0</asrwt>
<pdfrwt beam="1">  1       21 0.50990313E-01 0.20670781E+03</pdfrwt>
<pdfrwt beam="2">  1       21 0.20403348E-01 0.20670781E+03</pdfrwt>
<totfact> 0.80843664E+04</totfact>
</mgrwt>
</event>
<event>
 4    1  0.4391134E+000  0.2324454E+03  0.7546771E-02  0.1124930E+00
         21   -1    0    0  503  502  0.00000000000E+00  0.00000000000E+00  0.16690834182E+03  0.16690834182E+03  0.00000000000E+00 0.  1.
         21   -1    0    0  501  503 -0.00000000000E+00 -0.00000000000E+00 -0.42738123638E+03  0.42738123638E+03  0.00000000000E+00 0. -1.
          6    1    1    2  501    0 -0.14807358556E+03 -0.46648212914E+02 -0.27658138209E+03  0.36128673298E+03  0.17300000000E+03 0. -1.
         -6    1    1    2    0  502  0.14807358556E+03  0.46648212914E+02  0.16108487537E+02  0.23300284522E+03  0.17300000000E+03 0.  1.
<mgrwt>
<rscale>  2 0.23244535E+03</rscale>
<asrwt>0</asrwt>
<pdfrwt beam="1">  1       21 0.25678206E-01 0.23244535E+03</pdfrwt>
<pdfrwt beam="2">  1       21 0.65750960E-01 0.23244535E+03</pdfrwt>
<totfact> 0.29958710E+04</totfact>
</mgrwt>
</event>
<event>
 4    1  0.4391134E+000  0.1754728E+03  0.7546771E-02  0.1172258E+00
         21   -1    0    0  501  502  0.00000000000E+00  0.00000000000E+00  0.13376171949E+03  0.13376171949E+03  0.00000000000E+00 0. -1.
         21   -1    0    0  502  503 -0.00000000000E+00 -0.00000000000E+00 -0.49554650628E+03  0.49554650628E+03  0.00000000000E+00 0. -1.
          6    1    1    2  501    0  0.21351338385E+02  0.20144692805E+02  0.49360764965E+02  0.18228322308E+03  0.17300000000E+03 0. -1.
         -6    1    1    2    0  503 -0.21351338385E+02 -0.20144692805E+02 -0.41114555175E+03  0.44702500268E+03  0.17300000000E+03 0. -1.
<mgrwt>
<rscale>  2 0.17547276E+03</rscale>
<asrwt>0</asrwt>
<pdfrwt beam="1">  1       21 0.20578726E-01 0.17547276E+03</pdfrwt>
<pdfrwt beam="2">  1       21 0.76237926E-01 0.17547276E+03</pdfrwt>
<totfact> 0.33854651E+04</totfact>
</mgrwt>
</event>
<event>
 4    1  0.4391134E+000  0.1957565E+03  0.7546771E-02  0.1153369E+00
         21   -1    0    0  501  502  0.00000000000E+00  0.00000000000E+00  0.21000003219E+03  0.21000003219E+03  0.00000000000E+00 0. -1.
         21   -1    0    0  502  503 -0.00000000000E+00 -0.00000000000E+00 -0.22458342467E+03  0.22458342467E+03  0.00000000000E+00 0. -1.
          6    1    1    2  501    0  0.83806167100E+02  0.36988313933E+02  0.86792762432E+02  0.21413451992E+03  0.17300000000E+03 0.  1.
         -6    1    1    2    0  503 -0.83806167100E+02 -0.36988313933E+02 -0.10137615491E+03  0.22044893693E+03  0.17300000000E+03 0.  1.
<mgrwt>
<rscale>  2 0.19575650E+03</rscale>
<asrwt>0</asrwt>
<pdfrwt beam="1">  1       21 0.32307697E-01 0.19575650E+03</pdfrwt>
<pdfrwt beam="2">  1       21 0.34551296E-01 0.19575650E+03</pdfrwt>
<totfact> 0.74316559E+04</totfact>
</mgrwt>
</event>
<event>
 4    1  0.4391134E+000  0.2182368E+03  0.7546771E-02  0.1135204E+00
         21   -1    0    0  501  502  0.00000000000E+00  0.00000000000E+00  0.63619318094E+02  0.63619318094E+02  0.00000000000E+00 0. -1.
         21   -1    0    0  502  503 -0.00000000000E+00 -0.00000000000E+00 -0.20044877864E+04  0.20044877864E+04  0.00000000000E+00 0.  1.
          6    1    1    2  501    0  0.11277275920E+03  0.70573475941E+02 -0.15194757014E+03  0.26592362587E+03  0.17300000000E+03 0. -1.
         -6    1    1    2    0  503 -0.11277275920E+03 -0.70573475941E+02 -0.17889208981E+04  0.18021834786E+04  0.17300000000E+03 0.  1.
<mgrwt>
<rscale>  2 0.21823682E+03</rscale>
<asrwt>0</asrwt>
<pdfrwt beam="1">  1       21 0.97875863E-02 0.21823682E+03</pdfrwt>
<pdfrwt beam="2">  1       21 0.30838277E+00 0.21823682E+03</pdfrwt>
<totfact> 0.24967911E+03</totfact>
</mgrwt>
</event>
<event>
 4    1  0.4391134E+000  0.1754598E+03  0.7546771E-02  0.1172271E+00
         21   -1    0    0  501  502  0.00000000000E+00  0.00000000000E+00  0.31390147242E+03  0.31390147242E+03  0.00000000000E+00 0.  1.
         21   -1    0    0  502  503 -0.00000000000E+00 -0.00000000000E+00 -0.98088202547E+02  0.98088202547E+02  0.00000000000E+00 0.  1.
          6    1    1    2  501    0  0.20908679380E+02 -0.20492940818E+02  0.10558894126E+03  0.20478075596E+03  0.17300000000E+03 0. -1.
         -6    1    1    2    0  503 -0.20908679380E+02  0.20492940818E+02  0.11022432862E+03  0.20720891901E+03  0.17300000000E+03 0. -1.
<mgrwt>
<rscale>  2 0.17545978E+03</rscale>
<asrwt>0</asrwt>
<pdfrwt beam="1">  1       21 0.48292534E-01 0.17545978E+03</pdfrwt>
<pdfrwt beam="2">  1       21 0.15090493E-01 0.17545978E+03</pdfrwt>
<totfact> 0.15980255E+05</totfact>
</mgrwt>
</event>
<event>
 4    1  0.4391134E+000  0.2836086E+03  0.7546771E-02  0.1093734E+00
         21   -1    0    0  501  502  0.00000000000E+00  0.00000000000E+00  0.75695060539E+02  0.75695060539E+02  0.00000000000E+00 0. -1.
         21   -1    0    0  502  503 -0.00000000000E+00 -0.00000000000E+00 -0.19187701059E+04  0.19187701059E+04  0.00000000000E+00 0. -1.
          6    1    1    2  501    0 -0.18148429280E+03  0.13254543807E+03 -0.25539967066E+03  0.38165800589E+03  0.17300000000E+03 0. -1.
         -6    1    1    2    0  503  0.18148429280E+03 -0.13254543807E+03 -0.15876753747E+04  0.16128071605E+04  0.17300000000E+03 0. -1.
<mgrwt>
<rscale>  2 0.28360861E+03</rscale>
<asrwt>0</asrwt>
<pdfrwt beam="1">  1       21 0.11645395E-01 0.28360861E+03</pdfrwt>
<pdfrwt beam="2">  1       21 0.29519536E+00 0.28360861E+03</pdfrwt>
<totfact> 0.20512172E+03</totfact>
</mgrwt>
</event>
<event>
 4    1  0.4391134E+000  0.3143671E+03  0.7546771E-02  0.1078271E+00
         21   -1    0    0  503  502  0.00000000000E+00  0.00000000000E+00  0.28004724856E+03  0.28004724856E+03  0.00000000000E+00 0.  1.
         21   -1    0    0  501  503 -0.00000000000E+00 -0.00000000000E+00 -0.36076753538E+03  0.36076753538E+03  0.00000000000E+00 0.  1.
          6    1    1    2  501    0  0.16133544972E+03  0.20704714757E+03 -0.87697900343E+02  0.32637029641E+03  0.17300000000E+03 0.  1.
         -6    1    1    2    0  502 -0.16133544972E+03 -0.20704714757E+03  0.69776135234E+01  0.31444448754E+03  0.17300000000E+03 0.  1.
<mgrwt>
<rscale>  2 0.31436706E+03</rscale>
<asrwt>0</asrwt>
<pdfrwt beam="1">  1       21 0.43084192E-01 0.31436706E+03</pdfrwt>
<pdfrwt beam="2">  1       21 0.55502698E-01 0.31436706E+03</pdfrwt>
<totfact> 0.14898626E+04</totfact>
</mgrwt>
</event>
<event>
 4    1  0.4391134E+000  0.1994146E+03  0.7546771E-02  0.1150234E+00
         21   -1    0    0  501  502  0.00000000000E+00  0.00000000000E+00  0.56382680750E+03  0.56382680750E+03  0.00000000000E+00 0.  1.
         21   -1    0    0  502  503 -0.00000000000E+00 -0.00000000000E+00 -0.32596830983E+03  0.32596830983E+03  0.00000000000E+00 0.  1.
          6    1    1    2  501    0 -0.67163390814E+02 -0.72981150598E+02  0.51276592308E+03  0.55017729985E+03  0.17300000000E+03 0.  1.
         -6    1    1    2    0  503  0.67163390814E+02  0.72981150598E+02 -0.27490742540E+03  0.33961781748E+03  0.17300000000E+03 0.  1.
<mgrwt>
<rscale>  2 0.19941457E+03</rscale>
<asrwt>0</asrwt>
<pdfrwt beam="1">  1       21 0.86742586E-01 0.19941457E+03</pdfrwt>
<pdfrwt beam="2">  1       21 0.50148971E-01 0.19941457E+03</pdfrwt>
<totfact> 0.43078659E+03</totfact>
</mgrwt>
</event>
<event>
 4    1  0.4391134E+000  0.2605531E+03  0.7546771E-02  0.1106811E+00
         21   -1    0    0  503  502  0.00000000000E+00  0.00000000000E+00  0.18648504177E+03  0.18648504177E+03  0.00000000000E+00 0. -1.
         21   -1    0    0  501  503 -0.00000000000E+00 -0.00000000000E+00 -0.37393374527E+03  0.37393374527E+03  0.00000000000E+00 0.  1.
          6    1    1    2  501    0 -0.19480702146E+03  0.30264504644E+01 -0.48144270995E+02  0.26496378213E+03  0.17300000000E+03 0.  1.
         -6    1    1    2    0  502  0.19480702146E+03 -0.30264504644E+01 -0.13930443250E+03  0.29545500491E+03  0.17300000000E+03 0. -1.
<mgrwt>
<rscale>  2 0.26055313E+03</rscale>
<asrwt>0</asrwt>
<pdfrwt beam="1">  1       21 0.28690007E-01 0.26055313E+03</pdfrwt>
<pdfrwt beam="2">  1       21 0.57528268E-01 0.26055313E+03</pdfrwt>
<totfact> 0.31887294E+04</totfact>
</mgrwt>
</event>
<event>
 4    1  0.4391134E+000  0.2149101E+03  0.7546771E-02  0.1137736E+00
         21   -1    0    0  501  502  0.00000000000E+00  0.00000000000E+00  0.12446668295E+03  0.12446668295E+03  0.00000000000E+00 0. -1.
         21   -1    0    0  502  503 -0.00000000000E+00 -0.00000000000E+00 -0.54107415951E+03  0.54107415951E+03  0.00000000000E+00 0.  1.
          6    1    1    2  501    0 -0.12524916548E+03 -0.23874528888E+02 -0.21777033368E+02  0.21601061494E+03  0.17300000000E+03 0. -1.
         -6    1    1    2    0  503  0.12524916548E+03  0.23874528888E+02 -0.39483044320E+03  0.44953022753E+03  0.17300000000E+03 0.  1.
<mgrwt>
<rscale>  2 0.21491009E+03</rscale>
<asrwt>0</asrwt>
<pdfrwt beam="1">  1       21 0.19148720E-01 0.21491009E+03</pdfrwt>
<pdfrwt beam="2">  1       21 0.83242181E-01 0.21491009E+03</pdfrwt>
<totfact> 0.31080643E+04</totfact>
</mgrwt>
</event>
<event>
 4    1  0.4391134E+000  0.2140146E+03  0.7546771E-02  0.1138426E+00
         21   -1    0    0  501  502  0.00000000000E+00  0.00000000000E+00  0.68473565814E+03  0.68473565814E+03  0.00000000000E+00 0.  1.
         21   -1    0    0  502  503 -0.00000000000E+00 -0.00000000000E+00 -0.69511851141E+02  0.69511851141E+02  0.00000000000E+00 0. -1.
          6    1    1    2  501    0 -0.39380452297E+01 -0.12592754213E+03  0.38084778175E+03  0.43686071800E+03  0.17300000000E+03 0.  1.
         -6    1    1    2    0  503  0.39380452297E+01  0.12592754213E+03  0.23437602525E+03  0.31738679128E+03  0.17300000000E+03 0. -1.
<mgrwt>
<rscale>  2 0.21401461E+03</rscale>
<asrwt>0</asrwt>
<pdfrwt beam="1">  1       21 0.10534394E+00 0.21401461E+03</pdfrwt>
<pdfrwt beam="2">  1       21 0.10694131E-01 0.21401461E+03</pdfrwt>
<totfact> 0.51670882E+04</totfact>
</mgrwt>
</event>
<event>
 4    1  0.4391134E+000  0.1958636E+03  0.7546771E-02  0.1153277E+00
         21   -1    0    0  503  502  0.00000000000E+00  0.00000000000E+00  0.48672832582E+02  0.48672832582E+02  0.00000000000E+00 0.  1.
         21   -1    0    0  501  503 -0.00000000000E+00 -0.00000000000E+00 -0.85166536228E+03  0.85166536228E+03  0.00000000000E+00 0.  1.
          6    1    1    2  501    0 -0.69660703557E+02 -0.59840942776E+02 -0.52441162980E+03  0.55979470301E+03  0.17300000000E+03 0.  1.
         -6    1    1    2    0  502  0.69660703557E+02  0.59840942776E+02 -0.27858089990E+03  0.34054349185E+03  0.17300000000E+03 0.  1.
<mgrwt>
<rscale>  2 0.19586361E+03</rscale>
<asrwt>0</asrwt>
<pdfrwt beam="1">  1       21 0.74881286E-02 0.19586361E+03</pdfrwt>
<pdfrwt beam="2">  1       21 0.13102543E+00 0.19586361E+03</pdfrwt>
<totfact> 0.56947056E+04</totfact>
</mgrwt>
</event>
<event>
 4    1  0.4391134E+000  0.1865928E+03  0.7546771E-02  0.1161571E+00
         21   -1    0    0  501  502  0.00000000000E+00  0.00000000000E+00  0.12625683785E+03  0.12625683785E+03  0.00000000000E+00 0.  1.
         21   -1    0    0  502  503 -0.00000000000E+00 -0.00000000000E+00 -0.34083517353E+03  0.34083517353E+03  0.00000000000E+00 0.  1.
          6    1    1    2  501    0 -0.64260637471E+02 -0.27539522571E+02 -0.52420384312E+01  0.18666637029E+03  0.17300000000E+03 0.  1.
         -6    1    1    2    0  503  0.64260637471E+02  0.27539522571E+02 -0.20933629726E+03  0.28042564109E+03  0.17300000000E+03 0.  1.
<mgrwt>
<rscale>  2 0.18659275E+03</rscale>
<asrwt>0</asrwt>
<pdfrwt beam="1">  1       21 0.19424129E-01 0.18659275E+03</pdfrwt>
<pdfrwt beam="2">  1       21 0.52436180E-01 0.18659275E+03</pdfrwt>
<totfact> 0.84286028E+04</totfact>
</mgrwt>
</event>
<event>
 4    1  0.4391134E+000  0.1866987E+03  0.7546771E-02  0.1161473E+00
         21   -1    0    0  501  502  0.00000000000E+00  0.00000000000E+00  0.53444527046E+02  0.53444527046E+02  0.00000000000E+00 0.  1.
         21   -1    0    0  502  503 -0.00000000000E+00 -0.00000000000E+00 -0.65358890125E+03  0.65358890125E+03  0.00000000000E+00 0.  1.
          6    1    1    2  501    0  0.56804216417E+02 -0.41239418491E+02 -0.28376344736E+03  0.33967352370E+03  0.17300000000E+03 0. -1.
         -6    1    1    2    0  503 -0.56804216417E+02  0.41239418491E+02 -0.31638092684E+03  0.36735990460E+03  0.17300000000E+03 0. -1.
<mgrwt>
<rscale>  2 0.18669871E+03</rscale>
<asrwt>0</asrwt>
<pdfrwt beam="1">  1       21 0.82222348E-02 0.18669871E+03</pdfrwt>
<pdfrwt beam="2">  1       21 0.10055214E+00 0.18669871E+03</pdfrwt>
<totfact> 0.92934872E+04</totfact>
</mgrwt>
</event>
<event>
 4    1  0.4391134E+000  0.2168213E+03  0.7546771E-02  0.1136275E+00
         21   -1    0    0  503  502  0.00000000000E+00  0.00000000000E+00  0.23334028190E+03  0.23334028190E+03  0.00000000000E+00 0.  1.
         21   -1    0    0  501  503 -0.00000000000E+00 -0.00000000000E+00 -0.36077750449E+03  0.36077750449E+03  0.00000000000E+00 0. -1.
          6    1    1    2  501    0 -0.13064934421E+03  0.36361371492E+01 -0.26111471625E+03  0.33940001131E+03  0.17300000000E+03 0. -1.
         -6    1    1    2    0  502  0.13064934421E+03 -0.36361371492E+01  0.13367749366E+03  0.25471777509E+03  0.17300000000E+03 0.  1.
<mgrwt>
<rscale>  2 0.21682129E+03</rscale>
<asrwt>0</asrwt>
<pdfrwt beam="1">  1       21 0.35898505E-01 0.21682129E+03</pdfrwt>
<pdfrwt beam="2">  1       21 0.55504231E-01 0.21682129E+03</pdfrwt>
<totfact> 0.22578677E+04</totfact>
</mgrwt>
</event>
<event>
 4    1  0.4391134E+000  0.2460539E+03  0.7546771E-02  0.1115824E+00
         21   -1    0    0  501  502  0.00000000000E+00  0.00000000000E+00  0.31296162172E+03  0.31296162172E+03  0.00000000000E+00 0. -1.
         21   -1    0    0  502  503 -0.00000000000E+00 -0.00000000000E+00 -0.28713448990E+03  0.28713448990E+03  0.00000000000E+00 0.  1.
          6    1    1    2  501    0 -0.16065802829E+03 -0.69300318923E+02  0.18430186377E+03  0.30742432117E+03  0.17300000000E+03 0. -1.
         -6    1    1    2    0  503  0.16065802829E+03  0.69300318923E+02 -0.15847473195E+03  0.29267179045E+03  0.17300000000E+03 0.  1.
<mgrwt>
<rscale>  2 0.24605393E+03</rscale>
<asrwt>0</asrwt>
<pdfrwt beam="1">  1       21 0.48147942E-01 0.24605393E+03</pdfrwt>
<pdfrwt beam="2">  1       21 0.44174537E-01 0.24605393E+03</pdfrwt>
<totfact> 0.19697867E+04</totfact>
</mgrwt>
</event>
<event>
 4    1  0.4391134E+000  0.2466808E+03  0.7546771E-02  0.1115421E+00
         21   -1    0    0  501  502  0.00000000000E+00  0.00000000000E+00  0.14673123914E+03  0.14673123914E+03  0.00000000000E+00 0.  1.
         21   -1    0    0  502  503 -0.00000000000E+00 -0.00000000000E+00 -0.42657340325E+03  0.42657340325E+03  0.00000000000E+00 0.  1.
          6    1    1    2  501    0 -0.17269734537E+03  0.33136723245E+02 -0.18771805840E+03  0.30998303982E+03  0.17300000000E+03 0.  1.
         -6    1    1    2    0  503  0.17269734537E+03 -0.33136723245E+02 -0.92124105705E+02  0.26332160257E+03  0.17300000000E+03 0.  1.
<mgrwt>
<rscale>  2 0.24668080E+03</rscale>
<asrwt>0</asrwt>
<pdfrwt beam="1">  1       21 0.22574037E-01 0.24668080E+03</pdfrwt>
<pdfrwt beam="2">  1       21 0.65626677E-01 0.24668080E+03</pdfrwt>
<totfact> 0.38238699E+04</totfact>
</mgrwt>
</event>
<event>
 4    1  0.4391134E+000  0.1737714E+03  0.7546771E-02  0.1173971E+00
         21   -1    0    0  501  502  0.00000000000E+00  0.00000000000E+00  0.10835215935E+04  0.10835215935E+04  0.00000000000E+00 0.  1.
         21   -1    0    0  502  503 -0.00000000000E+00 -0.00000000000E+00 -0.41898412175E+02  0.41898412175E+02  0.00000000000E+00 0.  1.
          6    1    1    2  501    0 -0.74357815279E+01  0.14566788925E+02  0.84642942038E+03  0.86408289294E+03  0.17300000000E+03 0.  1.
         -6    1    1    2    0  503  0.74357815279E+01 -0.14566788925E+02  0.19519376099E+03  0.26133711278E+03  0.17300000000E+03 0.  1.
<mgrwt>
<rscale>  2 0.17377135E+03</rscale>
<asrwt>0</asrwt>
<pdfrwt beam="1">  1       21 0.16669561E+00 0.17377135E+03</pdfrwt>
<pdfrwt beam="2">  1       21 0.64459104E-02 0.17377135E+03</pdfrwt>
<totfact> 0.39731357E+04</totfact>
</mgrwt>
</event>
<event>
 4    1  0.4391134E+000  0.2057322E+03  0.7546771E-02  0.1144991E+00
         21   -1    0    0  503  502  0.00000000000E+00  0.00000000000E+00  0.15026124570E+03  0.15026124570E+03  0.00000000000E+00 0.  1.
         21   -1    0    0  501  503 -0.00000000000E+00 -0.00000000000E+00 -0.98009355339E+03  0.98009355339E+03  0.00000000000E+00 0.  1.
          6    1    1    2  501    0  0.80134890583E+02  0.77299118692E+02 -0.89201350443E+03  0.91543096219E+03  0.17300000000E+03 0.  1.
         -6    1    1    2    0  502 -0.80134890583E+02 -0.77299118692E+02  0.62181196748E+02  0.21492383690E+03  0.17300000000E+03 0.  1.
<mgrwt>
<rscale>  2 0.20573224E+03</rscale>
<asrwt>0</asrwt>
<pdfrwt beam="1">  1       21 0.23117115E-01 0.20573224E+03</pdfrwt>
<pdfrwt beam="2">  1       21 0.15078362E+00 0.20573224E+03</pdfrwt>
<totfact> 0.51265482E+03</totfact>
</mgrwt>
</event>
<event>
 4    1  0.4391134E+000  0.1886482E+03  0.7546771E-02  0.1159686E+00
         21   -1    0    0  503  502  0.00000000000E+00  0.00000000000E+00  0.28318241260E+02  0.28318241260E+02  0.00000000000E+00 0. -1.
         21   -1    0    0  501  503 -0.00000000000E+00 -0.00000000000E+00 -0.12573542970E+04  0.12573542970E+04  0.00000000000E+00 0. -1.
          6    1    1    2  501    0 -0.45822369585E+02 -0.59661212014E+02 -0.60009962331E+03  0.62905302453E+03  0.17300000000E+03 0. -1.
         -6    1    1    2    0  502  0.45822369585E+02  0.59661212014E+02 -0.62893643243E+03  0.65661951373E+03  0.17300000000E+03 0. -1.
<mgrwt>
<rscale>  2 0.18864822E+03</rscale>
<asrwt>0</asrwt>
<pdfrwt beam="1">  1       21 0.43566533E-02 0.18864822E+03</pdfrwt>
<pdfrwt beam="2">  1       21 0.19343909E+00 0.18864822E+03</pdfrwt>
<totfact> 0.50395058E+04</totfact>
</mgrwt>
</event>
<event>
 4    1  0.4391134E+000  0.1812366E+03  0.7546771E-02  0.1166612E+00
         21   -1    0    0  503  502  0.00000000000E+00  0.00000000000E+00  0.38814914154E+02  0.38814914154E+02  0.00000000000E+00 0.  1.
         21   -1    0    0  501  503 -0.00000000000E+00 -0.00000000000E+00 -0.14149176498E+04  0.14149176498E+04  0.00000000000E+00 0.  1.
          6    1    1    2  501    0 -0.35699912061E+02  0.40536808228E+02 -0.11488616729E+04  0.11630691553E+04  0.17300000000E+03 0.  1.
         -6    1    1    2    0  502  0.35699912061E+02 -0.40536808228E+02 -0.22724106281E+03  0.29066340872E+03  0.17300000000E+03 0.  1.
<mgrwt>
<rscale>  2 0.18123663E+03</rscale>
<asrwt>0</asrwt>
<pdfrwt beam="1">  1       21 0.59715251E-02 0.18123663E+03</pdfrwt>
<pdfrwt beam="2">  1       21 0.21767965E+00 0.18123663E+03</pdfrwt>
<totfact> 0.20857018E+04</totfact>
</mgrwt>
</event>
<event>
 4    1  0.4391134E+000  0.1829548E+03  0.7546771E-02  0.1164974E+00
         21   -1    0    0  503  502  0.00000000000E+00  0.00000000000E+00  0.32938116291E+03  0.32938116291E+03  0.00000000000E+00 0.  1.
         21   -1    0    0  501  503 -0.00000000000E+00 -0.00000000000E+00 -0.35816075091E+03  0.35816075091E+03  0.00000000000E+00 0. -1.
          6    1    1    2  501    0  0.58226468572E+02  0.12374381806E+02 -0.30533183672E+03  0.35594940298E+03  0.17300000000E+03 0. -1.
         -6    1    1    2    0  502 -0.58226468572E+02 -0.12374381806E+02  0.27655224872E+03  0.33159251083E+03  0.17300000000E+03 0.  1.
<mgrwt>
<rscale>  2 0.18295477E+03</rscale>
<asrwt>0</asrwt>
<pdfrwt beam="1">  1       21 0.50674025E-01 0.18295477E+03</pdfrwt>
<pdfrwt beam="2">  1       21 0.55101654E-01 0.18295477E+03</pdfrwt>
<totfact> 0.11587662E+04</totfact>
</mgrwt>
</event>
<event>
 4    1  0.4391134E+000  0.2226742E+03  0.7546771E-02  0.1131905E+00
         21   -1    0    0  503  502  0.00000000000E+00  0.00000000000E+00  0.65797455936E+03  0.65797455936E+03  0.00000000000E+00 0. -1.
         21   -1    0    0  501  503 -0.00000000000E+00 -0.00000000000E+00 -0.75842001702E+02  0.75842001702E+02  0.00000000000E+00 0.  1.
          6    1    1    2  501    0 -0.13565739037E+03  0.35381713151E+02  0.26176232273E+03  0.34366161669E+03  0.17300000000E+03 0.  1.
         -6    1    1    2    0  502  0.13565739037E+03 -0.35381713151E+02  0.32037023493E+03  0.39015494437E+03  0.17300000000E+03 0.  1.
<mgrwt>
<rscale>  2 0.22267419E+03</rscale>
<asrwt>0</asrwt>
<pdfrwt beam="1">  1       21 0.10122685E+00 0.22267419E+03</pdfrwt>
<pdfrwt beam="2">  1       21 0.11668001E-01 0.22267419E+03</pdfrwt>
<totfact> 0.48470311E+04</totfact>
</mgrwt>
</event>
<event>
 4    1  0.4391134E+000  0.1886015E+03  0.7546771E-02  0.1159729E+00
         21   -1    0    0  501  502  0.00000000000E+00  0.00000000000E+00  0.21931516110E+02  0.21931516110E+02  0.00000000000E+00 0. -1.
         21   -1    0    0  502  503 -0.00000000000E+00 -0.00000000000E+00 -0.16224146257E+04  0.16224146257E+04  0.00000000000E+00 0. -1.
          6    1    1    2  501    0 -0.54054858985E+02 -0.52149859344E+02 -0.81500746122E+03  0.83654509589E+03  0.17300000000E+03 0. -1.
         -6    1    1    2    0  503  0.54054858985E+02  0.52149859344E+02 -0.78547564837E+03  0.80780104592E+03  0.17300000000E+03 0. -1.
<mgrwt>
<rscale>  2 0.18860153E+03</rscale>
<asrwt>0</asrwt>
<pdfrwt beam="1">  1       21 0.33740790E-02 0.18860153E+03</pdfrwt>
<pdfrwt beam="2">  1       21 0.24960228E+00 0.18860153E+03</pdfrwt>
<totfact> 0.34921462E+04</totfact>
</mgrwt>
</event>
<event>
 4    1  0.4391134E+000  0.2382355E+03  0.7546771E-02  0.1120974E+00
         21   -1    0    0  503  502  0.00000000000E+00  0.00000000000E+00  0.86401035224E+03  0.86401035224E+03  0.00000000000E+00 0.  1.
         21   -1    0    0  501  503 -0.00000000000E+00 -0.00000000000E+00 -0.12373657842E+03  0.12373657842E+03  0.00000000000E+00 0.  1.
          6    1    1    2  501    0 -0.15118209567E+03  0.63016840201E+02  0.31871196975E+02  0.24035790272E+03  0.17300000000E+03 0.  1.
         -6    1    1    2    0  502  0.15118209567E+03 -0.63016840201E+02  0.70840257685E+03  0.74738902794E+03  0.17300000000E+03 0.  1.
<mgrwt>
<rscale>  2 0.23823549E+03</rscale>
<asrwt>0</asrwt>
<pdfrwt beam="1">  1       21 0.13292467E+00 0.23823549E+03</pdfrwt>
<pdfrwt beam="2">  1       21 0.19036397E-01 0.23823549E+03</pdfrwt>
<totfact> 0.10024088E+04</totfact>
</mgrwt>
</event>
<event>
 4    1  0.4391134E+000  0.2866627E+03  0.7546771E-02  0.1092105E+00
         21   -1    0    0  501  502  0.00000000000E+00  0.00000000000E+00  0.22027998982E+03  0.22027998982E+03  0.00000000000E+00 0. -1.
         21   -1    0    0  502  503 -0.00000000000E+00 -0.00000000000E+00 -0.52582636225E+03  0.52582636225E+03  0.00000000000E+00 0.  1.
          6    1    1    2  501    0  0.22753791039E+03  0.21749084867E+02 -0.35385702815E+03  0.45540127331E+03  0.17300000000E+03 0. -1.
         -6    1    1    2    0  503 -0.22753791039E+03 -0.21749084867E+02  0.48310655719E+02  0.29070507876E+03  0.17300000000E+03 0.  1.
<mgrwt>
<rscale>  2 0.28666273E+03</rscale>
<asrwt>0</asrwt>
<pdfrwt beam="1">  1       21 0.33889229E-01 0.28666273E+03</pdfrwt>
<pdfrwt beam="2">  1       21 0.80896363E-01 0.28666273E+03</pdfrwt>
<totfact> 0.10657178E+04</totfact>
</mgrwt>
</event>
<event>
 4    1  0.4391134E+000  0.1945445E+03  0.7546771E-02  0.1154425E+00
         21   -1    0    0  501  502  0.00000000000E+00  0.00000000000E+00  0.87413643903E+03  0.87413643903E+03  0.00000000000E+00 0.  1.
         21   -1    0    0  502  503 -0.00000000000E+00 -0.00000000000E+00 -0.48044922376E+02  0.48044922376E+02  0.00000000000E+00 0.  1.
          6    1    1    2  501    0  0.36387204627E+02  0.81206693642E+02  0.55799325549E+03  0.59093487706E+03  0.17300000000E+03 0.  1.
         -6    1    1    2    0  503 -0.36387204627E+02 -0.81206693642E+02  0.26809826116E+03  0.33124648435E+03  0.17300000000E+03 0.  1.
<mgrwt>
<rscale>  2 0.19454448E+03</rscale>
<asrwt>0</asrwt>
<pdfrwt beam="1">  1       21 0.13448252E+00 0.19454448E+03</pdfrwt>
<pdfrwt beam="2">  1       21 0.73915272E-02 0.19454448E+03</pdfrwt>
<totfact> 0.54560836E+04</totfact>
</mgrwt>
</event>
<event>
 4    1  0.4391134E+000  0.2024971E+03  0.7546771E-02  0.1147649E+00
         21   -1    0    0  503  502  0.00000000000E+00  0.00000000000E+00  0.27262337737E+03  0.27262337737E+03  0.00000000000E+00 0.  1.
         21   -1    0    0  501  503 -0.00000000000E+00 -0.00000000000E+00 -0.15487005851E+03  0.15487005851E+03  0.00000000000E+00 0. -1.
          6    1    1    2  501    0  0.64034484208E+02  0.83520536526E+02  0.95152659599E+02  0.22373896357E+03  0.17300000000E+03 0. -1.
         -6    1    1    2    0  502 -0.64034484208E+02 -0.83520536526E+02  0.22600659263E+02  0.20375447232E+03  0.17300000000E+03 0.  1.
<mgrwt>
<rscale>  2 0.20249715E+03</rscale>
<asrwt>0</asrwt>
<pdfrwt beam="1">  1       21 0.41942058E-01 0.20249715E+03</pdfrwt>
<pdfrwt beam="2">  1       21 0.23826163E-01 0.20249715E+03</pdfrwt>
<totfact> 0.90454485E+04</totfact>
</mgrwt>
</event>
<event>
 4    1  0.4391134E+000  0.2200561E+03  0.7546771E-02  0.1133841E+00
         21   -1    0    0  503  502  0.00000000000E+00  0.00000000000E+00  0.27865368393E+03  0.27865368393E+03  0.00000000000E+00 0. -1.
         21   -1    0    0  501  503 -0.00000000000E+00 -0.00000000000E+00 -0.19407101982E+03  0.19407101982E+03  0.00000000000E+00 0. -1.
          6    1    1    2  501    0 -0.42956629212E+01  0.13593100831E+03 -0.34134490249E+02  0.22268779752E+03  0.17300000000E+03 0. -1.
         -6    1    1    2    0  502  0.42956629212E+01 -0.13593100831E+03  0.11871715435E+03  0.25003690623E+03  0.17300000000E+03 0. -1.
<mgrwt>
<rscale>  2 0.22005611E+03</rscale>
<asrwt>0</asrwt>
<pdfrwt beam="1">  1       21 0.42869797E-01 0.22005611E+03</pdfrwt>
<pdfrwt beam="2">  1       21 0.29857080E-01 0.22005611E+03</pdfrwt>
<totfact> 0.55579965E+04</totfact>
</mgrwt>
</event>
<event>
 4    1  0.4391134E+000  0.1785296E+03  0.7546771E-02  0.1169234E+00
         21   -1    0    0  503  502  0.00000000000E+00  0.00000000000E+00  0.14123716174E+03  0.14123716174E+03  0.00000000000E+00 0.  1.
         21   -1    0    0  501  503 -0.00000000000E+00 -0.00000000000E+00 -0.22570921222E+03  0.22570921222E+03  0.00000000000E+00 0.  1.
          6    1    1    2  501    0 -0.44054453372E+02  0.17374615792E+01 -0.44692583053E+02  0.18403869325E+03  0.17300000000E+03 0. -1.
         -6    1    1    2    0  502  0.44054453372E+02 -0.17374615792E+01 -0.39779467427E+02  0.18290768071E+03  0.17300000000E+03 0. -1.
<mgrwt>
<rscale>  2 0.17852959E+03</rscale>
<asrwt>0</asrwt>
<pdfrwt beam="1">  1       21 0.21728794E-01 0.17852959E+03</pdfrwt>
<pdfrwt beam="2">  1       21 0.34724494E-01 0.17852959E+03</pdfrwt>
<totfact> 0.15865505E+05</totfact>
</mgrwt>
</event>
<event>
 4    1  0.4391134E+000  0.2494814E+03  0.7546771E-02  0.1113633E+00
         21   -1    0    0  501  502  0.00000000000E+00  0.00000000000E+00  0.43262109213E+03  0.43262109213E+03  0.00000000000E+00 0.  1.
         21   -1    0    0  502  503 -0.00000000000E+00 -0.00000000000E+00 -0.14796750140E+03  0.14796750140E+03  0.00000000000E+00 0.  1.
          6    1    1    2  501    0 -0.16834675908E+03  0.63018516746E+02  0.94016101002E+02  0.26660831194E+03  0.17300000000E+03 0.  1.
         -6    1    1    2    0  503  0.16834675908E+03 -0.63018516746E+02  0.19063748973E+03  0.31398028160E+03  0.17300000000E+03 0.  1.
<mgrwt>
<rscale>  2 0.24948139E+03</rscale>
<asrwt>0</asrwt>
<pdfrwt beam="1">  1       21 0.66557090E-01 0.24948139E+03</pdfrwt>
<pdfrwt beam="2">  1       21 0.22764231E-01 0.24948139E+03</pdfrwt>
<totfact> 0.36443613E+04</totfact>
</mgrwt>
</event>
<event>
 4    1  0.4391134E+000  0.2125739E+03  0.7546771E-02  0.1139544E+00
         21   -1    0    0  503  502  0.00000000000E+00  0.00000000000E+00  0.23782729399E+03  0.23782729399E+03  0.00000000000E+00 0.  1.
         21   -1    0    0  501  503 -0.00000000000E+00 -0.00000000000E+00 -0.44677452620E+03  0.44677452620E+03  0.00000000000E+00 0.  1.
          6    1    1    2  501    0  0.79870492234E+02 -0.94230395163E+02 -0.36397407151E+03  0.42150301023E+03  0.17300000000E+03 0.  1.
         -6    1    1    2    0  502 -0.79870492234E+02  0.94230395163E+02  0.15502683930E+03  0.26309880997E+03  0.17300000000E+03 0.  1.
<mgrwt>
<rscale>  2 0.21257390E+03</rscale>
<asrwt>0</asrwt>
<pdfrwt beam="1">  1       21 0.36588815E-01 0.21257390E+03</pdfrwt>
<pdfrwt beam="2">  1       21 0.68734542E-01 0.21257390E+03</pdfrwt>
<totfact> 0.13719014E+04</totfact>
</mgrwt>
</event>
<event>
 4    1  0.4391134E+000  0.2548940E+03  0.7546771E-02  0.1110250E+00
         21   -1    0    0  501  502  0.00000000000E+00  0.00000000000E+00  0.13414228590E+04  0.13414228590E+04  0.00000000000E+00 0. -1.
         21   -1    0    0  502  503 -0.00000000000E+00 -0.00000000000E+00 -0.65463727429E+02  0.65463727429E+02  0.00000000000E+00 0.  1.
          6    1    1    2  501    0 -0.14568253881E+03  0.11755222767E+03  0.27919953308E+03  0.37805199063E+03  0.17300000000E+03 0.  1.
         -6    1    1    2    0  503  0.14568253881E+03 -0.11755222767E+03  0.99675959852E+03  0.10288345958E+04  0.17300000000E+03 0. -1.
<mgrwt>
<rscale>  2 0.25489396E+03</rscale>
<asrwt>0</asrwt>
<pdfrwt beam="1">  1       21 0.20637273E+00 0.25489396E+03</pdfrwt>
<pdfrwt beam="2">  1       21 0.10071344E-01 0.25489396E+03</pdfrwt>
<totfact> 0.93434865E+03</totfact>
</mgrwt>
</event>
<event>
 4    1  0.4391134E+000  0.2222924E+03  0.7546771E-02  0.1132185E+00
         21   -1    0    0  501  502  0.00000000000E+00  0.00000000000E+00  0.73519415477E+03  0.73519415477E+03  0.00000000000E+00 0. -1.
         21   -1    0    0  502  503 -0.00000000000E+00 -0.00000000000E+00 -0.80679145342E+02  0.80679145342E+02  0.00000000000E+00 0.  1.
          6    1    1    2  501    0  0.11452784639E+03 -0.79801515701E+02  0.49392425885E+03  0.54164110164E+03  0.17300000000E+03 0. -1.
         -6    1    1    2    0  503 -0.11452784639E+03  0.79801515701E+02  0.16059075058E+03  0.27423219847E+03  0.17300000000E+03 0. -1.
<mgrwt>
<rscale>  2 0.22229240E+03</rscale>
<asrwt>0</asrwt>
<pdfrwt beam="1">  1       21 0.11310679E+00 0.22229240E+03</pdfrwt>
<pdfrwt beam="2">  1       21 0.12412177E-01 0.22229240E+03</pdfrwt>
<totfact> 0.33170943E+04</totfact>
</mgrwt>
</event>
<event>
 4    1  0.4391134E+000  0.2365453E+03  0.7546771E-02  0.1122116E+00
         21   -1    0    0  501  502  0.00000000000E+00  0.00000000000E+00  0.11442614128E+04  0.11442614128E+04  0.00000000000E+00 0. -1.
         21   -1    0    0  502  503 -0.00000000000E+00 -0.00000000000E+00 -0.54753703156E+02  0.54753703156E+02  0.00000000000E+00 0. -1.
          6    1    1    2  501    0  0.15701895814E+03 -0.37009730297E+02  0.74078553828E+03  0.77763544613E+03  0.17300000000E+03 0. -1.
         -6    1    1    2    0  503 -0.15701895814E+03  0.37009730297E+02  0.34872217141E+03  0.42137966988E+03  0.17300000000E+03 0. -1.
<mgrwt>
<rscale>  2 0.23654529E+03</rscale>
<asrwt>0</asrwt>
<pdfrwt beam="1">  1       21 0.17604020E+00 0.23654529E+03</pdfrwt>
<pdfrwt beam="2">  1       21 0.84236475E-02 0.23654529E+03</pdfrwt>
<totfact> 0.20632417E+04</totfact>
</mgrwt>
</event>
<event>
 4    1  0.4391134E+000  0.2173372E+03  0.7546771E-02  0.1135884E+00
         21   -1    0    0  501  502  0.00000000000E+00  0.00000000000E+00  0.35789541734E+03  0.35789541734E+03  0.00000000000E+00 0.  1.
         21   -1    0    0  502  503 -0.00000000000E+00 -0.00000000000E+00 -0.21765783035E+03  0.21765783035E+03  0.00000000000E+00 0. -1.
          6    1    1    2  501    0 -0.45129714661E+02  0.12357093510E+03 -0.11043206200E+03  0.24378414112E+03  0.17300000000E+03 0. -1.
         -6    1    1    2    0  503  0.45129714661E+02 -0.12357093510E+03  0.25066964899E+03  0.33176910656E+03  0.17300000000E+03 0.  1.
<mgrwt>
<rscale>  2 0.21733722E+03</rscale>
<asrwt>0</asrwt>
<pdfrwt beam="1">  1       21 0.55060833E-01 0.21733722E+03</pdfrwt>
<pdfrwt beam="2">  1       21 0.33485820E-01 0.21733722E+03</pdfrwt>
<totfact> 0.26366652E+04</totfact>
</mgrwt>
</event>
<event>
 4    1  0.4391134E+000  0.2822621E+03  0.7546771E-02  0.1094460E+00
         21   -1    0    0  501  502  0.00000000000E+00  0.00000000000E+00  0.13042380815E+04  0.13042380815E+04  0.00000000000E+00 0. -1.
         21   -1    0    0  502  503 -0.00000000000E+00 -0.00000000000E+00 -0.86845553171E+02  0.86845553171E+02  0.00000000000E+00 0.  1.
          6    1    1    2  501    0  0.22263675046E+03 -0.13257608086E+02  0.98749704307E+03  0.10270454210E+04  0.17300000000E+03 0.  1.
         -6    1    1    2    0  503 -0.22263675046E+03  0.13257608086E+02  0.22989548524E+03  0.36403821360E+03  0.17300000000E+03 0. -1.
<mgrwt>
<rscale>  2 0.28226209E+03</rscale>
<asrwt>0</asrwt>
<pdfrwt beam="1">  1       21 0.20065200E+00 0.28226209E+03</pdfrwt>
<pdfrwt beam="2">  1       21 0.13360855E-01 0.28226209E+03</pdfrwt>
<totfact> 0.60113739E+03</totfact>
</mgrwt>
</event>
<event>
 4    1  0.4391134E+000  0.2560397E+03  0.7546771E-02  0.1109546E+00
         21   -1    0    0  503  502  0.00000000000E+00  0.00000000000E+00  0.25996337274E+03  0.25996337274E+03  0.00000000000E+00 0. -1.
         21   -1    0    0  501  503 -0.00000000000E+00 -0.00000000000E+00 -0.27122351506E+03  0.27122351506E+03  0.00000000000E+00 0. -1.
          6    1    1    2  501    0 -0.57953466120E+02  0.17963500862E+03 -0.76015192710E+02  0.26708547336E+03  0.17300000000E+03 0. -1.
         -6    1    1    2    0  502  0.57953466120E+02 -0.17963500862E+03  0.64755050392E+02  0.26410141444E+03  0.17300000000E+03 0. -1.
<mgrwt>
<rscale>  2 0.25603972E+03</rscale>
<asrwt>0</asrwt>
<pdfrwt beam="1">  1       21 0.39994365E-01 0.25603972E+03</pdfrwt>
<pdfrwt beam="2">  1       21 0.41726695E-01 0.25603972E+03</pdfrwt>
<totfact> 0.32305329E+04</totfact>
</mgrwt>
</event>
<event>
 4    1  0.4391134E+000  0.1994219E+03  0.7546771E-02  0.1150228E+00
         21   -1    0    0  503  502  0.00000000000E+00  0.00000000000E+00  0.26701909301E+02  0.26701909301E+02  0.00000000000E+00 0. -1.
         21   -1    0    0  501  503 -0.00000000000E+00 -0.00000000000E+00 -0.15381343994E+04  0.15381343994E+04  0.00000000000E+00 0. -1.
          6    1    1    2  501    0 -0.29085561009E+02 -0.94837344822E+02 -0.89502604850E+03  0.91697367428E+03  0.17300000000E+03 0. -1.
         -6    1    1    2    0  502  0.29085561009E+02  0.94837344822E+02 -0.61640644162E+03  0.64786263444E+03  0.17300000000E+03 0. -1.
<mgrwt>
<rscale>  2 0.19942189E+03</rscale>
<asrwt>0</asrwt>
<pdfrwt beam="1">  1       21 0.41079868E-02 0.19942189E+03</pdfrwt>
<pdfrwt beam="2">  1       21 0.23663602E+00 0.19942189E+03</pdfrwt>
<totfact> 0.29738271E+04</totfact>
</mgrwt>
</event>
<event>
 4    1  0.4391134E+000  0.1784733E+03  0.7546771E-02  0.1169289E+00
         21   -1    0    0  501  502  0.00000000000E+00  0.00000000000E+00  0.73359664282E+02  0.73359664282E+02  0.00000000000E+00 0.  1.
         21   -1    0    0  502  503 -0.00000000000E+00 -0.00000000000E+00 -0.48393326592E+03  0.48393326592E+03  0.00000000000E+00 0.  1.
          6    1    1    2  501    0 -0.43848615474E+02  0.10000721419E+01 -0.11595868810E+03  0.21283589586E+03  0.17300000000E+03 0. -1.
         -6    1    1    2    0  503  0.43848615474E+02 -0.10000721419E+01 -0.29461491354E+03  0.34445703433E+03  0.17300000000E+03 0. -1.
<mgrwt>
<rscale>  2 0.17847325E+03</rscale>
<asrwt>0</asrwt>
<pdfrwt beam="1">  1       21 0.11286103E-01 0.17847325E+03</pdfrwt>
<pdfrwt beam="2">  1       21 0.74451269E-01 0.17847325E+03</pdfrwt>
<totfact> 0.10639227E+05</totfact>
</mgrwt>
</event>
<event>
 4    1  0.4391134E+000  0.1735365E+03  0.7546771E-02  0.1174209E+00
         21   -1    0    0  501  502  0.00000000000E+00  0.00000000000E+00  0.75083922934E+03  0.75083922934E+03  0.00000000000E+00 0.  1.
         21   -1    0    0  502  503 -0.00000000000E+00 -0.00000000000E+00 -0.78714810163E+02  0.78714810163E+02  0.00000000000E+00 0.  1.
          6    1    1    2  501    0  0.76377415323E+01 -0.11295133365E+02  0.62654239157E+03  0.65013097417E+03  0.17300000000E+03 0.  1.
         -6    1    1    2    0  503 -0.76377415323E+01  0.11295133365E+02  0.45582027603E+02  0.17942306533E+03  0.17300000000E+03 0.  1.
<mgrwt>
<rscale>  2 0.17353650E+03</rscale>
<asrwt>0</asrwt>
<pdfrwt beam="1">  1       21 0.11551372E+00 0.17353650E+03</pdfrwt>
<pdfrwt beam="2">  1       21 0.12109971E-01 0.17353650E+03</pdfrwt>
<totfact> 0.33848579E+04</totfact>
</mgrwt>
</event>
<event>
 4    1  0.4391134E+000  0.2468294E+03  0.7546771E-02  0.1115325E+00
         21   -1    0    0  503  502  0.00000000000E+00  0.00000000000E+00  0.43707246033E+03  0.43707246033E+03  0.00000000000E+00 0.  1.
         21   -1    0    0  501  503 -0.00000000000E+00 -0.00000000000E+00 -0.13942873724E+03  0.13942873724E+03  0.00000000000E+00 0.  1.
          6    1    1    2  501    0 -0.17447534183E+03  0.23539204386E+02  0.15345178406E+03  0.29064099690E+03  0.17300000000E+03 0. -1.
         -6    1    1    2    0  502  0.17447534183E+03 -0.23539204386E+02  0.14419193902E+03  0.28586020067E+03  0.17300000000E+03 0. -1.
<mgrwt>
<rscale>  2 0.24682937E+03</rscale>
<asrwt>0</asrwt>
<pdfrwt beam="1">  1       21 0.67241916E-01 0.24682937E+03</pdfrwt>
<pdfrwt beam="2">  1       21 0.21450575E-01 0.24682937E+03</pdfrwt>
<totfact> 0.39929434E+04</totfact>
</mgrwt>
</event>
<event>
 4    1  0.4391134E+000  0.1924873E+03  0.7546771E-02  0.1156237E+00
         21   -1    0    0  501  502  0.00000000000E+00  0.00000000000E+00  0.44589800952E+02  0.44589800952E+02  0.00000000000E+00 0.  1.
         21   -1    0    0  502  503 -0.00000000000E+00 -0.00000000000E+00 -0.10747526382E+04  0.10747526382E+04  0.00000000000E+00 0.  1.
          6    1    1    2  501    0 -0.51330345425E+00 -0.84392437285E+02 -0.24851289679E+03  0.31434059048E+03  0.17300000000E+03 0.  1.
         -6    1    1    2    0  503  0.51330345425E+00  0.84392437285E+02 -0.78164994049E+03  0.80500184870E+03  0.17300000000E+03 0.  1.
<mgrwt>
<rscale>  2 0.19248726E+03</rscale>
<asrwt>0</asrwt>
<pdfrwt beam="1">  1       21 0.68599694E-02 0.19248726E+03</pdfrwt>
<pdfrwt beam="2">  1       21 0.16534656E+00 0.19248726E+03</pdfrwt>
<totfact> 0.36067531E+04</totfact>
</mgrwt>
</event>
<event>
 4    1  0.4391134E+000  0.1949479E+03  0.7546771E-02  0.1154073E+00
         21   -1    0    0  501  502  0.00000000000E+00  0.00000000000E+00  0.20994279050E+03  0.20994279050E+03  0.00000000000E+00 0.  1.
         21   -1    0    0  502  503 -0.00000000000E+00 -0.00000000000E+00 -0.22791007780E+03  0.22791007780E+03  0.00000000000E+00 0. -1.
          6    1    1    2  501    0  0.70654009103E+02  0.55530912894E+02  0.90313936394E+02  0.21485175912E+03  0.17300000000E+03 0.  1.
         -6    1    1    2    0  503 -0.70654009103E+02 -0.55530912894E+02 -0.10828122369E+03  0.22300110918E+03  0.17300000000E+03 0. -1.
<mgrwt>
<rscale>  2 0.19494787E+03</rscale>
<asrwt>0</asrwt>
<pdfrwt beam="1">  1       21 0.32298891E-01 0.19494787E+03</pdfrwt>
<pdfrwt beam="2">  1       21 0.35063089E-01 0.19494787E+03</pdfrwt>
<totfact> 0.72244957E+04</totfact>
</mgrwt>
</event>
<event>
 4    1  0.4391134E+000  0.2753898E+03  0.7546771E-02  0.1098234E+00
         21   -1    0    0  501  502  0.00000000000E+00  0.00000000000E+00  0.44600273172E+03  0.44600273172E+03  0.00000000000E+00 0.  1.
         21   -1    0    0  502  503 -0.00000000000E+00 -0.00000000000E+00 -0.44158199456E+03  0.44158199456E+03  0.00000000000E+00 0. -1.
          6    1    1    2  501    0 -0.13243310313E+03  0.16843998707E+03  0.35021931121E+03  0.44552566929E+03  0.17300000000E+03 0.  1.
         -6    1    1    2    0  503  0.13243310313E+03 -0.16843998707E+03 -0.34579857405E+03  0.44205905699E+03  0.17300000000E+03 0. -1.
<mgrwt>
<rscale>  2 0.27538983E+03</rscale>
<asrwt>0</asrwt>
<pdfrwt beam="1">  1       21 0.68615805E-01 0.27538983E+03</pdfrwt>
<pdfrwt beam="2">  1       21 0.67935692E-01 0.27538983E+03</pdfrwt>
<totfact> 0.36157698E+03</totfact>
</mgrwt>
</event>
<event>
 4    1  0.4391134E+000  0.2550282E+03  0.7546771E-02  0.1110168E+00
         21   -1    0    0  503  502  0.00000000000E+00  0.00000000000E+00  0.43732824346E+03  0.43732824346E+03  0.00000000000E+00 0. -1.
         21   -1    0    0  501  503 -0.00000000000E+00 -0.00000000000E+00 -0.22650360733E+03  0.22650360733E+03  0.00000000000E+00 0.  1.
          6    1    1    2  501    0 -0.12899884877E+03 -0.13590316666E+03 -0.89094619838E+02  0.27014297136E+03  0.17300000000E+03 0.  1.
         -6    1    1    2    0  502  0.12899884877E+03  0.13590316666E+03  0.29991925597E+03  0.39368887944E+03  0.17300000000E+03 0. -1.
<mgrwt>
<rscale>  2 0.25502818E+03</rscale>
<asrwt>0</asrwt>
<pdfrwt beam="1">  1       21 0.67281268E-01 0.25502818E+03</pdfrwt>
<pdfrwt beam="2">  1       21 0.34846709E-01 0.25502818E+03</pdfrwt>
<totfact> 0.15486239E+04</totfact>
</mgrwt>
</event>
<event>
 4    1  0.4391134E+000  0.2468199E+03  0.7546771E-02  0.1115331E+00
         21   -1    0    0  501  502  0.00000000000E+00  0.00000000000E+00  0.11087031976E+03  0.11087031976E+03  0.00000000000E+00 0. -1.
         21   -1    0    0  502  503 -0.00000000000E+00 -0.00000000000E+00 -0.58042829483E+03  0.58042829483E+03  0.00000000000E+00 0.  1.
          6    1    1    2  501    0 -0.17594973387E+03  0.57244827744E+01 -0.15495387375E+03  0.29142886189E+03  0.17300000000E+03 0. -1.
         -6    1    1    2    0  503  0.17594973387E+03 -0.57244827744E+01 -0.31460410132E+03  0.39986975270E+03  0.17300000000E+03 0. -1.
<mgrwt>
<rscale>  2 0.24681993E+03</rscale>
<asrwt>0</asrwt>
<pdfrwt beam="1">  1       21 0.17056972E-01 0.24681993E+03</pdfrwt>
<pdfrwt beam="2">  1       21 0.89296663E-01 0.24681993E+03</pdfrwt>
<totfact> 0.32266589E+04</totfact>
</mgrwt>
</event>
<event>
 4    1  0.4391134E+000  0.3437426E+03  0.7546771E-02  0.1065213E+00
         21   -1    0    0  503  502  0.00000000000E+00  0.00000000000E+00  0.14094059438E+03  0.14094059438E+03  0.00000000000E+00 0. -1.
         21   -1    0    0  501  503 -0.00000000000E+00 -0.00000000000E+00 -0.83837055179E+03  0.83837055179E+03  0.00000000000E+00 0.  1.
          6    1    1    2  501    0 -0.19053356949E+03  0.22787485576E+03 -0.34699797484E+03  0.48843278507E+03  0.17300000000E+03 0. -1.
         -6    1    1    2    0  502  0.19053356949E+03 -0.22787485576E+03 -0.35043198258E+03  0.49087836111E+03  0.17300000000E+03 0.  1.
<mgrwt>
<rscale>  2 0.34374262E+03</rscale>
<asrwt>0</asrwt>
<pdfrwt beam="1">  1       21 0.21683169E-01 0.34374262E+03</pdfrwt>
<pdfrwt beam="2">  1       21 0.12898008E+00 0.34374262E+03</pdfrwt>
<totfact> 0.80239417E+03</totfact>
</mgrwt>
</event>
<event>
 4    1  0.4391134E+000  0.2510751E+03  0.7546771E-02  0.1112627E+00
         21   -1    0    0  503  502  0.00000000000E+00  0.00000000000E+00  0.28615014699E+03  0.28615014699E+03  0.00000000000E+00 0.  1.
         21   -1    0    0  501  503 -0.00000000000E+00 -0.00000000000E+00 -0.31185373154E+03  0.31185373154E+03  0.00000000000E+00 0. -1.
          6    1    1    2  501    0  0.97444084193E+02  0.15366965322E+03 -0.17486034018E+03  0.30596543993E+03  0.17300000000E+03 0. -1.
         -6    1    1    2    0  502 -0.97444084193E+02 -0.15366965322E+03  0.14915675564E+03  0.29203843860E+03  0.17300000000E+03 0.  1.
<mgrwt>
<rscale>  2 0.25107511E+03</rscale>
<asrwt>0</asrwt>
<pdfrwt beam="1">  1       21 0.44023100E-01 0.25107511E+03</pdfrwt>
<pdfrwt beam="2">  1       21 0.47977497E-01 0.25107511E+03</pdfrwt>
<totfact> 0.19936633E+04</totfact>
</mgrwt>
</event>
<event>
 4    1  0.4391134E+000  0.2072211E+03  0.7546771E-02  0.1143786E+00
         21   -1    0    0  503  502  0.00000000000E+00  0.00000000000E+00  0.13032462770E+04  0.13032462770E+04  0.00000000000E+00 0.  1.
         21   -1    0    0  501  503 -0.00000000000E+00 -0.00000000000E+00 -0.33109296602E+02  0.33109296602E+02  0.00000000000E+00 0.  1.
          6    1    1    2  501    0 -0.11402340049E+03  0.31986519248E+01  0.58856588736E+03  0.62397946360E+03  0.17300000000E+03 0.  1.
         -6    1    1    2    0  502  0.11402340049E+03 -0.31986519248E+01  0.68157109306E+03  0.71237611002E+03  0.17300000000E+03 0.  1.
<mgrwt>
<rscale>  2 0.20722106E+03</rscale>
<asrwt>0</asrwt>
<pdfrwt beam="1">  1       21 0.20049939E+00 0.20722106E+03</pdfrwt>
<pdfrwt beam="2">  1       21 0.50937389E-02 0.20722106E+03</pdfrwt>
<totfact> 0.34391348E+04</totfact>
</mgrwt>
</event>
<event>
 4    1  0.4391134E+000  0.1997784E+03  0.7546771E-02  0.1149926E+00
         21   -1    0    0  501  502  0.00000000000E+00  0.00000000000E+00  0.40215591436E+03  0.40215591436E+03  0.00000000000E+00 0. -1.
         21   -1    0    0  502  503 -0.00000000000E+00 -0.00000000000E+00 -0.10816730040E+03  0.10816730040E+03  0.00000000000E+00 0. -1.
          6    1    1    2  501    0 -0.93665929668E+02 -0.34772096504E+02  0.22028343589E+03  0.29738224090E+03  0.17300000000E+03 0. -1.
         -6    1    1    2    0  503  0.93665929668E+02  0.34772096504E+02  0.73705178073E+02  0.21294097387E+03  0.17300000000E+03 0. -1.
<mgrwt>
<rscale>  2 0.19977839E+03</rscale>
<asrwt>0</asrwt>
<pdfrwt beam="1">  1       21 0.61870140E-01 0.19977839E+03</pdfrwt>
<pdfrwt beam="2">  1       21 0.16641123E-01 0.19977839E+03</pdfrwt>
<totfact> 0.78450438E+04</totfact>
</mgrwt>
</event>
<event>
 4    1  0.4391134E+000  0.1945622E+03  0.7546771E-02  0.1154410E+00
         21   -1    0    0  503  502  0.00000000000E+00  0.00000000000E+00  0.32257132030E+03  0.32257132030E+03  0.00000000000E+00 0. -1.
         21   -1    0    0  501  503 -0.00000000000E+00 -0.00000000000E+00 -0.14294283090E+03  0.14294283090E+03  0.00000000000E+00 0. -1.
          6    1    1    2  501    0  0.74401081060E+02 -0.48886802518E+02 -0.86690482041E+01  0.19475521231E+03  0.17300000000E+03 0. -1.
         -6    1    1    2    0  502 -0.74401081060E+02  0.48886802518E+02  0.18829753761E+03  0.27075893890E+03  0.17300000000E+03 0. -1.
<mgrwt>
<rscale>  2 0.19456218E+03</rscale>
<asrwt>0</asrwt>
<pdfrwt beam="1">  1       21 0.49626357E-01 0.19456218E+03</pdfrwt>
<pdfrwt beam="2">  1       21 0.21991205E-01 0.19456218E+03</pdfrwt>
<totfact> 0.74709476E+04</totfact>
</mgrwt>
</event>
<event>
 4    1  0.4391134E+000  0.2281265E+03  0.7546771E-02  0.1127965E+00
         21   -1    0    0  501  502  0.00000000000E+00  0.00000000000E+00  0.36951884153E+03  0.36951884153E+03  0.00000000000E+00 0.  1.
         21   -1    0    0  502  503 -0.00000000000E+00 -0.00000000000E+00 -0.15500198937E+03  0.15500198937E+03  0.00000000000E+00 0. -1.
          6    1    1    2  501    0  0.13536292819E+03  0.61559515573E+02  0.27975124522E+02  0.22983538430E+03  0.17300000000E+03 0. -1.
         -6    1    1    2    0  503 -0.13536292819E+03 -0.61559515573E+02  0.18654172763E+03  0.29468544659E+03  0.17300000000E+03 0.  1.
<mgrwt>
<rscale>  2 0.22812649E+03</rscale>
<asrwt>0</asrwt>
<pdfrwt beam="1">  1       21 0.56849052E-01 0.22812649E+03</pdfrwt>
<pdfrwt beam="2">  1       21 0.23846460E-01 0.22812649E+03</pdfrwt>
<totfact> 0.47387960E+04</totfact>
</mgrwt>
</event>
<event>
 4    1  0.4391134E+000  0.2006896E+03  0.7546771E-02  0.1149158E+00
         21   -1    0    0  501  502  0.00000000000E+00  0.00000000000E+00  0.11382882291E+02  0.11382882291E+02  0.00000000000E+00 0. -1.
         21   -1    0    0  502  503 -0.00000000000E+00 -0.00000000000E+00 -0.36124808806E+04  0.36124808806E+04  0.00000000000E+00 0. -1.
          6    1    1    2  501    0 -0.89798542083E+02 -0.47786516350E+02 -0.20601544822E+04  0.20699064761E+04  0.17300000000E+03 0.  1.
         -6    1    1    2    0  503  0.89798542083E+02  0.47786516350E+02 -0.15409435161E+04  0.15539572868E+04  0.17300000000E+03 0.  1.
<mgrwt>
<rscale>  2 0.20068963E+03</rscale>
<asrwt>0</asrwt>
<pdfrwt beam="1">  1       21 0.17512118E-02 0.20068963E+03</pdfrwt>
<pdfrwt beam="2">  1       21 0.55576655E+00 0.20068963E+03</pdfrwt>
<totfact> 0.11222595E+03</totfact>
</mgrwt>
</event>
<event>
 4    1  0.4391134E+000  0.2596949E+03  0.7546771E-02  0.1107327E+00
         21   -1    0    0  503  502  0.00000000000E+00  0.00000000000E+00  0.13706716987E+04  0.13706716987E+04  0.00000000000E+00 0. -1.
         21   -1    0    0  501  503 -0.00000000000E+00 -0.00000000000E+00 -0.67664497236E+02  0.67664497236E+02  0.00000000000E+00 0.  1.
          6    1    1    2  501    0  0.18688360443E+03  0.50862332636E+02  0.27585577519E+03  0.37886391645E+03  0.17300000000E+03 0.  1.
         -6    1    1    2    0  502 -0.18688360443E+03 -0.50862332636E+02  0.10271514263E+04  0.10594722795E+04  0.17300000000E+03 0. -1.
<mgrwt>
<rscale>  2 0.25969493E+03</rscale>
<asrwt>0</asrwt>
<pdfrwt beam="1">  1       21 0.21087255E+00 0.25969493E+03</pdfrwt>
<pdfrwt beam="2">  1       21 0.10409924E-01 0.25969493E+03</pdfrwt>
<totfact> 0.82199080E+03</totfact>
</mgrwt>
</event>
<event>
 4    1  0.4391134E+000  0.1754935E+03  0.7546771E-02  0.1172237E+00
         21   -1    0    0  501  502  0.00000000000E+00  0.00000000000E+00  0.28269681820E+03  0.28269681820E+03  0.00000000000E+00 0.  1.
         21   -1    0    0  502  503 -0.00000000000E+00 -0.00000000000E+00 -0.10952725815E+03  0.10952725815E+03  0.00000000000E+00 0.  1.
          6    1    1    2  501    0 -0.10466249328E+02  0.27557465152E+02  0.10090309557E+03  0.20243367051E+03  0.17300000000E+03 0.  1.
         -6    1    1    2    0  503  0.10466249328E+02 -0.27557465152E+02  0.72266464489E+02  0.18979040584E+03  0.17300000000E+03 0.  1.
<mgrwt>
<rscale>  2 0.17549347E+03</rscale>
<asrwt>0</asrwt>
<pdfrwt beam="1">  1       21 0.43491818E-01 0.17549347E+03</pdfrwt>
<pdfrwt beam="2">  1       21 0.16850348E-01 0.17549347E+03</pdfrwt>
<totfact> 0.16199959E+05</totfact>
</mgrwt>
</event>
<event>
 4    1  0.4391134E+000  0.1803586E+03  0.7546771E-02  0.1167456E+00
         21   -1    0    0  503  502  0.00000000000E+00  0.00000000000E+00  0.22681691368E+03  0.22681691368E+03  0.00000000000E+00 0.  1.
         21   -1    0    0  501  503 -0.00000000000E+00 -0.00000000000E+00 -0.15686250764E+03  0.15686250764E+03  0.00000000000E+00 0.  1.
          6    1    1    2  501    0 -0.14989921877E+02  0.48739239792E+02  0.91144182361E+02  0.20208036330E+03  0.17300000000E+03 0.  1.
         -6    1    1    2    0  502  0.14989921877E+02 -0.48739239792E+02 -0.21189776320E+02  0.18159905802E+03  0.17300000000E+03 0.  1.
<mgrwt>
<rscale>  2 0.18035856E+03</rscale>
<asrwt>0</asrwt>
<pdfrwt beam="1">  1       21 0.34894910E-01 0.18035856E+03</pdfrwt>
<pdfrwt beam="2">  1       21 0.24132693E-01 0.18035856E+03</pdfrwt>
<totfact> 0.12879429E+05</totfact>
</mgrwt>
</event>
<event>
 4    1  0.4391134E+000  0.2007613E+03  0.7546771E-02  0.1149098E+00
         21   -1    0    0  503  502  0.00000000000E+00  0.00000000000E+00  0.68178026319E+03  0.68178026319E+03  0.00000000000E+00 0.  1.
         21   -1    0    0  501  503 -0.00000000000E+00 -0.00000000000E+00 -0.85624346714E+02  0.85624346714E+02  0.00000000000E+00 0.  1.
          6    1    1    2  501    0 -0.89743234014E+02 -0.48189785783E+02  0.84589057522E+02  0.21785410751E+03  0.17300000000E+03 0.  1.
         -6    1    1    2    0  502  0.89743234014E+02  0.48189785783E+02  0.51156685895E+03  0.54955050239E+03  0.17300000000E+03 0.  1.
<mgrwt>
<rscale>  2 0.20076131E+03</rscale>
<asrwt>0</asrwt>
<pdfrwt beam="1">  1       21 0.10488927E+00 0.20076131E+03</pdfrwt>
<pdfrwt beam="2">  1       21 0.13172977E-01 0.20076131E+03</pdfrwt>
<totfact> 0.36192199E+04</totfact>
</mgrwt>
</event>
<event>
 4    1  0.4391134E+000  0.1792902E+03  0.7546771E-02  0.1168492E+00
         21   -1    0    0  501  502  0.00000000000E+00  0.00000000000E+00  0.14588117965E+03  0.14588117965E+03  0.00000000000E+00 0.  1.
         21   -1    0    0  502  503 -0.00000000000E+00 -0.00000000000E+00 -0.26980013136E+03  0.26980013136E+03  0.00000000000E+00 0.  1.
          6    1    1    2  501    0 -0.23667744208E+02  0.40691817748E+02  0.27020256797E+02  0.18131486543E+03  0.17300000000E+03 0.  1.
         -6    1    1    2    0  503  0.23667744208E+02 -0.40691817748E+02 -0.15093920851E+03  0.23436644558E+03  0.17300000000E+03 0.  1.
<mgrwt>
<rscale>  2 0.17929023E+03</rscale>
<asrwt>0</asrwt>
<pdfrwt beam="1">  1       21 0.22443259E-01 0.17929023E+03</pdfrwt>
<pdfrwt beam="2">  1       21 0.41507712E-01 0.17929023E+03</pdfrwt>
<totfact> 0.10440866E+05</totfact>
</mgrwt>
</event>
<event>
 4    1  0.4391134E+000  0.1830714E+03  0.7546771E-02  0.1164863E+00
         21   -1    0    0  501  502  0.00000000000E+00  0.00000000000E+00  0.84183840473E+03  0.84183840473E+03  0.00000000000E+00 0. -1.
         21   -1    0    0  502  503 -0.00000000000E+00 -0.00000000000E+00 -0.13762150436E+03  0.13762150436E+03  0.00000000000E+00 0. -1.
          6    1    1    2  501    0  0.30096784884E+02  0.51771650677E+02  0.76497000490E+03  0.78657118474E+03  0.17300000000E+03 0. -1.
         -6    1    1    2    0  503 -0.30096784884E+02 -0.51771650677E+02 -0.60753104527E+02  0.19288872436E+03  0.17300000000E+03 0. -1.
<mgrwt>
<rscale>  2 0.18307135E+03</rscale>
<asrwt>0</asrwt>
<pdfrwt beam="1">  1       21 0.12951360E+00 0.18307135E+03</pdfrwt>
<pdfrwt beam="2">  1       21 0.21172540E-01 0.18307135E+03</pdfrwt>
<totfact> 0.91182072E+03</totfact>
</mgrwt>
</event>
<event>
 4    1  0.4391134E+000  0.1853553E+03  0.7546771E-02  0.1162719E+00
         21   -1    0    0  501  502  0.00000000000E+00  0.00000000000E+00  0.81670609833E+02  0.81670609833E+02  0.00000000000E+00 0. -1.
         21   -1    0    0  502  503 -0.00000000000E+00 -0.00000000000E+00 -0.42198171011E+03  0.42198171011E+03  0.00000000000E+00 0. -1.
          6    1    1    2  501    0  0.19095960428E+02 -0.63741135919E+02 -0.15612930435E+03  0.24234881429E+03  0.17300000000E+03 0. -1.
         -6    1    1    2    0  503 -0.19095960428E+02  0.63741135919E+02 -0.18418179593E+03  0.26130350565E+03  0.17300000000E+03 0. -1.
<mgrwt>
<rscale>  2 0.18535530E+03</rscale>
<asrwt>0</asrwt>
<pdfrwt beam="1">  1       21 0.12564709E-01 0.18535530E+03</pdfrwt>
<pdfrwt beam="2">  1       21 0.64920264E-01 0.18535530E+03</pdfrwt>
<totfact> 0.11840708E+05</totfact>
</mgrwt>
</event>
<event>
 4    1  0.4391134E+000  0.2349448E+03  0.7546771E-02  0.1123207E+00
         21   -1    0    0  501  502  0.00000000000E+00  0.00000000000E+00  0.21697850705E+03  0.21697850705E+03  0.00000000000E+00 0. -1.
         21   -1    0    0  502  503 -0.00000000000E+00 -0.00000000000E+00 -0.42994080266E+03  0.42994080266E+03  0.00000000000E+00 0. -1.
          6    1    1    2  501    0 -0.34268096565E+02  0.15522806096E+03  0.10020264233E+03  0.25542048250E+03  0.17300000000E+03 0. -1.
         -6    1    1    2    0  503  0.34268096565E+02 -0.15522806096E+03 -0.31316493794E+03  0.39149882721E+03  0.17300000000E+03 0. -1.
<mgrwt>
<rscale>  2 0.23494479E+03</rscale>
<asrwt>0</asrwt>
<pdfrwt beam="1">  1       21 0.33381309E-01 0.23494479E+03</pdfrwt>
<pdfrwt beam="2">  1       21 0.66144738E-01 0.23494479E+03</pdfrwt>
<totfact> 0.17693061E+04</totfact>
</mgrwt>
</event>
<event>
 4    1  0.4391134E+000  0.1870399E+03  0.7546771E-02  0.1161159E+00
         21   -1    0    0  503  502  0.00000000000E+00  0.00000000000E+00  0.41246900686E+03  0.41246900686E+03  0.00000000000E+00 0. -1.
         21   -1    0    0  501  503 -0.00000000000E+00 -0.00000000000E+00 -0.84815985482E+02  0.84815985482E+02  0.00000000000E+00 0. -1.
          6    1    1    2  501    0  0.34067365764E+02  0.62404568094E+02  0.16352994601E+03  0.24844709451E+03  0.17300000000E+03 0. -1.
         -6    1    1    2    0  502 -0.34067365764E+02 -0.62404568094E+02  0.16412307537E+03  0.24883789783E+03  0.17300000000E+03 0. -1.
<mgrwt>
<rscale>  2 0.18703988E+03</rscale>
<asrwt>0</asrwt>
<pdfrwt beam="1">  1       21 0.63456769E-01 0.18703988E+03</pdfrwt>
<pdfrwt beam="2">  1       21 0.13048613E-01 0.18703988E+03</pdfrwt>
<totfact> 0.11617641E+05</totfact>
</mgrwt>
</event>
<event>
 4    1  0.4391134E+000  0.2134386E+03  0.7546771E-02  0.1138872E+00
         21   -1    0    0  501  502  0.00000000000E+00  0.00000000000E+00  0.11251434535E+04  0.11251434535E+04  0.00000000000E+00 0. -1.
         21   -1    0    0  502  503 -0.00000000000E+00 -0.00000000000E+00 -0.76256418814E+02  0.76256418814E+02  0.00000000000E+00 0.  1.
          6    1    1    2  501    0 -0.12458970816E+03 -0.10220300282E+02  0.93584187496E+03  0.95987294204E+03  0.17300000000E+03 0. -1.
         -6    1    1    2    0  503  0.12458970816E+03  0.10220300282E+02  0.11304515974E+03  0.24152693029E+03  0.17300000000E+03 0.  1.
<mgrwt>
<rscale>  2 0.21343863E+03</rscale>
<asrwt>0</asrwt>
<pdfrwt beam="1">  1       21 0.17309898E+00 0.21343863E+03</pdfrwt>
<pdfrwt beam="2">  1       21 0.11731758E-01 0.21343863E+03</pdfrwt>
<totfact> 0.12211582E+04</totfact>
</mgrwt>
</event>
<event>
 4    1  0.4391134E+000  0.2476183E+03  0.7546771E-02  0.1114819E+00
         21   -1    0    0  501  502  0.00000000000E+00  0.00000000000E+00  0.64550465527E+02  0.64550465527E+02  0.00000000000E+00 0.  1.
         21   -1    0    0  502  503 -0.00000000000E+00 -0.00000000000E+00 -0.18456352801E+04  0.18456352801E+04  0.00000000000E+00 0.  1.
          6    1    1    2  501    0 -0.11749767641E+03  0.13259004742E+03 -0.22516393375E+03  0.33468436130E+03  0.17300000000E+03 0.  1.
         -6    1    1    2    0  503  0.11749767641E+03 -0.13259004742E+03 -0.15559208808E+04  0.15755013843E+04  0.17300000000E+03 0.  1.
<mgrwt>
<rscale>  2 0.24761830E+03</rscale>
<asrwt>0</asrwt>
<pdfrwt beam="1">  1       21 0.99308395E-02 0.24761830E+03</pdfrwt>
<pdfrwt beam="2">  1       21 0.28394393E+00 0.24761830E+03</pdfrwt>
<totfact> 0.32766797E+03</totfact>
</mgrwt>
</event>
<event>
 4    1  0.4391134E+000  0.2013113E+03  0.7546771E-02  0.1148637E+00
         21   -1    0    0  501  502  0.00000000000E+00  0.00000000000E+00  0.27374409527E+03  0.27374409527E+03  0.00000000000E+00 0. -1.
         21   -1    0    0  502  503 -0.00000000000E+00 -0.00000000000E+00 -0.20847740287E+03  0.20847740287E+03  0.00000000000E+00 0. -1.
          6    1    1    2  501    0  0.10096818295E+03 -0.20066632324E+02  0.16244827706E+03  0.25868066496E+03  0.17300000000E+03 0. -1.
         -6    1    1    2    0  503 -0.10096818295E+03  0.20066632324E+02 -0.97181584666E+02  0.22354083318E+03  0.17300000000E+03 0. -1.
<mgrwt>
<rscale>  2 0.20131131E+03</rscale>
<asrwt>0</asrwt>
<pdfrwt beam="1">  1       21 0.42114476E-01 0.20131131E+03</pdfrwt>
<pdfrwt beam="2">  1       21 0.32073447E-01 0.20131131E+03</pdfrwt>
<totfact> 0.50521153E+04</totfact>
</mgrwt>
</event>
<event>
 4    1  0.4391134E+000  0.2083665E+03  0.7546771E-02  0.1142866E+00
         21   -1    0    0  501  502  0.00000000000E+00  0.00000000000E+00  0.12555832050E+04  0.12555832050E+04  0.00000000000E+00 0.  1.
         21   -1    0    0  502  503 -0.00000000000E+00 -0.00000000000E+00 -0.57832470166E+02  0.57832470166E+02  0.00000000000E+00 0.  1.
          6    1    1    2  501    0  0.11439959658E+03  0.20008667466E+02  0.10152954645E+04  0.10364562194E+04  0.17300000000E+03 0.  1.
         -6    1    1    2    0  503 -0.11439959658E+03 -0.20008667466E+02  0.18245527033E+03  0.27695945578E+03  0.17300000000E+03 0.  1.
<mgrwt>
<rscale>  2 0.20836654E+03</rscale>
<asrwt>0</asrwt>
<pdfrwt beam="1">  1       21 0.19316663E+00 0.20836654E+03</pdfrwt>
<pdfrwt beam="2">  1       21 0.88973041E-02 0.20836654E+03</pdfrwt>
<totfact> 0.14640188E+04</totfact>
</mgrwt>
</event>
<event>
 4    1  0.4391134E+000  0.1891514E+03  0.7546771E-02  0.1159229E+00
         21   -1    0    0  503  502  0.00000000000E+00  0.00000000000E+00  0.90505526180E+02  0.90505526180E+02  0.00000000000E+00 0. -1.
         21   -1    0    0  501  503 -0.00000000000E+00 -0.00000000000E+00 -0.87947950402E+03  0.87947950402E+03  0.00000000000E+00 0.  1.
          6    1    1    2  501    0  0.18836042041E+02  0.74124507067E+02 -0.75433442722E+03  0.77768802686E+03  0.17300000000E+03 0.  1.
         -6    1    1    2    0  502 -0.18836042041E+02 -0.74124507067E+02 -0.34639550621E+02  0.19229700334E+03  0.17300000000E+03 0. -1.
<mgrwt>
<rscale>  2 0.18915137E+03</rscale>
<asrwt>0</asrwt>
<pdfrwt beam="1">  1       21 0.13923928E-01 0.18915137E+03</pdfrwt>
<pdfrwt beam="2">  1       21 0.13530453E+00 0.18915137E+03</pdfrwt>
<totfact> 0.17580562E+04</totfact>
</mgrwt>
</event>
<event>
 4    1  0.4391134E+000  0.1914297E+03  0.7546771E-02  0.1157178E+00
         21   -1    0    0  501  502  0.00000000000E+00  0.00000000000E+00  0.19773149567E+04  0.19773149567E+04  0.00000000000E+00 0. -1.
         21   -1    0    0  502  503 -0.00000000000E+00 -0.00000000000E+00 -0.44239775537E+02  0.44239775537E+02  0.00000000000E+00 0. -1.
          6    1    1    2  501    0 -0.68905586834E+02  0.44366198156E+02  0.17370397732E+04  0.17475561544E+04  0.17300000000E+03 0. -1.
         -6    1    1    2    0  503  0.68905586834E+02 -0.44366198156E+02  0.19603540801E+03  0.27399857779E+03  0.17300000000E+03 0. -1.
<mgrwt>
<rscale>  2 0.19142972E+03</rscale>
<asrwt>0</asrwt>
<pdfrwt beam="1">  1       21 0.30420223E+00 0.19142972E+03</pdfrwt>
<pdfrwt beam="2">  1       21 0.68061208E-02 0.19142972E+03</pdfrwt>
<totfact> 0.51336233E+03</totfact>
</mgrwt>
</event>
<event>
 4    1  0.4391134E+000  0.2042031E+03  0.7546771E-02  0.1146241E+00
         21   -1    0    0  501  502  0.00000000000E+00  0.00000000000E+00  0.10965951950E+04  0.10965951950E+04  0.00000000000E+00 0. -1.
         21   -1    0    0  502  503 -0.00000000000E+00 -0.00000000000E+00 -0.38072756747E+02  0.38072756747E+02  0.00000000000E+00 0. -1.
          6    1    1    2  501    0 -0.10466399462E+03 -0.28554598548E+02  0.54918399446E+03  0.58591976980E+03  0.17300000000E+03 0. -1.
         -6    1    1    2    0  503  0.10466399462E+03  0.28554598548E+02  0.50933844381E+03  0.54874818197E+03  0.17300000000E+03 0. -1.
<mgrwt>
<rscale>  2 0.20420313E+03</rscale>
<asrwt>0</asrwt>
<pdfrwt beam="1">  1       21 0.16870693E+00 0.20420313E+03</pdfrwt>
<pdfrwt beam="2">  1       21 0.58573480E-02 0.20420313E+03</pdfrwt>
<totfact> 0.44457346E+04</totfact>
</mgrwt>
</event>
<event>
 4    1  0.4391134E+000  0.1761731E+03  0.7546771E-02  0.1171559E+00
         21   -1    0    0  501  502  0.00000000000E+00  0.00000000000E+00  0.22046215119E+03  0.22046215119E+03  0.00000000000E+00 0. -1.
         21   -1    0    0  502  503 -0.00000000000E+00 -0.00000000000E+00 -0.14495109796E+03  0.14495109796E+03  0.00000000000E+00 0. -1.
          6    1    1    2  501    0 -0.28023232805E+02 -0.17963114127E+02  0.68743609956E+02  0.18911017676E+03  0.17300000000E+03 0. -1.
         -6    1    1    2    0  503  0.28023232805E+02  0.17963114127E+02  0.67674432764E+01  0.17630307239E+03  0.17300000000E+03 0. -1.
<mgrwt>
<rscale>  2 0.17617314E+03</rscale>
<asrwt>0</asrwt>
<pdfrwt beam="1">  1       21 0.33917254E-01 0.17617314E+03</pdfrwt>
<pdfrwt beam="2">  1       21 0.22300169E-01 0.17617314E+03</pdfrwt>
<totfact> 0.15840361E+05</totfact>
</mgrwt>
</event>
<event>
 4    1  0.4391134E+000  0.2202156E+03  0.7546771E-02  0.1133722E+00
         21   -1    0    0  503  502  0.00000000000E+00  0.00000000000E+00  0.37968453669E+03  0.37968453669E+03  0.00000000000E+00 0. -1.
         21   -1    0    0  501  503 -0.00000000000E+00 -0.00000000000E+00 -0.12796775110E+03  0.12796775110E+03  0.00000000000E+00 0.  1.
          6    1    1    2  501    0 -0.13096688828E+03  0.37597721193E+02  0.13693115205E+03  0.25931651484E+03  0.17300000000E+03 0.  1.
         -6    1    1    2    0  502  0.13096688828E+03 -0.37597721193E+02  0.11478563354E+03  0.24833577296E+03  0.17300000000E+03 0.  1.
<mgrwt>
<rscale>  2 0.22021561E+03</rscale>
<asrwt>0</asrwt>
<pdfrwt beam="1">  1       21 0.58413005E-01 0.22021561E+03</pdfrwt>
<pdfrwt beam="2">  1       21 0.19687346E-01 0.22021561E+03</pdfrwt>
<totfact> 0.64440379E+04</totfact>
</mgrwt>
</event>
<event>
 4    1  0.4391134E+000  0.1747072E+03  0.7546771E-02  0.1173026E+00
         21   -1    0    0  503  502  0.00000000000E+00  0.00000000000E+00  0.10214139454E+03  0.10214139454E+03  0.00000000000E+00 0.  1.
         21   -1    0    0  501  503 -0.00000000000E+00 -0.00000000000E+00 -0.85896332311E+03  0.85896332311E+03  0.00000000000E+00 0.  1.
          6    1    1    2  501    0 -0.19428462977E+01 -0.24286609602E+02 -0.76647218248E+03  0.78613117263E+03  0.17300000000E+03 0.  1.
         -6    1    1    2    0  502  0.19428462977E+01  0.24286609602E+02  0.96502539071E+01  0.17497354502E+03  0.17300000000E+03 0.  1.
<mgrwt>
<rscale>  2 0.17470722E+03</rscale>
<asrwt>0</asrwt>
<pdfrwt beam="1">  1       21 0.15714061E-01 0.17470722E+03</pdfrwt>
<pdfrwt beam="2">  1       21 0.13214820E+00 0.17470722E+03</pdfrwt>
<totfact> 0.15133288E+04</totfact>
</mgrwt>
</event>
<event>
 4    1  0.4391134E+000  0.1987893E+03  0.7546771E-02  0.1150765E+00
         21   -1    0    0  503  502  0.00000000000E+00  0.00000000000E+00  0.28143521916E+03  0.28143521916E+03  0.00000000000E+00 0. -1.
         21   -1    0    0  501  503 -0.00000000000E+00 -0.00000000000E+00 -0.25446370296E+03  0.25446370296E+03  0.00000000000E+00 0. -1.
          6    1    1    2  501    0  0.32543614393E+02 -0.92353087863E+02 -0.16590036327E+03  0.25892105014E+03  0.17300000000E+03 0. -1.
         -6    1    1    2    0  502 -0.32543614393E+02  0.92353087863E+02  0.19287187946E+03  0.27697787197E+03  0.17300000000E+03 0. -1.
<mgrwt>
<rscale>  2 0.19878928E+03</rscale>
<asrwt>0</asrwt>
<pdfrwt beam="1">  1       21 0.43297726E-01 0.19878928E+03</pdfrwt>
<pdfrwt beam="2">  1       21 0.39148262E-01 0.19878928E+03</pdfrwt>
<totfact> 0.32152718E+04</totfact>
</mgrwt>
</event>
<event>
 4    1  0.4391134E+000  0.1830027E+03  0.7546771E-02  0.1164928E+00
         21   -1    0    0  501  502  0.00000000000E+00  0.00000000000E+00  0.23683417241E+03  0.23683417241E+03  0.00000000000E+00 0.  1.
         21   -1    0    0  502  503 -0.00000000000E+00 -0.00000000000E+00 -0.15916251465E+03  0.15916251465E+03  0.00000000000E+00 0.  1.
          6    1    1    2  501    0  0.55735591834E+02  0.21319601231E+02  0.10496746246E+03  0.21096954702E+03  0.17300000000E+03 0.  1.
         -6    1    1    2    0  503 -0.55735591834E+02 -0.21319601231E+02 -0.27295804704E+02  0.18502714003E+03  0.17300000000E+03 0.  1.
<mgrwt>
<rscale>  2 0.18300268E+03</rscale>
<asrwt>0</asrwt>
<pdfrwt beam="1">  1       21 0.36436027E-01 0.18300268E+03</pdfrwt>
<pdfrwt beam="2">  1       21 0.24486541E-01 0.18300268E+03</pdfrwt>
<totfact> 0.11486586E+05</totfact>
</mgrwt>
</event>
<event>
 4    1  0.4391134E+000  0.3183707E+03  0.7546771E-02  0.1076402E+00
         21   -1    0    0  501  502  0.00000000000E+00  0.00000000000E+00  0.84267557619E+03  0.84267557619E+03  0.00000000000E+00 0.  1.
         21   -1    0    0  502  503 -0.00000000000E+00 -0.00000000000E+00 -0.36980894568E+03  0.36980894568E+03  0.00000000000E+00 0. -1.
          6    1    1    2  501    0  0.23319302202E+03  0.13058294381E+03  0.73441686975E+03  0.80045488899E+03  0.17300000000E+03 0.  1.
         -6    1    1    2    0  503 -0.23319302202E+03 -0.13058294381E+03 -0.26155023923E+03  0.41202963288E+03  0.17300000000E+03 0. -1.
<mgrwt>
<rscale>  2 0.31837068E+03</rscale>
<asrwt>0</asrwt>
<pdfrwt beam="1">  1       21 0.12964240E+00 0.31837068E+03</pdfrwt>
<pdfrwt beam="2">  1       21 0.56893684E-01 0.31837068E+03</pdfrwt>
<totfact> 0.11455006E+03</totfact>
</mgrwt>
</event>
<event>
 4    1  0.4391134E+000  0.1938490E+03  0.7546771E-02  0.1155035E+00
         21   -1    0    0  503  502  0.00000000000E+00  0.00000000000E+00  0.25259782400E+03  0.25259782400E+03  0.00000000000E+00 0. -1.
         21   -1    0    0  501  503 -0.00000000000E+00 -0.00000000000E+00 -0.14885144242E+03  0.14885144242E+03  0.00000000000E+00 0.  1.
          6    1    1    2  501    0  0.80125849547E+02  0.35046937695E+02  0.47005622718E+02  0.19946670944E+03  0.17300000000E+03 0.  1.
         -6    1    1    2    0  502 -0.80125849547E+02 -0.35046937695E+02  0.56740758858E+02  0.20198255698E+03  0.17300000000E+03 0.  1.
<mgrwt>
<rscale>  2 0.19384901E+03</rscale>
<asrwt>0</asrwt>
<pdfrwt beam="1">  1       21 0.38861204E-01 0.19384901E+03</pdfrwt>
<pdfrwt beam="2">  1       21 0.22900222E-01 0.19384901E+03</pdfrwt>
<totfact> 0.11420940E+05</totfact>
</mgrwt>
</event>
<event>
 4    1  0.4391134E+000  0.1921116E+03  0.7546771E-02  0.1156571E+00
         21   -1    0    0  503  502  0.00000000000E+00  0.00000000000E+00  0.54534221684E+03  0.54534221684E+03  0.00000000000E+00 0.  1.
         21   -1    0    0  501  503 -0.00000000000E+00 -0.00000000000E+00 -0.77797614403E+02  0.77797614403E+02  0.00000000000E+00 0. -1.
          6    1    1    2  501    0 -0.83214226031E+02 -0.72973849074E+01  0.12139301224E+03  0.22725123248E+03  0.17300000000E+03 0. -1.
         -6    1    1    2    0  502  0.83214226031E+02  0.72973849074E+01  0.34615159019E+03  0.39588859877E+03  0.17300000000E+03 0. -1.
<mgrwt>
<rscale>  2 0.19211158E+03</rscale>
<asrwt>0</asrwt>
<pdfrwt beam="1">  1       21 0.83898800E-01 0.19211158E+03</pdfrwt>
<pdfrwt beam="2">  1       21 0.11968864E-01 0.19211158E+03</pdfrwt>
<totfact> 0.72800604E+04</totfact>
</mgrwt>
</event>
<event>
 4    1  0.4391134E+000  0.1913504E+03  0.7546771E-02  0.1157249E+00
         21   -1    0    0  501  502  0.00000000000E+00  0.00000000000E+00  0.12984712476E+03  0.12984712476E+03  0.00000000000E+00 0.  1.
         21   -1    0    0  502  503 -0.00000000000E+00 -0.00000000000E+00 -0.45519040259E+03  0.45519040259E+03  0.00000000000E+00 0.  1.
          6    1    1    2  501    0  0.20634899564E+02 -0.79121312839E+02  0.17770312108E+02  0.19217378910E+03  0.17300000000E+03 0.  1.
         -6    1    1    2    0  503 -0.20634899564E+02  0.79121312839E+02 -0.34311358995E+03  0.39286373825E+03  0.17300000000E+03 0.  1.
<mgrwt>
<rscale>  2 0.19135041E+03</rscale>
<asrwt>0</asrwt>
<pdfrwt beam="1">  1       21 0.19976481E-01 0.19135041E+03</pdfrwt>
<pdfrwt beam="2">  1       21 0.70029293E-01 0.19135041E+03</pdfrwt>
<totfact> 0.42854890E+04</totfact>
</mgrwt>
</event>
<event>
 4    1  0.4391134E+000  0.2750576E+03  0.7546771E-02  0.1098419E+00
         21   -1    0    0  501  502  0.00000000000E+00  0.00000000000E+00  0.70606661928E+02  0.70606661928E+02  0.00000000000E+00 0. -1.
         21   -1    0    0  502  503 -0.00000000000E+00 -0.00000000000E+00 -0.13796517364E+04  0.13796517364E+04  0.00000000000E+00 0.  1.
          6    1    1    2  501    0 -0.10826091846E+03  0.18441057883E+03 -0.31183642770E+03  0.41581082922E+03  0.17300000000E+03 0.  1.
         -6    1    1    2    0  503  0.10826091846E+03 -0.18441057883E+03 -0.99720864678E+03  0.10344475691E+04  0.17300000000E+03 0. -1.
<mgrwt>
<rscale>  2 0.27505761E+03</rscale>
<asrwt>0</asrwt>
<pdfrwt beam="1">  1       21 0.10862563E-01 0.27505761E+03</pdfrwt>
<pdfrwt beam="2">  1       21 0.21225412E+00 0.27505761E+03</pdfrwt>
<totfact> 0.73898125E+03</totfact>
</mgrwt>
</event>
<event>
 4    1  0.4391134E+000  0.2170642E+03  0.7546771E-02  0.1136091E+00
         21   -1    0    0  503  502  0.00000000000E+00  0.00000000000E+00  0.15123708826E+04  0.15123708826E+04  0.00000000000E+00 0.  1.
         21   -1    0    0  501  503 -0.00000000000E+00 -0.00000000000E+00 -0.35140899022E+02  0.35140899022E+02  0.00000000000E+00 0.  1.
          6    1    1    2  501    0 -0.91425185639E+02 -0.93964421264E+02  0.99922918357E+03  0.10225340280E+04  0.17300000000E+03 0.  1.
         -6    1    1    2    0  502  0.91425185639E+02  0.93964421264E+02  0.47800080000E+03  0.52497775365E+03  0.17300000000E+03 0.  1.
<mgrwt>
<rscale>  2 0.21706422E+03</rscale>
<asrwt>0</asrwt>
<pdfrwt beam="1">  1       21 0.23267239E+00 0.21706422E+03</pdfrwt>
<pdfrwt beam="2">  1       21 0.54062933E-02 0.21706422E+03</pdfrwt>
<totfact> 0.19464158E+04</totfact>
</mgrwt>
</event>
<event>
 4    1  0.4391134E+000  0.2027799E+03  0.7546771E-02  0.1147415E+00
         21   -1    0    0  503  502  0.00000000000E+00  0.00000000000E+00  0.40476656927E+03  0.40476656927E+03  0.00000000000E+00 0.  1.
         21   -1    0    0  501  503 -0.00000000000E+00 -0.00000000000E+00 -0.10449698780E+03  0.10449698780E+03  0.00000000000E+00 0.  1.
          6    1    1    2  501    0 -0.39469556076E+02 -0.98147031338E+02  0.19261472416E+03  0.27967859693E+03  0.17300000000E+03 0.  1.
         -6    1    1    2    0  502  0.39469556076E+02  0.98147031338E+02  0.10765485731E+03  0.22958496014E+03  0.17300000000E+03 0.  1.
<mgrwt>
<rscale>  2 0.20277989E+03</rscale>
<asrwt>0</asrwt>
<pdfrwt beam="1">  1       21 0.62271779E-01 0.20277989E+03</pdfrwt>
<pdfrwt beam="2">  1       21 0.16076460E-01 0.20277989E+03</pdfrwt>
<totfact> 0.82313639E+04</totfact>
</mgrwt>
</event>
<event>
 4    1  0.4391134E+000  0.1980664E+03  0.7546771E-02  0.1151381E+00
         21   -1    0    0  503  502  0.00000000000E+00  0.00000000000E+00  0.16366590379E+04  0.16366590379E+04  0.00000000000E+00 0. -1.
         21   -1    0    0  501  503 -0.00000000000E+00 -0.00000000000E+00 -0.37829554197E+02  0.37829554197E+02  0.00000000000E+00 0.  1.
          6    1    1    2  501    0  0.94085398352E+02  0.21195042875E+02  0.29263962099E+03  0.35336700440E+03  0.17300000000E+03 0.  1.
         -6    1    1    2    0  502 -0.94085398352E+02 -0.21195042875E+02  0.13061898627E+04  0.13211215877E+04  0.17300000000E+03 0. -1.
<mgrwt>
<rscale>  2 0.19806638E+03</rscale>
<asrwt>0</asrwt>
<pdfrwt beam="1">  1       21 0.25179364E+00 0.19806638E+03</pdfrwt>
<pdfrwt beam="2">  1       21 0.58199327E-02 0.19806638E+03</pdfrwt>
<totfact> 0.13414178E+04</totfact>
</mgrwt>
</event>
<event>
 4    1  0.4391134E+000  0.2401126E+03  0.7546771E-02  0.1119718E+00
         21   -1    0    0  503  502  0.00000000000E+00  0.00000000000E+00  0.11075450840E+04  0.11075450840E+04  0.00000000000E+00 0. -1.
         21   -1    0    0  501  503 -0.00000000000E+00 -0.00000000000E+00 -0.60707174702E+02  0.60707174702E+02  0.00000000000E+00 0.  1.
          6    1    1    2  501    0  0.69976909235E+02 -0.15109036180E+03  0.30290757826E+03  0.38653210245E+03  0.17300000000E+03 0. -1.
         -6    1    1    2    0  502 -0.69976909235E+02  0.15109036180E+03  0.74393033104E+03  0.78172015626E+03  0.17300000000E+03 0.  1.
<mgrwt>
<rscale>  2 0.24011261E+03</rscale>
<asrwt>0</asrwt>
<pdfrwt beam="1">  1       21 0.17039154E+00 0.24011261E+03</pdfrwt>
<pdfrwt beam="2">  1       21 0.93395661E-02 0.24011261E+03</pdfrwt>
<totfact> 0.18808875E+04</totfact>
</mgrwt>
</event>
<event>
 4    1  0.4391134E+000  0.2308416E+03  0.7546771E-02  0.1126049E+00
         21   -1    0    0  503  502  0.00000000000E+00  0.00000000000E+00  0.16747142442E+03  0.16747142442E+03  0.00000000000E+00 0. -1.
         21   -1    0    0  501  503 -0.00000000000E+00 -0.00000000000E+00 -0.41827620877E+03  0.41827620877E+03  0.00000000000E+00 0.  1.
          6    1    1    2  501    0  0.13261640017E+03  0.75971810824E+02 -0.26866566837E+03  0.35421613034E+03  0.17300000000E+03 0.  1.
         -6    1    1    2    0  502 -0.13261640017E+03 -0.75971810824E+02  0.17860884027E+02  0.23153150285E+03  0.17300000000E+03 0. -1.
<mgrwt>
<rscale>  2 0.23084156E+03</rscale>
<asrwt>0</asrwt>
<pdfrwt beam="1">  1       21 0.25764835E-01 0.23084156E+03</pdfrwt>
<pdfrwt beam="2">  1       21 0.64350185E-01 0.23084156E+03</pdfrwt>
<totfact> 0.31224884E+04</totfact>
</mgrwt>
</event>
<event>
 4    1  0.4391134E+000  0.1761026E+03  0.7546771E-02  0.1171629E+00
         21   -1    0    0  503  502  0.00000000000E+00  0.00000000000E+00  0.13216435388E+03  0.13216435388E+03  0.00000000000E+00 0.  1.
         21   -1    0    0  501  503 -0.00000000000E+00 -0.00000000000E+00 -0.25294166745E+03  0.25294166745E+03  0.00000000000E+00 0.  1.
          6    1    1    2  501    0  0.23793558094E+02 -0.22737375009E+02 -0.86054800146E+01  0.17631272193E+03  0.17300000000E+03 0.  1.
         -6    1    1    2    0  502 -0.23793558094E+02  0.22737375009E+02 -0.11217183356E+03  0.20879329940E+03  0.17300000000E+03 0.  1.
<mgrwt>
<rscale>  2 0.17610259E+03</rscale>
<asrwt>0</asrwt>
<pdfrwt beam="1">  1       21 0.20332978E-01 0.17610259E+03</pdfrwt>
<pdfrwt beam="2">  1       21 0.38914102E-01 0.17610259E+03</pdfrwt>
<totfact> 0.14328896E+05</totfact>
</mgrwt>
</event>
<event>
 4    1  0.4391134E+000  0.3418541E+03  0.7546771E-02  0.1066009E+00
         21   -1    0    0  503  502  0.00000000000E+00  0.00000000000E+00  0.39321772354E+03  0.39321772354E+03  0.00000000000E+00 0.  1.
         21   -1    0    0  501  503 -0.00000000000E+00 -0.00000000000E+00 -0.65080079208E+03  0.65080079208E+03  0.00000000000E+00 0.  1.
          6    1    1    2  501    0  0.15608072680E+03  0.25014807490E+03 -0.51357009781E+03  0.61694286447E+03  0.17300000000E+03 0.  1.
         -6    1    1    2    0  502 -0.15608072680E+03 -0.25014807490E+03  0.25598702927E+03  0.42707565115E+03  0.17300000000E+03 0.  1.
<mgrwt>
<rscale>  2 0.34185414E+03</rscale>
<asrwt>0</asrwt>
<pdfrwt beam="1">  1       21 0.60495035E-01 0.34185414E+03</pdfrwt>
<pdfrwt beam="2">  1       21 0.10012320E+00 0.34185414E+03</pdfrwt>
<totfact> 0.18810944E+03</totfact>
</mgrwt>
</event>
<event>
 4    1  0.4391134E+000  0.3032915E+03  0.7546771E-02  0.1083607E+00
         21   -1    0    0  501  502  0.00000000000E+00  0.00000000000E+00  0.64907001932E+03  0.64907001932E+03  0.00000000000E+00 0.  1.
         21   -1    0    0  502  503 -0.00000000000E+00 -0.00000000000E+00 -0.40364136252E+03  0.40364136252E+03  0.00000000000E+00 0. -1.
          6    1    1    2  501    0 -0.13414483491E+03 -0.20990922143E+03  0.54671600261E+03  0.62520725002E+03  0.17300000000E+03 0.  1.
         -6    1    1    2    0  503  0.13414483491E+03  0.20990922143E+03 -0.30128734581E+03  0.42750413181E+03  0.17300000000E+03 0. -1.
<mgrwt>
<rscale>  2 0.30329147E+03</rscale>
<asrwt>0</asrwt>
<pdfrwt beam="1">  1       21 0.99856926E-01 0.30329147E+03</pdfrwt>
<pdfrwt beam="2">  1       21 0.62098671E-01 0.30329147E+03</pdfrwt>
<totfact> 0.18265366E+03</totfact>
</mgrwt>
</event>
<event>
 4    1  0.4391134E+000  0.2149040E+03  0.7546771E-02  0.1137740E+00
         21   -1    0    0  503  502  0.00000000000E+00  0.00000000000E+00  0.68201094250E+02  0.68201094250E+02  0.00000000000E+00 0.  1.
         21   -1    0    0  501  503 -0.00000000000E+00 -0.00000000000E+00 -0.11418969440E+04  0.11418969440E+04  0.00000000000E+00 0.  1.
          6    1    1    2  501    0  0.12529918476E+03 -0.23555388709E+02 -0.92283786317E+03  0.94753019146E+03  0.17300000000E+03 0.  1.
         -6    1    1    2    0  502 -0.12529918476E+03  0.23555388709E+02 -0.15085798653E+03  0.26256784674E+03  0.17300000000E+03 0.  1.
<mgrwt>
<rscale>  2 0.21490403E+03</rscale>
<asrwt>0</asrwt>
<pdfrwt beam="1">  1       21 0.10492476E-01 0.21490403E+03</pdfrwt>
<pdfrwt beam="2">  1       21 0.17567645E+00 0.21490403E+03</pdfrwt>
<totfact> 0.14283391E+04</totfact>
</mgrwt>
</event>
<event>
 4    1  0.4391134E+000  0.1919029E+03  0.7546771E-02  0.1156756E+00
         21   -1    0    0  503  502  0.00000000000E+00  0.00000000000E+00  0.14952256836E+03  0.14952256836E+03  0.00000000000E+00 0. -1.
         21   -1    0    0  501  503 -0.00000000000E+00 -0.00000000000E+00 -0.31258766027E+03  0.31258766027E+03  0.00000000000E+00 0. -1.
          6    1    1    2  501    0 -0.82963680245E+02  0.38400208290E+01 -0.18793732773E+03  0.26860222849E+03  0.17300000000E+03 0. -1.
         -6    1    1    2    0  502  0.82963680245E+02 -0.38400208290E+01  0.24872235818E+02  0.19350800013E+03  0.17300000000E+03 0. -1.
<mgrwt>
<rscale>  2 0.19190289E+03</rscale>
<asrwt>0</asrwt>
<pdfrwt beam="1">  1       21 0.23003472E-01 0.19190289E+03</pdfrwt>
<pdfrwt beam="2">  1       21 0.48090409E-01 0.19190289E+03</pdfrwt>
<totfact> 0.73338195E+04</totfact>
</mgrwt>
</event>
<event>
 4    1  0.4391134E+000  0.1856687E+03  0.7546771E-02  0.1162427E+00
         21   -1    0    0  503  502  0.00000000000E+00  0.00000000000E+00  0.64511206894E+02  0.64511206894E+02  0.00000000000E+00 0.  1.
         21   -1    0    0  501  503 -0.00000000000E+00 -0.00000000000E+00 -0.13370838628E+04  0.13370838628E+04  0.00000000000E+00 0.  1.
          6    1    1    2  501    0  0.20512013172E+02  0.64211486250E+02 -0.11792785473E+04  0.11938051557E+04  0.17300000000E+03 0.  1.
         -6    1    1    2    0  502 -0.20512013172E+02 -0.64211486250E+02 -0.93294108577E+02  0.20778991397E+03  0.17300000000E+03 0.  1.
<mgrwt>
<rscale>  2 0.18566868E+03</rscale>
<asrwt>0</asrwt>
<pdfrwt beam="1">  1       21 0.99248024E-02 0.18566868E+03</pdfrwt>
<pdfrwt beam="2">  1       21 0.20570518E+00 0.18566868E+03</pdfrwt>
<totfact> 0.10216214E+04</totfact>
</mgrwt>
</event>
<event>
 4    1  0.4391134E+000  0.2165655E+03  0.7546771E-02  0.1136470E+00
         21   -1    0    0  503  502  0.00000000000E+00  0.00000000000E+00  0.46508266735E+03  0.46508266735E+03  0.00000000000E+00 0. -1.
         21   -1    0    0  501  503 -0.00000000000E+00 -0.00000000000E+00 -0.10214754160E+03  0.10214754160E+03  0.00000000000E+00 0.  1.
          6    1    1    2  501    0 -0.96080120155E+02 -0.87978678455E+02  0.14942443939E+03  0.26311271433E+03  0.17300000000E+03 0.  1.
         -6    1    1    2    0  502  0.96080120155E+02  0.87978678455E+02  0.21351068635E+03  0.30411749463E+03  0.17300000000E+03 0. -1.
<mgrwt>
<rscale>  2 0.21656555E+03</rscale>
<asrwt>0</asrwt>
<pdfrwt beam="1">  1       21 0.71551178E-01 0.21656555E+03</pdfrwt>
<pdfrwt beam="2">  1       21 0.15715007E-01 0.21656555E+03</pdfrwt>
<totfact> 0.62917604E+04</totfact>
</mgrwt>
</event>
<event>
 4    1  0.4391134E+000  0.2333536E+03  0.7546771E-02  0.1124301E+00
         21   -1    0    0  501  502  0.00000000000E+00  0.00000000000E+00  0.33302824893E+03  0.33302824893E+03  0.00000000000E+00 0. -1.
         21   -1    0    0  502  503 -0.00000000000E+00 -0.00000000000E+00 -0.19087032716E+03  0.19087032716E+03  0.00000000000E+00 0.  1.
          6    1    1    2  501    0  0.84646847342E+02 -0.13175671830E+03  0.17025286119E+03  0.28885975546E+03  0.17300000000E+03 0.  1.
         -6    1    1    2    0  503 -0.84646847342E+02  0.13175671830E+03 -0.28094939427E+02  0.23503882063E+03  0.17300000000E+03 0.  1.
<mgrwt>
<rscale>  2 0.23335364E+03</rscale>
<asrwt>0</asrwt>
<pdfrwt beam="1">  1       21 0.51235115E-01 0.23335364E+03</pdfrwt>
<pdfrwt beam="2">  1       21 0.29364666E-01 0.23335364E+03</pdfrwt>
<totfact> 0.39436649E+04</totfact>
</mgrwt>
</event>
<event>
 4    1  0.4391134E+000  0.2241952E+03  0.7546771E-02  0.1130793E+00
         21   -1    0    0  503  502  0.00000000000E+00  0.00000000000E+00  0.51179609218E+03  0.51179609218E+03  0.00000000000E+00 0. -1.
         21   -1    0    0  501  503 -0.00000000000E+00 -0.00000000000E+00 -0.23138291888E+03  0.23138291888E+03  0.00000000000E+00 0.  1.
          6    1    1    2  501    0 -0.39482443280E+02  0.13702424085E+03 -0.14170031897E+03  0.26522157963E+03  0.17300000000E+03 0.  1.
         -6    1    1    2    0  502  0.39482443280E+02 -0.13702424085E+03  0.42211349226E+03  0.47795743143E+03  0.17300000000E+03 0. -1.
<mgrwt>
<rscale>  2 0.22419524E+03</rscale>
<asrwt>0</asrwt>
<pdfrwt beam="1">  1       21 0.78737860E-01 0.22419524E+03</pdfrwt>
<pdfrwt beam="2">  1       21 0.35597372E-01 0.22419524E+03</pdfrwt>
<totfact> 0.10624851E+04</totfact>
</mgrwt>
</event>
<event>
 4    1  0.4391134E+000  0.3131108E+03  0.7546771E-02  0.1078864E+00
         21   -1    0    0  503  502  0.00000000000E+00  0.00000000000E+00  0.42481803106E+03  0.42481803106E+03  0.00000000000E+00 0.  1.
         21   -1    0    0  501  503 -0.00000000000E+00 -0.00000000000E+00 -0.24046950898E+03  0.24046950898E+03  0.00000000000E+00 0. -1.
          6    1    1    2  501    0 -0.23168265030E+03 -0.12013551524E+03  0.15895619060E+03  0.35114877617E+03  0.17300000000E+03 0.  1.
         -6    1    1    2    0  502  0.23168265030E+03  0.12013551524E+03  0.25392331473E+02  0.31413876388E+03  0.17300000000E+03 0. -1.
<mgrwt>
<rscale>  2 0.31311083E+03</rscale>
<asrwt>0</asrwt>
<pdfrwt beam="1">  1       21 0.65356620E-01 0.31311083E+03</pdfrwt>
<pdfrwt beam="2">  1       21 0.36995309E-01 0.31311083E+03</pdfrwt>
<totfact> 0.14263104E+04</totfact>
</mgrwt>
</event>
<event>
 4    1  0.4391134E+000  0.2222498E+03  0.7546771E-02  0.1132217E+00
         21   -1    0    0  501  502  0.00000000000E+00  0.00000000000E+00  0.46892852612E+02  0.46892852612E+02  0.00000000000E+00 0.  1.
         21   -1    0    0  502  503 -0.00000000000E+00 -0.00000000000E+00 -0.12399953022E+04  0.12399953022E+04  0.00000000000E+00 0.  1.
          6    1    1    2  501    0  0.53406372374E+02 -0.12889426744E+03 -0.34691952702E+03  0.41200501334E+03  0.17300000000E+03 0.  1.
         -6    1    1    2    0  503 -0.53406372374E+02  0.12889426744E+03 -0.84618292257E+03  0.87488314147E+03  0.17300000000E+03 0.  1.
<mgrwt>
<rscale>  2 0.22224980E+03</rscale>
<asrwt>0</asrwt>
<pdfrwt beam="1">  1       21 0.72142848E-02 0.22224980E+03</pdfrwt>
<pdfrwt beam="2">  1       21 0.19076851E+00 0.22224980E+03</pdfrwt>
<totfact> 0.21678582E+04</totfact>
</mgrwt>
</event>
<event>
 4    1  0.4391134E+000  0.1982339E+03  0.7546771E-02  0.1151238E+00
         21   -1    0    0  503  502  0.00000000000E+00  0.00000000000E+00  0.30126703972E+02  0.30126703972E+02  0.00000000000E+00 0.  1.
         21   -1    0    0  501  503 -0.00000000000E+00 -0.00000000000E+00 -0.14451608262E+04  0.14451608262E+04  0.00000000000E+00 0.  1.
          6    1    1    2  501    0  0.17228080130E+02 -0.95241208480E+02 -0.93774556454E+03  0.95846932051E+03  0.17300000000E+03 0.  1.
         -6    1    1    2    0  502 -0.17228080130E+02  0.95241208480E+02 -0.47728855765E+03  0.51681820962E+03  0.17300000000E+03 0.  1.
<mgrwt>
<rscale>  2 0.19823394E+03</rscale>
<asrwt>0</asrwt>
<pdfrwt beam="1">  1       21 0.46348790E-02 0.19823394E+03</pdfrwt>
<pdfrwt beam="2">  1       21 0.22233237E+00 0.19823394E+03</pdfrwt>
<totfact> 0.29642805E+04</totfact>
</mgrwt>
</event>
<event>
 4    1  0.4391134E+000  0.1924299E+03  0.7546771E-02  0.1156288E+00
         21   -1    0    0  501  502  0.00000000000E+00  0.00000000000E+00  0.44224486819E+03  0.44224486819E+03  0.00000000000E+00 0. -1.
         21   -1    0    0  502  503 -0.00000000000E+00 -0.00000000000E+00 -0.86520039743E+02  0.86520039743E+02  0.00000000000E+00 0. -1.
          6    1    1    2  501    0 -0.66311079332E+02  0.51991599314E+02  0.22533663573E+03  0.29632057817E+03  0.17300000000E+03 0. -1.
         -6    1    1    2    0  503  0.66311079332E+02 -0.51991599314E+02  0.13038819271E+03  0.23244432977E+03  0.17300000000E+03 0. -1.
<mgrwt>
<rscale>  2 0.19242995E+03</rscale>
<asrwt>0</asrwt>
<pdfrwt beam="1">  1       21 0.68037670E-01 0.19242995E+03</pdfrwt>
<pdfrwt beam="2">  1       21 0.13310776E-01 0.19242995E+03</pdfrwt>
<totfact> 0.96097521E+04</totfact>
</mgrwt>
</event>
<event>
 4    1  0.4391134E+000  0.2498158E+03  0.7546771E-02  0.1113421E+00
         21   -1    0    0  503  502  0.00000000000E+00  0.00000000000E+00  0.33729326034E+03  0.33729326034E+03  0.00000000000E+00 0.  1.
         21   -1    0    0  501  503 -0.00000000000E+00 -0.00000000000E+00 -0.39820571011E+03  0.39820571011E+03  0.00000000000E+00 0.  1.
          6    1    1    2  501    0 -0.17140307230E+03 -0.55676932770E+02 -0.29953010009E+03  0.39003360739E+03  0.17300000000E+03 0.  1.
         -6    1    1    2    0  502  0.17140307230E+03  0.55676932770E+02  0.23861765031E+03  0.34546536306E+03  0.17300000000E+03 0.  1.
<mgrwt>
<rscale>  2 0.24981580E+03</rscale>
<asrwt>0</asrwt>
<pdfrwt beam="1">  1       21 0.51891271E-01 0.24981580E+03</pdfrwt>
<pdfrwt beam="2">  1       21 0.61262417E-01 0.24981580E+03</pdfrwt>
<totfact> 0.84208979E+03</totfact>
</mgrwt>
</event>
<event>
 4    1  0.4391134E+000  0.2059863E+03  0.7546771E-02  0.1144784E+00
         21   -1    0    0  501  502  0.00000000000E+00  0.00000000000E+00  0.66853252528E+03  0.66853252528E+03  0.00000000000E+00 0.  1.
         21   -1    0    0  502  503 -0.00000000000E+00 -0.00000000000E+00 -0.63675769843E+02  0.63675769843E+02  0.00000000000E+00 0. -1.
          6    1    1    2  501    0 -0.79366049736E+02 -0.78755329269E+02  0.28151193362E+03  0.34882565919E+03  0.17300000000E+03 0. -1.
         -6    1    1    2    0  503  0.79366049736E+02  0.78755329269E+02  0.32334482182E+03  0.38338263593E+03  0.17300000000E+03 0. -1.
<mgrwt>
<rscale>  2 0.20598634E+03</rscale>
<asrwt>0</asrwt>
<pdfrwt beam="1">  1       21 0.10285115E+00 0.20598634E+03</pdfrwt>
<pdfrwt beam="2">  1       21 0.97962727E-02 0.20598634E+03</pdfrwt>
<totfact> 0.64186151E+04</totfact>
</mgrwt>
</event>
<event>
 4    1  0.4391134E+000  0.2074176E+03  0.7546771E-02  0.1143627E+00
         21   -1    0    0  501  502  0.00000000000E+00  0.00000000000E+00  0.32551941195E+03  0.32551941195E+03  0.00000000000E+00 0.  1.
         21   -1    0    0  502  503 -0.00000000000E+00 -0.00000000000E+00 -0.17242510802E+03  0.17242510802E+03  0.00000000000E+00 0. -1.
          6    1    1    2  501    0 -0.52950515035E+02  0.10143623174E+03  0.19685434792E+03  0.28596101211E+03  0.17300000000E+03 0.  1.
         -6    1    1    2    0  503  0.52950515035E+02 -0.10143623174E+03 -0.43760043999E+02  0.21198350786E+03  0.17300000000E+03 0. -1.
<mgrwt>
<rscale>  2 0.20741761E+03</rscale>
<asrwt>0</asrwt>
<pdfrwt beam="1">  1       21 0.50079909E-01 0.20741761E+03</pdfrwt>
<pdfrwt beam="2">  1       21 0.26526940E-01 0.20741761E+03</pdfrwt>
<totfact> 0.50984425E+04</totfact>
</mgrwt>
</event>
<event>
 4    1  0.4391134E+000  0.3616024E+03  0.7546771E-02  0.1057951E+00
         21   -1    0    0  501  502  0.00000000000E+00  0.00000000000E+00  0.58620942283E+03  0.58620942283E+03  0.00000000000E+00 0. -1.
         21   -1    0    0  502  503 -0.00000000000E+00 -0.00000000000E+00 -0.37921891478E+03  0.37921891478E+03  0.00000000000E+00 0.  1.
          6    1    1    2  501    0  0.22264693081E+03 -0.22639707981E+03  0.41326352729E+03  0.54912934408E+03  0.17300000000E+03 0. -1.
         -6    1    1    2    0  503 -0.22264693081E+03  0.22639707981E+03 -0.20627301924E+03  0.41629899353E+03  0.17300000000E+03 0.  1.
<mgrwt>
<rscale>  2 0.36160240E+03</rscale>
<asrwt>0</asrwt>
<pdfrwt beam="1">  1       21 0.90186065E-01 0.36160240E+03</pdfrwt>
<pdfrwt beam="2">  1       21 0.58341372E-01 0.36160240E+03</pdfrwt>
<totfact> 0.25861620E+03</totfact>
</mgrwt>
</event>
<event>
 4    1  0.4391134E+000  0.2520157E+03  0.7546771E-02  0.1112038E+00
         21   -1    0    0  503  502  0.00000000000E+00  0.00000000000E+00  0.33500369525E+03  0.33500369525E+03  0.00000000000E+00 0.  1.
         21   -1    0    0  501  503 -0.00000000000E+00 -0.00000000000E+00 -0.19540992564E+03  0.19540992564E+03  0.00000000000E+00 0.  1.
          6    1    1    2  501    0 -0.17443554065E+03  0.56170688359E+02  0.24011051176E+02  0.25315693680E+03  0.17300000000E+03 0.  1.
         -6    1    1    2    0  502  0.17443554065E+03 -0.56170688359E+02  0.11558271843E+03  0.27725668409E+03  0.17300000000E+03 0.  1.
<mgrwt>
<rscale>  2 0.25201568E+03</rscale>
<asrwt>0</asrwt>
<pdfrwt beam="1">  1       21 0.51539030E-01 0.25201568E+03</pdfrwt>
<pdfrwt beam="2">  1       21 0.30063065E-01 0.25201568E+03</pdfrwt>
<totfact> 0.36898562E+04</totfact>
</mgrwt>
</event>
<event>
 4    1  0.4391134E+000  0.3942265E+03  0.7546771E-02  0.1045797E+00
         21   -1    0    0  501  502  0.00000000000E+00  0.00000000000E+00  0.72846357457E+02  0.72846357457E+02  0.00000000000E+00 0. -1.
         21   -1    0    0  502  503 -0.00000000000E+00 -0.00000000000E+00 -0.25292355287E+04  0.25292355287E+04  0.00000000000E+00 0.  1.
          6    1    1    2  501    0  0.25889893242E+03  0.24177858677E+03 -0.17428572456E+04  0.17868872155E+04  0.17300000000E+03 0.  1.
         -6    1    1    2    0  503 -0.25889893242E+03 -0.24177858677E+03 -0.71353192565E+03  0.81519467070E+03  0.17300000000E+03 0. -1.
<mgrwt>
<rscale>  2 0.39422651E+03</rscale>
<asrwt>0</asrwt>
<pdfrwt beam="1">  1       21 0.11207132E-01 0.39422651E+03</pdfrwt>
<pdfrwt beam="2">  1       21 0.38911316E+00 0.39422651E+03</pdfrwt>
<totfact> 0.54479978E+02</totfact>
</mgrwt>
</event>
<event>
 4    1  0.4391134E+000  0.2354225E+03  0.7546771E-02  0.1122880E+00
         21   -1    0    0  503  502  0.00000000000E+00  0.00000000000E+00  0.73510376616E+03  0.73510376616E+03  0.00000000000E+00 0.  1.
         21   -1    0    0  501  503 -0.00000000000E+00 -0.00000000000E+00 -0.85091268252E+02  0.85091268252E+02  0.00000000000E+00 0.  1.
          6    1    1    2  501    0 -0.35943463770E+02 -0.15557249307E+03  0.18657659353E+03  0.30039067636E+03  0.17300000000E+03 0.  1.
         -6    1    1    2    0  502  0.35943463770E+02  0.15557249307E+03  0.46343590438E+03  0.51980435806E+03  0.17300000000E+03 0.  1.
<mgrwt>
<rscale>  2 0.23542246E+03</rscale>
<asrwt>0</asrwt>
<pdfrwt beam="1">  1       21 0.11309288E+00 0.23542246E+03</pdfrwt>
<pdfrwt beam="2">  1       21 0.13090965E-01 0.23542246E+03</pdfrwt>
<totfact> 0.29939641E+04</totfact>
</mgrwt>
</event>
<event>
 4    1  0.4391134E+000  0.2235246E+03  0.7546771E-02  0.1131282E+00
         21   -1    0    0  503  502  0.00000000000E+00  0.00000000000E+00  0.11634183521E+03  0.11634183521E+03  0.00000000000E+00 0. -1.
         21   -1    0    0  501  503 -0.00000000000E+00 -0.00000000000E+00 -0.45310716337E+03  0.45310716337E+03  0.00000000000E+00 0. -1.
          6    1    1    2  501    0  0.12340167791E+03  0.69327302435E+02 -0.23343848383E+03  0.32319773314E+03  0.17300000000E+03 0. -1.
         -6    1    1    2    0  502 -0.12340167791E+03 -0.69327302435E+02 -0.10332684432E+03  0.24625126544E+03  0.17300000000E+03 0. -1.
<mgrwt>
<rscale>  2 0.22352460E+03</rscale>
<asrwt>0</asrwt>
<pdfrwt beam="1">  1       21 0.17898743E-01 0.22352460E+03</pdfrwt>
<pdfrwt beam="2">  1       21 0.69708796E-01 0.22352460E+03</pdfrwt>
<totfact> 0.52284859E+04</totfact>
</mgrwt>
</event>
<event>
 4    1  0.4391134E+000  0.2239972E+03  0.7546771E-02  0.1130938E+00
         21   -1    0    0  503  502  0.00000000000E+00  0.00000000000E+00  0.32005058826E+03  0.32005058826E+03  0.00000000000E+00 0. -1.
         21   -1    0    0  501  503 -0.00000000000E+00 -0.00000000000E+00 -0.16793578319E+03  0.16793578319E+03  0.00000000000E+00 0. -1.
          6    1    1    2  501    0 -0.48655152738E+01 -0.14220433154E+03  0.13146562073E+02  0.22438265807E+03  0.17300000000E+03 0. -1.
         -6    1    1    2    0  502  0.48655152738E+01  0.14220433154E+03  0.13896824300E+03  0.26360371338E+03  0.17300000000E+03 0. -1.
<mgrwt>
<rscale>  2 0.22399720E+03</rscale>
<asrwt>0</asrwt>
<pdfrwt beam="1">  1       21 0.49238552E-01 0.22399720E+03</pdfrwt>
<pdfrwt beam="2">  1       21 0.25836274E-01 0.22399720E+03</pdfrwt>
<totfact> 0.55156520E+04</totfact>
</mgrwt>
</event>
<event>
 4    1  0.4391134E+000  0.3425133E+03  0.7546771E-02  0.1065731E+00
         21   -1    0    0  503  502  0.00000000000E+00  0.00000000000E+00  0.17161627053E+04  0.17161627053E+04  0.00000000000E+00 0.  1.
         21   -1    0    0  501  503 -0.00000000000E+00 -0.00000000000E+00 -0.77534715276E+02  0.77534715276E+02  0.00000000000E+00 0. -1.
          6    1    1    2  501    0 -0.28574920099E+03 -0.75721570300E+02  0.11278375702E+04  0.11786996848E+04  0.17300000000E+03 0.  1.
         -6    1    1    2    0  502  0.28574920099E+03  0.75721570300E+02  0.51079041974E+03  0.61499773574E+03  0.17300000000E+03 0. -1.
<mgrwt>
<rscale>  2 0.34251330E+03</rscale>
<asrwt>0</asrwt>
<pdfrwt beam="1">  1       21 0.26402500E+00 0.34251330E+03</pdfrwt>
<pdfrwt beam="2">  1       21 0.11928419E-01 0.34251330E+03</pdfrwt>
<totfact> 0.28803035E+03</totfact>
</mgrwt>
</event>
<event>
 4    1  0.4391134E+000  0.1788601E+03  0.7546771E-02  0.1168911E+00
         21   -1    0    0  501  502  0.00000000000E+00  0.00000000000E+00  0.50220197842E+02  0.50220197842E+02  0.00000000000E+00 0.  1.
         21   -1    0    0  502  503 -0.00000000000E+00 -0.00000000000E+00 -0.68772829734E+03  0.68772829734E+03  0.00000000000E+00 0.  1.
          6    1    1    2  501    0  0.30495536550E+02 -0.33644358533E+02 -0.21855653495E+03  0.28241437566E+03  0.17300000000E+03 0.  1.
         -6    1    1    2    0  503 -0.30495536550E+02  0.33644358533E+02 -0.41895156455E+03  0.45553411952E+03  0.17300000000E+03 0.  1.
<mgrwt>
<rscale>  2 0.17886006E+03</rscale>
<asrwt>0</asrwt>
<pdfrwt beam="1">  1       21 0.77261850E-02 0.17886006E+03</pdfrwt>
<pdfrwt beam="2">  1       21 0.10580434E+00 0.17886006E+03</pdfrwt>
<totfact> 0.91998747E+04</totfact>
</mgrwt>
</event>
<event>
 4    1  0.4391134E+000  0.2704458E+03  0.7546771E-02  0.1101025E+00
         21   -1    0    0  503  502  0.00000000000E+00  0.00000000000E+00  0.24865861143E+03  0.24865861143E+03  0.00000000000E+00 0. -1.
         21   -1    0    0  501  503 -0.00000000000E+00 -0.00000000000E+00 -0.46542534224E+03  0.46542534224E+03  0.00000000000E+00 0.  1.
          6    1    1    2  501    0 -0.48018715024E+02 -0.20225268405E+03 -0.32498005236E+03  0.42279188690E+03  0.17300000000E+03 0.  1.
         -6    1    1    2    0  502  0.48018715024E+02  0.20225268405E+03  0.10821332155E+03  0.29129206676E+03  0.17300000000E+03 0. -1.
<mgrwt>
<rscale>  2 0.27044583E+03</rscale>
<asrwt>0</asrwt>
<pdfrwt beam="1">  1       21 0.38255171E-01 0.27044583E+03</pdfrwt>
<pdfrwt beam="2">  1       21 0.71603898E-01 0.27044583E+03</pdfrwt>
<totfact> 0.11094754E+04</totfact>
</mgrwt>
</event>
<event>
 4    1  0.4391134E+000  0.2467117E+03  0.7546771E-02  0.1115401E+00
         21   -1    0    0  503  502  0.00000000000E+00  0.00000000000E+00  0.16239252704E+03  0.16239252704E+03  0.00000000000E+00 0. -1.
         21   -1    0    0  501  503 -0.00000000000E+00 -0.00000000000E+00 -0.45527816831E+03  0.45527816831E+03  0.00000000000E+00 0.  1.
          6    1    1    2  501    0  0.11454906257E+03 -0.13347724060E+03 -0.16606752504E+02  0.24726998549E+03  0.17300000000E+03 0. -1.
         -6    1    1    2    0  502 -0.11454906257E+03  0.13347724060E+03 -0.27627888876E+03  0.37040070987E+03  0.17300000000E+03 0.  1.
<mgrwt>
<rscale>  2 0.24671170E+03</rscale>
<asrwt>0</asrwt>
<pdfrwt beam="1">  1       21 0.24983466E-01 0.24671170E+03</pdfrwt>
<pdfrwt beam="2">  1       21 0.70042794E-01 0.24671170E+03</pdfrwt>
<totfact> 0.27286614E+04</totfact>
</mgrwt>
</event>
<event>
 4    1  0.4391134E+000  0.1963557E+03  0.7546771E-02  0.1152851E+00
         21   -1    0    0  503  502  0.00000000000E+00  0.00000000000E+00  0.70358372391E+02  0.70358372391E+02  0.00000000000E+00 0. -1.
         21   -1    0    0  501  503 -0.00000000000E+00 -0.00000000000E+00 -0.60026209059E+03  0.60026209059E+03  0.00000000000E+00 0. -1.
          6    1    1    2  501    0 -0.90266340289E+02 -0.21875913530E+02 -0.36390240001E+03  0.41349791355E+03  0.17300000000E+03 0. -1.
         -6    1    1    2    0  502  0.90266340289E+02  0.21875913530E+02 -0.16600131819E+03  0.25712254942E+03  0.17300000000E+03 0. -1.
<mgrwt>
<rscale>  2 0.19635572E+03</rscale>
<asrwt>0</asrwt>
<pdfrwt beam="1">  1       21 0.10824365E-01 0.19635572E+03</pdfrwt>
<pdfrwt beam="2">  1       21 0.92348017E-01 0.19635572E+03</pdfrwt>
<totfact> 0.69671202E+04</totfact>
</mgrwt>
</event>
<event>
 4    1  0.4391134E+000  0.1918342E+03  0.7546771E-02  0.1156817E+00
         21   -1    0    0  503  502  0.00000000000E+00  0.00000000000E+00  0.56670971505E+03  0.56670971505E+03  0.00000000000E+00 0. -1.
         21   -1    0    0  501  503 -0.00000000000E+00 -0.00000000000E+00 -0.82813673610E+02  0.82813673610E+02  0.00000000000E+00 0.  1.
          6    1    1    2  501    0  0.14771553660E+02 -0.81566955177E+02  0.91058717428E+02  0.21234890392E+03  0.17300000000E+03 0.  1.
         -6    1    1    2    0  502 -0.14771553660E+02  0.81566955177E+02  0.39283732401E+03  0.43717448474E+03  0.17300000000E+03 0. -1.
<mgrwt>
<rscale>  2 0.19183422E+03</rscale>
<asrwt>0</asrwt>
<pdfrwt beam="1">  1       21 0.87186107E-01 0.19183422E+03</pdfrwt>
<pdfrwt beam="2">  1       21 0.12740566E-01 0.19183422E+03</pdfrwt>
<totfact> 0.59609347E+04</totfact>
</mgrwt>
</event>
<event>
 4    1  0.4391134E+000  0.1913246E+03  0.7546771E-02  0.1157272E+00
         21   -1    0    0  501  502  0.00000000000E+00  0.00000000000E+00  0.63448219046E+02  0.63448219046E+02  0.00000000000E+00 0. -1.
         21   -1    0    0  502  503 -0.00000000000E+00 -0.00000000000E+00 -0.81479330384E+03  0.81479330384E+03  0.00000000000E+00 0.  1.
          6    1    1    2  501    0  0.50244735897E+02 -0.64432671530E+02 -0.13841223092E+03  0.23614200879E+03  0.17300000000E+03 0. -1.
         -6    1    1    2    0  503 -0.50244735897E+02  0.64432671530E+02 -0.61293285388E+03  0.64209951410E+03  0.17300000000E+03 0.  1.
<mgrwt>
<rscale>  2 0.19132460E+03</rscale>
<asrwt>0</asrwt>
<pdfrwt beam="1">  1       21 0.97612659E-02 0.19132460E+03</pdfrwt>
<pdfrwt beam="2">  1       21 0.12535280E+00 0.19132460E+03</pdfrwt>
<totfact> 0.40141464E+04</totfact>
</mgrwt>
</event>
<event>
 4    1  0.4391134E+000  0.1884169E+03  0.7546771E-02  0.1159897E+00
         21   -1    0    0  501  502  0.00000000000E+00  0.00000000000E+00  0.16723126986E+03  0.16723126986E+03  0.00000000000E+00 0.  1.
         21   -1    0    0  502  503 -0.00000000000E+00 -0.00000000000E+00 -0.26760773107E+03  0.26760773107E+03  0.00000000000E+00 0.  1.
          6    1    1    2  501    0 -0.42745329419E+02  0.61194353735E+02  0.48666113945E+02  0.19460036681E+03  0.17300000000E+03 0.  1.
         -6    1    1    2    0  503  0.42745329419E+02 -0.61194353735E+02 -0.14904257515E+03  0.24023863412E+03  0.17300000000E+03 0.  1.
<mgrwt>
<rscale>  2 0.18841686E+03</rscale>
<asrwt>0</asrwt>
<pdfrwt beam="1">  1       21 0.25727888E-01 0.18841686E+03</pdfrwt>
<pdfrwt beam="2">  1       21 0.41170420E-01 0.18841686E+03</pdfrwt>
<totfact> 0.81606577E+04</totfact>
</mgrwt>
</event>
<event>
 4    1  0.4391134E+000  0.2150600E+03  0.7546771E-02  0.1137621E+00
         21   -1    0    0  501  502  0.00000000000E+00  0.00000000000E+00  0.12499626688E+03  0.12499626688E+03  0.00000000000E+00 0.  1.
         21   -1    0    0  502  503 -0.00000000000E+00 -0.00000000000E+00 -0.42212291816E+03  0.42212291816E+03  0.00000000000E+00 0.  1.
          6    1    1    2  501    0 -0.11885603949E+03 -0.46851289816E+02 -0.52452107471E+02  0.22136401031E+03  0.17300000000E+03 0.  1.
         -6    1    1    2    0  503  0.11885603949E+03  0.46851289816E+02 -0.24467454380E+03  0.32575517473E+03  0.17300000000E+03 0.  1.
<mgrwt>
<rscale>  2 0.21506000E+03</rscale>
<asrwt>0</asrwt>
<pdfrwt beam="1">  1       21 0.19230195E-01 0.21506000E+03</pdfrwt>
<pdfrwt beam="2">  1       21 0.64941987E-01 0.21506000E+03</pdfrwt>
<totfact> 0.53660075E+04</totfact>
</mgrwt>
</event>
<event>
 4    1  0.4391134E+000  0.2352814E+03  0.7546771E-02  0.1122977E+00
         21   -1    0    0  501  502  0.00000000000E+00  0.00000000000E+00  0.58118198066E+02  0.58118198066E+02  0.00000000000E+00 0.  1.
         21   -1    0    0  502  503 -0.00000000000E+00 -0.00000000000E+00 -0.10383119241E+04  0.10383119241E+04  0.00000000000E+00 0.  1.
          6    1    1    2  501    0 -0.87592428960E+01 -0.15922183430E+03 -0.33249096046E+03  0.40731751207E+03  0.17300000000E+03 0.  1.
         -6    1    1    2    0  503  0.87592428960E+01  0.15922183430E+03 -0.64770276558E+03  0.68911261010E+03  0.17300000000E+03 0.  1.
<mgrwt>
<rscale>  2 0.23528136E+03</rscale>
<asrwt>0</asrwt>
<pdfrwt beam="1">  1       21 0.89412618E-02 0.23528136E+03</pdfrwt>
<pdfrwt beam="2">  1       21 0.15974029E+00 0.23528136E+03</pdfrwt>
<totfact> 0.24322506E+04</totfact>
</mgrwt>
</event>
<event>
 4    1  0.4391134E+000  0.2641335E+03  0.7546771E-02  0.1104685E+00
         21   -1    0    0  503  502  0.00000000000E+00  0.00000000000E+00  0.46592417306E+03  0.46592417306E+03  0.00000000000E+00 0.  1.
         21   -1    0    0  501  503 -0.00000000000E+00 -0.00000000000E+00 -0.15599789326E+03  0.15599789326E+03  0.00000000000E+00 0.  1.
          6    1    1    2  501    0 -0.19134042279E+03  0.56800967505E+02  0.92670959680E+02  0.27991858472E+03  0.17300000000E+03 0.  1.
         -6    1    1    2    0  502  0.19134042279E+03 -0.56800967505E+02  0.21725532012E+03  0.34200348159E+03  0.17300000000E+03 0.  1.
<mgrwt>
<rscale>  2 0.26413350E+03</rscale>
<asrwt>0</asrwt>
<pdfrwt beam="1">  1       21 0.71680641E-01 0.26413350E+03</pdfrwt>
<pdfrwt beam="2">  1       21 0.23999676E-01 0.26413350E+03</pdfrwt>
<totfact> 0.27777833E+04</totfact>
</mgrwt>
</event>
<event>
 4    1  0.4391134E+000  0.2062551E+03  0.7546771E-02  0.1144566E+00
         21   -1    0    0  503  502  0.00000000000E+00  0.00000000000E+00  0.52677137974E+03  0.52677137974E+03  0.00000000000E+00 0. -1.
         21   -1    0    0  501  503 -0.00000000000E+00 -0.00000000000E+00 -0.85589477245E+02  0.85589477245E+02  0.00000000000E+00 0. -1.
          6    1    1    2  501    0  0.10871598632E+03 -0.28159906061E+02  0.14784731345E+03  0.25377149975E+03  0.17300000000E+03 0. -1.
         -6    1    1    2    0  502 -0.10871598632E+03  0.28159906061E+02  0.29333458905E+03  0.35858935724E+03  0.17300000000E+03 0. -1.
<mgrwt>
<rscale>  2 0.20625505E+03</rscale>
<asrwt>0</asrwt>
<pdfrwt beam="1">  1       21 0.81041749E-01 0.20625505E+03</pdfrwt>
<pdfrwt beam="2">  1       21 0.13167612E-01 0.20625505E+03</pdfrwt>
<totfact> 0.65925161E+04</totfact>
</mgrwt>
</event>
<event>
 4    1  0.4391134E+000  0.2085560E+03  0.7546771E-02  0.1142715E+00
         21   -1    0    0  501  502  0.00000000000E+00  0.00000000000E+00  0.21459911593E+03  0.21459911593E+03  0.00000000000E+00 0.  1.
         21   -1    0    0  502  503 -0.00000000000E+00 -0.00000000000E+00 -0.20276279507E+03  0.20276279507E+03  0.00000000000E+00 0.  1.
          6    1    1    2  501    0  0.47310885158E+02 -0.10643434518E+03  0.17780321719E+01  0.20856354209E+03  0.17300000000E+03 0.  1.
         -6    1    1    2    0  503 -0.47310885158E+02  0.10643434518E+03  0.10058288693E+02  0.20879836891E+03  0.17300000000E+03 0.  1.
<mgrwt>
<rscale>  2 0.20855596E+03</rscale>
<asrwt>0</asrwt>
<pdfrwt beam="1">  1       21 0.33015249E-01 0.20855596E+03</pdfrwt>
<pdfrwt beam="2">  1       21 0.31194276E-01 0.20855596E+03</pdfrwt>
<totfact> 0.86634272E+04</totfact>
</mgrwt>
</event>
<event>
 4    1  0.4391134E+000  0.1774252E+03  0.7546771E-02  0.1170318E+00
         21   -1    0    0  501  502  0.00000000000E+00  0.00000000000E+00  0.96726090692E+03  0.96726090692E+03  0.00000000000E+00 0. -1.
         21   -1    0    0  502  503 -0.00000000000E+00 -0.00000000000E+00 -0.69435595374E+02  0.69435595374E+02  0.00000000000E+00 0. -1.
          6    1    1    2  501    0  0.16055782560E+02  0.35957027454E+02  0.82673464750E+03  0.84555891182E+03  0.17300000000E+03 0. -1.
         -6    1    1    2    0  503 -0.16055782560E+02 -0.35957027454E+02  0.71090664038E+02  0.19113759047E+03  0.17300000000E+03 0. -1.
<mgrwt>
<rscale>  2 0.17742518E+03</rscale>
<asrwt>0</asrwt>
<pdfrwt beam="1">  1       21 0.14880936E+00 0.17742518E+03</pdfrwt>
<pdfrwt beam="2">  1       21 0.10682400E-01 0.17742518E+03</pdfrwt>
<totfact> 0.22260532E+04</totfact>
</mgrwt>
</event>
<event>
 4    1  0.4391134E+000  0.1940062E+03  0.7546771E-02  0.1154897E+00
         21   -1    0    0  501  502  0.00000000000E+00  0.00000000000E+00  0.50395371406E+02  0.50395371406E+02  0.00000000000E+00 0. -1.
         21   -1    0    0  502  503 -0.00000000000E+00 -0.00000000000E+00 -0.82605782899E+03  0.82605782899E+03  0.00000000000E+00 0.  1.
          6    1    1    2  501    0 -0.44470587840E+02  0.75708477685E+02 -0.25214254299E+03  0.31814190035E+03  0.17300000000E+03 0. -1.
         -6    1    1    2    0  503  0.44470587840E+02 -0.75708477685E+02 -0.52351991459E+03  0.55831130004E+03  0.17300000000E+03 0.  1.
<mgrwt>
<rscale>  2 0.19400620E+03</rscale>
<asrwt>0</asrwt>
<pdfrwt beam="1">  1       21 0.77531345E-02 0.19400620E+03</pdfrwt>
<pdfrwt beam="2">  1       21 0.12708581E+00 0.19400620E+03</pdfrwt>
<totfact> 0.57956145E+04</totfact>
</mgrwt>
</event>
<event>
 4    1  0.4391134E+000  0.2246979E+03  0.7546771E-02  0.1130428E+00
         21   -1    0    0  503  502  0.00000000000E+00  0.00000000000E+00  0.24324936436E+03  0.24324936436E+03  0.00000000000E+00 0. -1.
         21   -1    0    0  501  503 -0.00000000000E+00 -0.00000000000E+00 -0.21288110055E+03  0.21288110055E+03  0.00000000000E+00 0. -1.
          6    1    1    2  501    0 -0.46068067100E+02 -0.13578622040E+03 -0.20868460578E+02  0.22566492219E+03  0.17300000000E+03 0. -1.
         -6    1    1    2    0  502  0.46068067100E+02  0.13578622040E+03  0.51236724393E+02  0.23046554273E+03  0.17300000000E+03 0. -1.
<mgrwt>
<rscale>  2 0.22469794E+03</rscale>
<asrwt>0</asrwt>
<pdfrwt beam="1">  1       21 0.37422979E-01 0.22469794E+03</pdfrwt>
<pdfrwt beam="2">  1       21 0.32750939E-01 0.22469794E+03</pdfrwt>
<totfact> 0.60920657E+04</totfact>
</mgrwt>
</event>
<event>
 4    1  0.4391134E+000  0.2178733E+03  0.7546771E-02  0.1135479E+00
         21   -1    0    0  501  502  0.00000000000E+00  0.00000000000E+00  0.30130351966E+03  0.30130351966E+03  0.00000000000E+00 0. -1.
         21   -1    0    0  502  503 -0.00000000000E+00 -0.00000000000E+00 -0.38664404709E+03  0.38664404709E+03  0.00000000000E+00 0. -1.
          6    1    1    2  501    0 -0.16437819768E+02  0.13141380797E+03  0.22210752304E+03  0.31112785577E+03  0.17300000000E+03 0. -1.
         -6    1    1    2    0  503  0.16437819768E+02 -0.13141380797E+03 -0.30744805047E+03  0.37681971098E+03  0.17300000000E+03 0. -1.
<mgrwt>
<rscale>  2 0.21787334E+03</rscale>
<asrwt>0</asrwt>
<pdfrwt beam="1">  1       21 0.46354388E-01 0.21787334E+03</pdfrwt>
<pdfrwt beam="2">  1       21 0.59483699E-01 0.21787334E+03</pdfrwt>
<totfact> 0.11576273E+04</totfact>
</mgrwt>
</event>
<event>
 4    1  0.4391134E+000  0.3160103E+03  0.7546771E-02  0.1077500E+00
         21   -1    0    0  501  502  0.00000000000E+00  0.00000000000E+00  0.44404833080E+03  0.44404833080E+03  0.00000000000E+00 0.  1.
         21   -1    0    0  502  503 -0.00000000000E+00 -0.00000000000E+00 -0.30534362324E+03  0.30534362324E+03  0.00000000000E+00 0. -1.
          6    1    1    2  501    0  0.12732588002E+03 -0.23177930464E+03  0.26168561151E+03  0.41029487573E+03  0.17300000000E+03 0.  1.
         -6    1    1    2    0  503 -0.12732588002E+03  0.23177930464E+03 -0.12298090394E+03  0.33909707831E+03  0.17300000000E+03 0. -1.
<mgrwt>
<rscale>  2 0.31601033E+03</rscale>
<asrwt>0</asrwt>
<pdfrwt beam="1">  1       21 0.68315128E-01 0.31601033E+03</pdfrwt>
<pdfrwt beam="2">  1       21 0.46975942E-01 0.31601033E+03</pdfrwt>
<totfact> 0.79038741E+03</totfact>
</mgrwt>
</event>
<event>
 4    1  0.4391134E+000  0.2046448E+03  0.7546771E-02  0.1145878E+00
         21   -1    0    0  501  502  0.00000000000E+00  0.00000000000E+00  0.42974990343E+02  0.42974990343E+02  0.00000000000E+00 0.  1.
         21   -1    0    0  502  503 -0.00000000000E+00 -0.00000000000E+00 -0.10272981428E+04  0.10272981428E+04  0.00000000000E+00 0. -1.
          6    1    1    2  501    0 -0.87669439390E+02 -0.65303592293E+02 -0.37085311795E+03  0.42356997634E+03  0.17300000000E+03 0. -1.
         -6    1    1    2    0  503  0.87669439390E+02  0.65303592293E+02 -0.61347003448E+03  0.64670315677E+03  0.17300000000E+03 0.  1.
<mgrwt>
<rscale>  2 0.20464479E+03</rscale>
<asrwt>0</asrwt>
<pdfrwt beam="1">  1       21 0.66115373E-02 0.20464479E+03</pdfrwt>
<pdfrwt beam="2">  1       21 0.15804586E+00 0.20464479E+03</pdfrwt>
<totfact> 0.43115728E+04</totfact>
</mgrwt>
</event>
<event>
 4    1  0.4391134E+000  0.2274813E+03  0.7546771E-02  0.1128425E+00
         21   -1    0    0  503  502  0.00000000000E+00  0.00000000000E+00  0.49559348622E+03  0.49559348622E+03  0.00000000000E+00 0. -1.
         21   -1    0    0  501  503 -0.00000000000E+00 -0.00000000000E+00 -0.37697309937E+03  0.37697309937E+03  0.00000000000E+00 0. -1.
          6    1    1    2  501    0  0.13458253700E+03 -0.60879374762E+02 -0.31166285905E+03  0.38585164927E+03  0.17300000000E+03 0. -1.
         -6    1    1    2    0  502 -0.13458253700E+03  0.60879374762E+02  0.43028324589E+03  0.48671493632E+03  0.17300000000E+03 0. -1.
<mgrwt>
<rscale>  2 0.22748133E+03</rscale>
<asrwt>0</asrwt>
<pdfrwt beam="1">  1       21 0.76245152E-01 0.22748133E+03</pdfrwt>
<pdfrwt beam="2">  1       21 0.57995861E-01 0.22748133E+03</pdfrwt>
<totfact> 0.41584093E+03</totfact>
</mgrwt>
</event>
<event>
 4    1  0.4391134E+000  0.1889308E+03  0.7546771E-02  0.1159429E+00
         21   -1    0    0  503  502  0.00000000000E+00  0.00000000000E+00  0.15438714382E+03  0.15438714382E+03  0.00000000000E+00 0. -1.
         21   -1    0    0  501  503 -0.00000000000E+00 -0.00000000000E+00 -0.23129473130E+03  0.23129473130E+03  0.00000000000E+00 0. -1.
          6    1    1    2  501    0 -0.43272666507E+02  0.62396366514E+02 -0.34621468836E+02  0.19207674593E+03  0.17300000000E+03 0.  1.
         -6    1    1    2    0  502  0.43272666507E+02 -0.62396366514E+02 -0.42286118643E+02  0.19360512920E+03  0.17300000000E+03 0.  1.
<mgrwt>
<rscale>  2 0.18893076E+03</rscale>
<asrwt>0</asrwt>
<pdfrwt beam="1">  1       21 0.23751868E-01 0.18893076E+03</pdfrwt>
<pdfrwt beam="2">  1       21 0.35583805E-01 0.18893076E+03</pdfrwt>
<totfact> 0.12732083E+05</totfact>
</mgrwt>
</event>
<event>
 4    1  0.4391134E+000  0.2812879E+03  0.7546771E-02  0.1094988E+00
         21   -1    0    0  501  502  0.00000000000E+00  0.00000000000E+00  0.47265215372E+03  0.47265215372E+03  0.00000000000E+00 0. -1.
         21   -1    0    0  502  503 -0.00000000000E+00 -0.00000000000E+00 -0.21335244772E+03  0.21335244772E+03  0.00000000000E+00 0. -1.
          6    1    1    2  501    0 -0.13778953939E+03 -0.17380430722E+03  0.28883161458E+03  0.40317067844E+03  0.17300000000E+03 0. -1.
         -6    1    1    2    0  503  0.13778953939E+03  0.17380430722E+03 -0.29531908582E+02  0.28283392300E+03  0.17300000000E+03 0. -1.
<mgrwt>
<rscale>  2 0.28128792E+03</rscale>
<asrwt>0</asrwt>
<pdfrwt beam="1">  1       21 0.72715715E-01 0.28128792E+03</pdfrwt>
<pdfrwt beam="2">  1       21 0.32823454E-01 0.28128792E+03</pdfrwt>
<totfact> 0.14495860E+04</totfact>
</mgrwt>
</event>
<event>
 4    1  0.4391134E+000  0.2161844E+03  0.7546771E-02  0.1136760E+00
         21   -1    0    0  501  502  0.00000000000E+00  0.00000000000E+00  0.47428876483E+03  0.47428876483E+03  0.00000000000E+00 0.  1.
         21   -1    0    0  502  503 -0.00000000000E+00 -0.00000000000E+00 -0.54171323717E+03  0.54171323717E+03  0.00000000000E+00 0.  1.
          6    1    1    2  501    0  0.10193039783E+03 -0.80105514617E+02  0.42576854003E+03  0.47750869013E+03  0.17300000000E+03 0.  1.
         -6    1    1    2    0  503 -0.10193039783E+03  0.80105514617E+02 -0.49319301237E+03  0.53849331186E+03  0.17300000000E+03 0.  1.
<mgrwt>
<rscale>  2 0.21618441E+03</rscale>
<asrwt>0</asrwt>
<pdfrwt beam="1">  1       21 0.72967503E-01 0.21618441E+03</pdfrwt>
<pdfrwt beam="2">  1       21 0.83340497E-01 0.21618441E+03</pdfrwt>
<totfact> 0.20755858E+03</totfact>
</mgrwt>
</event>
<event>
 4    1  0.4391134E+000  0.2566574E+03  0.7546771E-02  0.1109168E+00
         21   -1    0    0  503  502  0.00000000000E+00  0.00000000000E+00  0.17528348365E+03  0.17528348365E+03  0.00000000000E+00 0. -1.
         21   -1    0    0  501  503 -0.00000000000E+00 -0.00000000000E+00 -0.48100948497E+03  0.48100948497E+03  0.00000000000E+00 0. -1.
          6    1    1    2  501    0 -0.13045016064E+03  0.13757459144E+03  0.59903739483E+00  0.25665808280E+03  0.17300000000E+03 0. -1.
         -6    1    1    2    0  502  0.13045016064E+03 -0.13757459144E+03 -0.30632503872E+03  0.39963488582E+03  0.17300000000E+03 0. -1.
<mgrwt>
<rscale>  2 0.25665738E+03</rscale>
<asrwt>0</asrwt>
<pdfrwt beam="1">  1       21 0.26966690E-01 0.25665738E+03</pdfrwt>
<pdfrwt beam="2">  1       21 0.74001459E-01 0.25665738E+03</pdfrwt>
<totfact> 0.20733347E+04</totfact>
</mgrwt>
</event>
<event>
 4    1  0.4391134E+000  0.2027245E+03  0.7546771E-02  0.1147461E+00
         21   -1    0    0  503  502  0.00000000000E+00  0.00000000000E+00  0.91143770882E+03  0.91143770882E+03  0.00000000000E+00 0.  1.
         21   -1    0    0  501  503 -0.00000000000E+00 -0.00000000000E+00 -0.56188501837E+02  0.56188501837E+02  0.00000000000E+00 0.  1.
          6    1    1    2  501    0  0.57323200918E+02 -0.88782097292E+02  0.21260616992E+03  0.29376622279E+03  0.17300000000E+03 0.  1.
         -6    1    1    2    0  502 -0.57323200918E+02  0.88782097292E+02  0.64264303707E+03  0.67385998787E+03  0.17300000000E+03 0.  1.
<mgrwt>
<rscale>  2 0.20272447E+03</rscale>
<asrwt>0</asrwt>
<pdfrwt beam="1">  1       21 0.14022118E+00 0.20272447E+03</pdfrwt>
<pdfrwt beam="2">  1       21 0.86443855E-02 0.20272447E+03</pdfrwt>
<totfact> 0.37137302E+04</totfact>
</mgrwt>
</event>
<event>
 4    1  0.4391134E+000  0.1971277E+03  0.7546771E-02  0.1152185E+00
         21   -1    0    0  503  502  0.00000000000E+00  0.00000000000E+00  0.19058553500E+04  0.19058553500E+04  0.00000000000E+00 0.  1.
         21   -1    0    0  501  503 -0.00000000000E+00 -0.00000000000E+00 -0.25200499647E+02  0.25200499647E+02  0.00000000000E+00 0. -1.
          6    1    1    2  501    0  0.86020072558E+02  0.39126421940E+02  0.51845564016E+03  0.55466708988E+03  0.17300000000E+03 0. -1.
         -6    1    1    2    0  502 -0.86020072558E+02 -0.39126421940E+02  0.13621992102E+04  0.13763887597E+04  0.17300000000E+03 0.  1.
<mgrwt>
<rscale>  2 0.19712770E+03</rscale>
<asrwt>0</asrwt>
<pdfrwt beam="1">  1       21 0.29320840E+00 0.19712770E+03</pdfrwt>
<pdfrwt beam="2">  1       21 0.38770014E-02 0.19712770E+03</pdfrwt>
<totfact> 0.15352544E+04</totfact>
</mgrwt>
</event>
<event>
 4    1  0.4391134E+000  0.1851783E+03  0.7546771E-02  0.1162883E+00
         21   -1    0    0  503  502  0.00000000000E+00  0.00000000000E+00  0.59318613222E+03  0.59318613222E+03  0.00000000000E+00 0. -1.
         21   -1    0    0  501  503 -0.00000000000E+00 -0.00000000000E+00 -0.59540324216E+02  0.59540324216E+02  0.00000000000E+00 0. -1.
          6    1    1    2  501    0 -0.36056793251E+02 -0.55334538245E+02  0.32248879660E+03  0.37187367128E+03  0.17300000000E+03 0. -1.
         -6    1    1    2    0  502  0.36056793251E+02  0.55334538245E+02  0.21115701141E+03  0.28085278515E+03  0.17300000000E+03 0. -1.
<mgrwt>
<rscale>  2 0.18517830E+03</rscale>
<asrwt>0</asrwt>
<pdfrwt beam="1">  1       21 0.91259401E-01 0.18517830E+03</pdfrwt>
<pdfrwt beam="2">  1       21 0.91600503E-02 0.18517830E+03</pdfrwt>
<totfact> 0.96635510E+04</totfact>
</mgrwt>
</event>
<event>
 4    1  0.4391134E+000  0.2700377E+03  0.7546771E-02  0.1101258E+00
         21   -1    0    0  503  502  0.00000000000E+00  0.00000000000E+00  0.16581112570E+04  0.16581112570E+04  0.00000000000E+00 0.  1.
         21   -1    0    0  501  503 -0.00000000000E+00 -0.00000000000E+00 -0.46360708966E+02  0.46360708966E+02  0.00000000000E+00 0. -1.
          6    1    1    2  501    0  0.13804317009E+03 -0.15471083050E+03  0.99908259283E+03  0.10349330342E+04  0.17300000000E+03 0.  1.
         -6    1    1    2    0  502 -0.13804317009E+03  0.15471083050E+03  0.61266795518E+03  0.66953893179E+03  0.17300000000E+03 0.  1.
<mgrwt>
<rscale>  2 0.27003770E+03</rscale>
<asrwt>0</asrwt>
<pdfrwt beam="1">  1       21 0.25509399E+00 0.27003770E+03</pdfrwt>
<pdfrwt beam="2">  1       21 0.71324181E-02 0.27003770E+03</pdfrwt>
<totfact> 0.85173017E+03</totfact>
</mgrwt>
</event>
<event>
 4    1  0.4391134E+000  0.2600106E+03  0.7546771E-02  0.1107137E+00
         21   -1    0    0  501  502  0.00000000000E+00  0.00000000000E+00  0.47458810027E+03  0.47458810027E+03  0.00000000000E+00 0. -1.
         21   -1    0    0  502  503 -0.00000000000E+00 -0.00000000000E+00 -0.14415468262E+03  0.14415468262E+03  0.00000000000E+00 0. -1.
          6    1    1    2  501    0 -0.19332595003E+03  0.17366139275E+02  0.13158322444E+03  0.29140976425E+03  0.17300000000E+03 0. -1.
         -6    1    1    2    0  503  0.19332595003E+03 -0.17366139275E+02  0.19885019321E+03  0.32733301864E+03  0.17300000000E+03 0. -1.
<mgrwt>
<rscale>  2 0.26001059E+03</rscale>
<asrwt>0</asrwt>
<pdfrwt beam="1">  1       21 0.73013553E-01 0.26001059E+03</pdfrwt>
<pdfrwt beam="2">  1       21 0.22177644E-01 0.26001059E+03</pdfrwt>
<totfact> 0.31044295E+04</totfact>
</mgrwt>
</event>
<event>
 4    1  0.4391134E+000  0.1881047E+03  0.7546771E-02  0.1160182E+00
         21   -1    0    0  501  502  0.00000000000E+00  0.00000000000E+00  0.53208443805E+02  0.53208443805E+02  0.00000000000E+00 0. -1.
         21   -1    0    0  502  503 -0.00000000000E+00 -0.00000000000E+00 -0.73972624937E+03  0.73972624937E+03  0.00000000000E+00 0.  1.
          6    1    1    2  501    0  0.54582920899E+02 -0.49750194690E+02 -0.21724411872E+03  0.28736454938E+03  0.17300000000E+03 0. -1.
         -6    1    1    2    0  503 -0.54582920899E+02  0.49750194690E+02 -0.46927368685E+03  0.50557014379E+03  0.17300000000E+03 0.  1.
<mgrwt>
<rscale>  2 0.18810470E+03</rscale>
<asrwt>0</asrwt>
<pdfrwt beam="1">  1       21 0.81859143E-02 0.18810470E+03</pdfrwt>
<pdfrwt beam="2">  1       21 0.11380404E+00 0.18810470E+03</pdfrwt>
<totfact> 0.69484341E+04</totfact>
</mgrwt>
</event>
<event>
 4    1  0.4391134E+000  0.1853941E+03  0.7546771E-02  0.1162682E+00
         21   -1    0    0  503  502  0.00000000000E+00  0.00000000000E+00  0.14536923565E+03  0.14536923565E+03  0.00000000000E+00 0.  1.
         21   -1    0    0  501  503 -0.00000000000E+00 -0.00000000000E+00 -0.57632662505E+03  0.57632662505E+03  0.00000000000E+00 0.  1.
          6    1    1    2  501    0 -0.65902379434E+02  0.99419010347E+01 -0.49259208828E+03  0.52632492858E+03  0.17300000000E+03 0.  1.
         -6    1    1    2    0  502  0.65902379434E+02 -0.99419010347E+01  0.61634698875E+02  0.19537093212E+03  0.17300000000E+03 0.  1.
<mgrwt>
<rscale>  2 0.18539408E+03</rscale>
<asrwt>0</asrwt>
<pdfrwt beam="1">  1       21 0.22364498E-01 0.18539408E+03</pdfrwt>
<pdfrwt beam="2">  1       21 0.88665633E-01 0.18539408E+03</pdfrwt>
<totfact> 0.20440365E+04</totfact>
</mgrwt>
</event>
<event>
 4    1  0.4391134E+000  0.1938388E+03  0.7546771E-02  0.1155044E+00
         21   -1    0    0  503  502  0.00000000000E+00  0.00000000000E+00  0.85847099517E+03  0.85847099517E+03  0.00000000000E+00 0.  1.
         21   -1    0    0  501  503 -0.00000000000E+00 -0.00000000000E+00 -0.44067222954E+02  0.44067222954E+02  0.00000000000E+00 0. -1.
          6    1    1    2  501    0 -0.92352835407E+01  0.86943705804E+02  0.44439187048E+03  0.48482742599E+03  0.17300000000E+03 0.  1.
         -6    1    1    2    0  502  0.92352835407E+01 -0.86943705804E+02  0.37001190173E+03  0.41771079213E+03  0.17300000000E+03 0. -1.
<mgrwt>
<rscale>  2 0.19383885E+03</rscale>
<asrwt>0</asrwt>
<pdfrwt beam="1">  1       21 0.13207245E+00 0.19383885E+03</pdfrwt>
<pdfrwt beam="2">  1       21 0.67795734E-02 0.19383885E+03</pdfrwt>
<totfact> 0.66351839E+04</totfact>
</mgrwt>
</event>
<event>
 4    1  0.4391134E+000  0.2284177E+03  0.7546771E-02  0.1127758E+00
         21   -1    0    0  503  502  0.00000000000E+00  0.00000000000E+00  0.65516210059E+02  0.65516210059E+02  0.00000000000E+00 0.  1.
         21   -1    0    0  501  503 -0.00000000000E+00 -0.00000000000E+00 -0.13606944961E+04  0.13606944961E+04  0.00000000000E+00 0. -1.
          6    1    1    2  501    0 -0.10529781435E+03 -0.10563159438E+03 -0.11068301467E+04  0.11301538112E+04  0.17300000000E+03 0. -1.
         -6    1    1    2    0  502  0.10529781435E+03  0.10563159438E+03 -0.18834813938E+03  0.29605689495E+03  0.17300000000E+03 0.  1.
<mgrwt>
<rscale>  2 0.22841774E+03</rscale>
<asrwt>0</asrwt>
<pdfrwt beam="1">  1       21 0.10079417E-01 0.22841774E+03</pdfrwt>
<pdfrwt beam="2">  1       21 0.20933762E+00 0.22841774E+03</pdfrwt>
<totfact> 0.91023721E+03</totfact>
</mgrwt>
</event>
<event>
 4    1  0.4391134E+000  0.1933012E+03  0.7546771E-02  0.1155517E+00
         21   -1    0    0  501  502  0.00000000000E+00  0.00000000000E+00  0.31265213344E+03  0.31265213344E+03  0.00000000000E+00 0.  1.
         21   -1    0    0  502  503 -0.00000000000E+00 -0.00000000000E+00 -0.26289315324E+03  0.26289315324E+03  0.00000000000E+00 0.  1.
          6    1    1    2  501    0  0.82719574442E+02  0.24368715986E+02  0.23740323022E+03  0.30614646174E+03  0.17300000000E+03 0.  1.
         -6    1    1    2    0  503 -0.82719574442E+02 -0.24368715986E+02 -0.18764425002E+03  0.26939882494E+03  0.17300000000E+03 0.  1.
<mgrwt>
<rscale>  2 0.19330122E+03</rscale>
<asrwt>0</asrwt>
<pdfrwt beam="1">  1       21 0.48100328E-01 0.19330122E+03</pdfrwt>
<pdfrwt beam="2">  1       21 0.40445101E-01 0.19330122E+03</pdfrwt>
<totfact> 0.24319307E+04</totfact>
</mgrwt>
</event>
<event>
 4    1  0.4391134E+000  0.2170212E+03  0.7546771E-02  0.1136124E+00
         21   -1    0    0  503  502  0.00000000000E+00  0.00000000000E+00  0.11781621863E+04  0.11781621863E+04  0.00000000000E+00 0. -1.
         21   -1    0    0  501  503 -0.00000000000E+00 -0.00000000000E+00 -0.44631605556E+02  0.44631605556E+02  0.00000000000E+00 0.  1.
          6    1    1    2  501    0  0.12007590811E+03  0.52449564046E+02  0.36929976100E+03  0.42834623140E+03  0.17300000000E+03 0.  1.
         -6    1    1    2    0  502 -0.12007590811E+03 -0.52449564046E+02  0.76423081972E+03  0.79444756044E+03  0.17300000000E+03 0.  1.
<mgrwt>
<rscale>  2 0.21702115E+03</rscale>
<asrwt>0</asrwt>
<pdfrwt beam="1">  1       21 0.18125570E+00 0.21702115E+03</pdfrwt>
<pdfrwt beam="2">  1       21 0.68664017E-02 0.21702115E+03</pdfrwt>
<totfact> 0.27450711E+04</totfact>
</mgrwt>
</event>
<event>
 4    1  0.4391134E+000  0.2677515E+03  0.7546771E-02  0.1102573E+00
         21   -1    0    0  503  502  0.00000000000E+00  0.00000000000E+00  0.36570202954E+03  0.36570202954E+03  0.00000000000E+00 0.  1.
         21   -1    0    0  501  503 -0.00000000000E+00 -0.00000000000E+00 -0.25469874730E+03  0.25469874730E+03  0.00000000000E+00 0. -1.
          6    1    1    2  501    0 -0.17102994657E+03 -0.11185095115E+03 -0.93368969413E+02  0.28356417677E+03  0.17300000000E+03 0. -1.
         -6    1    1    2    0  502  0.17102994657E+03  0.11185095115E+03  0.20437225166E+03  0.33683660007E+03  0.17300000000E+03 0.  1.
<mgrwt>
<rscale>  2 0.26775152E+03</rscale>
<asrwt>0</asrwt>
<pdfrwt beam="1">  1       21 0.56261851E-01 0.26775152E+03</pdfrwt>
<pdfrwt beam="2">  1       21 0.39184422E-01 0.26775152E+03</pdfrwt>
<totfact> 0.17928542E+04</totfact>
</mgrwt>
</event>
<event>
 4    1  0.4391134E+000  0.2355744E+03  0.7546771E-02  0.1122777E+00
         21   -1    0    0  503  502  0.00000000000E+00  0.00000000000E+00  0.57677403812E+03  0.57677403812E+03  0.00000000000E+00 0. -1.
         21   -1    0    0  501  503 -0.00000000000E+00 -0.00000000000E+00 -0.39751435575E+03  0.39751435575E+03  0.00000000000E+00 0.  1.
          6    1    1    2  501    0 -0.13556762683E+03 -0.84780456850E+02 -0.33448062023E+03  0.40911195609E+03  0.17300000000E+03 0.  1.
         -6    1    1    2    0  502  0.13556762683E+03  0.84780456850E+02  0.51374030260E+03  0.56517643778E+03  0.17300000000E+03 0. -1.
<mgrwt>
<rscale>  2 0.23557442E+03</rscale>
<asrwt>0</asrwt>
<pdfrwt beam="1">  1       21 0.88734467E-01 0.23557442E+03</pdfrwt>
<pdfrwt beam="2">  1       21 0.61156055E-01 0.23557442E+03</pdfrwt>
<totfact> 0.26075933E+03</totfact>
</mgrwt>
</event>
<event>
 4    1  0.4391134E+000  0.1749050E+03  0.7546771E-02  0.1172827E+00
         21   -1    0    0  503  502  0.00000000000E+00  0.00000000000E+00  0.10163075215E+03  0.10163075215E+03  0.00000000000E+00 0. -1.
         21   -1    0    0  501  503 -0.00000000000E+00 -0.00000000000E+00 -0.43411297175E+03  0.43411297175E+03  0.00000000000E+00 0. -1.
          6    1    1    2  501    0  0.25021799268E+01 -0.25621993190E+02 -0.31456858408E+03  0.35992379961E+03  0.17300000000E+03 0. -1.
         -6    1    1    2    0  502 -0.25021799268E+01  0.25621993190E+02 -0.17913635525E+02  0.17581992429E+03  0.17300000000E+03 0. -1.
<mgrwt>
<rscale>  2 0.17490497E+03</rscale>
<asrwt>0</asrwt>
<pdfrwt beam="1">  1       21 0.15635500E-01 0.17490497E+03</pdfrwt>
<pdfrwt beam="2">  1       21 0.66786611E-01 0.17490497E+03</pdfrwt>
<totfact> 0.75282348E+04</totfact>
</mgrwt>
</event>
<event>
 4    1  0.4391134E+000  0.2030550E+03  0.7546771E-02  0.1147187E+00
         21   -1    0    0  503  502  0.00000000000E+00  0.00000000000E+00  0.35716782785E+03  0.35716782785E+03  0.00000000000E+00 0. -1.
         21   -1    0    0  501  503 -0.00000000000E+00 -0.00000000000E+00 -0.12065335323E+03  0.12065335323E+03  0.00000000000E+00 0.  1.
          6    1    1    2  501    0  0.19663345081E+02  0.10447807880E+03  0.68593389200E+02  0.21432771434E+03  0.17300000000E+03 0.  1.
         -6    1    1    2    0  502 -0.19663345081E+02 -0.10447807880E+03  0.16792108541E+03  0.26349346674E+03  0.17300000000E+03 0. -1.
<mgrwt>
<rscale>  2 0.20305496E+03</rscale>
<asrwt>0</asrwt>
<pdfrwt beam="1">  1       21 0.54948896E-01 0.20305496E+03</pdfrwt>
<pdfrwt beam="2">  1       21 0.18562055E-01 0.20305496E+03</pdfrwt>
<totfact> 0.82520256E+04</totfact>
</mgrwt>
</event>
<event>
 4    1  0.4391134E+000  0.2199185E+03  0.7546771E-02  0.1133944E+00
         21   -1    0    0  501  502  0.00000000000E+00  0.00000000000E+00  0.38471852763E+03  0.38471852763E+03  0.00000000000E+00 0.  1.
         21   -1    0    0  502  503 -0.00000000000E+00 -0.00000000000E+00 -0.23256368658E+03  0.23256368658E+03  0.00000000000E+00 0. -1.
          6    1    1    2  501    0 -0.11266053011E+03 -0.75781032741E+02  0.28528203775E+03  0.36020827452E+03  0.17300000000E+03 0.  1.
         -6    1    1    2    0  503  0.11266053011E+03  0.75781032741E+02 -0.13312719670E+03  0.25707393969E+03  0.17300000000E+03 0. -1.
<mgrwt>
<rscale>  2 0.21991853E+03</rscale>
<asrwt>0</asrwt>
<pdfrwt beam="1">  1       21 0.59187466E-01 0.21991853E+03</pdfrwt>
<pdfrwt beam="2">  1       21 0.35779029E-01 0.21991853E+03</pdfrwt>
<totfact> 0.19779427E+04</totfact>
</mgrwt>
</event>
<event>
 4    1  0.4391134E+000  0.2718118E+03  0.7546771E-02  0.1100247E+00
         21   -1    0    0  501  502  0.00000000000E+00  0.00000000000E+00  0.50543177343E+03  0.50543177343E+03  0.00000000000E+00 0. -1.
         21   -1    0    0  502  503 -0.00000000000E+00 -0.00000000000E+00 -0.20776854100E+03  0.20776854100E+03  0.00000000000E+00 0.  1.
          6    1    1    2  501    0  0.23342542660E+02  0.20834532445E+03  0.34299087802E+03  0.43763499737E+03  0.17300000000E+03 0. -1.
         -6    1    1    2    0  503 -0.23342542660E+02 -0.20834532445E+03 -0.45327645586E+02  0.27556531707E+03  0.17300000000E+03 0. -1.
<mgrwt>
<rscale>  2 0.27181179E+03</rscale>
<asrwt>0</asrwt>
<pdfrwt beam="1">  1       21 0.77758734E-01 0.27181179E+03</pdfrwt>
<pdfrwt beam="2">  1       21 0.31964391E-01 0.27181179E+03</pdfrwt>
<totfact> 0.13193335E+04</totfact>
</mgrwt>
</event>
<event>
 4    1  0.4391134E+000  0.1819456E+03  0.7546771E-02  0.1165933E+00
         21   -1    0    0  501  502  0.00000000000E+00  0.00000000000E+00  0.10569855086E+03  0.10569855086E+03  0.00000000000E+00 0.  1.
         21   -1    0    0  502  503 -0.00000000000E+00 -0.00000000000E+00 -0.32748034081E+03  0.32748034081E+03  0.00000000000E+00 0.  1.
          6    1    1    2  501    0 -0.37695626972E+02 -0.41883478178E+02 -0.65653220298E+02  0.19342836238E+03  0.17300000000E+03 0.  1.
         -6    1    1    2    0  503  0.37695626972E+02  0.41883478178E+02 -0.15612856965E+03  0.23975052930E+03  0.17300000000E+03 0.  1.
<mgrwt>
<rscale>  2 0.18194556E+03</rscale>
<asrwt>0</asrwt>
<pdfrwt beam="1">  1       21 0.16261316E-01 0.18194556E+03</pdfrwt>
<pdfrwt beam="2">  1       21 0.50381590E-01 0.18194556E+03</pdfrwt>
<totfact> 0.12741962E+05</totfact>
</mgrwt>
</event>
<event>
 4    1  0.4391134E+000  0.2741133E+03  0.7546771E-02  0.1098948E+00
         21   -1    0    0  501  502  0.00000000000E+00  0.00000000000E+00  0.18077966672E+03  0.18077966672E+03  0.00000000000E+00 0. -1.
         21   -1    0    0  502  503 -0.00000000000E+00 -0.00000000000E+00 -0.67361049712E+03  0.67361049712E+03  0.00000000000E+00 0.  1.
          6    1    1    2  501    0 -0.18402962564E+03 -0.10649968333E+03  0.17954670874E+02  0.27470066594E+03  0.17300000000E+03 0. -1.
         -6    1    1    2    0  503  0.18402962564E+03  0.10649968333E+03 -0.51078550127E+03  0.57968949790E+03  0.17300000000E+03 0.  1.
<mgrwt>
<rscale>  2 0.27411327E+03</rscale>
<asrwt>0</asrwt>
<pdfrwt beam="1">  1       21 0.27812256E-01 0.27411327E+03</pdfrwt>
<pdfrwt beam="2">  1       21 0.10363238E+00 0.27411327E+03</pdfrwt>
<totfact> 0.88466519E+03</totfact>
</mgrwt>
</event>
<event>
 4    1  0.4391134E+000  0.4299403E+03  0.7546771E-02  0.1033879E+00
         21   -1    0    0  501  502  0.00000000000E+00  0.00000000000E+00  0.70833807260E+03  0.70833807260E+03  0.00000000000E+00 0.  1.
         21   -1    0    0  502  503 -0.00000000000E+00 -0.00000000000E+00 -0.28867002092E+03  0.28867002092E+03  0.00000000000E+00 0. -1.
          6    1    1    2  501    0  0.29613720253E+02 -0.39248277276E+03  0.36428031131E+03  0.56351472434E+03  0.17300000000E+03 0.  1.
         -6    1    1    2    0  503 -0.29613720253E+02  0.39248277276E+03  0.55387740372E+02  0.43349336918E+03  0.17300000000E+03 0. -1.
<mgrwt>
<rscale>  2 0.42994034E+03</rscale>
<asrwt>0</asrwt>
<pdfrwt beam="1">  1       21 0.10897509E+00 0.42994034E+03</pdfrwt>
<pdfrwt beam="2">  1       21 0.44410773E-01 0.42994034E+03</pdfrwt>
<totfact> 0.28428416E+03</totfact>
</mgrwt>
</event>
<event>
 4    1  0.4391134E+000  0.1964365E+03  0.7546771E-02  0.1152781E+00
         21   -1    0    0  501  502  0.00000000000E+00  0.00000000000E+00  0.19272405400E+04  0.19272405400E+04  0.00000000000E+00 0.  1.
         21   -1    0    0  502  503 -0.00000000000E+00 -0.00000000000E+00 -0.42059172897E+02  0.42059172897E+02  0.00000000000E+00 0.  1.
          6    1    1    2  501    0  0.64631043896E+02  0.66941211533E+02  0.16553271012E+04  0.16669418435E+04  0.17300000000E+03 0.  1.
         -6    1    1    2    0  503 -0.64631043896E+02 -0.66941211533E+02  0.22985426592E+03  0.30235786942E+03  0.17300000000E+03 0.  1.
<mgrwt>
<rscale>  2 0.19643650E+03</rscale>
<asrwt>0</asrwt>
<pdfrwt beam="1">  1       21 0.29649848E+00 0.19643650E+03</pdfrwt>
<pdfrwt beam="2">  1       21 0.64706435E-02 0.19643650E+03</pdfrwt>
<totfact> 0.61675126E+03</totfact>
</mgrwt>
</event>
<event>
 4    1  0.4391134E+000  0.1838043E+03  0.7546771E-02  0.1164171E+00
         21   -1    0    0  501  502  0.00000000000E+00  0.00000000000E+00  0.55647829367E+02  0.55647829367E+02  0.00000000000E+00 0. -1.
         21   -1    0    0  502  503 -0.00000000000E+00 -0.00000000000E+00 -0.67198696050E+03  0.67198696050E+03  0.00000000000E+00 0. -1.
          6    1    1    2  501    0 -0.14650556923E+02 -0.60335625848E+02 -0.19512024438E+03  0.26805957609E+03  0.17300000000E+03 0. -1.
         -6    1    1    2    0  503  0.14650556923E+02  0.60335625848E+02 -0.42121888675E+03  0.45957521378E+03  0.17300000000E+03 0. -1.
<mgrwt>
<rscale>  2 0.18380432E+03</rscale>
<asrwt>0</asrwt>
<pdfrwt beam="1">  1       21 0.85612045E-02 0.18380432E+03</pdfrwt>
<pdfrwt beam="2">  1       21 0.10338261E+00 0.18380432E+03</pdfrwt>
<totfact> 0.81164036E+04</totfact>
</mgrwt>
</event>
<event>
 4    1  0.4391134E+000  0.2066758E+03  0.7546771E-02  0.1144226E+00
         21   -1    0    0  503  502  0.00000000000E+00  0.00000000000E+00  0.32866221595E+03  0.32866221595E+03  0.00000000000E+00 0. -1.
         21   -1    0    0  501  503 -0.00000000000E+00 -0.00000000000E+00 -0.19614047027E+03  0.19614047027E+03  0.00000000000E+00 0. -1.
          6    1    1    2  501    0  0.79092180457E+02  0.80810418083E+02  0.21867592280E+03  0.30088877661E+03  0.17300000000E+03 0. -1.
         -6    1    1    2    0  502 -0.79092180457E+02 -0.80810418083E+02 -0.86154177117E+02  0.22391390961E+03  0.17300000000E+03 0. -1.
<mgrwt>
<rscale>  2 0.20667583E+03</rscale>
<asrwt>0</asrwt>
<pdfrwt beam="1">  1       21 0.50563418E-01 0.20667583E+03</pdfrwt>
<pdfrwt beam="2">  1       21 0.30175457E-01 0.20667583E+03</pdfrwt>
<totfact> 0.38934481E+04</totfact>
</mgrwt>
</event>
<event>
 4    1  0.4391134E+000  0.2181294E+03  0.7546771E-02  0.1135285E+00
         21   -1    0    0  501  502  0.00000000000E+00  0.00000000000E+00  0.62605596423E+03  0.62605596423E+03  0.00000000000E+00 0. -1.
         21   -1    0    0  502  503 -0.00000000000E+00 -0.00000000000E+00 -0.99523572488E+02  0.99523572488E+02  0.00000000000E+00 0. -1.
          6    1    1    2  501    0  0.11541975162E+03 -0.65800549082E+02  0.43964283613E+03  0.49078126969E+03  0.17300000000E+03 0. -1.
         -6    1    1    2    0  503 -0.11541975162E+03  0.65800549082E+02  0.86889555612E+02  0.23479826702E+03  0.17300000000E+03 0. -1.
<mgrwt>
<rscale>  2 0.21812939E+03</rscale>
<asrwt>0</asrwt>
<pdfrwt beam="1">  1       21 0.96316299E-01 0.21812939E+03</pdfrwt>
<pdfrwt beam="2">  1       21 0.15311319E-01 0.21812939E+03</pdfrwt>
<totfact> 0.33426628E+04</totfact>
</mgrwt>
</event>
<event>
 4    1  0.4391134E+000  0.1944616E+03  0.7546771E-02  0.1154498E+00
         21   -1    0    0  503  502  0.00000000000E+00  0.00000000000E+00  0.45342694696E+02  0.45342694696E+02  0.00000000000E+00 0.  1.
         21   -1    0    0  501  503 -0.00000000000E+00 -0.00000000000E+00 -0.83775817901E+03  0.83775817901E+03  0.00000000000E+00 0.  1.
          6    1    1    2  501    0  0.63026681085E+02 -0.62561674650E+02 -0.42582348900E+03  0.46812495068E+03  0.17300000000E+03 0. -1.
         -6    1    1    2    0  502 -0.63026681085E+02  0.62561674650E+02 -0.36659199532E+03  0.41497592303E+03  0.17300000000E+03 0. -1.
<mgrwt>
<rscale>  2 0.19446163E+03</rscale>
<asrwt>0</asrwt>
<pdfrwt beam="1">  1       21 0.69757993E-02 0.19446163E+03</pdfrwt>
<pdfrwt beam="2">  1       21 0.12888587E+00 0.19446163E+03</pdfrwt>
<totfact> 0.67161138E+04</totfact>
</mgrwt>
</event>
<event>
 4    1  0.4391134E+000  0.2133361E+03  0.7546771E-02  0.1138951E+00
         21   -1    0    0  503  502  0.00000000000E+00  0.00000000000E+00  0.14567415977E+04  0.14567415977E+04  0.00000000000E+00 0.  1.
         21   -1    0    0  501  503 -0.00000000000E+00 -0.00000000000E+00 -0.12026194989E+03  0.12026194989E+03  0.00000000000E+00 0.  1.
          6    1    1    2  501    0 -0.97577823121E+02  0.77857921284E+02 -0.10152528427E+02  0.21357752996E+03  0.17300000000E+03 0.  1.
         -6    1    1    2    0  502  0.97577823121E+02 -0.77857921284E+02  0.13466321762E+04  0.13634260176E+04  0.17300000000E+03 0.  1.
<mgrwt>
<rscale>  2 0.21333609E+03</rscale>
<asrwt>0</asrwt>
<pdfrwt beam="1">  1       21 0.22411408E+00 0.21333609E+03</pdfrwt>
<pdfrwt beam="2">  1       21 0.18501840E-01 0.21333609E+03</pdfrwt>
<totfact> 0.24799661E+03</totfact>
</mgrwt>
</event>
<event>
 4    1  0.4391134E+000  0.2051541E+03  0.7546771E-02  0.1145462E+00
         21   -1    0    0  501  502  0.00000000000E+00  0.00000000000E+00  0.11219878095E+03  0.11219878095E+03  0.00000000000E+00 0. -1.
         21   -1    0    0  502  503 -0.00000000000E+00 -0.00000000000E+00 -0.37571219906E+03  0.37571219906E+03  0.00000000000E+00 0. -1.
          6    1    1    2  501    0  0.75023876972E+02 -0.80812151672E+02 -0.14142901809E+03  0.24917935936E+03  0.17300000000E+03 0. -1.
         -6    1    1    2    0  503 -0.75023876972E+02  0.80812151672E+02 -0.12208440002E+03  0.23873162066E+03  0.17300000000E+03 0. -1.
<mgrwt>
<rscale>  2 0.20515405E+03</rscale>
<asrwt>0</asrwt>
<pdfrwt beam="1">  1       21 0.17261351E-01 0.20515405E+03</pdfrwt>
<pdfrwt beam="2">  1       21 0.57801877E-01 0.20515405E+03</pdfrwt>
<totfact> 0.84683137E+04</totfact>
</mgrwt>
</event>
<event>
 4    1  0.4391134E+000  0.2074399E+03  0.7546771E-02  0.1143610E+00
         21   -1    0    0  501  502  0.00000000000E+00  0.00000000000E+00  0.21583734853E+03  0.21583734853E+03  0.00000000000E+00 0.  1.
         21   -1    0    0  502  503 -0.00000000000E+00 -0.00000000000E+00 -0.46461471610E+03  0.46461471610E+03  0.00000000000E+00 0. -1.
          6    1    1    2  501    0  0.11390150760E+03 -0.11346416906E+02  0.13267763575E+03  0.24624103971E+03  0.17300000000E+03 0.  1.
         -6    1    1    2    0  503 -0.11390150760E+03  0.11346416906E+02 -0.38145500331E+03  0.43421102492E+03  0.17300000000E+03 0. -1.
<mgrwt>
<rscale>  2 0.20743986E+03</rscale>
<asrwt>0</asrwt>
<pdfrwt beam="1">  1       21 0.33205746E-01 0.20743986E+03</pdfrwt>
<pdfrwt beam="2">  1       21 0.71479186E-01 0.20743986E+03</pdfrwt>
<totfact> 0.15306660E+04</totfact>
</mgrwt>
</event>
<event>
 4    1  0.4391134E+000  0.1887157E+03  0.7546771E-02  0.1159625E+00
         21   -1    0    0  501  502  0.00000000000E+00  0.00000000000E+00  0.37797164476E+03  0.37797164476E+03  0.00000000000E+00 0. -1.
         21   -1    0    0  502  503 -0.00000000000E+00 -0.00000000000E+00 -0.10106329156E+03  0.10106329156E+03  0.00000000000E+00 0. -1.
          6    1    1    2  501    0  0.65308417486E+02  0.37675173678E+02  0.76141132114E+02  0.20349712555E+03  0.17300000000E+03 0. -1.
         -6    1    1    2    0  503 -0.65308417486E+02 -0.37675173678E+02  0.20076722108E+03  0.27553781077E+03  0.17300000000E+03 0. -1.
<mgrwt>
<rscale>  2 0.18871568E+03</rscale>
<asrwt>0</asrwt>
<pdfrwt beam="1">  1       21 0.58149483E-01 0.18871568E+03</pdfrwt>
<pdfrwt beam="2">  1       21 0.15548199E-01 0.18871568E+03</pdfrwt>
<totfact> 0.10196842E+05</totfact>
</mgrwt>
</event>
<event>
 4    1  0.4391134E+000  0.3023395E+03  0.7546771E-02  0.1084077E+00
         21   -1    0    0  501  502  0.00000000000E+00  0.00000000000E+00  0.50195409982E+03  0.50195409982E+03  0.00000000000E+00 0. -1.
         21   -1    0    0  502  503 -0.00000000000E+00 -0.00000000000E+00 -0.40357620879E+03  0.40357620879E+03  0.00000000000E+00 0.  1.
          6    1    1    2  501    0 -0.23377199034E+03  0.82648798210E+02 -0.28621430050E+03  0.41632654626E+03  0.17300000000E+03 0.  1.
         -6    1    1    2    0  503  0.23377199034E+03 -0.82648798210E+02  0.38459219153E+03  0.48920376235E+03  0.17300000000E+03 0. -1.
<mgrwt>
<rscale>  2 0.30233949E+03</rscale>
<asrwt>0</asrwt>
<pdfrwt beam="1">  1       21 0.77223708E-01 0.30233949E+03</pdfrwt>
<pdfrwt beam="2">  1       21 0.62088648E-01 0.30233949E+03</pdfrwt>
<totfact> 0.33298621E+03</totfact>
</mgrwt>
</event>
<event>
 4    1  0.4391134E+000  0.2149726E+03  0.7546771E-02  0.1137688E+00
         21   -1    0    0  501  502  0.00000000000E+00  0.00000000000E+00  0.68220002698E+03  0.68220002698E+03  0.00000000000E+00 0.  1.
         21   -1    0    0  502  503 -0.00000000000E+00 -0.00000000000E+00 -0.13793036990E+03  0.13793036990E+03  0.00000000000E+00 0. -1.
          6    1    1    2  501    0 -0.96605554741E+02 -0.83376124494E+02  0.56465598184E+03  0.60419333758E+03  0.17300000000E+03 0.  1.
         -6    1    1    2    0  503  0.96605554741E+02  0.83376124494E+02 -0.20386324765E+02  0.21593705930E+03  0.17300000000E+03 0. -1.
<mgrwt>
<rscale>  2 0.21497258E+03</rscale>
<asrwt>0</asrwt>
<pdfrwt beam="1">  1       21 0.10495385E+00 0.21497258E+03</pdfrwt>
<pdfrwt beam="2">  1       21 0.21220057E-01 0.21497258E+03</pdfrwt>
<totfact> 0.14893681E+04</totfact>
</mgrwt>
</event>
<event>
 4    1  0.4391134E+000  0.1748899E+03  0.7546771E-02  0.1172842E+00
         21   -1    0    0  503  502  0.00000000000E+00  0.00000000000E+00  0.25075117510E+03  0.25075117510E+03  0.00000000000E+00 0.  1.
         21   -1    0    0  501  503 -0.00000000000E+00 -0.00000000000E+00 -0.20374995531E+03  0.20374995531E+03  0.00000000000E+00 0.  1.
          6    1    1    2  501    0 -0.24797759838E+02 -0.65216276168E+01 -0.12046370951E+03  0.21236281649E+03  0.17300000000E+03 0.  1.
         -6    1    1    2    0  502  0.24797759838E+02  0.65216276168E+01  0.16746492930E+03  0.24213831391E+03  0.17300000000E+03 0.  1.
<mgrwt>
<rscale>  2 0.17488985E+03</rscale>
<asrwt>0</asrwt>
<pdfrwt beam="1">  1       21 0.38577104E-01 0.17488985E+03</pdfrwt>
<pdfrwt beam="2">  1       21 0.31346147E-01 0.17488985E+03</pdfrwt>
<totfact> 0.63870743E+04</totfact>
</mgrwt>
</event>
<event>
 4    1  0.4391134E+000  0.1985424E+03  0.7546771E-02  0.1150975E+00
         21   -1    0    0  503  502  0.00000000000E+00  0.00000000000E+00  0.32339639921E+03  0.32339639921E+03  0.00000000000E+00 0.  1.
         21   -1    0    0  501  503 -0.00000000000E+00 -0.00000000000E+00 -0.29450757526E+03  0.29450757526E+03  0.00000000000E+00 0.  1.
          6    1    1    2  501    0 -0.94737800615E+02 -0.22690017290E+02 -0.22208442394E+03  0.29789357010E+03  0.17300000000E+03 0.  1.
         -6    1    1    2    0  502  0.94737800615E+02  0.22690017290E+02  0.25097324789E+03  0.32001040437E+03  0.17300000000E+03 0.  1.
<mgrwt>
<rscale>  2 0.19854241E+03</rscale>
<asrwt>0</asrwt>
<pdfrwt beam="1">  1       21 0.49753292E-01 0.19854241E+03</pdfrwt>
<pdfrwt beam="2">  1       21 0.45308858E-01 0.19854241E+03</pdfrwt>
<totfact> 0.17923721E+04</totfact>
</mgrwt>
</event>
<event>
 4    1  0.4391134E+000  0.1809695E+03  0.7546771E-02  0.1166868E+00
         21   -1    0    0  501  502  0.00000000000E+00  0.00000000000E+00  0.76307227573E+02  0.76307227573E+02  0.00000000000E+00 0. -1.
         21   -1    0    0  502  503 -0.00000000000E+00 -0.00000000000E+00 -0.55258875900E+03  0.55258875900E+03  0.00000000000E+00 0. -1.
          6    1    1    2  501    0 -0.53064805411E+02  0.22563253189E+01 -0.89543467707E+02  0.20191086446E+03  0.17300000000E+03 0. -1.
         -6    1    1    2    0  503  0.53064805411E+02 -0.22563253189E+01 -0.38673806372E+03  0.42698512212E+03  0.17300000000E+03 0. -1.
<mgrwt>
<rscale>  2 0.18096951E+03</rscale>
<asrwt>0</asrwt>
<pdfrwt beam="1">  1       21 0.11739574E-01 0.18096951E+03</pdfrwt>
<pdfrwt beam="2">  1       21 0.85013652E-01 0.18096951E+03</pdfrwt>
<totfact> 0.73475839E+04</totfact>
</mgrwt>
</event>
<event>
 4    1  0.4391134E+000  0.1864654E+03  0.7546771E-02  0.1161689E+00
         21   -1    0    0  503  502  0.00000000000E+00  0.00000000000E+00  0.33207205964E+03  0.33207205964E+03  0.00000000000E+00 0. -1.
         21   -1    0    0  501  503 -0.00000000000E+00 -0.00000000000E+00 -0.20117291502E+03  0.20117291502E+03  0.00000000000E+00 0. -1.
          6    1    1    2  501    0 -0.52373078857E+02 -0.45797282131E+02 -0.11918172803E+03  0.22129982995E+03  0.17300000000E+03 0. -1.
         -6    1    1    2    0  502  0.52373078857E+02  0.45797282131E+02  0.25008087266E+03  0.31194514471E+03  0.17300000000E+03 0. -1.
<mgrwt>
<rscale>  2 0.18646536E+03</rscale>
<asrwt>0</asrwt>
<pdfrwt beam="1">  1       21 0.51088009E-01 0.18646536E+03</pdfrwt>
<pdfrwt beam="2">  1       21 0.30949679E-01 0.18646536E+03</pdfrwt>
<totfact> 0.36643312E+04</totfact>
</mgrwt>
</event>
<event>
 4    1  0.4391134E+000  0.1860239E+03  0.7546771E-02  0.1162097E+00
         21   -1    0    0  501  502  0.00000000000E+00  0.00000000000E+00  0.59819758127E+03  0.59819758127E+03  0.00000000000E+00 0.  1.
         21   -1    0    0  502  503 -0.00000000000E+00 -0.00000000000E+00 -0.81468460656E+02  0.81468460656E+02  0.00000000000E+00 0.  1.
          6    1    1    2  501    0  0.43524126039E+02 -0.52740229489E+02  0.44134710352E+03  0.47894900265E+03  0.17300000000E+03 0.  1.
         -6    1    1    2    0  503 -0.43524126039E+02  0.52740229489E+02  0.75382017092E+02  0.20071703927E+03  0.17300000000E+03 0.  1.
<mgrwt>
<rscale>  2 0.18602387E+03</rscale>
<asrwt>0</asrwt>
<pdfrwt beam="1">  1       21 0.92030395E-01 0.18602387E+03</pdfrwt>
<pdfrwt beam="2">  1       21 0.12533610E-01 0.18602387E+03</pdfrwt>
<totfact> 0.54322501E+04</totfact>
</mgrwt>
</event>
<event>
 4    1  0.4391134E+000  0.1800832E+03  0.7546771E-02  0.1167723E+00
         21   -1    0    0  501  502  0.00000000000E+00  0.00000000000E+00  0.49206726924E+03  0.49206726924E+03  0.00000000000E+00 0.  1.
         21   -1    0    0  502  503 -0.00000000000E+00 -0.00000000000E+00 -0.14099077025E+03  0.14099077025E+03  0.00000000000E+00 0.  1.
          6    1    1    2  501    0 -0.47817077041E+02 -0.14645038111E+02  0.40652948572E+03  0.44463037768E+03  0.17300000000E+03 0.  1.
         -6    1    1    2    0  503  0.47817077041E+02  0.14645038111E+02 -0.55452986733E+02  0.18842766181E+03  0.17300000000E+03 0.  1.
<mgrwt>
<rscale>  2 0.18008318E+03</rscale>
<asrwt>0</asrwt>
<pdfrwt beam="1">  1       21 0.75702656E-01 0.18008318E+03</pdfrwt>
<pdfrwt beam="2">  1       21 0.21690888E-01 0.18008318E+03</pdfrwt>
<totfact> 0.31081406E+04</totfact>
</mgrwt>
</event>
<event>
 4    1  0.4391134E+000  0.1803742E+03  0.7546771E-02  0.1167441E+00
         21   -1    0    0  501  502  0.00000000000E+00  0.00000000000E+00  0.43299718699E+02  0.43299718699E+02  0.00000000000E+00 0.  1.
         21   -1    0    0  502  503 -0.00000000000E+00 -0.00000000000E+00 -0.78386203759E+03  0.78386203759E+03  0.00000000000E+00 0.  1.
          6    1    1    2  501    0  0.50316261673E+02 -0.86090386016E+01 -0.28609977112E+03  0.33821283354E+03  0.17300000000E+03 0.  1.
         -6    1    1    2    0  503 -0.50316261673E+02  0.86090386016E+01 -0.45446254777E+03  0.48894892275E+03  0.17300000000E+03 0.  1.
<mgrwt>
<rscale>  2 0.18037417E+03</rscale>
<asrwt>0</asrwt>
<pdfrwt beam="1">  1       21 0.66614951E-02 0.18037417E+03</pdfrwt>
<pdfrwt beam="2">  1       21 0.12059416E+00 0.18037417E+03</pdfrwt>
<totfact> 0.86430826E+04</totfact>
</mgrwt>
</event>
<event>
 4    1  0.4391134E+000  0.2037039E+03  0.7546771E-02  0.1146651E+00
         21   -1    0    0  503  502  0.00000000000E+00  0.00000000000E+00  0.20093185174E+03  0.20093185174E+03  0.00000000000E+00 0. -1.
         21   -1    0    0  501  503 -0.00000000000E+00 -0.00000000000E+00 -0.23799312886E+03  0.23799312886E+03  0.00000000000E+00 0. -1.
          6    1    1    2  501    0 -0.10620102498E+03  0.16959507562E+02 -0.98346278212E+02  0.22620184138E+03  0.17300000000E+03 0. -1.
         -6    1    1    2    0  502  0.10620102498E+03 -0.16959507562E+02  0.61285001093E+02  0.21272313923E+03  0.17300000000E+03 0. -1.
<mgrwt>
<rscale>  2 0.20370391E+03</rscale>
<asrwt>0</asrwt>
<pdfrwt beam="1">  1       21 0.30912593E-01 0.20370391E+03</pdfrwt>
<pdfrwt beam="2">  1       21 0.36614327E-01 0.20370391E+03</pdfrwt>
<totfact> 0.71950312E+04</totfact>
</mgrwt>
</event>
<event>
 4    1  0.4391134E+000  0.1893809E+03  0.7546771E-02  0.1159021E+00
         21   -1    0    0  503  502  0.00000000000E+00  0.00000000000E+00  0.27239303431E+03  0.27239303431E+03  0.00000000000E+00 0.  1.
         21   -1    0    0  501  503 -0.00000000000E+00 -0.00000000000E+00 -0.14144366820E+03  0.14144366820E+03  0.00000000000E+00 0.  1.
          6    1    1    2  501    0 -0.40831764433E+02  0.65336748763E+02  0.11073698140E+02  0.18970437664E+03  0.17300000000E+03 0.  1.
         -6    1    1    2    0  502  0.40831764433E+02 -0.65336748763E+02  0.11987566797E+03  0.22413232586E+03  0.17300000000E+03 0.  1.
<mgrwt>
<rscale>  2 0.18938090E+03</rscale>
<asrwt>0</asrwt>
<pdfrwt beam="1">  1       21 0.41906621E-01 0.18938090E+03</pdfrwt>
<pdfrwt beam="2">  1       21 0.21760564E-01 0.18938090E+03</pdfrwt>
<totfact> 0.10813537E+05</totfact>
</mgrwt>
</event>
<event>
 4    1  0.4391134E+000  0.1967705E+03  0.7546771E-02  0.1152493E+00
         21   -1    0    0  503  502  0.00000000000E+00  0.00000000000E+00  0.13333168489E+04  0.13333168489E+04  0.00000000000E+00 0. -1.
         21   -1    0    0  501  503 -0.00000000000E+00 -0.00000000000E+00 -0.13883591515E+03  0.13883591515E+03  0.00000000000E+00 0. -1.
          6    1    1    2  501    0 -0.93373860060E+02 -0.84234237710E+01 -0.57345032210E+02  0.20495629907E+03  0.17300000000E+03 0. -1.
         -6    1    1    2    0  502  0.93373860060E+02  0.84234237710E+01  0.12518259659E+04  0.12671964649E+04  0.17300000000E+03 0. -1.
<mgrwt>
<rscale>  2 0.19677051E+03</rscale>
<asrwt>0</asrwt>
<pdfrwt beam="1">  1       21 0.20512566E+00 0.19677051E+03</pdfrwt>
<pdfrwt beam="2">  1       21 0.21359372E-01 0.19677051E+03</pdfrwt>
<totfact> 0.25308308E+03</totfact>
</mgrwt>
</event>
<event>
 4    1  0.4391134E+000  0.2043943E+03  0.7546771E-02  0.1146084E+00
         21   -1    0    0  503  502  0.00000000000E+00  0.00000000000E+00  0.25099764302E+04  0.25099764302E+04  0.00000000000E+00 0. -1.
         21   -1    0    0  501  503 -0.00000000000E+00 -0.00000000000E+00 -0.29759283822E+02  0.29759283822E+02  0.00000000000E+00 0. -1.
          6    1    1    2  501    0  0.10847325859E+03 -0.90322489858E+01  0.39710451752E+03  0.44661955532E+03  0.17300000000E+03 0. -1.
         -6    1    1    2    0  502 -0.10847325859E+03  0.90322489858E+01  0.20831126288E+04  0.20931161587E+04  0.17300000000E+03 0. -1.
<mgrwt>
<rscale>  2 0.20439430E+03</rscale>
<asrwt>0</asrwt>
<pdfrwt beam="1">  1       21 0.38615005E+00 0.20439430E+03</pdfrwt>
<pdfrwt beam="2">  1       21 0.45783533E-02 0.20439430E+03</pdfrwt>
<totfact> 0.32598502E+03</totfact>
</mgrwt>
</event>
<event>
 4    1  0.4391134E+000  0.1737017E+03  0.7546771E-02  0.1174042E+00
         21   -1    0    0  503  502  0.00000000000E+00  0.00000000000E+00  0.97063750373E+02  0.97063750373E+02  0.00000000000E+00 0. -1.
         21   -1    0    0  501  503 -0.00000000000E+00 -0.00000000000E+00 -0.90720548896E+03  0.90720548896E+03  0.00000000000E+00 0. -1.
          6    1    1    2  501    0 -0.52889004129E+01  0.14672821679E+02 -0.81218853766E+03  0.83055552787E+03  0.17300000000E+03 0. -1.
         -6    1    1    2    0  502  0.52889004129E+01 -0.14672821679E+02  0.20467990773E+01  0.17371371146E+03  0.17300000000E+03 0. -1.
<mgrwt>
<rscale>  2 0.17370165E+03</rscale>
<asrwt>0</asrwt>
<pdfrwt beam="1">  1       21 0.14932885E-01 0.17370165E+03</pdfrwt>
<pdfrwt beam="2">  1       21 0.13957007E+00 0.17370165E+03</pdfrwt>
<totfact> 0.14459545E+04</totfact>
</mgrwt>
</event>
<event>
 4    1  0.4391134E+000  0.2270489E+03  0.7546771E-02  0.1128734E+00
         21   -1    0    0  503  502  0.00000000000E+00  0.00000000000E+00  0.63540095195E+03  0.63540095195E+03  0.00000000000E+00 0. -1.
         21   -1    0    0  501  503 -0.00000000000E+00 -0.00000000000E+00 -0.81620024466E+02  0.81620024466E+02  0.00000000000E+00 0. -1.
          6    1    1    2  501    0 -0.68980309808E+02 -0.12986118870E+03  0.30461864035E+03  0.37992595005E+03  0.17300000000E+03 0. -1.
         -6    1    1    2    0  502  0.68980309808E+02  0.12986118870E+03  0.24916228714E+03  0.33709502637E+03  0.17300000000E+03 0. -1.
<mgrwt>
<rscale>  2 0.22704892E+03</rscale>
<asrwt>0</asrwt>
<pdfrwt beam="1">  1       21 0.97753989E-01 0.22704892E+03</pdfrwt>
<pdfrwt beam="2">  1       21 0.12556927E-01 0.22704892E+03</pdfrwt>
<totfact> 0.46065282E+04</totfact>
</mgrwt>
</event>
<event>
 4    1  0.4391134E+000  0.2107596E+03  0.7546771E-02  0.1140966E+00
         21   -1    0    0  501  502  0.00000000000E+00  0.00000000000E+00  0.20138491641E+03  0.20138491641E+03  0.00000000000E+00 0.  1.
         21   -1    0    0  502  503 -0.00000000000E+00 -0.00000000000E+00 -0.43139000668E+03  0.43139000668E+03  0.00000000000E+00 0.  1.
          6    1    1    2  501    0 -0.75781795049E+02 -0.93529284291E+02  0.10617418710E+03  0.23599272338E+03  0.17300000000E+03 0.  1.
         -6    1    1    2    0  503  0.75781795049E+02  0.93529284291E+02 -0.33617927736E+03  0.39678219971E+03  0.17300000000E+03 0.  1.
<mgrwt>
<rscale>  2 0.21075960E+03</rscale>
<asrwt>0</asrwt>
<pdfrwt beam="1">  1       21 0.30982295E-01 0.21075960E+03</pdfrwt>
<pdfrwt beam="2">  1       21 0.66367694E-01 0.21075960E+03</pdfrwt>
<totfact> 0.20618471E+04</totfact>
</mgrwt>
</event>
<event>
 4    1  0.4391134E+000  0.2051300E+03  0.7546771E-02  0.1145482E+00
         21   -1    0    0  501  502  0.00000000000E+00  0.00000000000E+00  0.22707008655E+03  0.22707008655E+03  0.00000000000E+00 0. -1.
         21   -1    0    0  502  503 -0.00000000000E+00 -0.00000000000E+00 -0.21816091020E+03  0.21816091020E+03  0.00000000000E+00 0.  1.
          6    1    1    2  501    0 -0.47574289846E+02 -0.99428319540E+02  0.90840356887E+02  0.22434409781E+03  0.17300000000E+03 0.  1.
         -6    1    1    2    0  503  0.47574289846E+02  0.99428319540E+02 -0.81931180541E+02  0.22088689895E+03  0.17300000000E+03 0.  1.
<mgrwt>
<rscale>  2 0.20512997E+03</rscale>
<asrwt>0</asrwt>
<pdfrwt beam="1">  1       21 0.34933859E-01 0.20512997E+03</pdfrwt>
<pdfrwt beam="2">  1       21 0.33563217E-01 0.20512997E+03</pdfrwt>
<totfact> 0.67160474E+04</totfact>
</mgrwt>
</event>
<event>
 4    1  0.4391134E+000  0.2887572E+03  0.7546771E-02  0.1091000E+00
         21   -1    0    0  503  502  0.00000000000E+00  0.00000000000E+00  0.11643724159E+03  0.11643724159E+03  0.00000000000E+00 0.  1.
         21   -1    0    0  501  503 -0.00000000000E+00 -0.00000000000E+00 -0.15229632528E+04  0.15229632528E+04  0.00000000000E+00 0.  1.
          6    1    1    2  501    0 -0.15006777810E+02 -0.23070877128E+03 -0.12999000967E+04  0.13315858973E+04  0.17300000000E+03 0.  1.
         -6    1    1    2    0  502  0.15006777810E+02  0.23070877128E+03 -0.10662591452E+03  0.30781459708E+03  0.17300000000E+03 0.  1.
<mgrwt>
<rscale>  2 0.28875723E+03</rscale>
<asrwt>0</asrwt>
<pdfrwt beam="1">  1       21 0.17913422E-01 0.28875723E+03</pdfrwt>
<pdfrwt beam="2">  1       21 0.23430204E+00 0.28875723E+03</pdfrwt>
<totfact> 0.21400796E+03</totfact>
</mgrwt>
</event>
<event>
 4    1  0.4391134E+000  0.2043618E+03  0.7546771E-02  0.1146110E+00
         21   -1    0    0  503  502  0.00000000000E+00  0.00000000000E+00  0.24887845484E+04  0.24887845484E+04  0.00000000000E+00 0.  1.
         21   -1    0    0  501  503 -0.00000000000E+00 -0.00000000000E+00 -0.31811061620E+02  0.31811061620E+02  0.00000000000E+00 0. -1.
          6    1    1    2  501    0 -0.96903709677E+02 -0.49440869951E+02  0.36218785240E+03  0.41586508509E+03  0.17300000000E+03 0. -1.
         -6    1    1    2    0  502  0.96903709677E+02  0.49440869951E+02  0.20947856344E+04  0.21047305250E+04  0.17300000000E+03 0. -1.
<mgrwt>
<rscale>  2 0.20436176E+03</rscale>
<asrwt>0</asrwt>
<pdfrwt beam="1">  1       21 0.38288978E+00 0.20436176E+03</pdfrwt>
<pdfrwt beam="2">  1       21 0.48940114E-02 0.20436176E+03</pdfrwt>
<totfact> 0.30490643E+03</totfact>
</mgrwt>
</event>
<event>
 4    1  0.4391134E+000  0.2668544E+03  0.7546771E-02  0.1103094E+00
         21   -1    0    0  503  502  0.00000000000E+00  0.00000000000E+00  0.13335037806E+04  0.13335037806E+04  0.00000000000E+00 0. -1.
         21   -1    0    0  501  503 -0.00000000000E+00 -0.00000000000E+00 -0.65638729062E+02  0.65638729062E+02  0.00000000000E+00 0.  1.
          6    1    1    2  501    0  0.88149482406E+02 -0.18306265479E+03  0.33187391013E+03  0.42585391750E+03  0.17300000000E+03 0.  1.
         -6    1    1    2    0  502 -0.88149482406E+02  0.18306265479E+03  0.93599114140E+03  0.97328859215E+03  0.17300000000E+03 0. -1.
<mgrwt>
<rscale>  2 0.26685439E+03</rscale>
<asrwt>0</asrwt>
<pdfrwt beam="1">  1       21 0.20515441E+00 0.26685439E+03</pdfrwt>
<pdfrwt beam="2">  1       21 0.10098267E-01 0.26685439E+03</pdfrwt>
<totfact> 0.93945132E+03</totfact>
</mgrwt>
</event>
<event>
 4    1  0.4391134E+000  0.1737620E+03  0.7546771E-02  0.1173981E+00
         21   -1    0    0  503  502  0.00000000000E+00  0.00000000000E+00  0.57220040746E+03  0.57220040746E+03  0.00000000000E+00 0.  1.
         21   -1    0    0  501  503 -0.00000000000E+00 -0.00000000000E+00 -0.25606044349E+03  0.25606044349E+03  0.00000000000E+00 0.  1.
          6    1    1    2  501    0 -0.45795756254E+01 -0.15596677698E+02 -0.21093115875E+03  0.27328589901E+03  0.17300000000E+03 0.  1.
         -6    1    1    2    0  502  0.45795756254E+01  0.15596677698E+02  0.52707112272E+03  0.55497495194E+03  0.17300000000E+03 0.  1.
<mgrwt>
<rscale>  2 0.17376199E+03</rscale>
<asrwt>0</asrwt>
<pdfrwt beam="1">  1       21 0.88030832E-01 0.17376199E+03</pdfrwt>
<pdfrwt beam="2">  1       21 0.39393914E-01 0.17376199E+03</pdfrwt>
<totfact> 0.69681982E+03</totfact>
</mgrwt>
</event>
<event>
 4    1  0.4391134E+000  0.2479137E+03  0.7546771E-02  0.1114630E+00
         21   -1    0    0  501  502  0.00000000000E+00  0.00000000000E+00  0.11127019451E+03  0.11127019451E+03  0.00000000000E+00 0. -1.
         21   -1    0    0  502  503 -0.00000000000E+00 -0.00000000000E+00 -0.57726323106E+03  0.57726323106E+03  0.00000000000E+00 0. -1.
          6    1    1    2  501    0  0.91079934027E+02  0.15243568765E+03 -0.16149144985E+03  0.29587274566E+03  0.17300000000E+03 0. -1.
         -6    1    1    2    0  503 -0.91079934027E+02 -0.15243568765E+03 -0.30450158670E+03  0.39266067992E+03  0.17300000000E+03 0. -1.
<mgrwt>
<rscale>  2 0.24791368E+03</rscale>
<asrwt>0</asrwt>
<pdfrwt beam="1">  1       21 0.17118491E-01 0.24791368E+03</pdfrwt>
<pdfrwt beam="2">  1       21 0.88809728E-01 0.24791368E+03</pdfrwt>
<totfact> 0.32446463E+04</totfact>
</mgrwt>
</event>
<event>
 4    1  0.4391134E+000  0.1853169E+03  0.7546771E-02  0.1162754E+00
         21   -1    0    0  501  502  0.00000000000E+00  0.00000000000E+00  0.78430210844E+03  0.78430210844E+03  0.00000000000E+00 0. -1.
         21   -1    0    0  502  503 -0.00000000000E+00 -0.00000000000E+00 -0.62351719128E+02  0.62351719128E+02  0.00000000000E+00 0. -1.
          6    1    1    2  501    0  0.55368779948E+02 -0.36710431327E+02  0.59196565760E+03  0.62029484710E+03  0.17300000000E+03 0. -1.
         -6    1    1    2    0  503 -0.55368779948E+02  0.36710431327E+02  0.12998473172E+03  0.22635898047E+03  0.17300000000E+03 0. -1.
<mgrwt>
<rscale>  2 0.18531691E+03</rscale>
<asrwt>0</asrwt>
<pdfrwt beam="1">  1       21 0.12066186E+00 0.18531691E+03</pdfrwt>
<pdfrwt beam="2">  1       21 0.95925727E-02 0.18531691E+03</pdfrwt>
<totfact> 0.45666902E+04</totfact>
</mgrwt>
</event>
<event>
 4    1  0.4391134E+000  0.1757118E+03  0.7546771E-02  0.1172019E+00
         21   -1    0    0  503  502  0.00000000000E+00  0.00000000000E+00  0.27563301039E+03  0.27563301039E+03  0.00000000000E+00 0. -1.
         21   -1    0    0  501  503 -0.00000000000E+00 -0.00000000000E+00 -0.14636865636E+03  0.14636865636E+03  0.00000000000E+00 0. -1.
          6    1    1    2  501    0  0.24270980741E+02 -0.18882941968E+02 -0.37592431247E+02  0.17968816569E+03  0.17300000000E+03 0. -1.
         -6    1    1    2    0  502 -0.24270980741E+02  0.18882941968E+02  0.16685678527E+03  0.24231350106E+03  0.17300000000E+03 0. -1.
<mgrwt>
<rscale>  2 0.17571183E+03</rscale>
<asrwt>0</asrwt>
<pdfrwt beam="1">  1       21 0.42405078E-01 0.17571183E+03</pdfrwt>
<pdfrwt beam="2">  1       21 0.22518255E-01 0.17571183E+03</pdfrwt>
<totfact> 0.99484252E+04</totfact>
</mgrwt>
</event>
<event>
 4    1  0.4391134E+000  0.2086494E+03  0.7546771E-02  0.1142640E+00
         21   -1    0    0  501  502  0.00000000000E+00  0.00000000000E+00  0.16985925278E+03  0.16985925278E+03  0.00000000000E+00 0. -1.
         21   -1    0    0  502  503 -0.00000000000E+00 -0.00000000000E+00 -0.25764422526E+03  0.25764422526E+03  0.00000000000E+00 0.  1.
          6    1    1    2  501    0 -0.95358482915E+02  0.67173908554E+02 -0.28441002030E+02  0.21057888035E+03  0.17300000000E+03 0.  1.
         -6    1    1    2    0  503  0.95358482915E+02 -0.67173908554E+02 -0.59343970455E+02  0.21692459769E+03  0.17300000000E+03 0. -1.
<mgrwt>
<rscale>  2 0.20864941E+03</rscale>
<asrwt>0</asrwt>
<pdfrwt beam="1">  1       21 0.26132193E-01 0.20864941E+03</pdfrwt>
<pdfrwt beam="2">  1       21 0.39637573E-01 0.20864941E+03</pdfrwt>
<totfact> 0.84805790E+04</totfact>
</mgrwt>
</event>
<event>
 4    1  0.4391134E+000  0.1759393E+03  0.7546771E-02  0.1171792E+00
         21   -1    0    0  503  502  0.00000000000E+00  0.00000000000E+00  0.11723522396E+03  0.11723522396E+03  0.00000000000E+00 0.  1.
         21   -1    0    0  501  503 -0.00000000000E+00 -0.00000000000E+00 -0.82353927895E+03  0.82353927895E+03  0.00000000000E+00 0.  1.
          6    1    1    2  501    0  0.31184539938E+02  0.72915633817E+01 -0.74086794689E+03  0.76147223006E+03  0.17300000000E+03 0.  1.
         -6    1    1    2    0  502 -0.31184539938E+02 -0.72915633817E+01  0.34563891900E+02  0.17930227285E+03  0.17300000000E+03 0.  1.
<mgrwt>
<rscale>  2 0.17593931E+03</rscale>
<asrwt>0</asrwt>
<pdfrwt beam="1">  1       21 0.18036189E-01 0.17593931E+03</pdfrwt>
<pdfrwt beam="2">  1       21 0.12669835E+00 0.17593931E+03</pdfrwt>
<totfact> 0.13052990E+04</totfact>
</mgrwt>
</event>
<event>
 4    1  0.4391134E+000  0.2088634E+03  0.7546771E-02  0.1142469E+00
         21   -1    0    0  501  502  0.00000000000E+00  0.00000000000E+00  0.18273484663E+03  0.18273484663E+03  0.00000000000E+00 0.  1.
         21   -1    0    0  502  503 -0.00000000000E+00 -0.00000000000E+00 -0.14287326011E+04  0.14287326011E+04  0.00000000000E+00 0. -1.
          6    1    1    2  501    0 -0.39983291074E+02 -0.10998292266E+03  0.11234486666E+03  0.23716086504E+03  0.17300000000E+03 0.  1.
         -6    1    1    2    0  503  0.39983291074E+02  0.10998292266E+03 -0.13583426211E+04  0.13743065827E+04  0.17300000000E+03 0. -1.
<mgrwt>
<rscale>  2 0.20886337E+03</rscale>
<asrwt>0</asrwt>
<pdfrwt beam="1">  1       21 0.28113053E-01 0.20886337E+03</pdfrwt>
<pdfrwt beam="2">  1       21 0.21980502E+00 0.20886337E+03</pdfrwt>
<totfact> 0.11976590E+03</totfact>
</mgrwt>
</event>
<event>
 4    1  0.4391134E+000  0.1955185E+03  0.7546771E-02  0.1153576E+00
         21   -1    0    0  501  502  0.00000000000E+00  0.00000000000E+00  0.63164996513E+02  0.63164996513E+02  0.00000000000E+00 0.  1.
         21   -1    0    0  502  503 -0.00000000000E+00 -0.00000000000E+00 -0.61392166191E+03  0.61392166191E+03  0.00000000000E+00 0.  1.
          6    1    1    2  501    0 -0.56864060028E+02 -0.71168663286E+02 -0.23502865822E+03  0.30572204720E+03  0.17300000000E+03 0. -1.
         -6    1    1    2    0  503  0.56864060028E+02  0.71168663286E+02 -0.31572800718E+03  0.37136461123E+03  0.17300000000E+03 0. -1.
<mgrwt>
<rscale>  2 0.19551854E+03</rscale>
<asrwt>0</asrwt>
<pdfrwt beam="1">  1       21 0.97176920E-02 0.19551854E+03</pdfrwt>
<pdfrwt beam="2">  1       21 0.94449484E-01 0.19551854E+03</pdfrwt>
<totfact> 0.80046150E+04</totfact>
</mgrwt>
</event>
<event>
 4    1  0.4391134E+000  0.1986648E+03  0.7546771E-02  0.1150870E+00
         21   -1    0    0  501  502  0.00000000000E+00  0.00000000000E+00  0.37264634275E+03  0.37264634275E+03  0.00000000000E+00 0.  1.
         21   -1    0    0  502  503 -0.00000000000E+00 -0.00000000000E+00 -0.18534132137E+03  0.18534132137E+03  0.00000000000E+00 0.  1.
          6    1    1    2  501    0 -0.85975446291E+02  0.46334962330E+02  0.27629381443E+03  0.34030277400E+03  0.17300000000E+03 0.  1.
         -6    1    1    2    0  503  0.85975446291E+02 -0.46334962330E+02 -0.88988793042E+02  0.21768489012E+03  0.17300000000E+03 0.  1.
<mgrwt>
<rscale>  2 0.19866481E+03</rscale>
<asrwt>0</asrwt>
<pdfrwt beam="1">  1       21 0.57330207E-01 0.19866481E+03</pdfrwt>
<pdfrwt beam="2">  1       21 0.28514049E-01 0.19866481E+03</pdfrwt>
<totfact> 0.33485764E+04</totfact>
</mgrwt>
</event>
<event>
 4    1  0.4391134E+000  0.1928824E+03  0.7546771E-02  0.1155887E+00
         21   -1    0    0  501  502  0.00000000000E+00  0.00000000000E+00  0.68246962477E+03  0.68246962477E+03  0.00000000000E+00 0. -1.
         21   -1    0    0  502  503 -0.00000000000E+00 -0.00000000000E+00 -0.86658903531E+02  0.86658903531E+02  0.00000000000E+00 0. -1.
          6    1    1    2  501    0  0.78794589322E+02 -0.32650366652E+02  0.53212510059E+03  0.56600420178E+03  0.17300000000E+03 0. -1.
         -6    1    1    2    0  503 -0.78794589322E+02  0.32650366652E+02  0.63685620649E+02  0.20312432653E+03  0.17300000000E+03 0. -1.
<mgrwt>
<rscale>  2 0.19288244E+03</rscale>
<asrwt>0</asrwt>
<pdfrwt beam="1">  1       21 0.10499532E+00 0.19288244E+03</pdfrwt>
<pdfrwt beam="2">  1       21 0.13332139E-01 0.19288244E+03</pdfrwt>
<totfact> 0.35488362E+04</totfact>
</mgrwt>
</event>
<event>
 4    1  0.4391134E+000  0.2034634E+03  0.7546771E-02  0.1146849E+00
         21   -1    0    0  501  502  0.00000000000E+00  0.00000000000E+00  0.56825146296E+03  0.56825146296E+03  0.00000000000E+00 0.  1.
         21   -1    0    0  502  503 -0.00000000000E+00 -0.00000000000E+00 -0.21021610348E+03  0.21021610348E+03  0.00000000000E+00 0.  1.
          6    1    1    2  501    0 -0.69098104205E+02 -0.81815635181E+02  0.49365968007E+03  0.53394496523E+03  0.17300000000E+03 0.  1.
         -6    1    1    2    0  503  0.69098104205E+02  0.81815635181E+02 -0.13562432060E+03  0.24452260121E+03  0.17300000000E+03 0.  1.
<mgrwt>
<rscale>  2 0.20346338E+03</rscale>
<asrwt>0</asrwt>
<pdfrwt beam="1">  1       21 0.87423301E-01 0.20346338E+03</pdfrwt>
<pdfrwt beam="2">  1       21 0.32340939E-01 0.20346338E+03</pdfrwt>
<totfact> 0.10256786E+04</totfact>
</mgrwt>
</event>
<event>
 4    1  0.4391134E+000  0.2388467E+03  0.7546771E-02  0.1120564E+00
         21   -1    0    0  503  502  0.00000000000E+00  0.00000000000E+00  0.13058994566E+03  0.13058994566E+03  0.00000000000E+00 0.  1.
         21   -1    0    0  501  503 -0.00000000000E+00 -0.00000000000E+00 -0.44438513457E+03  0.44438513457E+03  0.00000000000E+00 0. -1.
          6    1    1    2  501    0 -0.22600726224E+02  0.16311940295E+03 -0.19434242270E+03  0.30792322047E+03  0.17300000000E+03 0. -1.
         -6    1    1    2    0  502  0.22600726224E+02 -0.16311940295E+03 -0.11945276621E+03  0.26705185975E+03  0.17300000000E+03 0.  1.
<mgrwt>
<rscale>  2 0.23884667E+03</rscale>
<asrwt>0</asrwt>
<pdfrwt beam="1">  1       21 0.20090761E-01 0.23884667E+03</pdfrwt>
<pdfrwt beam="2">  1       21 0.68366944E-01 0.23884667E+03</pdfrwt>
<totfact> 0.43700219E+04</totfact>
</mgrwt>
</event>
<event>
 4    1  0.4391134E+000  0.2201352E+03  0.7546771E-02  0.1133782E+00
         21   -1    0    0  501  502  0.00000000000E+00  0.00000000000E+00  0.48279616034E+03  0.48279616034E+03  0.00000000000E+00 0. -1.
         21   -1    0    0  502  503 -0.00000000000E+00 -0.00000000000E+00 -0.19822938994E+03  0.19822938994E+03  0.00000000000E+00 0.  1.
          6    1    1    2  501    0  0.85613823884E+02  0.10583363934E+03  0.38152953736E+03  0.44048186561E+03  0.17300000000E+03 0. -1.
         -6    1    1    2    0  503 -0.85613823884E+02 -0.10583363934E+03 -0.96962766965E+02  0.24054368467E+03  0.17300000000E+03 0.  1.
<mgrwt>
<rscale>  2 0.22013515E+03</rscale>
<asrwt>0</asrwt>
<pdfrwt beam="1">  1       21 0.74276332E-01 0.22013515E+03</pdfrwt>
<pdfrwt beam="2">  1       21 0.30496829E-01 0.22013515E+03</pdfrwt>
<totfact> 0.16488058E+04</totfact>
</mgrwt>
</event>
<event>
 4    1  0.4391134E+000  0.1815181E+03  0.7546771E-02  0.1166342E+00
         21   -1    0    0  501  502  0.00000000000E+00  0.00000000000E+00  0.48703622286E+03  0.48703622286E+03  0.00000000000E+00 0. -1.
         21   -1    0    0  502  503 -0.00000000000E+00 -0.00000000000E+00 -0.74021479356E+02  0.74021479356E+02  0.00000000000E+00 0. -1.
          6    1    1    2  501    0 -0.32693215699E+02  0.44169820263E+02  0.28880010399E+03  0.34110748957E+03  0.17300000000E+03 0. -1.
         -6    1    1    2    0  503  0.32693215699E+02 -0.44169820263E+02  0.12421463952E+03  0.21995021265E+03  0.17300000000E+03 0. -1.
<mgrwt>
<rscale>  2 0.18151810E+03</rscale>
<asrwt>0</asrwt>
<pdfrwt beam="1">  1       21 0.74928648E-01 0.18151810E+03</pdfrwt>
<pdfrwt beam="2">  1       21 0.11387920E-01 0.18151810E+03</pdfrwt>
<totfact> 0.10310316E+05</totfact>
</mgrwt>
</event>
<event>
 4    1  0.4391134E+000  0.1847135E+03  0.7546771E-02  0.1163318E+00
         21   -1    0    0  501  502  0.00000000000E+00  0.00000000000E+00  0.13503308924E+03  0.13503308924E+03  0.00000000000E+00 0.  1.
         21   -1    0    0  502  503 -0.00000000000E+00 -0.00000000000E+00 -0.60073108778E+03  0.60073108778E+03  0.00000000000E+00 0.  1.
          6    1    1    2  501    0 -0.80826234522E+01 -0.64224281357E+02  0.47174867924E+02  0.19064248026E+03  0.17300000000E+03 0.  1.
         -6    1    1    2    0  503  0.80826234522E+01  0.64224281357E+02 -0.51287286647E+03  0.54512169676E+03  0.17300000000E+03 0.  1.
<mgrwt>
<rscale>  2 0.18471353E+03</rscale>
<asrwt>0</asrwt>
<pdfrwt beam="1">  1       21 0.20774322E-01 0.18471353E+03</pdfrwt>
<pdfrwt beam="2">  1       21 0.92420166E-01 0.18471353E+03</pdfrwt>
<totfact> 0.21339205E+04</totfact>
</mgrwt>
</event>
<event>
 4    1  0.4391134E+000  0.2265179E+03  0.7546771E-02  0.1129115E+00
         21   -1    0    0  503  502  0.00000000000E+00  0.00000000000E+00  0.60686992387E+03  0.60686992387E+03  0.00000000000E+00 0.  1.
         21   -1    0    0  501  503 -0.00000000000E+00 -0.00000000000E+00 -0.87369200100E+02  0.87369200100E+02  0.00000000000E+00 0. -1.
          6    1    1    2  501    0 -0.52023298705E+01 -0.14613114789E+03  0.32211281577E+03  0.39378552881E+03  0.17300000000E+03 0. -1.
         -6    1    1    2    0  502  0.52023298705E+01  0.14613114789E+03  0.19738790800E+03  0.30045359516E+03  0.17300000000E+03 0. -1.
<mgrwt>
<rscale>  2 0.22651794E+03</rscale>
<asrwt>0</asrwt>
<pdfrwt beam="1">  1       21 0.93364601E-01 0.22651794E+03</pdfrwt>
<pdfrwt beam="2">  1       21 0.13441416E-01 0.22651794E+03</pdfrwt>
<totfact> 0.45399998E+04</totfact>
</mgrwt>
</event>
<event>
 4    1  0.4391134E+000  0.1731473E+03  0.7546771E-02  0.1174605E+00
         21   -1    0    0  503  502  0.00000000000E+00  0.00000000000E+00  0.47574059204E+02  0.47574059204E+02  0.00000000000E+00 0. -1.
         21   -1    0    0  501  503 -0.00000000000E+00 -0.00000000000E+00 -0.65220144020E+03  0.65220144020E+03  0.00000000000E+00 0. -1.
          6    1    1    2  501    0  0.28131815027E+01 -0.65642633852E+01 -0.36661291137E+03  0.40544423825E+03  0.17300000000E+03 0.  1.
         -6    1    1    2    0  502 -0.28131815027E+01  0.65642633852E+01 -0.23801446963E+03  0.29433126116E+03  0.17300000000E+03 0.  1.
<mgrwt>
<rscale>  2 0.17314735E+03</rscale>
<asrwt>0</asrwt>
<pdfrwt beam="1">  1       21 0.73190858E-02 0.17314735E+03</pdfrwt>
<pdfrwt beam="2">  1       21 0.10033869E+00 0.17314735E+03</pdfrwt>
<totfact> 0.11494239E+05</totfact>
</mgrwt>
</event>
<event>
 4    1  0.4391134E+000  0.1788935E+03  0.7546771E-02  0.1168878E+00
         21   -1    0    0  503  502  0.00000000000E+00  0.00000000000E+00  0.27979359937E+03  0.27979359937E+03  0.00000000000E+00 0. -1.
         21   -1    0    0  501  503 -0.00000000000E+00 -0.00000000000E+00 -0.12097920889E+03  0.12097920889E+03  0.00000000000E+00 0. -1.
          6    1    1    2  501    0 -0.15399977866E+02 -0.42856942043E+02  0.32606873943E+02  0.18184082333E+03  0.17300000000E+03 0. -1.
         -6    1    1    2    0  502  0.15399977866E+02  0.42856942043E+02  0.12620751653E+03  0.21893198494E+03  0.17300000000E+03 0. -1.
<mgrwt>
<rscale>  2 0.17889348E+03</rscale>
<asrwt>0</asrwt>
<pdfrwt beam="1">  1       21 0.43045169E-01 0.17889348E+03</pdfrwt>
<pdfrwt beam="2">  1       21 0.18612186E-01 0.17889348E+03</pdfrwt>
<totfact> 0.13758802E+05</totfact>
</mgrwt>
</event>
<event>
 4    1  0.4391134E+000  0.2486454E+03  0.7546771E-02  0.1114164E+00
         21   -1    0    0  503  502  0.00000000000E+00  0.00000000000E+00  0.47783184006E+02  0.47783184006E+02  0.00000000000E+00 0.  1.
         21   -1    0    0  501  503 -0.00000000000E+00 -0.00000000000E+00 -0.14098019602E+04  0.14098019602E+04  0.00000000000E+00 0.  1.
          6    1    1    2  501    0  0.16856278082E+03  0.59009677920E+02 -0.89001258776E+03  0.92409250594E+03  0.17300000000E+03 0.  1.
         -6    1    1    2    0  502 -0.16856278082E+03 -0.59009677920E+02 -0.47200618846E+03  0.53349263829E+03  0.17300000000E+03 0.  1.
<mgrwt>
<rscale>  2 0.24864544E+03</rscale>
<asrwt>0</asrwt>
<pdfrwt beam="1">  1       21 0.73512599E-02 0.24864544E+03</pdfrwt>
<pdfrwt beam="2">  1       21 0.21689259E+00 0.24864544E+03</pdfrwt>
<totfact> 0.14006556E+04</totfact>
</mgrwt>
</event>
<event>
 4    1  0.4391134E+000  0.2034154E+03  0.7546771E-02  0.1146889E+00
         21   -1    0    0  501  502  0.00000000000E+00  0.00000000000E+00  0.13948615362E+03  0.13948615362E+03  0.00000000000E+00 0.  1.
         21   -1    0    0  502  503 -0.00000000000E+00 -0.00000000000E+00 -0.29839742615E+03  0.29839742615E+03  0.00000000000E+00 0.  1.
          6    1    1    2  501    0 -0.10612064696E+03 -0.13683340876E+02 -0.96235581072E+02  0.22503135913E+03  0.17300000000E+03 0.  1.
         -6    1    1    2    0  503  0.10612064696E+03  0.13683340876E+02 -0.62675691457E+02  0.21285222063E+03  0.17300000000E+03 0.  1.
<mgrwt>
<rscale>  2 0.20341540E+03</rscale>
<asrwt>0</asrwt>
<pdfrwt beam="1">  1       21 0.21459408E-01 0.20341540E+03</pdfrwt>
<pdfrwt beam="2">  1       21 0.45907296E-01 0.20341540E+03</pdfrwt>
<totfact> 0.91591690E+04</totfact>
</mgrwt>
</event>
<event>
 4    1  0.4391134E+000  0.2512815E+03  0.7546771E-02  0.1112498E+00
         21   -1    0    0  503  502  0.00000000000E+00  0.00000000000E+00  0.78867033785E+03  0.78867033785E+03  0.00000000000E+00 0. -1.
         21   -1    0    0  501  503 -0.00000000000E+00 -0.00000000000E+00 -0.11720927157E+03  0.11720927157E+03  0.00000000000E+00 0.  1.
          6    1    1    2  501    0 -0.17810491138E+03 -0.38626535130E+02  0.80739962365E+02  0.26393429144E+03  0.17300000000E+03 0.  1.
         -6    1    1    2    0  502  0.17810491138E+03  0.38626535130E+02  0.59072110392E+03  0.64194531799E+03  0.17300000000E+03 0. -1.
<mgrwt>
<rscale>  2 0.25128145E+03</rscale>
<asrwt>0</asrwt>
<pdfrwt beam="1">  1       21 0.12133389E+00 0.25128145E+03</pdfrwt>
<pdfrwt beam="2">  1       21 0.18032196E-01 0.25128145E+03</pdfrwt>
<totfact> 0.13866779E+04</totfact>
</mgrwt>
</event>
<event>
 4    1  0.4391134E+000  0.1790613E+03  0.7546771E-02  0.1168715E+00
         21   -1    0    0  503  502  0.00000000000E+00  0.00000000000E+00  0.23403299183E+03  0.23403299183E+03  0.00000000000E+00 0.  1.
         21   -1    0    0  501  503 -0.00000000000E+00 -0.00000000000E+00 -0.20431227254E+03  0.20431227254E+03  0.00000000000E+00 0.  1.
          6    1    1    2  501    0 -0.44383576472E+02  0.12808294147E+02 -0.11093952273E+03  0.21064313890E+03  0.17300000000E+03 0.  1.
         -6    1    1    2    0  502  0.44383576472E+02 -0.12808294147E+02  0.14066024203E+03  0.22770212548E+03  0.17300000000E+03 0.  1.
<mgrwt>
<rscale>  2 0.17906131E+03</rscale>
<asrwt>0</asrwt>
<pdfrwt beam="1">  1       21 0.36005075E-01 0.17906131E+03</pdfrwt>
<pdfrwt beam="2">  1       21 0.31432657E-01 0.17906131E+03</pdfrwt>
<totfact> 0.72774206E+04</totfact>
</mgrwt>
</event>
<event>
 4    1  0.4391134E+000  0.2238826E+03  0.7546771E-02  0.1131021E+00
         21   -1    0    0  503  502  0.00000000000E+00  0.00000000000E+00  0.42886702872E+03  0.42886702872E+03  0.00000000000E+00 0. -1.
         21   -1    0    0  501  503 -0.00000000000E+00 -0.00000000000E+00 -0.36000348055E+03  0.36000348055E+03  0.00000000000E+00 0. -1.
          6    1    1    2  501    0 -0.13677597514E+03  0.38558389945E+02 -0.28971459573E+03  0.36613926830E+03  0.17300000000E+03 0. -1.
         -6    1    1    2    0  502  0.13677597514E+03 -0.38558389945E+02  0.35857814390E+03  0.42273124097E+03  0.17300000000E+03 0. -1.
<mgrwt>
<rscale>  2 0.22388260E+03</rscale>
<asrwt>0</asrwt>
<pdfrwt beam="1">  1       21 0.65979543E-01 0.22388260E+03</pdfrwt>
<pdfrwt beam="2">  1       21 0.55385151E-01 0.22388260E+03</pdfrwt>
<totfact> 0.63402343E+03</totfact>
</mgrwt>
</event>
<event>
 4    1  0.4391134E+000  0.1907962E+03  0.7546771E-02  0.1157745E+00
         21   -1    0    0  503  502  0.00000000000E+00  0.00000000000E+00  0.14853317965E+04  0.14853317965E+04  0.00000000000E+00 0.  1.
         21   -1    0    0  501  503 -0.00000000000E+00 -0.00000000000E+00 -0.45324064175E+02  0.45324064175E+02  0.00000000000E+00 0.  1.
          6    1    1    2  501    0  0.80305594679E+02  0.50198961583E+01  0.20134990407E+03  0.27738956679E+03  0.17300000000E+03 0.  1.
         -6    1    1    2    0  502 -0.80305594679E+02 -0.50198961583E+01  0.12386578283E+04  0.12532662939E+04  0.17300000000E+03 0.  1.
<mgrwt>
<rscale>  2 0.19079619E+03</rscale>
<asrwt>0</asrwt>
<pdfrwt beam="1">  1       21 0.22851255E+00 0.19079619E+03</pdfrwt>
<pdfrwt beam="2">  1       21 0.69729341E-02 0.19079619E+03</pdfrwt>
<totfact> 0.13618303E+04</totfact>
</mgrwt>
</event>
<event>
 4    1  0.4391134E+000  0.2552118E+03  0.7546771E-02  0.1110055E+00
         21   -1    0    0  501  502  0.00000000000E+00  0.00000000000E+00  0.52691219188E+03  0.52691219188E+03  0.00000000000E+00 0. -1.
         21   -1    0    0  502  503 -0.00000000000E+00 -0.00000000000E+00 -0.24180448750E+03  0.24180448750E+03  0.00000000000E+00 0.  1.
          6    1    1    2  501    0 -0.18575975785E+03  0.26407727810E+02  0.41127244808E+03  0.48402281173E+03  0.17300000000E+03 0. -1.
         -6    1    1    2    0  503  0.18575975785E+03 -0.26407727810E+02 -0.12616474370E+03  0.28469386765E+03  0.17300000000E+03 0.  1.
<mgrwt>
<rscale>  2 0.25521179E+03</rscale>
<asrwt>0</asrwt>
<pdfrwt beam="1">  1       21 0.81063414E-01 0.25521179E+03</pdfrwt>
<pdfrwt beam="2">  1       21 0.37200691E-01 0.25521179E+03</pdfrwt>
<totfact> 0.89416041E+03</totfact>
</mgrwt>
</event>
<event>
 4    1  0.4391134E+000  0.2036920E+03  0.7546771E-02  0.1146661E+00
         21   -1    0    0  501  502  0.00000000000E+00  0.00000000000E+00  0.19429350048E+03  0.19429350048E+03  0.00000000000E+00 0.  1.
         21   -1    0    0  502  503 -0.00000000000E+00 -0.00000000000E+00 -0.31014302521E+03  0.31014302521E+03  0.00000000000E+00 0.  1.
          6    1    1    2  501    0 -0.99302082177E+02 -0.41237595547E+02  0.82835223250E+02  0.21989114812E+03  0.17300000000E+03 0.  1.
         -6    1    1    2    0  503  0.99302082177E+02  0.41237595547E+02 -0.19868474798E+03  0.28454537756E+03  0.17300000000E+03 0.  1.
<mgrwt>
<rscale>  2 0.20369203E+03</rscale>
<asrwt>0</asrwt>
<pdfrwt beam="1">  1       21 0.29891308E-01 0.20369203E+03</pdfrwt>
<pdfrwt beam="2">  1       21 0.47714311E-01 0.20369203E+03</pdfrwt>
<totfact> 0.44819849E+04</totfact>
</mgrwt>
</event>
<event>
 4    1  0.4391134E+000  0.1943820E+03  0.7546771E-02  0.1154567E+00
         21   -1    0    0  501  502  0.00000000000E+00  0.00000000000E+00  0.20041991410E+03  0.20041991410E+03  0.00000000000E+00 0. -1.
         21   -1    0    0  502  503 -0.00000000000E+00 -0.00000000000E+00 -0.20500152405E+03  0.20500152405E+03  0.00000000000E+00 0. -1.
          6    1    1    2  501    0 -0.26349534167E+02 -0.84623161209E+02  0.55175987429E+02  0.20206129504E+03  0.17300000000E+03 0. -1.
         -6    1    1    2    0  503  0.26349534167E+02  0.84623161209E+02 -0.59757597378E+02  0.20336014312E+03  0.17300000000E+03 0. -1.
<mgrwt>
<rscale>  2 0.19438204E+03</rscale>
<asrwt>0</asrwt>
<pdfrwt beam="1">  1       21 0.30833833E-01 0.19438204E+03</pdfrwt>
<pdfrwt beam="2">  1       21 0.31538696E-01 0.19438204E+03</pdfrwt>
<totfact> 0.97549723E+04</totfact>
</mgrwt>
</event>
<event>
 4    1  0.4391134E+000  0.1893024E+03  0.7546771E-02  0.1159092E+00
         21   -1    0    0  503  502  0.00000000000E+00  0.00000000000E+00  0.38598507444E+03  0.38598507444E+03  0.00000000000E+00 0. -1.
         21   -1    0    0  501  503 -0.00000000000E+00 -0.00000000000E+00 -0.11198729177E+03  0.11198729177E+03  0.00000000000E+00 0. -1.
          6    1    1    2  501    0  0.26643267311E+02 -0.72086879907E+02  0.34048251336E+02  0.19233997340E+03  0.17300000000E+03 0. -1.
         -6    1    1    2    0  502 -0.26643267311E+02  0.72086879907E+02  0.23994953134E+03  0.30563239282E+03  0.17300000000E+03 0. -1.
<mgrwt>
<rscale>  2 0.18930236E+03</rscale>
<asrwt>0</asrwt>
<pdfrwt beam="1">  1       21 0.59382318E-01 0.18930236E+03</pdfrwt>
<pdfrwt beam="2">  1       21 0.17228814E-01 0.18930236E+03</pdfrwt>
<totfact> 0.80755096E+04</totfact>
</mgrwt>
</event>
<event>
 4    1  0.4391134E+000  0.1793287E+03  0.7546771E-02  0.1168454E+00
         21   -1    0    0  501  502  0.00000000000E+00  0.00000000000E+00  0.83289828091E+03  0.83289828091E+03  0.00000000000E+00 0. -1.
         21   -1    0    0  502  503 -0.00000000000E+00 -0.00000000000E+00 -0.65375502710E+02  0.65375502710E+02  0.00000000000E+00 0. -1.
          6    1    1    2  501    0 -0.20257662499E+02 -0.42654410080E+02  0.67113929032E+03  0.69468461808E+03  0.17300000000E+03 0. -1.
         -6    1    1    2    0  503  0.20257662499E+02  0.42654410080E+02  0.96383487885E+02  0.20358916554E+03  0.17300000000E+03 0. -1.
<mgrwt>
<rscale>  2 0.17932867E+03</rscale>
<asrwt>0</asrwt>
<pdfrwt beam="1">  1       21 0.12813819E+00 0.17932867E+03</pdfrwt>
<pdfrwt beam="2">  1       21 0.10057770E-01 0.17932867E+03</pdfrwt>
<totfact> 0.36280231E+04</totfact>
</mgrwt>
</event>
<event>
 4    1  0.4391134E+000  0.2711469E+03  0.7546771E-02  0.1100625E+00
         21   -1    0    0  501  502  0.00000000000E+00  0.00000000000E+00  0.37296413445E+03  0.37296413445E+03  0.00000000000E+00 0.  1.
         21   -1    0    0  502  503 -0.00000000000E+00 -0.00000000000E+00 -0.33942484514E+03  0.33942484514E+03  0.00000000000E+00 0. -1.
          6    1    1    2  501    0 -0.19373554459E+03 -0.77834455837E+02  0.24740036279E+03  0.36705258923E+03  0.17300000000E+03 0.  1.
         -6    1    1    2    0  503  0.19373554459E+03  0.77834455837E+02 -0.21386107348E+03  0.34533639035E+03  0.17300000000E+03 0. -1.
<mgrwt>
<rscale>  2 0.27114694E+03</rscale>
<asrwt>0</asrwt>
<pdfrwt beam="1">  1       21 0.57379098E-01 0.27114694E+03</pdfrwt>
<pdfrwt beam="2">  1       21 0.52219207E-01 0.27114694E+03</pdfrwt>
<totfact> 0.94628507E+03</totfact>
</mgrwt>
</event>
<event>
 4    1  0.4391134E+000  0.2472210E+03  0.7546771E-02  0.1115074E+00
         21   -1    0    0  503  502  0.00000000000E+00  0.00000000000E+00  0.12618003422E+03  0.12618003422E+03  0.00000000000E+00 0.  1.
         21   -1    0    0  501  503 -0.00000000000E+00 -0.00000000000E+00 -0.85811175631E+03  0.85811175631E+03  0.00000000000E+00 0. -1.
          6    1    1    2  501    0  0.66064108286E+02 -0.16378268695E+03 -0.69075825946E+03  0.73366559683E+03  0.17300000000E+03 0. -1.
         -6    1    1    2    0  502 -0.66064108286E+02  0.16378268695E+03 -0.41173462625E+02  0.25062619371E+03  0.17300000000E+03 0.  1.
<mgrwt>
<rscale>  2 0.24722102E+03</rscale>
<asrwt>0</asrwt>
<pdfrwt beam="1">  1       21 0.19412313E-01 0.24722102E+03</pdfrwt>
<pdfrwt beam="2">  1       21 0.13201719E+00 0.24722102E+03</pdfrwt>
<totfact> 0.97816590E+03</totfact>
</mgrwt>
</event>
<event>
 4    1  0.4391134E+000  0.1936580E+03  0.7546771E-02  0.1155203E+00
         21   -1    0    0  501  502  0.00000000000E+00  0.00000000000E+00  0.70699699345E+02  0.70699699345E+02  0.00000000000E+00 0. -1.
         21   -1    0    0  502  503 -0.00000000000E+00 -0.00000000000E+00 -0.71060183917E+03  0.71060183917E+03  0.00000000000E+00 0. -1.
          6    1    1    2  501    0  0.65677364938E+02 -0.57104266219E+02 -0.12326122070E+03  0.22955770955E+03  0.17300000000E+03 0. -1.
         -6    1    1    2    0  503 -0.65677364938E+02  0.57104266219E+02 -0.51664091912E+03  0.55174382896E+03  0.17300000000E+03 0. -1.
<mgrwt>
<rscale>  2 0.19365798E+03</rscale>
<asrwt>0</asrwt>
<pdfrwt beam="1">  1       21 0.10876877E-01 0.19365798E+03</pdfrwt>
<pdfrwt beam="2">  1       21 0.10932336E+00 0.19365798E+03</pdfrwt>
<totfact> 0.46328476E+04</totfact>
</mgrwt>
</event>
<event>
 4    1  0.4391134E+000  0.2487410E+03  0.7546771E-02  0.1114103E+00
         21   -1    0    0  501  502  0.00000000000E+00  0.00000000000E+00  0.37324528988E+03  0.37324528988E+03  0.00000000000E+00 0.  1.
         21   -1    0    0  502  503 -0.00000000000E+00 -0.00000000000E+00 -0.23910718647E+03  0.23910718647E+03  0.00000000000E+00 0.  1.
          6    1    1    2  501    0 -0.12439160495E+03  0.12833481993E+03  0.23663687021E+03  0.34332070391E+03  0.17300000000E+03 0.  1.
         -6    1    1    2    0  503  0.12439160495E+03 -0.12833481993E+03 -0.10249876679E+03  0.26903177244E+03  0.17300000000E+03 0.  1.
<mgrwt>
<rscale>  2 0.24874102E+03</rscale>
<asrwt>0</asrwt>
<pdfrwt beam="1">  1       21 0.57422352E-01 0.24874102E+03</pdfrwt>
<pdfrwt beam="2">  1       21 0.36785721E-01 0.24874102E+03</pdfrwt>
<totfact> 0.19671704E+04</totfact>
</mgrwt>
</event>
<event>
 4    1  0.4391134E+000  0.2545894E+03  0.7546771E-02  0.1110438E+00
         21   -1    0    0  501  502  0.00000000000E+00  0.00000000000E+00  0.76962274345E+03  0.76962274345E+03  0.00000000000E+00 0.  1.
         21   -1    0    0  502  503 -0.00000000000E+00 -0.00000000000E+00 -0.84537107806E+02  0.84537107806E+02  0.00000000000E+00 0.  1.
          6    1    1    2  501    0 -0.62902116777E+02 -0.17586947701E+03  0.31628529929E+03  0.40601987610E+03  0.17300000000E+03 0.  1.
         -6    1    1    2    0  503  0.62902116777E+02  0.17586947701E+03  0.36880033636E+03  0.44813997516E+03  0.17300000000E+03 0.  1.
<mgrwt>
<rscale>  2 0.25458937E+03</rscale>
<asrwt>0</asrwt>
<pdfrwt beam="1">  1       21 0.11840349E+00 0.25458937E+03</pdfrwt>
<pdfrwt beam="2">  1       21 0.13005709E-01 0.25458937E+03</pdfrwt>
<totfact> 0.26812520E+04</totfact>
</mgrwt>
</event>
<event>
 4    1  0.4391134E+000  0.1982180E+03  0.7546771E-02  0.1151251E+00
         21   -1    0    0  501  502  0.00000000000E+00  0.00000000000E+00  0.83825309785E+02  0.83825309785E+02  0.00000000000E+00 0. -1.
         21   -1    0    0  502  503 -0.00000000000E+00 -0.00000000000E+00 -0.47167872657E+03  0.47167872657E+03  0.00000000000E+00 0.  1.
          6    1    1    2  501    0  0.58691234237E+02 -0.76920219202E+02 -0.21593454578E+03  0.29311790999E+03  0.17300000000E+03 0.  1.
         -6    1    1    2    0  503 -0.58691234237E+02  0.76920219202E+02 -0.17191887100E+03  0.26238612636E+03  0.17300000000E+03 0.  1.
<mgrwt>
<rscale>  2 0.19821801E+03</rscale>
<asrwt>0</asrwt>
<pdfrwt beam="1">  1       21 0.12896202E-01 0.19821801E+03</pdfrwt>
<pdfrwt beam="2">  1       21 0.72565957E-01 0.19821801E+03</pdfrwt>
<totfact> 0.88030215E+04</totfact>
</mgrwt>
</event>
<event>
 4    1  0.4391134E+000  0.1876498E+03  0.7546771E-02  0.1160598E+00
         21   -1    0    0  503  502  0.00000000000E+00  0.00000000000E+00  0.24722196617E+02  0.24722196617E+02  0.00000000000E+00 0. -1.
         21   -1    0    0  501  503 -0.00000000000E+00 -0.00000000000E+00 -0.14768707251E+04  0.14768707251E+04  0.00000000000E+00 0. -1.
          6    1    1    2  501    0  0.71535239085E+02  0.12890861754E+02 -0.86769145809E+03  0.88775048927E+03  0.17300000000E+03 0. -1.
         -6    1    1    2    0  502 -0.71535239085E+02 -0.12890861754E+02 -0.58445707041E+03  0.61384243246E+03  0.17300000000E+03 0. -1.
<mgrwt>
<rscale>  2 0.18764985E+03</rscale>
<asrwt>0</asrwt>
<pdfrwt beam="1">  1       21 0.38034146E-02 0.18764985E+03</pdfrwt>
<pdfrwt beam="2">  1       21 0.22721090E+00 0.18764985E+03</pdfrwt>
<totfact> 0.38907470E+04</totfact>
</mgrwt>
</event>
<event>
 4    1  0.4391134E+000  0.2023732E+03  0.7546771E-02  0.1147752E+00
         21   -1    0    0  503  502  0.00000000000E+00  0.00000000000E+00  0.21772901918E+03  0.21772901918E+03  0.00000000000E+00 0.  1.
         21   -1    0    0  501  503 -0.00000000000E+00 -0.00000000000E+00 -0.19210395647E+03  0.19210395647E+03  0.00000000000E+00 0.  1.
          6    1    1    2  501    0 -0.34416904656E+02 -0.99203687461E+02 -0.16770105122E+02  0.20306681501E+03  0.17300000000E+03 0.  1.
         -6    1    1    2    0  502  0.34416904656E+02  0.99203687461E+02  0.42395167834E+02  0.20676616064E+03  0.17300000000E+03 0.  1.
<mgrwt>
<rscale>  2 0.20237316E+03</rscale>
<asrwt>0</asrwt>
<pdfrwt beam="1">  1       21 0.33496772E-01 0.20237316E+03</pdfrwt>
<pdfrwt beam="2">  1       21 0.29554455E-01 0.20237316E+03</pdfrwt>
<totfact> 0.93800605E+04</totfact>
</mgrwt>
</event>
<event>
 4    1  0.4391134E+000  0.3114997E+03  0.7546771E-02  0.1079629E+00
         21   -1    0    0  501  502  0.00000000000E+00  0.00000000000E+00  0.24310103512E+03  0.24310103512E+03  0.00000000000E+00 0. -1.
         21   -1    0    0  502  503 -0.00000000000E+00 -0.00000000000E+00 -0.14828920600E+04  0.14828920600E+04  0.00000000000E+00 0.  1.
          6    1    1    2  501    0  0.16829579803E+03 -0.19692537175E+03  0.11787051721E+03  0.33305485509E+03  0.17300000000E+03 0. -1.
         -6    1    1    2    0  503 -0.16829579803E+03  0.19692537175E+03 -0.13576615421E+04  0.13929382401E+04  0.17300000000E+03 0.  1.
<mgrwt>
<rscale>  2 0.31149972E+03</rscale>
<asrwt>0</asrwt>
<pdfrwt beam="1">  1       21 0.37400159E-01 0.31149972E+03</pdfrwt>
<pdfrwt beam="2">  1       21 0.22813724E+00 0.31149972E+03</pdfrwt>
<totfact> 0.55084521E+02</totfact>
</mgrwt>
</event>
<event>
 4    1  0.4391134E+000  0.2420336E+03  0.7546771E-02  0.1118445E+00
         21   -1    0    0  503  502  0.00000000000E+00  0.00000000000E+00  0.10000408453E+04  0.10000408453E+04  0.00000000000E+00 0.  1.
         21   -1    0    0  501  503 -0.00000000000E+00 -0.00000000000E+00 -0.76851604761E+02  0.76851604761E+02  0.00000000000E+00 0.  1.
          6    1    1    2  501    0 -0.15988410102E+03 -0.55572897862E+02  0.19903411185E+03  0.31336057572E+03  0.17300000000E+03 0.  1.
         -6    1    1    2    0  502  0.15988410102E+03  0.55572897862E+02  0.72415512873E+03  0.76353187439E+03  0.17300000000E+03 0.  1.
<mgrwt>
<rscale>  2 0.24203362E+03</rscale>
<asrwt>0</asrwt>
<pdfrwt beam="1">  1       21 0.15385243E+00 0.24203362E+03</pdfrwt>
<pdfrwt beam="2">  1       21 0.11823324E-01 0.24203362E+03</pdfrwt>
<totfact> 0.16313424E+04</totfact>
</mgrwt>
</event>
<event>
 4    1  0.4391134E+000  0.1983832E+03  0.7546771E-02  0.1151110E+00
         21   -1    0    0  503  502  0.00000000000E+00  0.00000000000E+00  0.19565711739E+03  0.19565711739E+03  0.00000000000E+00 0. -1.
         21   -1    0    0  501  503 -0.00000000000E+00 -0.00000000000E+00 -0.42649879711E+03  0.42649879711E+03  0.00000000000E+00 0. -1.
          6    1    1    2  501    0 -0.52774208763E+02  0.81497070320E+02 -0.34154169157E+03  0.39497672926E+03  0.17300000000E+03 0. -1.
         -6    1    1    2    0  502  0.52774208763E+02 -0.81497070320E+02  0.11070001185E+03  0.22717918524E+03  0.17300000000E+03 0. -1.
<mgrwt>
<rscale>  2 0.19838319E+03</rscale>
<asrwt>0</asrwt>
<pdfrwt beam="1">  1       21 0.30101095E-01 0.19838319E+03</pdfrwt>
<pdfrwt beam="2">  1       21 0.65615199E-01 0.19838319E+03</pdfrwt>
<totfact> 0.22528451E+04</totfact>
</mgrwt>
</event>
<event>
 4    1  0.4391134E+000  0.3129116E+03  0.7546771E-02  0.1078959E+00
         21   -1    0    0  501  502  0.00000000000E+00  0.00000000000E+00  0.18341695247E+03  0.18341695247E+03  0.00000000000E+00 0. -1.
         21   -1    0    0  502  503 -0.00000000000E+00 -0.00000000000E+00 -0.54636903048E+03  0.54636903048E+03  0.00000000000E+00 0.  1.
          6    1    1    2  501    0 -0.25470388328E+03 -0.55772490473E+02 -0.12619977469E+03  0.33740187015E+03  0.17300000000E+03 0. -1.
         -6    1    1    2    0  503  0.25470388328E+03  0.55772490473E+02 -0.23675230332E+03  0.39238411280E+03  0.17300000000E+03 0. -1.
<mgrwt>
<rscale>  2 0.31291155E+03</rscale>
<asrwt>0</asrwt>
<pdfrwt beam="1">  1       21 0.28217993E-01 0.31291155E+03</pdfrwt>
<pdfrwt beam="2">  1       21 0.84056774E-01 0.31291155E+03</pdfrwt>
<totfact> 0.13852328E+04</totfact>
</mgrwt>
</event>
<event>
 4    1  0.4391134E+000  0.1961100E+03  0.7546771E-02  0.1153063E+00
         21   -1    0    0  503  502  0.00000000000E+00  0.00000000000E+00  0.41279584219E+02  0.41279584219E+02  0.00000000000E+00 0. -1.
         21   -1    0    0  501  503 -0.00000000000E+00 -0.00000000000E+00 -0.94006046790E+03  0.94006046790E+03  0.00000000000E+00 0.  1.
          6    1    1    2  501    0  0.11230281063E+02  0.91673473333E+02 -0.49573327970E+03  0.53311408679E+03  0.17300000000E+03 0.  1.
         -6    1    1    2    0  502 -0.11230281063E+02 -0.91673473333E+02 -0.40304760398E+03  0.44822596534E+03  0.17300000000E+03 0. -1.
<mgrwt>
<rscale>  2 0.19611003E+03</rscale>
<asrwt>0</asrwt>
<pdfrwt beam="1">  1       21 0.63507058E-02 0.19611003E+03</pdfrwt>
<pdfrwt beam="2">  1       21 0.14462468E+00 0.19611003E+03</pdfrwt>
<totfact> 0.58720410E+04</totfact>
</mgrwt>
</event>
<event>
 4    1  0.4391134E+000  0.2237492E+03  0.7546771E-02  0.1131118E+00
         21   -1    0    0  503  502  0.00000000000E+00  0.00000000000E+00  0.18956519492E+03  0.18956519492E+03  0.00000000000E+00 0. -1.
         21   -1    0    0  501  503 -0.00000000000E+00 -0.00000000000E+00 -0.30849245436E+03  0.30849245436E+03  0.00000000000E+00 0. -1.
          6    1    1    2  501    0 -0.13142503048E+03 -0.53499114632E+02 -0.15393368229E+03  0.27158658370E+03  0.17300000000E+03 0. -1.
         -6    1    1    2    0  502  0.13142503048E+03  0.53499114632E+02  0.35006422846E+02  0.22647106558E+03  0.17300000000E+03 0. -1.
<mgrwt>
<rscale>  2 0.22374918E+03</rscale>
<asrwt>0</asrwt>
<pdfrwt beam="1">  1       21 0.29163876E-01 0.22374918E+03</pdfrwt>
<pdfrwt beam="2">  1       21 0.47460377E-01 0.22374918E+03</pdfrwt>
<totfact> 0.47102351E+04</totfact>
</mgrwt>
</event>
<event>
 4    1  0.4391134E+000  0.1850884E+03  0.7546771E-02  0.1162967E+00
         21   -1    0    0  501  502  0.00000000000E+00  0.00000000000E+00  0.39292131649E+02  0.39292131649E+02  0.00000000000E+00 0. -1.
         21   -1    0    0  502  503 -0.00000000000E+00 -0.00000000000E+00 -0.12263931729E+04  0.12263931729E+04  0.00000000000E+00 0. -1.
          6    1    1    2  501    0 -0.61098921247E+02 -0.24405471814E+02 -0.25329746528E+03  0.31371533458E+03  0.17300000000E+03 0. -1.
         -6    1    1    2    0  503  0.61098921247E+02  0.24405471814E+02 -0.93380357596E+03  0.95196996996E+03  0.17300000000E+03 0. -1.
<mgrwt>
<rscale>  2 0.18508837E+03</rscale>
<asrwt>0</asrwt>
<pdfrwt beam="1">  1       21 0.60449439E-02 0.18508837E+03</pdfrwt>
<pdfrwt beam="2">  1       21 0.18867585E+00 0.18508837E+03</pdfrwt>
<totfact> 0.31142196E+04</totfact>
</mgrwt>
</event>
<event>
 4    1  0.4391134E+000  0.2044376E+03  0.7546771E-02  0.1146048E+00
         21   -1    0    0  503  502  0.00000000000E+00  0.00000000000E+00  0.54215788573E+03  0.54215788573E+03  0.00000000000E+00 0. -1.
         21   -1    0    0  501  503 -0.00000000000E+00 -0.00000000000E+00 -0.95764028247E+02  0.95764028247E+02  0.00000000000E+00 0. -1.
          6    1    1    2  501    0 -0.34601303584E+02  0.10328837972E+03  0.82345949283E+02  0.22039871814E+03  0.17300000000E+03 0. -1.
         -6    1    1    2    0  502  0.34601303584E+02 -0.10328837972E+03  0.36404790820E+03  0.41752319584E+03  0.17300000000E+03 0. -1.
<mgrwt>
<rscale>  2 0.20443762E+03</rscale>
<asrwt>0</asrwt>
<pdfrwt beam="1">  1       21 0.83408904E-01 0.20443762E+03</pdfrwt>
<pdfrwt beam="2">  1       21 0.14732928E-01 0.20443762E+03</pdfrwt>
<totfact> 0.50410902E+04</totfact>
</mgrwt>
</event>
<event>
 4    1  0.4391134E+000  0.2609587E+03  0.7546771E-02  0.1106569E+00
         21   -1    0    0  503  502  0.00000000000E+00  0.00000000000E+00  0.69548368052E+03  0.69548368052E+03  0.00000000000E+00 0.  1.
         21   -1    0    0  501  503 -0.00000000000E+00 -0.00000000000E+00 -0.18304814022E+03  0.18304814022E+03  0.00000000000E+00 0. -1.
          6    1    1    2  501    0 -0.10273062151E+03 -0.16618318364E+03 -0.43346465030E+02  0.26453420790E+03  0.17300000000E+03 0. -1.
         -6    1    1    2    0  502  0.10273062151E+03  0.16618318364E+03  0.55578200533E+03  0.61399761284E+03  0.17300000000E+03 0.  1.
<mgrwt>
<rscale>  2 0.26095868E+03</rscale>
<asrwt>0</asrwt>
<pdfrwt beam="1">  1       21 0.10699749E+00 0.26095868E+03</pdfrwt>
<pdfrwt beam="2">  1       21 0.28161253E-01 0.26095868E+03</pdfrwt>
<totfact> 0.80474222E+03</totfact>
</mgrwt>
</event>
<event>
 4    1  0.4391134E+000  0.2169498E+03  0.7546771E-02  0.1136178E+00
         21   -1    0    0  501  502  0.00000000000E+00  0.00000000000E+00  0.50210028047E+02  0.50210028047E+02  0.00000000000E+00 0. -1.
         21   -1    0    0  502  503 -0.00000000000E+00 -0.00000000000E+00 -0.94714890909E+03  0.94714890909E+03  0.00000000000E+00 0. -1.
          6    1    1    2  501    0  0.11273912221E+03 -0.66544132812E+02 -0.39789459059E+03  0.45319679667E+03  0.17300000000E+03 0. -1.
         -6    1    1    2    0  503 -0.11273912221E+03  0.66544132812E+02 -0.49904429045E+03  0.54416214047E+03  0.17300000000E+03 0. -1.
<mgrwt>
<rscale>  2 0.21694984E+03</rscale>
<asrwt>0</asrwt>
<pdfrwt beam="1">  1       21 0.77246196E-02 0.21694984E+03</pdfrwt>
<pdfrwt beam="2">  1       21 0.14571522E+00 0.21694984E+03</pdfrwt>
<totfact> 0.40563035E+04</totfact>
</mgrwt>
</event>
<event>
 4    1  0.4391134E+000  0.1972978E+03  0.7546771E-02  0.1152039E+00
         21   -1    0    0  501  502  0.00000000000E+00  0.00000000000E+00  0.28656673963E+02  0.28656673963E+02  0.00000000000E+00 0.  1.
         21   -1    0    0  502  503 -0.00000000000E+00 -0.00000000000E+00 -0.13886730749E+04  0.13886730749E+04  0.00000000000E+00 0. -1.
          6    1    1    2  501    0 -0.86909658043E+02  0.38001815336E+02 -0.57532689251E+03  0.60821662249E+03  0.17300000000E+03 0.  1.
         -6    1    1    2    0  503  0.86909658043E+02 -0.38001815336E+02 -0.78468950842E+03  0.80911312636E+03  0.17300000000E+03 0. -1.
<mgrwt>
<rscale>  2 0.19729781E+03</rscale>
<asrwt>0</asrwt>
<pdfrwt beam="1">  1       21 0.44087189E-02 0.19729781E+03</pdfrwt>
<pdfrwt beam="2">  1       21 0.21364202E+00 0.19729781E+03</pdfrwt>
<totfact> 0.36519660E+04</totfact>
</mgrwt>
</event>
<event>
 4    1  0.4391134E+000  0.1974976E+03  0.7546771E-02  0.1151868E+00
         21   -1    0    0  501  502  0.00000000000E+00  0.00000000000E+00  0.13880039247E+04  0.13880039247E+04  0.00000000000E+00 0. -1.
         21   -1    0    0  502  503 -0.00000000000E+00 -0.00000000000E+00 -0.29613574845E+02  0.29613574845E+02  0.00000000000E+00 0. -1.
          6    1    1    2  501    0 -0.65120032137E+02 -0.69539012050E+02  0.83934969604E+03  0.86227211774E+03  0.17300000000E+03 0. -1.
         -6    1    1    2    0  503  0.65120032137E+02  0.69539012050E+02  0.51904065379E+03  0.55534538179E+03  0.17300000000E+03 0. -1.
<mgrwt>
<rscale>  2 0.19749758E+03</rscale>
<asrwt>0</asrwt>
<pdfrwt beam="1">  1       21 0.21353901E+00 0.19749758E+03</pdfrwt>
<pdfrwt beam="2">  1       21 0.45559357E-02 0.19749758E+03</pdfrwt>
<totfact> 0.34596967E+04</totfact>
</mgrwt>
</event>
<event>
 4    1  0.4391134E+000  0.1894637E+03  0.7546771E-02  0.1158946E+00
         21   -1    0    0  501  502  0.00000000000E+00  0.00000000000E+00  0.34680292436E+03  0.34680292436E+03  0.00000000000E+00 0.  1.
         21   -1    0    0  502  503 -0.00000000000E+00 -0.00000000000E+00 -0.30028745639E+03  0.30028745639E+03  0.00000000000E+00 0.  1.
          6    1    1    2  501    0  0.53061857200E+02  0.56142190110E+02  0.28517094865E+03  0.34237256922E+03  0.17300000000E+03 0.  1.
         -6    1    1    2    0  503 -0.53061857200E+02 -0.56142190110E+02 -0.23865548069E+03  0.30471781153E+03  0.17300000000E+03 0.  1.
<mgrwt>
<rscale>  2 0.18946373E+03</rscale>
<asrwt>0</asrwt>
<pdfrwt beam="1">  1       21 0.53354296E-01 0.18946373E+03</pdfrwt>
<pdfrwt beam="2">  1       21 0.46198070E-01 0.18946373E+03</pdfrwt>
<totfact> 0.14960440E+04</totfact>
</mgrwt>
</event>
<event>
 4    1  0.4391134E+000  0.2262280E+03  0.7546771E-02  0.1129323E+00
         21   -1    0    0  501  502  0.00000000000E+00  0.00000000000E+00  0.78018119085E+02  0.78018119085E+02  0.00000000000E+00 0. -1.
         21   -1    0    0  502  503 -0.00000000000E+00 -0.00000000000E+00 -0.72689855871E+03  0.72689855871E+03  0.00000000000E+00 0. -1.
          6    1    1    2  501    0  0.86633257816E+02  0.11723824723E+03 -0.19874102651E+03  0.30112642460E+03  0.17300000000E+03 0. -1.
         -6    1    1    2    0  503 -0.86633257816E+02 -0.11723824723E+03 -0.45013941312E+03  0.50379025320E+03  0.17300000000E+03 0. -1.
<mgrwt>
<rscale>  2 0.22622804E+03</rscale>
<asrwt>0</asrwt>
<pdfrwt beam="1">  1       21 0.12002787E-01 0.22622804E+03</pdfrwt>
<pdfrwt beam="2">  1       21 0.11183055E+00 0.22622804E+03</pdfrwt>
<totfact> 0.36148601E+04</totfact>
</mgrwt>
</event>
<event>
 4    1  0.4391134E+000  0.1744560E+03  0.7546771E-02  0.1173279E+00
         21   -1    0    0  503  502  0.00000000000E+00  0.00000000000E+00  0.42009705763E+03  0.42009705763E+03  0.00000000000E+00 0.  1.
         21   -1    0    0  501  503 -0.00000000000E+00 -0.00000000000E+00 -0.72448124790E+02  0.72448124790E+02  0.00000000000E+00 0.  1.
          6    1    1    2  501    0  0.17113638785E+02  0.14594797992E+02  0.17297830553E+03  0.24567535274E+03  0.17300000000E+03 0.  1.
         -6    1    1    2    0  502 -0.17113638785E+02 -0.14594797992E+02  0.17467062731E+03  0.24686982968E+03  0.17300000000E+03 0.  1.
<mgrwt>
<rscale>  2 0.17445597E+03</rscale>
<asrwt>0</asrwt>
<pdfrwt beam="1">  1       21 0.64630315E-01 0.17445597E+03</pdfrwt>
<pdfrwt beam="2">  1       21 0.11145866E-01 0.17445597E+03</pdfrwt>
<totfact> 0.14863933E+05</totfact>
</mgrwt>
</event>
<event>
 4    1  0.4391134E+000  0.1947041E+03  0.7546771E-02  0.1154286E+00
         21   -1    0    0  501  502  0.00000000000E+00  0.00000000000E+00  0.22803447277E+03  0.22803447277E+03  0.00000000000E+00 0. -1.
         21   -1    0    0  502  503 -0.00000000000E+00 -0.00000000000E+00 -0.16864512643E+03  0.16864512643E+03  0.00000000000E+00 0. -1.
          6    1    1    2  501    0  0.88682150485E+02 -0.10778199253E+02  0.53353836052E+02  0.20188195862E+03  0.17300000000E+03 0. -1.
         -6    1    1    2    0  503 -0.88682150485E+02  0.10778199253E+02  0.60355102935E+01  0.19479764059E+03  0.17300000000E+03 0. -1.
<mgrwt>
<rscale>  2 0.19470412E+03</rscale>
<asrwt>0</asrwt>
<pdfrwt beam="1">  1       21 0.35082226E-01 0.19470412E+03</pdfrwt>
<pdfrwt beam="2">  1       21 0.25945404E-01 0.19470412E+03</pdfrwt>
<totfact> 0.11042784E+05</totfact>
</mgrwt>
</event>
<event>
 4    1  0.4391134E+000  0.1789730E+03  0.7546771E-02  0.1168801E+00
         21   -1    0    0  503  502  0.00000000000E+00  0.00000000000E+00  0.62488419886E+03  0.62488419886E+03  0.00000000000E+00 0. -1.
         21   -1    0    0  501  503 -0.00000000000E+00 -0.00000000000E+00 -0.68571171039E+02  0.68571171039E+02  0.00000000000E+00 0.  1.
          6    1    1    2  501    0 -0.57627926319E+01  0.45487762460E+02  0.10394159992E+03  0.20696667004E+03  0.17300000000E+03 0.  1.
         -6    1    1    2    0  502  0.57627926319E+01 -0.45487762460E+02  0.45237142790E+03  0.48648869986E+03  0.17300000000E+03 0. -1.
<mgrwt>
<rscale>  2 0.17897303E+03</rscale>
<asrwt>0</asrwt>
<pdfrwt beam="1">  1       21 0.96136027E-01 0.17897303E+03</pdfrwt>
<pdfrwt beam="2">  1       21 0.10549411E-01 0.17897303E+03</pdfrwt>
<totfact> 0.66919841E+04</totfact>
</mgrwt>
</event>
<event>
 4    1  0.4391134E+000  0.1774879E+03  0.7546771E-02  0.1170257E+00
         21   -1    0    0  501  502  0.00000000000E+00  0.00000000000E+00  0.45130409926E+03  0.45130409926E+03  0.00000000000E+00 0.  1.
         21   -1    0    0  502  503 -0.00000000000E+00 -0.00000000000E+00 -0.43239929300E+03  0.43239929300E+03  0.00000000000E+00 0.  1.
          6    1    1    2  501    0 -0.18764189228E+02  0.34940999557E+02  0.41407139640E+03  0.45050759102E+03  0.17300000000E+03 0.  1.
         -6    1    1    2    0  503  0.18764189228E+02 -0.34940999557E+02 -0.39516659014E+03  0.43319580124E+03  0.17300000000E+03 0.  1.
<mgrwt>
<rscale>  2 0.17748794E+03</rscale>
<asrwt>0</asrwt>
<pdfrwt beam="1">  1       21 0.69431400E-01 0.17748794E+03</pdfrwt>
<pdfrwt beam="2">  1       21 0.66522968E-01 0.17748794E+03</pdfrwt>
<totfact> 0.39587268E+03</totfact>
</mgrwt>
</event>
<event>
 4    1  0.4391134E+000  0.2108414E+03  0.7546771E-02  0.1140901E+00
         21   -1    0    0  501  502  0.00000000000E+00  0.00000000000E+00  0.73637806207E+03  0.73637806207E+03  0.00000000000E+00 0. -1.
         21   -1    0    0  502  503 -0.00000000000E+00 -0.00000000000E+00 -0.10244358674E+03  0.10244358674E+03  0.00000000000E+00 0. -1.
          6    1    1    2  501    0  0.11496862023E+03 -0.36156707278E+02  0.58575493827E+03  0.62254553152E+03  0.17300000000E+03 0. -1.
         -6    1    1    2    0  503 -0.11496862023E+03  0.36156707278E+02  0.48179537065E+02  0.21627611729E+03  0.17300000000E+03 0. -1.
<mgrwt>
<rscale>  2 0.21084139E+03</rscale>
<asrwt>0</asrwt>
<pdfrwt beam="1">  1       21 0.11328893E+00 0.21084139E+03</pdfrwt>
<pdfrwt beam="2">  1       21 0.15760552E-01 0.21084139E+03</pdfrwt>
<totfact> 0.21552122E+04</totfact>
</mgrwt>
</event>
<event>
 4    1  0.4391134E+000  0.1916491E+03  0.7546771E-02  0.1156982E+00
         21   -1    0    0  503  502  0.00000000000E+00  0.00000000000E+00  0.70773916659E+03  0.70773916659E+03  0.00000000000E+00 0.  1.
         21   -1    0    0  501  503 -0.00000000000E+00 -0.00000000000E+00 -0.15729733997E+03  0.15729733997E+03  0.00000000000E+00 0.  1.
          6    1    1    2  501    0  0.18685422393E+02 -0.80319607771E+02 -0.78829583919E+02  0.20722810549E+03  0.17300000000E+03 0.  1.
         -6    1    1    2    0  502 -0.18685422393E+02  0.80319607771E+02  0.62927141054E+03  0.65780840107E+03  0.17300000000E+03 0.  1.
<mgrwt>
<rscale>  2 0.19164912E+03</rscale>
<asrwt>0</asrwt>
<pdfrwt beam="1">  1       21 0.10888295E+00 0.19164912E+03</pdfrwt>
<pdfrwt beam="2">  1       21 0.24199591E-01 0.19164912E+03</pdfrwt>
<totfact> 0.10796414E+04</totfact>
</mgrwt>
</event>
<event>
 4    1  0.4391134E+000  0.1756164E+03  0.7546771E-02  0.1172114E+00
         21   -1    0    0  501  502  0.00000000000E+00  0.00000000000E+00  0.10495450924E+04  0.10495450924E+04  0.00000000000E+00 0.  1.
         21   -1    0    0  502  503 -0.00000000000E+00 -0.00000000000E+00 -0.57953110806E+02  0.57953110806E+02  0.00000000000E+00 0.  1.
          6    1    1    2  501    0  0.13595960444E+01 -0.30170589105E+02  0.88458479507E+03  0.90184886351E+03  0.17300000000E+03 0.  1.
         -6    1    1    2    0  503 -0.13595960444E+01  0.30170589105E+02  0.10700718652E+03  0.20564933969E+03  0.17300000000E+03 0.  1.
<mgrwt>
<rscale>  2 0.17561638E+03</rscale>
<asrwt>0</asrwt>
<pdfrwt beam="1">  1       21 0.16146846E+00 0.17561638E+03</pdfrwt>
<pdfrwt beam="2">  1       21 0.89158640E-02 0.17561638E+03</pdfrwt>
<totfact> 0.24667925E+04</totfact>
</mgrwt>
</event>
<event>
 4    1  0.4391134E+000  0.2017464E+03  0.7546771E-02  0.1148274E+00
         21   -1    0    0  503  502  0.00000000000E+00  0.00000000000E+00  0.29982549211E+02  0.29982549211E+02  0.00000000000E+00 0.  1.
         21   -1    0    0  501  503 -0.00000000000E+00 -0.00000000000E+00 -0.18891647260E+04  0.18891647260E+04  0.00000000000E+00 0.  1.
          6    1    1    2  501    0  0.82086603640E+02  0.63517029833E+02 -0.14386382892E+04  0.14527153027E+04  0.17300000000E+03 0.  1.
         -6    1    1    2    0  502 -0.82086603640E+02 -0.63517029833E+02 -0.42054388751E+03  0.46643197242E+03  0.17300000000E+03 0.  1.
<mgrwt>
<rscale>  2 0.20174643E+03</rscale>
<asrwt>0</asrwt>
<pdfrwt beam="1">  1       21 0.46127002E-02 0.20174643E+03</pdfrwt>
<pdfrwt beam="2">  1       21 0.29064071E+00 0.20174643E+03</pdfrwt>
<totfact> 0.11804065E+04</totfact>
</mgrwt>
</event>
<event>
 4    1  0.4391134E+000  0.1825748E+03  0.7546771E-02  0.1165334E+00
         21   -1    0    0  501  502  0.00000000000E+00  0.00000000000E+00  0.10535886171E+03  0.10535886171E+03  0.00000000000E+00 0.  1.
         21   -1    0    0  502  503 -0.00000000000E+00 -0.00000000000E+00 -0.51108306841E+03  0.51108306841E+03  0.00000000000E+00 0.  1.
          6    1    1    2  501    0  0.58192639098E+02 -0.42652372805E+01 -0.12622313507E+02  0.18301065076E+03  0.17300000000E+03 0. -1.
         -6    1    1    2    0  503 -0.58192639098E+02  0.42652372805E+01 -0.39310189319E+03  0.43343127936E+03  0.17300000000E+03 0. -1.
<mgrwt>
<rscale>  2 0.18257485E+03</rscale>
<asrwt>0</asrwt>
<pdfrwt beam="1">  1       21 0.16209055E-01 0.18257485E+03</pdfrwt>
<pdfrwt beam="2">  1       21 0.78628166E-01 0.18257485E+03</pdfrwt>
<totfact> 0.48931294E+04</totfact>
</mgrwt>
</event>
<event>
 4    1  0.4391134E+000  0.2683581E+03  0.7546771E-02  0.1102223E+00
         21   -1    0    0  501  502  0.00000000000E+00  0.00000000000E+00  0.15710070519E+04  0.15710070519E+04  0.00000000000E+00 0. -1.
         21   -1    0    0  502  503 -0.00000000000E+00 -0.00000000000E+00 -0.56092304677E+02  0.56092304677E+02  0.00000000000E+00 0.  1.
          6    1    1    2  501    0  0.38675795934E+02  0.20147275441E+03  0.11052561292E+04  0.11373685415E+04  0.17300000000E+03 0.  1.
         -6    1    1    2    0  503 -0.38675795934E+02 -0.20147275441E+03  0.40965861803E+03  0.48973081513E+03  0.17300000000E+03 0.  1.
<mgrwt>
<rscale>  2 0.26835813E+03</rscale>
<asrwt>0</asrwt>
<pdfrwt beam="1">  1       21 0.24169336E+00 0.26835813E+03</pdfrwt>
<pdfrwt beam="2">  1       21 0.86295866E-02 0.26835813E+03</pdfrwt>
<totfact> 0.73493563E+03</totfact>
</mgrwt>
</event>
<event>
 4    1  0.4391134E+000  0.2153310E+03  0.7546771E-02  0.1137413E+00
         21   -1    0    0  501  502  0.00000000000E+00  0.00000000000E+00  0.23348266303E+03  0.23348266303E+03  0.00000000000E+00 0. -1.
         21   -1    0    0  502  503 -0.00000000000E+00 -0.00000000000E+00 -0.20438196543E+03  0.20438196543E+03  0.00000000000E+00 0.  1.
          6    1    1    2  501    0 -0.10249127787E+03  0.77032344512E+02  0.51404121891E+02  0.22138163404E+03  0.17300000000E+03 0. -1.
         -6    1    1    2    0  503  0.10249127787E+03 -0.77032344512E+02 -0.22303424291E+02  0.21648299443E+03  0.17300000000E+03 0. -1.
<mgrwt>
<rscale>  2 0.21533101E+03</rscale>
<asrwt>0</asrwt>
<pdfrwt beam="1">  1       21 0.35920410E-01 0.21533101E+03</pdfrwt>
<pdfrwt beam="2">  1       21 0.31443379E-01 0.21533101E+03</pdfrwt>
<totfact> 0.71940265E+04</totfact>
</mgrwt>
</event>
<event>
 4    1  0.4391134E+000  0.1970341E+03  0.7546771E-02  0.1152266E+00
         21   -1    0    0  503  502  0.00000000000E+00  0.00000000000E+00  0.92783522489E+03  0.92783522489E+03  0.00000000000E+00 0. -1.
         21   -1    0    0  501  503 -0.00000000000E+00 -0.00000000000E+00 -0.41999120306E+02  0.41999120306E+02  0.00000000000E+00 0. -1.
          6    1    1    2  501    0  0.94284836341E+02 -0.19493271168E+01  0.41325335405E+03  0.45782176103E+03  0.17300000000E+03 0. -1.
         -6    1    1    2    0  502 -0.94284836341E+02  0.19493271168E+01  0.47258275053E+03  0.51201258416E+03  0.17300000000E+03 0. -1.
<mgrwt>
<rscale>  2 0.19703408E+03</rscale>
<asrwt>0</asrwt>
<pdfrwt beam="1">  1       21 0.14274386E+00 0.19703408E+03</pdfrwt>
<pdfrwt beam="2">  1       21 0.64614038E-02 0.19703408E+03</pdfrwt>
<totfact> 0.58948119E+04</totfact>
</mgrwt>
</event>
<event>
 4    1  0.4391134E+000  0.1785347E+03  0.7546771E-02  0.1169229E+00
         21   -1    0    0  501  502  0.00000000000E+00  0.00000000000E+00  0.39339882321E+03  0.39339882321E+03  0.00000000000E+00 0. -1.
         21   -1    0    0  502  503 -0.00000000000E+00 -0.00000000000E+00 -0.88542221981E+02  0.88542221981E+02  0.00000000000E+00 0. -1.
          6    1    1    2  501    0 -0.44040325074E+02 -0.24647862589E+01  0.22264738397E+03  0.28538830213E+03  0.17300000000E+03 0. -1.
         -6    1    1    2    0  503  0.44040325074E+02  0.24647862589E+01  0.82209217266E+02  0.19655274307E+03  0.17300000000E+03 0. -1.
<mgrwt>
<rscale>  2 0.17853466E+03</rscale>
<asrwt>0</asrwt>
<pdfrwt beam="1">  1       21 0.60522895E-01 0.17853466E+03</pdfrwt>
<pdfrwt beam="2">  1       21 0.13621881E-01 0.17853466E+03</pdfrwt>
<totfact> 0.11943636E+05</totfact>
</mgrwt>
</event>
<event>
 4    1  0.4391134E+000  0.2722024E+03  0.7546771E-02  0.1100026E+00
         21   -1    0    0  501  502  0.00000000000E+00  0.00000000000E+00  0.22641619744E+03  0.22641619744E+03  0.00000000000E+00 0. -1.
         21   -1    0    0  502  503 -0.00000000000E+00 -0.00000000000E+00 -0.85869153244E+03  0.85869153244E+03  0.00000000000E+00 0. -1.
          6    1    1    2  501    0  0.26529957547E+02 -0.20847379243E+03  0.11069042095E+03  0.29384780085E+03  0.17300000000E+03 0. -1.
         -6    1    1    2    0  503 -0.26529957547E+02  0.20847379243E+03 -0.74296575594E+03  0.79125992903E+03  0.17300000000E+03 0. -1.
<mgrwt>
<rscale>  2 0.27220243E+03</rscale>
<asrwt>0</asrwt>
<pdfrwt beam="1">  1       21 0.34833261E-01 0.27220243E+03</pdfrwt>
<pdfrwt beam="2">  1       21 0.13210639E+00 0.27220243E+03</pdfrwt>
<totfact> 0.31055331E+03</totfact>
</mgrwt>
</event>
<event>
 4    1  0.4391134E+000  0.1858254E+03  0.7546771E-02  0.1162281E+00
         21   -1    0    0  501  502  0.00000000000E+00  0.00000000000E+00  0.48112964487E+03  0.48112964487E+03  0.00000000000E+00 0. -1.
         21   -1    0    0  502  503 -0.00000000000E+00 -0.00000000000E+00 -0.30525641303E+03  0.30525641303E+03  0.00000000000E+00 0. -1.
          6    1    1    2  501    0 -0.60400972855E+02 -0.30883768354E+02  0.43181385020E+03  0.47010029344E+03  0.17300000000E+03 0. -1.
         -6    1    1    2    0  503  0.60400972855E+02  0.30883768354E+02 -0.25594061836E+03  0.31628576445E+03  0.17300000000E+03 0. -1.
<mgrwt>
<rscale>  2 0.18582541E+03</rscale>
<asrwt>0</asrwt>
<pdfrwt beam="1">  1       21 0.74019945E-01 0.18582541E+03</pdfrwt>
<pdfrwt beam="2">  1       21 0.46962525E-01 0.18582541E+03</pdfrwt>
<totfact> 0.71411221E+03</totfact>
</mgrwt>
</event>
<event>
 4    1  0.4391134E+000  0.2926329E+03  0.7546771E-02  0.1088982E+00
         21   -1    0    0  501  502  0.00000000000E+00  0.00000000000E+00  0.19237376704E+03  0.19237376704E+03  0.00000000000E+00 0. -1.
         21   -1    0    0  502  503 -0.00000000000E+00 -0.00000000000E+00 -0.10307886100E+04  0.10307886100E+04  0.00000000000E+00 0.  1.
          6    1    1    2  501    0 -0.14239031707E+03  0.18822858879E+03  0.41777197184E+02  0.29559996319E+03  0.17300000000E+03 0. -1.
         -6    1    1    2    0  503  0.14239031707E+03 -0.18822858879E+03 -0.88019204013E+03  0.92756241383E+03  0.17300000000E+03 0.  1.
<mgrwt>
<rscale>  2 0.29263288E+03</rscale>
<asrwt>0</asrwt>
<pdfrwt beam="1">  1       21 0.29595964E-01 0.29263288E+03</pdfrwt>
<pdfrwt beam="2">  1       21 0.15858286E+00 0.29263288E+03</pdfrwt>
<totfact> 0.26128009E+03</totfact>
</mgrwt>
</event>
<event>
 4    1  0.4391134E+000  0.1846585E+03  0.7546771E-02  0.1163369E+00
         21   -1    0    0  501  502  0.00000000000E+00  0.00000000000E+00  0.22494539861E+03  0.22494539861E+03  0.00000000000E+00 0.  1.
         21   -1    0    0  502  503 -0.00000000000E+00 -0.00000000000E+00 -0.28150041436E+03  0.28150041436E+03  0.00000000000E+00 0.  1.
          6    1    1    2  501    0 -0.16636822748E+02  0.62393600561E+02  0.14374721285E+03  0.23401283397E+03  0.17300000000E+03 0.  1.
         -6    1    1    2    0  503  0.16636822748E+02 -0.62393600561E+02 -0.20030222860E+03  0.27243297900E+03  0.17300000000E+03 0.  1.
<mgrwt>
<rscale>  2 0.18465846E+03</rscale>
<asrwt>0</asrwt>
<pdfrwt beam="1">  1       21 0.34606985E-01 0.18465846E+03</pdfrwt>
<pdfrwt beam="2">  1       21 0.43307756E-01 0.18465846E+03</pdfrwt>
<totfact> 0.41412179E+04</totfact>
</mgrwt>
</event>
<event>
 4    1  0.4391134E+000  0.2094955E+03  0.7546771E-02  0.1141966E+00
         21   -1    0    0  503  502  0.00000000000E+00  0.00000000000E+00  0.63071286738E+03  0.63071286738E+03  0.00000000000E+00 0. -1.
         21   -1    0    0  501  503 -0.00000000000E+00 -0.00000000000E+00 -0.84874023648E+02  0.84874023648E+02  0.00000000000E+00 0. -1.
          6    1    1    2  501    0  0.59600621085E+02 -0.10201535056E+03  0.12106406683E+03  0.24196048037E+03  0.17300000000E+03 0. -1.
         -6    1    1    2    0  502 -0.59600621085E+02  0.10201535056E+03  0.42477477690E+03  0.47362641066E+03  0.17300000000E+03 0. -1.
<mgrwt>
<rscale>  2 0.20949550E+03</rscale>
<asrwt>0</asrwt>
<pdfrwt beam="1">  1       21 0.97032746E-01 0.20949550E+03</pdfrwt>
<pdfrwt beam="2">  1       21 0.13057542E-01 0.20949550E+03</pdfrwt>
<totfact> 0.44061795E+04</totfact>
</mgrwt>
</event>
<event>
 4    1  0.4391134E+000  0.2476971E+03  0.7546771E-02  0.1114769E+00
         21   -1    0    0  501  502  0.00000000000E+00  0.00000000000E+00  0.64073061077E+03  0.64073061077E+03  0.00000000000E+00 0.  1.
         21   -1    0    0  502  503 -0.00000000000E+00 -0.00000000000E+00 -0.10442246450E+03  0.10442246450E+03  0.00000000000E+00 0.  1.
          6    1    1    2  501    0  0.16260303010E+03 -0.70605428665E+02  0.37548792491E+03  0.44982780451E+03  0.17300000000E+03 0.  1.
         -6    1    1    2    0  503 -0.16260303010E+03  0.70605428665E+02  0.16082022135E+03  0.29532527076E+03  0.17300000000E+03 0.  1.
<mgrwt>
<rscale>  2 0.24769714E+03</rscale>
<asrwt>0</asrwt>
<pdfrwt beam="1">  1       21 0.98573937E-01 0.24769714E+03</pdfrwt>
<pdfrwt beam="2">  1       21 0.16064995E-01 0.24769714E+03</pdfrwt>
<totfact> 0.28553606E+04</totfact>
</mgrwt>
</event>
<event>
 4    1  0.4391134E+000  0.1833716E+03  0.7546771E-02  0.1164579E+00
         21   -1    0    0  503  502  0.00000000000E+00  0.00000000000E+00  0.18138368239E+03  0.18138368239E+03  0.00000000000E+00 0. -1.
         21   -1    0    0  501  503 -0.00000000000E+00 -0.00000000000E+00 -0.19284916882E+03  0.19284916882E+03  0.00000000000E+00 0. -1.
          6    1    1    2  501    0 -0.58415158726E+02  0.16847064498E+02 -0.42554077519E+02  0.18824453210E+03  0.17300000000E+03 0. -1.
         -6    1    1    2    0  502  0.58415158726E+02 -0.16847064498E+02  0.31088591092E+02  0.18598831911E+03  0.17300000000E+03 0. -1.
<mgrwt>
<rscale>  2 0.18337163E+03</rscale>
<asrwt>0</asrwt>
<pdfrwt beam="1">  1       21 0.27905182E-01 0.18337163E+03</pdfrwt>
<pdfrwt beam="2">  1       21 0.29669103E-01 0.18337163E+03</pdfrwt>
<totfact> 0.13395335E+05</totfact>
</mgrwt>
</event>
<event>
 4    1  0.4391134E+000  0.2409932E+03  0.7546771E-02  0.1119133E+00
         21   -1    0    0  501  502  0.00000000000E+00  0.00000000000E+00  0.13775500662E+03  0.13775500662E+03  0.00000000000E+00 0.  1.
         21   -1    0    0  502  503 -0.00000000000E+00 -0.00000000000E+00 -0.46833376306E+03  0.46833376306E+03  0.00000000000E+00 0. -1.
          6    1    1    2  501    0  0.13178421897E+03 -0.10383471977E+03 -0.69561923919E+02  0.25083179754E+03  0.17300000000E+03 0.  1.
         -6    1    1    2    0  503 -0.13178421897E+03  0.10383471977E+03 -0.26101683252E+03  0.35525697214E+03  0.17300000000E+03 0.  1.
<mgrwt>
<rscale>  2 0.24099321E+03</rscale>
<asrwt>0</asrwt>
<pdfrwt beam="1">  1       21 0.21193078E-01 0.24099321E+03</pdfrwt>
<pdfrwt beam="2">  1       21 0.72051349E-01 0.24099321E+03</pdfrwt>
<totfact> 0.35141010E+04</totfact>
</mgrwt>
</event>
<event>
 4    1  0.4391134E+000  0.1886839E+03  0.7546771E-02  0.1159654E+00
         21   -1    0    0  503  502  0.00000000000E+00  0.00000000000E+00  0.15399495183E+03  0.15399495183E+03  0.00000000000E+00 0.  1.
         21   -1    0    0  501  503 -0.00000000000E+00 -0.00000000000E+00 -0.23705388333E+03  0.23705388333E+03  0.00000000000E+00 0.  1.
          6    1    1    2  501    0 -0.10346727765E+02  0.74602555330E+02 -0.72289695534E+02  0.20205790288E+03  0.17300000000E+03 0.  1.
         -6    1    1    2    0  502  0.10346727765E+02 -0.74602555330E+02 -0.10769235963E+02  0.18899093227E+03  0.17300000000E+03 0.  1.
<mgrwt>
<rscale>  2 0.18868385E+03</rscale>
<asrwt>0</asrwt>
<pdfrwt beam="1">  1       21 0.23691531E-01 0.18868385E+03</pdfrwt>
<pdfrwt beam="2">  1       21 0.36469828E-01 0.18868385E+03</pdfrwt>
<totfact> 0.12183331E+05</totfact>
</mgrwt>
</event>
<event>
 4    1  0.4391134E+000  0.3006570E+03  0.7546771E-02  0.1084913E+00
         21   -1    0    0  503  502  0.00000000000E+00  0.00000000000E+00  0.11690954701E+03  0.11690954701E+03  0.00000000000E+00 0.  1.
         21   -1    0    0  501  503 -0.00000000000E+00 -0.00000000000E+00 -0.10785896919E+04  0.10785896919E+04  0.00000000000E+00 0.  1.
          6    1    1    2  501    0 -0.21583665571E+03 -0.11781410443E+03 -0.79890616139E+03  0.85360745068E+03  0.17300000000E+03 0.  1.
         -6    1    1    2    0  502  0.21583665571E+03  0.11781410443E+03 -0.16277398347E+03  0.34189178821E+03  0.17300000000E+03 0.  1.
<mgrwt>
<rscale>  2 0.30065699E+03</rscale>
<asrwt>0</asrwt>
<pdfrwt beam="1">  1       21 0.17986085E-01 0.30065699E+03</pdfrwt>
<pdfrwt beam="2">  1       21 0.16593687E+00 0.30065699E+03</pdfrwt>
<totfact> 0.59543871E+03</totfact>
</mgrwt>
</event>
<event>
 4    1  0.4391134E+000  0.1906486E+03  0.7546771E-02  0.1157878E+00
         21   -1    0    0  501  502  0.00000000000E+00  0.00000000000E+00  0.21316191823E+02  0.21316191823E+02  0.00000000000E+00 0.  1.
         21   -1    0    0  502  503 -0.00000000000E+00 -0.00000000000E+00 -0.21164480464E+04  0.21164480464E+04  0.00000000000E+00 0. -1.
          6    1    1    2  501    0  0.79335057786E+02  0.11127981365E+02 -0.57635564420E+03  0.60706895157E+03  0.17300000000E+03 0.  1.
         -6    1    1    2    0  503 -0.79335057786E+02 -0.11127981365E+02 -0.15187762104E+04  0.15306952867E+04  0.17300000000E+03 0. -1.
<mgrwt>
<rscale>  2 0.19064859E+03</rscale>
<asrwt>0</asrwt>
<pdfrwt beam="1">  1       21 0.32794130E-02 0.19064859E+03</pdfrwt>
<pdfrwt beam="2">  1       21 0.32560751E+00 0.19064859E+03</pdfrwt>
<totfact> 0.13286364E+04</totfact>
</mgrwt>
</event>
<event>
 4    1  0.4391134E+000  0.2057790E+03  0.7546771E-02  0.1144953E+00
         21   -1    0    0  503  502  0.00000000000E+00  0.00000000000E+00  0.27984866741E+03  0.27984866741E+03  0.00000000000E+00 0. -1.
         21   -1    0    0  501  503 -0.00000000000E+00 -0.00000000000E+00 -0.37121546975E+03  0.37121546975E+03  0.00000000000E+00 0.  1.
          6    1    1    2  501    0  0.11116537855E+03 -0.76330921567E+01 -0.29623366617E+03  0.36069293097E+03  0.17300000000E+03 0.  1.
         -6    1    1    2    0  502 -0.11116537855E+03  0.76330921567E+01  0.20486686383E+03  0.29037120618E+03  0.17300000000E+03 0. -1.
<mgrwt>
<rscale>  2 0.20577902E+03</rscale>
<asrwt>0</asrwt>
<pdfrwt beam="1">  1       21 0.43053641E-01 0.20577902E+03</pdfrwt>
<pdfrwt beam="2">  1       21 0.57110072E-01 0.20577902E+03</pdfrwt>
<totfact> 0.14814492E+04</totfact>
</mgrwt>
</event>
<event>
 4    1  0.4391134E+000  0.2416297E+03  0.7546771E-02  0.1118712E+00
         21   -1    0    0  503  502  0.00000000000E+00  0.00000000000E+00  0.12813098654E+03  0.12813098654E+03  0.00000000000E+00 0. -1.
         21   -1    0    0  501  503 -0.00000000000E+00 -0.00000000000E+00 -0.50178358235E+03  0.50178358235E+03  0.00000000000E+00 0.  1.
          6    1    1    2  501    0  0.16860538003E+03 -0.53051636957E+01 -0.28230956201E+03  0.37159602762E+03  0.17300000000E+03 0.  1.
         -6    1    1    2    0  502 -0.16860538003E+03  0.53051636957E+01 -0.91343033798E+02  0.25831854127E+03  0.17300000000E+03 0. -1.
<mgrwt>
<rscale>  2 0.24162971E+03</rscale>
<asrwt>0</asrwt>
<pdfrwt beam="1">  1       21 0.19712460E-01 0.24162971E+03</pdfrwt>
<pdfrwt beam="2">  1       21 0.77197474E-01 0.24162971E+03</pdfrwt>
<totfact> 0.34486412E+04</totfact>
</mgrwt>
</event>
<event>
 4    1  0.4391134E+000  0.1785354E+03  0.7546771E-02  0.1169228E+00
         21   -1    0    0  503  502  0.00000000000E+00  0.00000000000E+00  0.79113374977E+03  0.79113374977E+03  0.00000000000E+00 0. -1.
         21   -1    0    0  501  503 -0.00000000000E+00 -0.00000000000E+00 -0.35928312788E+03  0.35928312788E+03  0.00000000000E+00 0. -1.
          6    1    1    2  501    0  0.17409389730E+02  0.40531388435E+02 -0.32607235164E+03  0.37174999503E+03  0.17300000000E+03 0. -1.
         -6    1    1    2    0  502 -0.17409389730E+02 -0.40531388435E+02  0.75792297353E+03  0.77866688263E+03  0.17300000000E+03 0. -1.
<mgrwt>
<rscale>  2 0.17853538E+03</rscale>
<asrwt>0</asrwt>
<pdfrwt beam="1">  1       21 0.12171288E+00 0.17853538E+03</pdfrwt>
<pdfrwt beam="2">  1       21 0.55274327E-01 0.17853538E+03</pdfrwt>
<totfact> 0.15956391E+03</totfact>
</mgrwt>
</event>
<event>
 4    1  0.4391134E+000  0.1883524E+03  0.7546771E-02  0.1159956E+00
         21   -1    0    0  503  502  0.00000000000E+00  0.00000000000E+00  0.61198769346E+02  0.61198769346E+02  0.00000000000E+00 0.  1.
         21   -1    0    0  501  503 -0.00000000000E+00 -0.00000000000E+00 -0.58101650393E+03  0.58101650393E+03  0.00000000000E+00 0.  1.
          6    1    1    2  501    0 -0.65097930479E+02  0.36192538628E+02 -0.24459667282E+03  0.30871373918E+03  0.17300000000E+03 0. -1.
         -6    1    1    2    0  502  0.65097930479E+02 -0.36192538628E+02 -0.27522106177E+03  0.33350153410E+03  0.17300000000E+03 0. -1.
<mgrwt>
<rscale>  2 0.18835244E+03</rscale>
<asrwt>0</asrwt>
<pdfrwt beam="1">  1       21 0.94151952E-02 0.18835244E+03</pdfrwt>
<pdfrwt beam="2">  1       21 0.89387155E-01 0.18835244E+03</pdfrwt>
<totfact> 0.96484147E+04</totfact>
</mgrwt>
</event>
<event>
 4    1  0.4391134E+000  0.1950189E+03  0.7546771E-02  0.1154011E+00
         21   -1    0    0  501  502  0.00000000000E+00  0.00000000000E+00  0.57283288488E+02  0.57283288488E+02  0.00000000000E+00 0.  1.
         21   -1    0    0  502  503 -0.00000000000E+00 -0.00000000000E+00 -0.66887105639E+03  0.66887105639E+03  0.00000000000E+00 0. -1.
          6    1    1    2  501    0 -0.57663594288E+02 -0.69125218869E+02 -0.27460403236E+03  0.33680819553E+03  0.17300000000E+03 0.  1.
         -6    1    1    2    0  503  0.57663594288E+02  0.69125218869E+02 -0.33698373554E+03  0.38934614934E+03  0.17300000000E+03 0. -1.
<mgrwt>
<rscale>  2 0.19501894E+03</rscale>
<asrwt>0</asrwt>
<pdfrwt beam="1">  1       21 0.88128132E-02 0.19501894E+03</pdfrwt>
<pdfrwt beam="2">  1       21 0.10290324E+00 0.19501894E+03</pdfrwt>
<totfact> 0.77631410E+04</totfact>
</mgrwt>
</event>
<event>
 4    1  0.4391134E+000  0.1757584E+03  0.7546771E-02  0.1171972E+00
         21   -1    0    0  501  502  0.00000000000E+00  0.00000000000E+00  0.64496255561E+02  0.64496255561E+02  0.00000000000E+00 0.  1.
         21   -1    0    0  502  503 -0.00000000000E+00 -0.00000000000E+00 -0.97214766138E+03  0.97214766138E+03  0.00000000000E+00 0.  1.
          6    1    1    2  501    0 -0.26919679435E+02 -0.15405901809E+02 -0.84643819816E+02  0.19507841291E+03  0.17300000000E+03 0.  1.
         -6    1    1    2    0  503  0.26919679435E+02  0.15405901809E+02 -0.82300758601E+03  0.84156550403E+03  0.17300000000E+03 0.  1.
<mgrwt>
<rscale>  2 0.17575839E+03</rscale>
<asrwt>0</asrwt>
<pdfrwt beam="1">  1       21 0.99225016E-02 0.17575839E+03</pdfrwt>
<pdfrwt beam="2">  1       21 0.14956117E+00 0.17575839E+03</pdfrwt>
<totfact> 0.25055704E+04</totfact>
</mgrwt>
</event>
<event>
 4    1  0.4391134E+000  0.2438550E+03  0.7546771E-02  0.1117251E+00
         21   -1    0    0  503  502  0.00000000000E+00  0.00000000000E+00  0.11547848688E+04  0.11547848688E+04  0.00000000000E+00 0.  1.
         21   -1    0    0  501  503 -0.00000000000E+00 -0.00000000000E+00 -0.13497909646E+03  0.13497909646E+03  0.00000000000E+00 0.  1.
          6    1    1    2  501    0  0.11790467288E+03 -0.12503900859E+03  0.27373669785E+01  0.24387037281E+03  0.17300000000E+03 0.  1.
         -6    1    1    2    0  502 -0.11790467288E+03  0.12503900859E+03  0.10170684054E+04  0.10458935925E+04  0.17300000000E+03 0.  1.
<mgrwt>
<rscale>  2 0.24385501E+03</rscale>
<asrwt>0</asrwt>
<pdfrwt beam="1">  1       21 0.17765920E+00 0.24385501E+03</pdfrwt>
<pdfrwt beam="2">  1       21 0.20766016E-01 0.24385501E+03</pdfrwt>
<totfact> 0.38923928E+03</totfact>
</mgrwt>
</event>
<event>
 4    1  0.4391134E+000  0.2527180E+03  0.7546771E-02  0.1111599E+00
         21   -1    0    0  503  502  0.00000000000E+00  0.00000000000E+00  0.84245409140E+02  0.84245409140E+02  0.00000000000E+00 0.  1.
         21   -1    0    0  501  503 -0.00000000000E+00 -0.00000000000E+00 -0.99301942716E+03  0.99301942716E+03  0.00000000000E+00 0.  1.
          6    1    1    2  501    0  0.63037161672E+02  0.17310024330E+03 -0.71637043314E+03  0.75964003019E+03  0.17300000000E+03 0.  1.
         -6    1    1    2    0  502 -0.63037161672E+02 -0.17310024330E+03 -0.19240358488E+03  0.31762480611E+03  0.17300000000E+03 0.  1.
<mgrwt>
<rscale>  2 0.25271798E+03</rscale>
<asrwt>0</asrwt>
<pdfrwt beam="1">  1       21 0.12960832E-01 0.25271798E+03</pdfrwt>
<pdfrwt beam="2">  1       21 0.15277222E+00 0.25271798E+03</pdfrwt>
<totfact> 0.14000164E+04</totfact>
</mgrwt>
</event>
<event>
 4    1  0.4391134E+000  0.3600569E+03  0.7546771E-02  0.1058561E+00
         21   -1    0    0  503  502  0.00000000000E+00  0.00000000000E+00  0.18569576111E+03  0.18569576111E+03  0.00000000000E+00 0.  1.
         21   -1    0    0  501  503 -0.00000000000E+00 -0.00000000000E+00 -0.79509582412E+03  0.79509582412E+03  0.00000000000E+00 0.  1.
          6    1    1    2  501    0 -0.27476319658E+03 -0.15561852131E+03 -0.47595074763E+03  0.59679984294E+03  0.17300000000E+03 0.  1.
         -6    1    1    2    0  502  0.27476319658E+03  0.15561852131E+03 -0.13344931538E+03  0.38399174229E+03  0.17300000000E+03 0.  1.
<mgrwt>
<rscale>  2 0.36005685E+03</rscale>
<asrwt>0</asrwt>
<pdfrwt beam="1">  1       21 0.28568579E-01 0.36005685E+03</pdfrwt>
<pdfrwt beam="2">  1       21 0.12232243E+00 0.36005685E+03</pdfrwt>
<totfact> 0.53502572E+03</totfact>
</mgrwt>
</event>
<event>
 4    1  0.4391134E+000  0.1772587E+03  0.7546771E-02  0.1170483E+00
         21   -1    0    0  501  502  0.00000000000E+00  0.00000000000E+00  0.25597727142E+02  0.25597727142E+02  0.00000000000E+00 0.  1.
         21   -1    0    0  502  503 -0.00000000000E+00 -0.00000000000E+00 -0.13790235877E+04  0.13790235877E+04  0.00000000000E+00 0.  1.
          6    1    1    2  501    0 -0.37929458280E+02 -0.72803413648E+01 -0.44389573923E+03  0.47797915695E+03  0.17300000000E+03 0.  1.
         -6    1    1    2    0  503  0.37929458280E+02  0.72803413648E+01 -0.90953012137E+03  0.92664215793E+03  0.17300000000E+03 0.  1.
<mgrwt>
<rscale>  2 0.17725870E+03</rscale>
<asrwt>0</asrwt>
<pdfrwt beam="1">  1       21 0.39381125E-02 0.17725870E+03</pdfrwt>
<pdfrwt beam="2">  1       21 0.21215744E+00 0.17725870E+03</pdfrwt>
<totfact> 0.45738912E+04</totfact>
</mgrwt>
</event>
<event>
 4    1  0.4391134E+000  0.2090108E+03  0.7546771E-02  0.1142352E+00
         21   -1    0    0  503  502  0.00000000000E+00  0.00000000000E+00  0.30390219150E+03  0.30390219150E+03  0.00000000000E+00 0. -1.
         21   -1    0    0  501  503 -0.00000000000E+00 -0.00000000000E+00 -0.15696994979E+03  0.15696994979E+03  0.00000000000E+00 0. -1.
          6    1    1    2  501    0 -0.48299244543E+02 -0.10688165878E+03  0.65885389910E+01  0.20911459742E+03  0.17300000000E+03 0. -1.
         -6    1    1    2    0  502  0.48299244543E+02  0.10688165878E+03  0.14034370272E+03  0.25175754388E+03  0.17300000000E+03 0. -1.
<mgrwt>
<rscale>  2 0.20901078E+03</rscale>
<asrwt>0</asrwt>
<pdfrwt beam="1">  1       21 0.46754183E-01 0.20901078E+03</pdfrwt>
<pdfrwt beam="2">  1       21 0.24149223E-01 0.20901078E+03</pdfrwt>
<totfact> 0.70352681E+04</totfact>
</mgrwt>
</event>
<event>
 4    1  0.4391134E+000  0.1995150E+03  0.7546771E-02  0.1150149E+00
         21   -1    0    0  501  502  0.00000000000E+00  0.00000000000E+00  0.42353837268E+03  0.42353837268E+03  0.00000000000E+00 0.  1.
         21   -1    0    0  502  503 -0.00000000000E+00 -0.00000000000E+00 -0.11566458081E+03  0.11566458081E+03  0.00000000000E+00 0.  1.
          6    1    1    2  501    0 -0.94315102745E+02  0.31335531253E+02  0.27065749528E+03  0.33624653735E+03  0.17300000000E+03 0.  1.
         -6    1    1    2    0  503  0.94315102745E+02 -0.31335531253E+02  0.37216296587E+02  0.20295641615E+03  0.17300000000E+03 0.  1.
<mgrwt>
<rscale>  2 0.19951505E+03</rscale>
<asrwt>0</asrwt>
<pdfrwt beam="1">  1       21 0.65159749E-01 0.19951505E+03</pdfrwt>
<pdfrwt beam="2">  1       21 0.17794551E-01 0.19951505E+03</pdfrwt>
<totfact> 0.61970577E+04</totfact>
</mgrwt>
</event>
<event>
 4    1  0.4391134E+000  0.2367704E+03  0.7546771E-02  0.1121963E+00
         21   -1    0    0  501  502  0.00000000000E+00  0.00000000000E+00  0.98797108467E+02  0.98797108467E+02  0.00000000000E+00 0. -1.
         21   -1    0    0  502  503 -0.00000000000E+00 -0.00000000000E+00 -0.58972879165E+03  0.58972879165E+03  0.00000000000E+00 0.  1.
          6    1    1    2  501    0 -0.12700800337E+03  0.10000084555E+03 -0.17851923617E+03  0.29652878395E+03  0.17300000000E+03 0. -1.
         -6    1    1    2    0  503  0.12700800337E+03 -0.10000084555E+03 -0.31241244701E+03  0.39199711616E+03  0.17300000000E+03 0.  1.
<mgrwt>
<rscale>  2 0.23677036E+03</rscale>
<asrwt>0</asrwt>
<pdfrwt beam="1">  1       21 0.15199555E-01 0.23677036E+03</pdfrwt>
<pdfrwt beam="2">  1       21 0.90727509E-01 0.23677036E+03</pdfrwt>
<totfact> 0.38622251E+04</totfact>
</mgrwt>
</event>
<event>
 4    1  0.4391134E+000  0.2414179E+03  0.7546771E-02  0.1118852E+00
         21   -1    0    0  501  502  0.00000000000E+00  0.00000000000E+00  0.33438838417E+03  0.33438838417E+03  0.00000000000E+00 0. -1.
         21   -1    0    0  502  503 -0.00000000000E+00 -0.00000000000E+00 -0.24712893276E+03  0.24712893276E+03  0.00000000000E+00 0. -1.
          6    1    1    2  501    0  0.13053613933E+03 -0.10636698475E+03 -0.11421650367E+03  0.26707307769E+03  0.17300000000E+03 0. -1.
         -6    1    1    2    0  503 -0.13053613933E+03  0.10636698475E+03  0.20147595508E+03  0.31444423924E+03  0.17300000000E+03 0. -1.
<mgrwt>
<rscale>  2 0.24141793E+03</rscale>
<asrwt>0</asrwt>
<pdfrwt beam="1">  1       21 0.51444367E-01 0.24141793E+03</pdfrwt>
<pdfrwt beam="2">  1       21 0.38019836E-01 0.24141793E+03</pdfrwt>
<totfact> 0.23332627E+04</totfact>
</mgrwt>
</event>
<event>
 4    1  0.4391134E+000  0.1835025E+03  0.7546771E-02  0.1164456E+00
         21   -1    0    0  503  502  0.00000000000E+00  0.00000000000E+00  0.56145003862E+03  0.56145003862E+03  0.00000000000E+00 0. -1.
         21   -1    0    0  501  503 -0.00000000000E+00 -0.00000000000E+00 -0.14509753981E+03  0.14509753981E+03  0.00000000000E+00 0. -1.
          6    1    1    2  501    0 -0.28279763460E+02 -0.54262495949E+02 -0.62408167527E+02  0.19382451564E+03  0.17300000000E+03 0. -1.
         -6    1    1    2    0  502  0.28279763460E+02  0.54262495949E+02  0.47876066634E+03  0.51272306280E+03  0.17300000000E+03 0. -1.
<mgrwt>
<rscale>  2 0.18350249E+03</rscale>
<asrwt>0</asrwt>
<pdfrwt beam="1">  1       21 0.86376927E-01 0.18350249E+03</pdfrwt>
<pdfrwt beam="2">  1       21 0.22322699E-01 0.18350249E+03</pdfrwt>
<totfact> 0.21808126E+04</totfact>
</mgrwt>
</event>
<event>
 4    1  0.4391134E+000  0.2526023E+03  0.7546771E-02  0.1111671E+00
         21   -1    0    0  503  502  0.00000000000E+00  0.00000000000E+00  0.52200135200E+03  0.52200135200E+03  0.00000000000E+00 0.  1.
         21   -1    0    0  501  503 -0.00000000000E+00 -0.00000000000E+00 -0.12230531359E+03  0.12230531359E+03  0.00000000000E+00 0.  1.
          6    1    1    2  501    0 -0.13114974923E+03 -0.12914595798E+03  0.19224033097E+03  0.31743389869E+03  0.17300000000E+03 0.  1.
         -6    1    1    2    0  502  0.13114974923E+03  0.12914595798E+03  0.20745570745E+03  0.32687276690E+03  0.17300000000E+03 0.  1.
<mgrwt>
<rscale>  2 0.25260233E+03</rscale>
<asrwt>0</asrwt>
<pdfrwt beam="1">  1       21 0.80307899E-01 0.25260233E+03</pdfrwt>
<pdfrwt beam="2">  1       21 0.18816202E-01 0.25260233E+03</pdfrwt>
<totfact> 0.34234804E+04</totfact>
</mgrwt>
</event>
<event>
 4    1  0.4391134E+000  0.2332570E+03  0.7546771E-02  0.1124368E+00
         21   -1    0    0  503  502  0.00000000000E+00  0.00000000000E+00  0.48753817293E+03  0.48753817293E+03  0.00000000000E+00 0.  1.
         21   -1    0    0  501  503 -0.00000000000E+00 -0.00000000000E+00 -0.53046700361E+03  0.53046700361E+03  0.00000000000E+00 0.  1.
          6    1    1    2  501    0 -0.14725854271E+03 -0.52865300659E+02 -0.47376728999E+03  0.52807600161E+03  0.17300000000E+03 0.  1.
         -6    1    1    2    0  502  0.14725854271E+03  0.52865300659E+02  0.43083845931E+03  0.48992917492E+03  0.17300000000E+03 0.  1.
<mgrwt>
<rscale>  2 0.23325698E+03</rscale>
<asrwt>0</asrwt>
<pdfrwt beam="1">  1       21 0.75005872E-01 0.23325698E+03</pdfrwt>
<pdfrwt beam="2">  1       21 0.81610309E-01 0.23325698E+03</pdfrwt>
<totfact> 0.20194600E+03</totfact>
</mgrwt>
</event>
<event>
 4    1  0.4391134E+000  0.3235999E+03  0.7546771E-02  0.1074004E+00
         21   -1    0    0  501  502  0.00000000000E+00  0.00000000000E+00  0.11796692200E+03  0.11796692200E+03  0.00000000000E+00 0.  1.
         21   -1    0    0  502  503 -0.00000000000E+00 -0.00000000000E+00 -0.10108178574E+04  0.10108178574E+04  0.00000000000E+00 0. -1.
          6    1    1    2  501    0 -0.21972462616E+03 -0.16281582014E+03 -0.24943731200E+03  0.40857786926E+03  0.17300000000E+03 0.  1.
         -6    1    1    2    0  503  0.21972462616E+03  0.16281582014E+03 -0.64341362336E+03  0.72020691010E+03  0.17300000000E+03 0. -1.
<mgrwt>
<rscale>  2 0.32359991E+03</rscale>
<asrwt>0</asrwt>
<pdfrwt beam="1">  1       21 0.18148757E-01 0.32359991E+03</pdfrwt>
<pdfrwt beam="2">  1       21 0.15551044E+00 0.32359991E+03</pdfrwt>
<totfact> 0.69177560E+03</totfact>
</mgrwt>
</event>
<event>
 4    1  0.4391134E+000  0.2267261E+03  0.7546771E-02  0.1128966E+00
         21   -1    0    0  501  502  0.00000000000E+00  0.00000000000E+00  0.15447353731E+03  0.15447353731E+03  0.00000000000E+00 0. -1.
         21   -1    0    0  502  503 -0.00000000000E+00 -0.00000000000E+00 -0.37214894912E+03  0.37214894912E+03  0.00000000000E+00 0.  1.
          6    1    1    2  501    0  0.57312662411E+02  0.13487388894E+03 -0.23188469233E+02  0.22790878065E+03  0.17300000000E+03 0. -1.
         -6    1    1    2    0  503 -0.57312662411E+02 -0.13487388894E+03 -0.19448694258E+03  0.29871370579E+03  0.17300000000E+03 0.  1.
<mgrwt>
<rscale>  2 0.22672606E+03</rscale>
<asrwt>0</asrwt>
<pdfrwt beam="1">  1       21 0.23765160E-01 0.22672606E+03</pdfrwt>
<pdfrwt beam="2">  1       21 0.57253685E-01 0.22672606E+03</pdfrwt>
<totfact> 0.47009266E+04</totfact>
</mgrwt>
</event>
<event>
 4    1  0.4391134E+000  0.2580121E+03  0.7546771E-02  0.1108344E+00
         21   -1    0    0  503  502  0.00000000000E+00  0.00000000000E+00  0.74918467655E+02  0.74918467655E+02  0.00000000000E+00 0. -1.
         21   -1    0    0  501  503 -0.00000000000E+00 -0.00000000000E+00 -0.11625005995E+04  0.11625005995E+04  0.00000000000E+00 0.  1.
          6    1    1    2  501    0 -0.16934710917E+03 -0.89234559186E+02 -0.84412959442E+03  0.88268058895E+03  0.17300000000E+03 0.  1.
         -6    1    1    2    0  502  0.16934710917E+03  0.89234559186E+02 -0.24345253742E+03  0.35473847819E+03  0.17300000000E+03 0. -1.
<mgrwt>
<rscale>  2 0.25801211E+03</rscale>
<asrwt>0</asrwt>
<pdfrwt beam="1">  1       21 0.11525918E-01 0.25801211E+03</pdfrwt>
<pdfrwt beam="2">  1       21 0.17884625E+00 0.25801211E+03</pdfrwt>
<totfact> 0.11162994E+04</totfact>
</mgrwt>
</event>
<event>
 4    1  0.4391134E+000  0.2141429E+03  0.7546771E-02  0.1138327E+00
         21   -1    0    0  501  502  0.00000000000E+00  0.00000000000E+00  0.30337304547E+03  0.30337304547E+03  0.00000000000E+00 0.  1.
         21   -1    0    0  502  503 -0.00000000000E+00 -0.00000000000E+00 -0.23553055316E+03  0.23553055316E+03  0.00000000000E+00 0.  1.
          6    1    1    2  501    0  0.61962056029E+02 -0.10994946070E+03  0.19519316661E+03  0.28975429692E+03  0.17300000000E+03 0.  1.
         -6    1    1    2    0  503 -0.61962056029E+02  0.10994946070E+03 -0.12735067430E+03  0.24914930171E+03  0.17300000000E+03 0.  1.
<mgrwt>
<rscale>  2 0.21414290E+03</rscale>
<asrwt>0</asrwt>
<pdfrwt beam="1">  1       21 0.46672776E-01 0.21414290E+03</pdfrwt>
<pdfrwt beam="2">  1       21 0.36235470E-01 0.21414290E+03</pdfrwt>
<totfact> 0.31916624E+04</totfact>
</mgrwt>
</event>
<event>
 4    1  0.4391134E+000  0.1932777E+03  0.7546771E-02  0.1155538E+00
         21   -1    0    0  503  502  0.00000000000E+00  0.00000000000E+00  0.24808415348E+03  0.24808415348E+03  0.00000000000E+00 0. -1.
         21   -1    0    0  501  503 -0.00000000000E+00 -0.00000000000E+00 -0.39253912390E+03  0.39253912390E+03  0.00000000000E+00 0. -1.
          6    1    1    2  501    0  0.66154379316E+02  0.55234799143E+02 -0.32370726263E+03  0.37701813858E+03  0.17300000000E+03 0. -1.
         -6    1    1    2    0  502 -0.66154379316E+02 -0.55234799143E+02  0.17925229221E+03  0.26360513880E+03  0.17300000000E+03 0. -1.
<mgrwt>
<rscale>  2 0.19327774E+03</rscale>
<asrwt>0</asrwt>
<pdfrwt beam="1">  1       21 0.38166793E-01 0.19327774E+03</pdfrwt>
<pdfrwt beam="2">  1       21 0.60390634E-01 0.19327774E+03</pdfrwt>
<totfact> 0.16911342E+04</totfact>
</mgrwt>
</event>
<event>
 4    1  0.4391134E+000  0.2162454E+03  0.7546771E-02  0.1136714E+00
         21   -1    0    0  501  502  0.00000000000E+00  0.00000000000E+00  0.58554120719E+02  0.58554120719E+02  0.00000000000E+00 0. -1.
         21   -1    0    0  502  503 -0.00000000000E+00 -0.00000000000E+00 -0.82810423300E+03  0.82810423300E+03  0.00000000000E+00 0.  1.
          6    1    1    2  501    0  0.12514691571E+03  0.34224323162E+02 -0.30111200521E+03  0.37071619130E+03  0.17300000000E+03 0.  1.
         -6    1    1    2    0  503 -0.12514691571E+03 -0.34224323162E+02 -0.46843810707E+03  0.51594216242E+03  0.17300000000E+03 0.  1.
<mgrwt>
<rscale>  2 0.21624536E+03</rscale>
<asrwt>0</asrwt>
<pdfrwt beam="1">  1       21 0.90083266E-02 0.21624536E+03</pdfrwt>
<pdfrwt beam="2">  1       21 0.12740065E+00 0.21624536E+03</pdfrwt>
<totfact> 0.43790260E+04</totfact>
</mgrwt>
</event>
<event>
 4    1  0.4391134E+000  0.1853345E+03  0.7546771E-02  0.1162738E+00
         21   -1    0    0  501  502  0.00000000000E+00  0.00000000000E+00  0.64299944108E+02  0.64299944108E+02  0.00000000000E+00 0.  1.
         21   -1    0    0  502  503 -0.00000000000E+00 -0.00000000000E+00 -0.54041299109E+03  0.54041299109E+03  0.00000000000E+00 0.  1.
          6    1    1    2  501    0 -0.11021130475E+02 -0.65562200183E+02 -0.27048265756E+03  0.32788677230E+03  0.17300000000E+03 0.  1.
         -6    1    1    2    0  503  0.11021130475E+02  0.65562200183E+02 -0.20563038942E+03  0.27682616289E+03  0.17300000000E+03 0.  1.
<mgrwt>
<rscale>  2 0.18533447E+03</rscale>
<asrwt>0</asrwt>
<pdfrwt beam="1">  1       21 0.98922989E-02 0.18533447E+03</pdfrwt>
<pdfrwt beam="2">  1       21 0.83140461E-01 0.18533447E+03</pdfrwt>
<totfact> 0.10453941E+05</totfact>
</mgrwt>
</event>
<event>
 4    1  0.4391134E+000  0.2096825E+03  0.7546771E-02  0.1141818E+00
         21   -1    0    0  503  502  0.00000000000E+00  0.00000000000E+00  0.16263153811E+03  0.16263153811E+03  0.00000000000E+00 0. -1.
         21   -1    0    0  501  503 -0.00000000000E+00 -0.00000000000E+00 -0.57408026975E+03  0.57408026975E+03  0.00000000000E+00 0. -1.
          6    1    1    2  501    0 -0.84954964245E+02  0.82585733199E+02 -0.47365870819E+03  0.51799548369E+03  0.17300000000E+03 0. -1.
         -6    1    1    2    0  502  0.84954964245E+02 -0.82585733199E+02  0.62209976546E+02  0.21871632417E+03  0.17300000000E+03 0. -1.
<mgrwt>
<rscale>  2 0.20968250E+03</rscale>
<asrwt>0</asrwt>
<pdfrwt beam="1">  1       21 0.25020237E-01 0.20968250E+03</pdfrwt>
<pdfrwt beam="2">  1       21 0.88320042E-01 0.20968250E+03</pdfrwt>
<totfact> 0.16417938E+04</totfact>
</mgrwt>
</event>
<event>
 4    1  0.4391134E+000  0.1975902E+03  0.7546771E-02  0.1151788E+00
         21   -1    0    0  503  502  0.00000000000E+00  0.00000000000E+00  0.52174853347E+02  0.52174853347E+02  0.00000000000E+00 0. -1.
         21   -1    0    0  501  503 -0.00000000000E+00 -0.00000000000E+00 -0.75213301074E+03  0.75213301074E+03  0.00000000000E+00 0. -1.
          6    1    1    2  501    0 -0.83666606261E+02 -0.45965123300E+02 -0.37872726939E+03  0.42717237521E+03  0.17300000000E+03 0.  1.
         -6    1    1    2    0  502  0.83666606261E+02  0.45965123300E+02 -0.32123088800E+03  0.37713548888E+03  0.17300000000E+03 0.  1.
<mgrwt>
<rscale>  2 0.19759022E+03</rscale>
<asrwt>0</asrwt>
<pdfrwt beam="1">  1       21 0.80269012E-02 0.19759022E+03</pdfrwt>
<pdfrwt beam="2">  1       21 0.11571276E+00 0.19759022E+03</pdfrwt>
<totfact> 0.68730068E+04</totfact>
</mgrwt>
</event>
<event>
 4    1  0.4391134E+000  0.1865694E+03  0.7546771E-02  0.1161592E+00
         21   -1    0    0  503  502  0.00000000000E+00  0.00000000000E+00  0.13001183918E+03  0.13001183918E+03  0.00000000000E+00 0.  1.
         21   -1    0    0  501  503 -0.00000000000E+00 -0.00000000000E+00 -0.53487690041E+03  0.53487690041E+03  0.00000000000E+00 0. -1.
          6    1    1    2  501    0  0.35463237159E+02  0.60178874856E+02 -0.43737779880E+03  0.47550759937E+03  0.17300000000E+03 0. -1.
         -6    1    1    2    0  502 -0.35463237159E+02 -0.60178874856E+02  0.32512737578E+02  0.18938114023E+03  0.17300000000E+03 0.  1.
<mgrwt>
<rscale>  2 0.18656939E+03</rscale>
<asrwt>0</asrwt>
<pdfrwt beam="1">  1       21 0.20001821E-01 0.18656939E+03</pdfrwt>
<pdfrwt beam="2">  1       21 0.82288754E-01 0.18656939E+03</pdfrwt>
<totfact> 0.29875921E+04</totfact>
</mgrwt>
</event>
<event>
 4    1  0.4391134E+000  0.2364503E+03  0.7546771E-02  0.1122180E+00
         21   -1    0    0  501  502  0.00000000000E+00  0.00000000000E+00  0.27393392786E+04  0.27393392786E+04  0.00000000000E+00 0.  1.
         21   -1    0    0  502  503 -0.00000000000E+00 -0.00000000000E+00 -0.22279015401E+02  0.22279015401E+02  0.00000000000E+00 0.  1.
          6    1    1    2  501    0  0.38996806272E+02  0.15639364144E+03  0.95854607747E+03  0.98727873704E+03  0.17300000000E+03 0.  1.
         -6    1    1    2    0  503 -0.38996806272E+02 -0.15639364144E+03  0.17585141857E+04  0.17743395570E+04  0.17300000000E+03 0.  1.
<mgrwt>
<rscale>  2 0.23645025E+03</rscale>
<asrwt>0</asrwt>
<pdfrwt beam="1">  1       21 0.42143654E+00 0.23645025E+03</pdfrwt>
<pdfrwt beam="2">  1       21 0.34275430E-02 0.23645025E+03</pdfrwt>
<totfact> 0.30567289E+03</totfact>
</mgrwt>
</event>
<event>
 4    1  0.4391134E+000  0.1886223E+03  0.7546771E-02  0.1159710E+00
         21   -1    0    0  503  502  0.00000000000E+00  0.00000000000E+00  0.12710098197E+03  0.12710098197E+03  0.00000000000E+00 0. -1.
         21   -1    0    0  501  503 -0.00000000000E+00 -0.00000000000E+00 -0.29084001640E+03  0.29084001640E+03  0.00000000000E+00 0.  1.
          6    1    1    2  501    0  0.27356410526E+00  0.75161874896E+02 -0.12235752925E+03  0.22483270945E+03  0.17300000000E+03 0.  1.
         -6    1    1    2    0  502 -0.27356410526E+00 -0.75161874896E+02 -0.41381505176E+02  0.19310828891E+03  0.17300000000E+03 0. -1.
<mgrwt>
<rscale>  2 0.18862233E+03</rscale>
<asrwt>0</asrwt>
<pdfrwt beam="1">  1       21 0.19553997E-01 0.18862233E+03</pdfrwt>
<pdfrwt beam="2">  1       21 0.44744617E-01 0.18862233E+03</pdfrwt>
<totfact> 0.11559247E+05</totfact>
</mgrwt>
</event>
<event>
 4    1  0.4391134E+000  0.2502613E+03  0.7546771E-02  0.1113140E+00
         21   -1    0    0  501  502  0.00000000000E+00  0.00000000000E+00  0.13111678895E+03  0.13111678895E+03  0.00000000000E+00 0. -1.
         21   -1    0    0  502  503 -0.00000000000E+00 -0.00000000000E+00 -0.75626452714E+03  0.75626452714E+03  0.00000000000E+00 0.  1.
          6    1    1    2  501    0 -0.16171138725E+03  0.80939230359E+02 -0.43278634390E+02  0.25397592794E+03  0.17300000000E+03 0. -1.
         -6    1    1    2    0  503  0.16171138725E+03 -0.80939230359E+02 -0.58186910380E+03  0.63340538815E+03  0.17300000000E+03 0.  1.
<mgrwt>
<rscale>  2 0.25026133E+03</rscale>
<asrwt>0</asrwt>
<pdfrwt beam="1">  1       21 0.20171813E-01 0.25026133E+03</pdfrwt>
<pdfrwt beam="2">  1       21 0.11634839E+00 0.25026133E+03</pdfrwt>
<totfact> 0.12486445E+04</totfact>
</mgrwt>
</event>
<event>
 4    1  0.4391134E+000  0.1932026E+03  0.7546771E-02  0.1155604E+00
         21   -1    0    0  503  502  0.00000000000E+00  0.00000000000E+00  0.42352631694E+03  0.42352631694E+03  0.00000000000E+00 0.  1.
         21   -1    0    0  501  503 -0.00000000000E+00 -0.00000000000E+00 -0.91283277660E+02  0.91283277660E+02  0.00000000000E+00 0.  1.
          6    1    1    2  501    0  0.86000820516E+02  0.14552477523E+01  0.11831407942E+03  0.22655127514E+03  0.17300000000E+03 0. -1.
         -6    1    1    2    0  502 -0.86000820516E+02 -0.14552477523E+01  0.21392895986E+03  0.28825831946E+03  0.17300000000E+03 0. -1.
<mgrwt>
<rscale>  2 0.19320264E+03</rscale>
<asrwt>0</asrwt>
<pdfrwt beam="1">  1       21 0.65157894E-01 0.19320264E+03</pdfrwt>
<pdfrwt beam="2">  1       21 0.14043581E-01 0.19320264E+03</pdfrwt>
<totfact> 0.95843043E+04</totfact>
</mgrwt>
</event>
<event>
 4    1  0.4391134E+000  0.1901547E+03  0.7546771E-02  0.1158322E+00
         21   -1    0    0  503  502  0.00000000000E+00  0.00000000000E+00  0.11342215591E+03  0.11342215591E+03  0.00000000000E+00 0. -1.
         21   -1    0    0  501  503 -0.00000000000E+00 -0.00000000000E+00 -0.33250696245E+03  0.33250696245E+03  0.00000000000E+00 0. -1.
          6    1    1    2  501    0 -0.72280046949E+02  0.31708202185E+02 -0.15481438904E+03  0.24520666860E+03  0.17300000000E+03 0. -1.
         -6    1    1    2    0  502  0.72280046949E+02 -0.31708202185E+02 -0.64270417499E+02  0.20072244976E+03  0.17300000000E+03 0. -1.
<mgrwt>
<rscale>  2 0.19015471E+03</rscale>
<asrwt>0</asrwt>
<pdfrwt beam="1">  1       21 0.17449562E-01 0.19015471E+03</pdfrwt>
<pdfrwt beam="2">  1       21 0.51154918E-01 0.19015471E+03</pdfrwt>
<totfact> 0.10811980E+05</totfact>
</mgrwt>
</event>
<event>
 4    1  0.4391134E+000  0.1852835E+03  0.7546771E-02  0.1162785E+00
         21   -1    0    0  501  502  0.00000000000E+00  0.00000000000E+00  0.34980605355E+03  0.34980605355E+03  0.00000000000E+00 0. -1.
         21   -1    0    0  502  503 -0.00000000000E+00 -0.00000000000E+00 -0.12628643362E+03  0.12628643362E+03  0.00000000000E+00 0. -1.
          6    1    1    2  501    0  0.59668819271E+01 -0.66070822378E+02  0.22414132053E+03  0.29080799305E+03  0.17300000000E+03 0. -1.
         -6    1    1    2    0  503 -0.59668819271E+01  0.66070822378E+02 -0.62170060199E+00  0.18528449412E+03  0.17300000000E+03 0. -1.
<mgrwt>
<rscale>  2 0.18528345E+03</rscale>
<asrwt>0</asrwt>
<pdfrwt beam="1">  1       21 0.53816316E-01 0.18528345E+03</pdfrwt>
<pdfrwt beam="2">  1       21 0.19428682E-01 0.18528345E+03</pdfrwt>
<totfact> 0.79813117E+04</totfact>
</mgrwt>
</event>
<event>
 4    1  0.4391134E+000  0.1787124E+03  0.7546771E-02  0.1169055E+00
         21   -1    0    0  503  502  0.00000000000E+00  0.00000000000E+00  0.34999575986E+03  0.34999575986E+03  0.00000000000E+00 0.  1.
         21   -1    0    0  501  503 -0.00000000000E+00 -0.00000000000E+00 -0.12288808715E+03  0.12288808715E+03  0.00000000000E+00 0. -1.
          6    1    1    2  501    0  0.42606246854E+02 -0.13922149720E+02 -0.64112809551E+01  0.17882735542E+03  0.17300000000E+03 0. -1.
         -6    1    1    2    0  502 -0.42606246854E+02  0.13922149720E+02  0.23351895367E+03  0.29405649159E+03  0.17300000000E+03 0.  1.
<mgrwt>
<rscale>  2 0.17871239E+03</rscale>
<asrwt>0</asrwt>
<pdfrwt beam="1">  1       21 0.53845501E-01 0.17871239E+03</pdfrwt>
<pdfrwt beam="2">  1       21 0.18905860E-01 0.17871239E+03</pdfrwt>
<totfact> 0.84093064E+04</totfact>
</mgrwt>
</event>
<event>
 4    1  0.4391134E+000  0.2848655E+03  0.7546771E-02  0.1093061E+00
         21   -1    0    0  503  502  0.00000000000E+00  0.00000000000E+00  0.22026516397E+04  0.22026516397E+04  0.00000000000E+00 0. -1.
         21   -1    0    0  501  503 -0.00000000000E+00 -0.00000000000E+00 -0.72973680548E+02  0.72973680548E+02  0.00000000000E+00 0.  1.
          6    1    1    2  501    0 -0.19366392379E+03  0.11710526959E+03  0.26420052904E+03  0.38852320277E+03  0.17300000000E+03 0.  1.
         -6    1    1    2    0  502  0.19366392379E+03 -0.11710526959E+03  0.18654774301E+04  0.18871021175E+04  0.17300000000E+03 0. -1.
<mgrwt>
<rscale>  2 0.28486551E+03</rscale>
<asrwt>0</asrwt>
<pdfrwt beam="1">  1       21 0.33886943E+00 0.28486551E+03</pdfrwt>
<pdfrwt beam="2">  1       21 0.11226722E-01 0.28486551E+03</pdfrwt>
<totfact> 0.12081080E+03</totfact>
</mgrwt>
</event>
<event>
 4    1  0.4391134E+000  0.1779796E+03  0.7546771E-02  0.1169773E+00
         21   -1    0    0  503  502  0.00000000000E+00  0.00000000000E+00  0.91982444731E+03  0.91982444731E+03  0.00000000000E+00 0. -1.
         21   -1    0    0  501  503 -0.00000000000E+00 -0.00000000000E+00 -0.45448737635E+02  0.45448737635E+02  0.00000000000E+00 0. -1.
          6    1    1    2  501    0 -0.14142542914E+02 -0.39341170596E+02  0.19962896076E+03  0.26744805327E+03  0.17300000000E+03 0. -1.
         -6    1    1    2    0  502  0.14142542914E+02  0.39341170596E+02  0.67474674891E+03  0.69782513167E+03  0.17300000000E+03 0. -1.
<mgrwt>
<rscale>  2 0.17797960E+03</rscale>
<asrwt>0</asrwt>
<pdfrwt beam="1">  1       21 0.14151144E+00 0.17797960E+03</pdfrwt>
<pdfrwt beam="2">  1       21 0.69921141E-02 0.17797960E+03</pdfrwt>
<totfact> 0.53168543E+04</totfact>
</mgrwt>
</event>
<event>
 4    1  0.4391134E+000  0.2314184E+03  0.7546771E-02  0.1125645E+00
         21   -1    0    0  501  502  0.00000000000E+00  0.00000000000E+00  0.59827437612E+02  0.59827437612E+02  0.00000000000E+00 0. -1.
         21   -1    0    0  502  503 -0.00000000000E+00 -0.00000000000E+00 -0.95703869186E+03  0.95703869186E+03  0.00000000000E+00 0. -1.
          6    1    1    2  501    0  0.52016023723E+02 -0.14463688643E+03 -0.57789914449E+03  0.62251258368E+03  0.17300000000E+03 0. -1.
         -6    1    1    2    0  503 -0.52016023723E+02  0.14463688643E+03 -0.31931210976E+03  0.39435354579E+03  0.17300000000E+03 0. -1.
<mgrwt>
<rscale>  2 0.23141844E+03</rscale>
<asrwt>0</asrwt>
<pdfrwt beam="1">  1       21 0.92042222E-02 0.23141844E+03</pdfrwt>
<pdfrwt beam="2">  1       21 0.14723670E+00 0.23141844E+03</pdfrwt>
<totfact> 0.28801362E+04</totfact>
</mgrwt>
</event>
<event>
 4    1  0.4391134E+000  0.1812523E+03  0.7546771E-02  0.1166597E+00
         21   -1    0    0  503  502  0.00000000000E+00  0.00000000000E+00  0.38023806912E+03  0.38023806912E+03  0.00000000000E+00 0. -1.
         21   -1    0    0  501  503 -0.00000000000E+00 -0.00000000000E+00 -0.18374204942E+03  0.18374204942E+03  0.00000000000E+00 0. -1.
          6    1    1    2  501    0  0.26058612559E+02 -0.47374376517E+02 -0.10700089887E+03  0.21047939376E+03  0.17300000000E+03 0. -1.
         -6    1    1    2    0  502 -0.26058612559E+02  0.47374376517E+02  0.30349691857E+03  0.35350072478E+03  0.17300000000E+03 0. -1.
<mgrwt>
<rscale>  2 0.18125226E+03</rscale>
<asrwt>0</asrwt>
<pdfrwt beam="1">  1       21 0.58498164E-01 0.18125226E+03</pdfrwt>
<pdfrwt beam="2">  1       21 0.28268008E-01 0.18125226E+03</pdfrwt>
<totfact> 0.32921174E+04</totfact>
</mgrwt>
</event>
<event>
 4    1  0.4391134E+000  0.1751864E+03  0.7546771E-02  0.1172545E+00
         21   -1    0    0  501  502  0.00000000000E+00  0.00000000000E+00  0.17655890149E+03  0.17655890149E+03  0.00000000000E+00 0.  1.
         21   -1    0    0  502  503 -0.00000000000E+00 -0.00000000000E+00 -0.10525396217E+04  0.10525396217E+04  0.00000000000E+00 0.  1.
          6    1    1    2  501    0  0.25883580636E+02 -0.95567430902E+01  0.12352479856E+03  0.21435640169E+03  0.17300000000E+03 0.  1.
         -6    1    1    2    0  503 -0.25883580636E+02  0.95567430902E+01 -0.99950551874E+03  0.10147421215E+04  0.17300000000E+03 0.  1.
<mgrwt>
<rscale>  2 0.17518645E+03</rscale>
<asrwt>0</asrwt>
<pdfrwt beam="1">  1       21 0.27162908E-01 0.17518645E+03</pdfrwt>
<pdfrwt beam="2">  1       21 0.16192917E+00 0.17518645E+03</pdfrwt>
<totfact> 0.32005565E+03</totfact>
</mgrwt>
</event>
<event>
 4    1  0.4391134E+000  0.2921204E+03  0.7546771E-02  0.1089247E+00
         21   -1    0    0  503  502  0.00000000000E+00  0.00000000000E+00  0.36445947394E+03  0.36445947394E+03  0.00000000000E+00 0. -1.
         21   -1    0    0  501  503 -0.00000000000E+00 -0.00000000000E+00 -0.29442547817E+03  0.29442547817E+03  0.00000000000E+00 0.  1.
          6    1    1    2  501    0 -0.15798640371E+03 -0.17448670446E+03 -0.11405652048E+03  0.31359719969E+03  0.17300000000E+03 0.  1.
         -6    1    1    2    0  502  0.15798640371E+03  0.17448670446E+03  0.18409051625E+03  0.34528775241E+03  0.17300000000E+03 0. -1.
<mgrwt>
<rscale>  2 0.29212038E+03</rscale>
<asrwt>0</asrwt>
<pdfrwt beam="1">  1       21 0.56070688E-01 0.29212038E+03</pdfrwt>
<pdfrwt beam="2">  1       21 0.45296227E-01 0.29212038E+03</pdfrwt>
<totfact> 0.13264433E+04</totfact>
</mgrwt>
</event>
<event>
 4    1  0.4391134E+000  0.2064300E+03  0.7546771E-02  0.1144425E+00
         21   -1    0    0  501  502  0.00000000000E+00  0.00000000000E+00  0.13482788592E+03  0.13482788592E+03  0.00000000000E+00 0. -1.
         21   -1    0    0  502  503 -0.00000000000E+00 -0.00000000000E+00 -0.72936061489E+03  0.72936061489E+03  0.00000000000E+00 0. -1.
          6    1    1    2  501    0 -0.40353822778E+02 -0.10514715356E+03  0.28001913353E+02  0.20832057524E+03  0.17300000000E+03 0. -1.
         -6    1    1    2    0  503  0.40353822778E+02  0.10514715356E+03 -0.62253464232E+03  0.65586792558E+03  0.17300000000E+03 0. -1.
<mgrwt>
<rscale>  2 0.20643002E+03</rscale>
<asrwt>0</asrwt>
<pdfrwt beam="1">  1       21 0.20742752E-01 0.20643002E+03</pdfrwt>
<pdfrwt beam="2">  1       21 0.11220932E+00 0.20643002E+03</pdfrwt>
<totfact> 0.13294215E+04</totfact>
</mgrwt>
</event>
<event>
 4    1  0.4391134E+000  0.1890511E+03  0.7546771E-02  0.1159320E+00
         21   -1    0    0  503  502  0.00000000000E+00  0.00000000000E+00  0.71075824703E+03  0.71075824703E+03  0.00000000000E+00 0. -1.
         21   -1    0    0  501  503 -0.00000000000E+00 -0.00000000000E+00 -0.13356714877E+03  0.13356714877E+03  0.00000000000E+00 0. -1.
          6    1    1    2  501    0  0.81667534489E+01 -0.75793404037E+02 -0.44759097128E+02  0.19427741179E+03  0.17300000000E+03 0. -1.
         -6    1    1    2    0  502 -0.81667534489E+01  0.75793404037E+02  0.62195019539E+03  0.65004798400E+03  0.17300000000E+03 0. -1.
<mgrwt>
<rscale>  2 0.18905115E+03</rscale>
<asrwt>0</asrwt>
<pdfrwt beam="1">  1       21 0.10934742E+00 0.18905115E+03</pdfrwt>
<pdfrwt beam="2">  1       21 0.20548793E-01 0.18905115E+03</pdfrwt>
<totfact> 0.14574086E+04</totfact>
</mgrwt>
</event>
<event>
 4    1  0.4391134E+000  0.1853438E+03  0.7546771E-02  0.1162729E+00
         21   -1    0    0  501  502  0.00000000000E+00  0.00000000000E+00  0.38115434186E+02  0.38115434186E+02  0.00000000000E+00 0.  1.
         21   -1    0    0  502  503 -0.00000000000E+00 -0.00000000000E+00 -0.10174916992E+04  0.10174916992E+04  0.00000000000E+00 0.  1.
          6    1    1    2  501    0  0.64367341471E+02 -0.16738668855E+02 -0.31130716406E+03  0.36230441355E+03  0.17300000000E+03 0.  1.
         -6    1    1    2    0  503 -0.64367341471E+02  0.16738668855E+02 -0.66806910097E+03  0.69330271985E+03  0.17300000000E+03 0.  1.
<mgrwt>
<rscale>  2 0.18534384E+03</rscale>
<asrwt>0</asrwt>
<pdfrwt beam="1">  1       21 0.58639123E-02 0.18534384E+03</pdfrwt>
<pdfrwt beam="2">  1       21 0.15653720E+00 0.18534384E+03</pdfrwt>
<totfact> 0.54965007E+04</totfact>
</mgrwt>
</event>
<event>
 4    1  0.4391134E+000  0.1763888E+03  0.7546771E-02  0.1171344E+00
         21   -1    0    0  503  502  0.00000000000E+00  0.00000000000E+00  0.37419171264E+03  0.37419171264E+03  0.00000000000E+00 0. -1.
         21   -1    0    0  501  503 -0.00000000000E+00 -0.00000000000E+00 -0.97921440266E+02  0.97921440266E+02  0.00000000000E+00 0. -1.
          6    1    1    2  501    0 -0.32458155611E+02 -0.11423256981E+02  0.46443731077E+02  0.18240077528E+03  0.17300000000E+03 0. -1.
         -6    1    1    2    0  502  0.32458155611E+02  0.11423256981E+02  0.22982654130E+03  0.28971237763E+03  0.17300000000E+03 0. -1.
<mgrwt>
<rscale>  2 0.17638884E+03</rscale>
<asrwt>0</asrwt>
<pdfrwt beam="1">  1       21 0.57567955E-01 0.17638884E+03</pdfrwt>
<pdfrwt beam="2">  1       21 0.15064837E-01 0.17638884E+03</pdfrwt>
<totfact> 0.11085714E+05</totfact>
</mgrwt>
</event>
<event>
 4    1  0.4391134E+000  0.1996814E+03  0.7546771E-02  0.1150008E+00
         21   -1    0    0  501  502  0.00000000000E+00  0.00000000000E+00  0.15619118966E+04  0.15619118966E+04  0.00000000000E+00 0. -1.
         21   -1    0    0  502  503 -0.00000000000E+00 -0.00000000000E+00 -0.10224252616E+03  0.10224252616E+03  0.00000000000E+00 0.  1.
          6    1    1    2  501    0  0.97797296600E+02  0.19476622049E+02  0.14505875048E+04  0.14642666284E+04  0.17300000000E+03 0. -1.
         -6    1    1    2    0  503 -0.97797296600E+02 -0.19476622049E+02  0.90818656025E+01  0.19988779430E+03  0.17300000000E+03 0.  1.
<mgrwt>
<rscale>  2 0.19968137E+03</rscale>
<asrwt>0</asrwt>
<pdfrwt beam="1">  1       21 0.24029412E+00 0.19968137E+03</pdfrwt>
<pdfrwt beam="2">  1       21 0.15729621E-01 0.19968137E+03</pdfrwt>
<totfact> 0.27090283E+03</totfact>
</mgrwt>
</event>
<event>
 4    1  0.4391134E+000  0.1915473E+03  0.7546771E-02  0.1157073E+00
         21   -1    0    0  501  502  0.00000000000E+00  0.00000000000E+00  0.77699649451E+02  0.77699649451E+02  0.00000000000E+00 0.  1.
         21   -1    0    0  502  503 -0.00000000000E+00 -0.00000000000E+00 -0.47240604440E+03  0.47240604440E+03  0.00000000000E+00 0.  1.
          6    1    1    2  501    0 -0.73760217879E+02 -0.36342573964E+02 -0.20299288072E+03  0.27909937665E+03  0.17300000000E+03 0. -1.
         -6    1    1    2    0  503  0.73760217879E+02  0.36342573964E+02 -0.19171351423E+03  0.27100631720E+03  0.17300000000E+03 0. -1.
<mgrwt>
<rscale>  2 0.19154726E+03</rscale>
<asrwt>0</asrwt>
<pdfrwt beam="1">  1       21 0.11953792E-01 0.19154726E+03</pdfrwt>
<pdfrwt beam="2">  1       21 0.72677852E-01 0.19154726E+03</pdfrwt>
<totfact> 0.10080719E+05</totfact>
</mgrwt>
</event>
<event>
 4    1  0.4391134E+000  0.1863216E+03  0.7546771E-02  0.1161821E+00
         21   -1    0    0  501  502  0.00000000000E+00  0.00000000000E+00  0.30965465041E+03  0.30965465041E+03  0.00000000000E+00 0. -1.
         21   -1    0    0  502  503 -0.00000000000E+00 -0.00000000000E+00 -0.15163604951E+03  0.15163604951E+03  0.00000000000E+00 0. -1.
          6    1    1    2  501    0  0.68307118648E+02 -0.10993775225E+02 -0.38745629273E+02  0.19030751257E+03  0.17300000000E+03 0. -1.
         -6    1    1    2    0  503 -0.68307118648E+02  0.10993775225E+02  0.19676423017E+03  0.27098318735E+03  0.17300000000E+03 0. -1.
<mgrwt>
<rscale>  2 0.18632156E+03</rscale>
<asrwt>0</asrwt>
<pdfrwt beam="1">  1       21 0.47639177E-01 0.18632156E+03</pdfrwt>
<pdfrwt beam="2">  1       21 0.23328623E-01 0.18632156E+03</pdfrwt>
<totfact> 0.72988690E+04</totfact>
</mgrwt>
</event>
<event>
 4    1  0.4391134E+000  0.3130542E+03  0.7546771E-02  0.1078891E+00
         21   -1    0    0  501  502  0.00000000000E+00  0.00000000000E+00  0.13414080690E+03  0.13414080690E+03  0.00000000000E+00 0.  1.
         21   -1    0    0  502  503 -0.00000000000E+00 -0.00000000000E+00 -0.11017081401E+04  0.11017081401E+04  0.00000000000E+00 0. -1.
          6    1    1    2  501    0 -0.12117024587E+03  0.23106645654E+03 -0.12514770927E+03  0.33714223254E+03  0.17300000000E+03 0.  1.
         -6    1    1    2    0  503  0.12117024587E+03 -0.23106645654E+03 -0.84241962391E+03  0.89870671443E+03  0.17300000000E+03 0. -1.
<mgrwt>
<rscale>  2 0.31305421E+03</rscale>
<asrwt>0</asrwt>
<pdfrwt beam="1">  1       21 0.20637046E-01 0.31305421E+03</pdfrwt>
<pdfrwt beam="2">  1       21 0.16949357E+00 0.31305421E+03</pdfrwt>
<totfact> 0.43037372E+03</totfact>
</mgrwt>
</event>
<event>
 4    1  0.4391134E+000  0.1811669E+03  0.7546771E-02  0.1166679E+00
         21   -1    0    0  501  502  0.00000000000E+00  0.00000000000E+00  0.11617877811E+03  0.11617877811E+03  0.00000000000E+00 0. -1.
         21   -1    0    0  502  503 -0.00000000000E+00 -0.00000000000E+00 -0.85030855727E+03  0.85030855727E+03  0.00000000000E+00 0. -1.
          6    1    1    2  501    0  0.50912271804E+02  0.17331154990E+02  0.27824826348E+02  0.18329115995E+03  0.17300000000E+03 0. -1.
         -6    1    1    2    0  503 -0.50912271804E+02 -0.17331154990E+02 -0.76195460551E+03  0.78319617543E+03  0.17300000000E+03 0. -1.
<mgrwt>
<rscale>  2 0.18116685E+03</rscale>
<asrwt>0</asrwt>
<pdfrwt beam="1">  1       21 0.17873658E-01 0.18116685E+03</pdfrwt>
<pdfrwt beam="2">  1       21 0.13081670E+00 0.18116685E+03</pdfrwt>
<totfact> 0.12201582E+04</totfact>
</mgrwt>
</event>
<event>
 4    1  0.4391134E+000  0.2356803E+03  0.7546771E-02  0.1122704E+00
         21   -1    0    0  503  502  0.00000000000E+00  0.00000000000E+00  0.52904495266E+03  0.52904495266E+03  0.00000000000E+00 0. -1.
         21   -1    0    0  501  503 -0.00000000000E+00 -0.00000000000E+00 -0.14365667926E+03  0.14365667926E+03  0.00000000000E+00 0. -1.
          6    1    1    2  501    0  0.15934608911E+03  0.15001189618E+02  0.18196436148E+02  0.23638172961E+03  0.17300000000E+03 0. -1.
         -6    1    1    2    0  502 -0.15934608911E+03 -0.15001189618E+02  0.36719183726E+03  0.43631990231E+03  0.17300000000E+03 0. -1.
<mgrwt>
<rscale>  2 0.23568032E+03</rscale>
<asrwt>0</asrwt>
<pdfrwt beam="1">  1       21 0.81391530E-01 0.23568032E+03</pdfrwt>
<pdfrwt beam="2">  1       21 0.22101028E-01 0.23568032E+03</pdfrwt>
<totfact> 0.24722719E+04</totfact>
</mgrwt>
</event>
<event>
 4    1  0.4391134E+000  0.2681362E+03  0.7546771E-02  0.1102351E+00
         21   -1    0    0  501  502  0.00000000000E+00  0.00000000000E+00  0.41349680297E+03  0.41349680297E+03  0.00000000000E+00 0. -1.
         21   -1    0    0  502  503 -0.00000000000E+00 -0.00000000000E+00 -0.18103936160E+03  0.18103936160E+03  0.00000000000E+00 0. -1.
          6    1    1    2  501    0 -0.16208430108E+03  0.12528653417E+03  0.17536173577E+03  0.32038847462E+03  0.17300000000E+03 0. -1.
         -6    1    1    2    0  503  0.16208430108E+03 -0.12528653417E+03  0.57095705604E+02  0.27414768994E+03  0.17300000000E+03 0. -1.
<mgrwt>
<rscale>  2 0.26813623E+03</rscale>
<asrwt>0</asrwt>
<pdfrwt beam="1">  1       21 0.63614892E-01 0.26813623E+03</pdfrwt>
<pdfrwt beam="2">  1       21 0.27852210E-01 0.26813623E+03</pdfrwt>
<totfact> 0.27080683E+04</totfact>
</mgrwt>
</event>
<event>
 4    1  0.4391134E+000  0.2747342E+03  0.7546771E-02  0.1098600E+00
         21   -1    0    0  503  502  0.00000000000E+00  0.00000000000E+00  0.59953846512E+03  0.59953846512E+03  0.00000000000E+00 0. -1.
         21   -1    0    0  501  503 -0.00000000000E+00 -0.00000000000E+00 -0.97930115254E+03  0.97930115254E+03  0.00000000000E+00 0. -1.
          6    1    1    2  501    0  0.12269442345E+03 -0.17463096131E+03 -0.92681394916E+03  0.96667625943E+03  0.17300000000E+03 0. -1.
         -6    1    1    2    0  502 -0.12269442345E+03  0.17463096131E+03  0.54705126174E+03  0.61216335823E+03  0.17300000000E+03 0. -1.
<mgrwt>
<rscale>  2 0.27473422E+03</rscale>
<asrwt>0</asrwt>
<pdfrwt beam="1">  1       21 0.92236688E-01 0.27473422E+03</pdfrwt>
<pdfrwt beam="2">  1       21 0.15066171E+00 0.27473422E+03</pdfrwt>
<totfact> 0.26937294E+02</totfact>
</mgrwt>
</event>
<event>
 4    1  0.4391134E+000  0.1853882E+03  0.7546771E-02  0.1162688E+00
         21   -1    0    0  503  502  0.00000000000E+00  0.00000000000E+00  0.25016973017E+02  0.25016973017E+02  0.00000000000E+00 0.  1.
         21   -1    0    0  501  503 -0.00000000000E+00 -0.00000000000E+00 -0.16736458996E+04  0.16736458996E+04  0.00000000000E+00 0.  1.
          6    1    1    2  501    0  0.42845697772E+00 -0.66630321669E+02 -0.46482929047E+03  0.50043486351E+03  0.17300000000E+03 0.  1.
         -6    1    1    2    0  502 -0.42845697772E+00  0.66630321669E+02 -0.11837996361E+04  0.11982280091E+04  0.17300000000E+03 0.  1.
<mgrwt>
<rscale>  2 0.18538820E+03</rscale>
<asrwt>0</asrwt>
<pdfrwt beam="1">  1       21 0.38487641E-02 0.18538820E+03</pdfrwt>
<pdfrwt beam="2">  1       21 0.25748405E+00 0.18538820E+03</pdfrwt>
<totfact> 0.25283873E+04</totfact>
</mgrwt>
</event>
<event>
 4    1  0.4391134E+000  0.1829516E+03  0.7546771E-02  0.1164977E+00
         21   -1    0    0  501  502  0.00000000000E+00  0.00000000000E+00  0.95102664072E+02  0.95102664072E+02  0.00000000000E+00 0. -1.
         21   -1    0    0  502  503 -0.00000000000E+00 -0.00000000000E+00 -0.38594827236E+03  0.38594827236E+03  0.00000000000E+00 0. -1.
          6    1    1    2  501    0  0.35355312187E+02 -0.47877922061E+02 -0.74033865337E+02  0.19736338753E+03  0.17300000000E+03 0. -1.
         -6    1    1    2    0  503 -0.35355312187E+02  0.47877922061E+02 -0.21681174295E+03  0.28368754890E+03  0.17300000000E+03 0. -1.
<mgrwt>
<rscale>  2 0.18295162E+03</rscale>
<asrwt>0</asrwt>
<pdfrwt beam="1">  1       21 0.14631179E-01 0.18295162E+03</pdfrwt>
<pdfrwt beam="2">  1       21 0.59376658E-01 0.18295162E+03</pdfrwt>
<totfact> 0.10915817E+05</totfact>
</mgrwt>
</event>
<event>
 4    1  0.4391134E+000  0.1943587E+03  0.7546771E-02  0.1154588E+00
         21   -1    0    0  503  502  0.00000000000E+00  0.00000000000E+00  0.10147774327E+04  0.10147774327E+04  0.00000000000E+00 0. -1.
         21   -1    0    0  501  503 -0.00000000000E+00 -0.00000000000E+00 -0.66490541296E+02  0.66490541296E+02  0.00000000000E+00 0. -1.
          6    1    1    2  501    0  0.84904813835E+02  0.25248556324E+02  0.11546933501E+03  0.22607185658E+03  0.17300000000E+03 0. -1.
         -6    1    1    2    0  502 -0.84904813835E+02 -0.25248556324E+02  0.83281755637E+03  0.85519611740E+03  0.17300000000E+03 0. -1.
<mgrwt>
<rscale>  2 0.19435873E+03</rscale>
<asrwt>0</asrwt>
<pdfrwt beam="1">  1       21 0.15611959E+00 0.19435873E+03</pdfrwt>
<pdfrwt beam="2">  1       21 0.10229315E-01 0.19435873E+03</pdfrwt>
<totfact> 0.20935572E+04</totfact>
</mgrwt>
</event>
<event>
 4    1  0.4391134E+000  0.2105941E+03  0.7546771E-02  0.1141096E+00
         21   -1    0    0  503  502  0.00000000000E+00  0.00000000000E+00  0.15035494942E+04  0.15035494942E+04  0.00000000000E+00 0.  1.
         21   -1    0    0  501  503 -0.00000000000E+00 -0.00000000000E+00 -0.57617399525E+02  0.57617399525E+02  0.00000000000E+00 0.  1.
          6    1    1    2  501    0  0.10095756115E+03  0.65026474213E+02  0.17764163715E+03  0.27551120259E+03  0.17300000000E+03 0.  1.
         -6    1    1    2    0  502 -0.10095756115E+03 -0.65026474213E+02  0.12682904576E+04  0.12856556912E+04  0.17300000000E+03 0.  1.
<mgrwt>
<rscale>  2 0.21059409E+03</rscale>
<asrwt>0</asrwt>
<pdfrwt beam="1">  1       21 0.23131528E+00 0.21059409E+03</pdfrwt>
<pdfrwt beam="2">  1       21 0.88642164E-02 0.21059409E+03</pdfrwt>
<totfact> 0.84759383E+03</totfact>
</mgrwt>
</event>
<event>
 4    1  0.4391134E+000  0.1954888E+03  0.7546771E-02  0.1153602E+00
         21   -1    0    0  503  502  0.00000000000E+00  0.00000000000E+00  0.53637980497E+03  0.53637980497E+03  0.00000000000E+00 0.  1.
         21   -1    0    0  501  503 -0.00000000000E+00 -0.00000000000E+00 -0.92220045026E+02  0.92220045026E+02  0.00000000000E+00 0.  1.
          6    1    1    2  501    0 -0.74047707214E+02 -0.52951003830E+02  0.72196232302E+02  0.20839426026E+03  0.17300000000E+03 0.  1.
         -6    1    1    2    0  502  0.74047707214E+02  0.52951003830E+02  0.37196352764E+03  0.42020558974E+03  0.17300000000E+03 0.  1.
<mgrwt>
<rscale>  2 0.19548880E+03</rscale>
<asrwt>0</asrwt>
<pdfrwt beam="1">  1       21 0.82519968E-01 0.19548880E+03</pdfrwt>
<pdfrwt beam="2">  1       21 0.14187700E-01 0.19548880E+03</pdfrwt>
<totfact> 0.55567830E+04</totfact>
</mgrwt>
</event>
<event>
 4    1  0.4391134E+000  0.1842229E+03  0.7546771E-02  0.1163778E+00
         21   -1    0    0  501  502  0.00000000000E+00  0.00000000000E+00  0.99088496308E+02  0.99088496308E+02  0.00000000000E+00 0. -1.
         21   -1    0    0  502  503 -0.00000000000E+00 -0.00000000000E+00 -0.14140580874E+04  0.14140580874E+04  0.00000000000E+00 0. -1.
          6    1    1    2  501    0  0.55868497453E+02  0.29795581365E+02  0.11197401293E+01  0.18422627254E+03  0.17300000000E+03 0. -1.
         -6    1    1    2    0  503 -0.55868497453E+02 -0.29795581365E+02 -0.13160893312E+04  0.13289203111E+04  0.17300000000E+03 0. -1.
<mgrwt>
<rscale>  2 0.18422287E+03</rscale>
<asrwt>0</asrwt>
<pdfrwt beam="1">  1       21 0.15244385E-01 0.18422287E+03</pdfrwt>
<pdfrwt beam="2">  1       21 0.21754738E+00 0.18422287E+03</pdfrwt>
<totfact> 0.40011136E+03</totfact>
</mgrwt>
</event>
<event>
 4    1  0.4391134E+000  0.1772858E+03  0.7546771E-02  0.1170456E+00
         21   -1    0    0  501  502  0.00000000000E+00  0.00000000000E+00  0.27003725954E+03  0.27003725954E+03  0.00000000000E+00 0.  1.
         21   -1    0    0  502  503 -0.00000000000E+00 -0.00000000000E+00 -0.12074644987E+03  0.12074644987E+03  0.00000000000E+00 0.  1.
          6    1    1    2  501    0  0.37803673320E+02  0.84924893293E+01  0.11174970232E+03  0.20956678186E+03  0.17300000000E+03 0.  1.
         -6    1    1    2    0  503 -0.37803673320E+02 -0.84924893293E+01  0.37541107353E+02  0.18121692756E+03  0.17300000000E+03 0.  1.
<mgrwt>
<rscale>  2 0.17728576E+03</rscale>
<asrwt>0</asrwt>
<pdfrwt beam="1">  1       21 0.41544194E-01 0.17728576E+03</pdfrwt>
<pdfrwt beam="2">  1       21 0.18576377E-01 0.17728576E+03</pdfrwt>
<totfact> 0.14848543E+05</totfact>
</mgrwt>
</event>
<event>
 4    1  0.4391134E+000  0.2935090E+03  0.7546771E-02  0.1088531E+00
         21   -1    0    0  503  502  0.00000000000E+00  0.00000000000E+00  0.62982451651E+02  0.62982451651E+02  0.00000000000E+00 0.  1.
         21   -1    0    0  501  503 -0.00000000000E+00 -0.00000000000E+00 -0.14174576955E+04  0.14174576955E+04  0.00000000000E+00 0.  1.
          6    1    1    2  501    0  0.14801036176E+03 -0.18523349225E+03 -0.53869257664E+03  0.61346328820E+03  0.17300000000E+03 0.  1.
         -6    1    1    2    0  502 -0.14801036176E+03  0.18523349225E+03 -0.81578266718E+03  0.86697685892E+03  0.17300000000E+03 0.  1.
<mgrwt>
<rscale>  2 0.29350897E+03</rscale>
<asrwt>0</asrwt>
<pdfrwt beam="1">  1       21 0.96896086E-02 0.29350897E+03</pdfrwt>
<pdfrwt beam="2">  1       21 0.21807040E+00 0.29350897E+03</pdfrwt>
<totfact> 0.82321216E+03</totfact>
</mgrwt>
</event>
<event>
 4    1  0.4391134E+000  0.2129779E+03  0.7546771E-02  0.1139229E+00
         21   -1    0    0  503  502  0.00000000000E+00  0.00000000000E+00  0.70525944058E+03  0.70525944058E+03  0.00000000000E+00 0. -1.
         21   -1    0    0  501  503 -0.00000000000E+00 -0.00000000000E+00 -0.64319117534E+02  0.64319117534E+02  0.00000000000E+00 0. -1.
          6    1    1    2  501    0 -0.96110661982E+02  0.78697591691E+02  0.31785543981E+03  0.38261161888E+03  0.17300000000E+03 0. -1.
         -6    1    1    2    0  502  0.96110661982E+02 -0.78697591691E+02  0.32308488323E+03  0.38696693923E+03  0.17300000000E+03 0. -1.
<mgrwt>
<rscale>  2 0.21297786E+03</rscale>
<asrwt>0</asrwt>
<pdfrwt beam="1">  1       21 0.10850145E+00 0.21297786E+03</pdfrwt>
<pdfrwt beam="2">  1       21 0.98952493E-02 0.21297786E+03</pdfrwt>
<totfact> 0.55245408E+04</totfact>
</mgrwt>
</event>
<event>
 4    1  0.4391134E+000  0.2018242E+03  0.7546771E-02  0.1148209E+00
         21   -1    0    0  501  502  0.00000000000E+00  0.00000000000E+00  0.14113278917E+03  0.14113278917E+03  0.00000000000E+00 0.  1.
         21   -1    0    0  502  503 -0.00000000000E+00 -0.00000000000E+00 -0.33034501276E+03  0.33034501276E+03  0.00000000000E+00 0. -1.
          6    1    1    2  501    0  0.82750477105E+02  0.62899498910E+02 -0.10819710879E+02  0.20211396431E+03  0.17300000000E+03 0. -1.
         -6    1    1    2    0  503 -0.82750477105E+02 -0.62899498910E+02 -0.17839251272E+03  0.26936383762E+03  0.17300000000E+03 0. -1.
<mgrwt>
<rscale>  2 0.20182415E+03</rscale>
<asrwt>0</asrwt>
<pdfrwt beam="1">  1       21 0.21712737E-01 0.20182415E+03</pdfrwt>
<pdfrwt beam="2">  1       21 0.50822309E-01 0.20182415E+03</pdfrwt>
<totfact> 0.72576071E+04</totfact>
</mgrwt>
</event>
<event>
 4    1  0.4391134E+000  0.2019838E+03  0.7546771E-02  0.1148076E+00
         21   -1    0    0  501  502  0.00000000000E+00  0.00000000000E+00  0.83373486283E+03  0.83373486283E+03  0.00000000000E+00 0.  1.
         21   -1    0    0  502  503 -0.00000000000E+00 -0.00000000000E+00 -0.50323554241E+02  0.50323554241E+02  0.00000000000E+00 0.  1.
          6    1    1    2  501    0 -0.20492560082E+02  0.10221802880E+03  0.31823754055E+03  0.37692519502E+03  0.17300000000E+03 0.  1.
         -6    1    1    2    0  503  0.20492560082E+02 -0.10221802880E+03  0.46517376804E+03  0.50713322205E+03  0.17300000000E+03 0.  1.
<mgrwt>
<rscale>  2 0.20198384E+03</rscale>
<asrwt>0</asrwt>
<pdfrwt beam="1">  1       21 0.12826689E+00 0.20198384E+03</pdfrwt>
<pdfrwt beam="2">  1       21 0.77420859E-02 0.20198384E+03</pdfrwt>
<totfact> 0.56523362E+04</totfact>
</mgrwt>
</event>
<event>
 4    1  0.4391134E+000  0.2581598E+03  0.7546771E-02  0.1108254E+00
         21   -1    0    0  501  502  0.00000000000E+00  0.00000000000E+00  0.35117145313E+03  0.35117145313E+03  0.00000000000E+00 0. -1.
         21   -1    0    0  502  503 -0.00000000000E+00 -0.00000000000E+00 -0.19374818127E+03  0.19374818127E+03  0.00000000000E+00 0.  1.
          6    1    1    2  501    0  0.14538818079E+03  0.12481887228E+03  0.11768781337E+03  0.28371974801E+03  0.17300000000E+03 0.  1.
         -6    1    1    2    0  503 -0.14538818079E+03 -0.12481887228E+03  0.39735458494E+02  0.26119988640E+03  0.17300000000E+03 0. -1.
<mgrwt>
<rscale>  2 0.25815978E+03</rscale>
<asrwt>0</asrwt>
<pdfrwt beam="1">  1       21 0.54026377E-01 0.25815978E+03</pdfrwt>
<pdfrwt beam="2">  1       21 0.29807412E-01 0.25815978E+03</pdfrwt>
<totfact> 0.33871824E+04</totfact>
</mgrwt>
</event>
<event>
 4    1  0.4391134E+000  0.2232326E+03  0.7546771E-02  0.1131496E+00
         21   -1    0    0  503  502  0.00000000000E+00  0.00000000000E+00  0.29920531842E+03  0.29920531842E+03  0.00000000000E+00 0.  1.
         21   -1    0    0  501  503 -0.00000000000E+00 -0.00000000000E+00 -0.18941290883E+03  0.18941290883E+03  0.00000000000E+00 0. -1.
          6    1    1    2  501    0 -0.92784977065E+02  0.10627662069E+03 -0.29982083851E+02  0.22523698059E+03  0.17300000000E+03 0. -1.
         -6    1    1    2    0  502  0.92784977065E+02 -0.10627662069E+03  0.13977449344E+03  0.26338124666E+03  0.17300000000E+03 0.  1.
<mgrwt>
<rscale>  2 0.22323255E+03</rscale>
<asrwt>0</asrwt>
<pdfrwt beam="1">  1       21 0.46031587E-01 0.22323255E+03</pdfrwt>
<pdfrwt beam="2">  1       21 0.29140448E-01 0.22323255E+03</pdfrwt>
<totfact> 0.50272925E+04</totfact>
</mgrwt>
</event>
<event>
 4    1  0.4391134E+000  0.1953166E+03  0.7546771E-02  0.1153752E+00
         21   -1    0    0  503  502  0.00000000000E+00  0.00000000000E+00  0.12323617602E+03  0.12323617602E+03  0.00000000000E+00 0.  1.
         21   -1    0    0  501  503 -0.00000000000E+00 -0.00000000000E+00 -0.32626576364E+03  0.32626576364E+03  0.00000000000E+00 0. -1.
          6    1    1    2  501    0  0.28850715061E+02 -0.85948946506E+02 -0.15237659701E+03  0.24772406520E+03  0.17300000000E+03 0. -1.
         -6    1    1    2    0  502 -0.28850715061E+02  0.85948946506E+02 -0.50652990614E+02  0.20177787446E+03  0.17300000000E+03 0. -1.
<mgrwt>
<rscale>  2 0.19531663E+03</rscale>
<asrwt>0</asrwt>
<pdfrwt beam="1">  1       21 0.18959412E-01 0.19531663E+03</pdfrwt>
<pdfrwt beam="2">  1       21 0.50194733E-01 0.19531663E+03</pdfrwt>
<totfact> 0.96278374E+04</totfact>
</mgrwt>
</event>
<event>
 4    1  0.4391134E+000  0.1819601E+03  0.7546771E-02  0.1165919E+00
         21   -1    0    0  501  502  0.00000000000E+00  0.00000000000E+00  0.13772824961E+03  0.13772824961E+03  0.00000000000E+00 0.  1.
         21   -1    0    0  502  503 -0.00000000000E+00 -0.00000000000E+00 -0.24101393133E+03  0.24101393133E+03  0.00000000000E+00 0. -1.
          6    1    1    2  501    0  0.35210410902E+02 -0.44053586499E+02 -0.42063725627E+02  0.18675879774E+03  0.17300000000E+03 0.  1.
         -6    1    1    2    0  503 -0.35210410902E+02  0.44053586499E+02 -0.61221956093E+02  0.19198338321E+03  0.17300000000E+03 0.  1.
<mgrwt>
<rscale>  2 0.18196014E+03</rscale>
<asrwt>0</asrwt>
<pdfrwt beam="1">  1       21 0.21188962E-01 0.18196014E+03</pdfrwt>
<pdfrwt beam="2">  1       21 0.37079066E-01 0.18196014E+03</pdfrwt>
<totfact> 0.14583003E+05</totfact>
</mgrwt>
</event>
<event>
 4    1  0.4391134E+000  0.3084740E+03  0.7546771E-02  0.1081080E+00
         21   -1    0    0  501  502  0.00000000000E+00  0.00000000000E+00  0.12609373915E+04  0.12609373915E+04  0.00000000000E+00 0.  1.
         21   -1    0    0  502  503 -0.00000000000E+00 -0.00000000000E+00 -0.13864066256E+03  0.13864066256E+03  0.00000000000E+00 0. -1.
          6    1    1    2  501    0 -0.70738024963E+02 -0.24540442761E+03  0.10335353401E+04  0.10785877343E+04  0.17300000000E+03 0.  1.
         -6    1    1    2    0  503  0.70738024963E+02  0.24540442761E+03  0.88761388869E+02  0.32099031982E+03  0.17300000000E+03 0. -1.
<mgrwt>
<rscale>  2 0.30847399E+03</rscale>
<asrwt>0</asrwt>
<pdfrwt beam="1">  1       21 0.19399036E+00 0.30847399E+03</pdfrwt>
<pdfrwt beam="2">  1       21 0.21329334E-01 0.30847399E+03</pdfrwt>
<totfact> 0.27446535E+03</totfact>
</mgrwt>
</event>
<event>
 4    1  0.4391134E+000  0.1795903E+03  0.7546771E-02  0.1168200E+00
         21   -1    0    0  501  502  0.00000000000E+00  0.00000000000E+00  0.50139981552E+02  0.50139981552E+02  0.00000000000E+00 0. -1.
         21   -1    0    0  502  503 -0.00000000000E+00 -0.00000000000E+00 -0.66027045791E+03  0.66027045791E+03  0.00000000000E+00 0. -1.
          6    1    1    2  501    0  0.36263024315E+02  0.31759690962E+02 -0.24803988942E+03  0.30622944282E+03  0.17300000000E+03 0.  1.
         -6    1    1    2    0  503 -0.36263024315E+02 -0.31759690962E+02 -0.36209058694E+03  0.40418099665E+03  0.17300000000E+03 0.  1.
<mgrwt>
<rscale>  2 0.17959033E+03</rscale>
<asrwt>0</asrwt>
<pdfrwt beam="1">  1       21 0.77138437E-02 0.17959033E+03</pdfrwt>
<pdfrwt beam="2">  1       21 0.10158007E+00 0.17959033E+03</pdfrwt>
<totfact> 0.10165720E+05</totfact>
</mgrwt>
</event>
<event>
 4    1  0.4391134E+000  0.1843131E+03  0.7546771E-02  0.1163693E+00
         21   -1    0    0  503  502  0.00000000000E+00  0.00000000000E+00  0.17370313572E+03  0.17370313572E+03  0.00000000000E+00 0.  1.
         21   -1    0    0  501  503 -0.00000000000E+00 -0.00000000000E+00 -0.20444096886E+03  0.20444096886E+03  0.00000000000E+00 0.  1.
          6    1    1    2  501    0 -0.50092370029E+02  0.39154430607E+02 -0.54751276839E+02  0.19227328802E+03  0.17300000000E+03 0.  1.
         -6    1    1    2    0  502  0.50092370029E+02 -0.39154430607E+02  0.24013443696E+02  0.18587081656E+03  0.17300000000E+03 0.  1.
<mgrwt>
<rscale>  2 0.18431309E+03</rscale>
<asrwt>0</asrwt>
<pdfrwt beam="1">  1       21 0.26723559E-01 0.18431309E+03</pdfrwt>
<pdfrwt beam="2">  1       21 0.31452457E-01 0.18431309E+03</pdfrwt>
<totfact> 0.12988220E+05</totfact>
</mgrwt>
</event>
<event>
 4    1  0.4391134E+000  0.1763193E+03  0.7546771E-02  0.1171414E+00
         21   -1    0    0  503  502  0.00000000000E+00  0.00000000000E+00  0.11738608430E+04  0.11738608430E+04  0.00000000000E+00 0. -1.
         21   -1    0    0  501  503 -0.00000000000E+00 -0.00000000000E+00 -0.13219008480E+03  0.13219008480E+03  0.00000000000E+00 0. -1.
          6    1    1    2  501    0  0.32925636285E+02  0.86837826416E+01 -0.63121411711E+02  0.18727738310E+03  0.17300000000E+03 0. -1.
         -6    1    1    2    0  502 -0.32925636285E+02 -0.86837826416E+01  0.11047921699E+04  0.11187735447E+04  0.17300000000E+03 0. -1.
<mgrwt>
<rscale>  2 0.17631933E+03</rscale>
<asrwt>0</asrwt>
<pdfrwt beam="1">  1       21 0.18059397E+00 0.17631933E+03</pdfrwt>
<pdfrwt beam="2">  1       21 0.20336937E-01 0.17631933E+03</pdfrwt>
<totfact> 0.40961484E+03</totfact>
</mgrwt>
</event>
<event>
 4    1  0.4391134E+000  0.3402306E+03  0.7546771E-02  0.1066698E+00
         21   -1    0    0  501  502  0.00000000000E+00  0.00000000000E+00  0.49749204115E+03  0.49749204115E+03  0.00000000000E+00 0.  1.
         21   -1    0    0  502  503 -0.00000000000E+00 -0.00000000000E+00 -0.26089812149E+03  0.26089812149E+03  0.00000000000E+00 0. -1.
          6    1    1    2  501    0  0.51946890683E+02 -0.28832161849E+03  0.24300236633E+03  0.41809925279E+03  0.17300000000E+03 0.  1.
         -6    1    1    2    0  503 -0.51946890683E+02  0.28832161849E+03 -0.64084466688E+01  0.34029090985E+03  0.17300000000E+03 0. -1.
<mgrwt>
<rscale>  2 0.34023056E+03</rscale>
<asrwt>0</asrwt>
<pdfrwt beam="1">  1       21 0.76537237E-01 0.34023056E+03</pdfrwt>
<pdfrwt beam="2">  1       21 0.40138173E-01 0.34023056E+03</pdfrwt>
<totfact> 0.83897717E+03</totfact>
</mgrwt>
</event>
<event>
 4    1  0.4391134E+000  0.1988664E+03  0.7546771E-02  0.1150699E+00
         21   -1    0    0  503  502  0.00000000000E+00  0.00000000000E+00  0.54517231321E+02  0.54517231321E+02  0.00000000000E+00 0.  1.
         21   -1    0    0  501  503 -0.00000000000E+00 -0.00000000000E+00 -0.74031230311E+03  0.74031230311E+03  0.00000000000E+00 0.  1.
          6    1    1    2  501    0  0.18828967270E+02  0.96251378784E+02 -0.39926467776E+03  0.44604948249E+03  0.17300000000E+03 0.  1.
         -6    1    1    2    0  502 -0.18828967270E+02 -0.96251378784E+02 -0.28653039402E+03  0.34878005193E+03  0.17300000000E+03 0.  1.
<mgrwt>
<rscale>  2 0.19886643E+03</rscale>
<asrwt>0</asrwt>
<pdfrwt beam="1">  1       21 0.83872665E-02 0.19886643E+03</pdfrwt>
<pdfrwt beam="2">  1       21 0.11389420E+00 0.19886643E+03</pdfrwt>
<totfact> 0.66127265E+04</totfact>
</mgrwt>
</event>
<event>
 4    1  0.4391134E+000  0.2034864E+03  0.7546771E-02  0.1146830E+00
         21   -1    0    0  501  502  0.00000000000E+00  0.00000000000E+00  0.22086429300E+03  0.22086429300E+03  0.00000000000E+00 0.  1.
         21   -1    0    0  502  503 -0.00000000000E+00 -0.00000000000E+00 -0.24160802655E+03  0.24160802655E+03  0.00000000000E+00 0. -1.
          6    1    1    2  501    0  0.94628380996E+02  0.50231168593E+02  0.99081262432E+02  0.22632674909E+03  0.17300000000E+03 0.  1.
         -6    1    1    2    0  503 -0.94628380996E+02 -0.50231168593E+02 -0.11982499598E+03  0.23614557046E+03  0.17300000000E+03 0. -1.
<mgrwt>
<rscale>  2 0.20348637E+03</rscale>
<asrwt>0</asrwt>
<pdfrwt beam="1">  1       21 0.33979122E-01 0.20348637E+03</pdfrwt>
<pdfrwt beam="2">  1       21 0.37170466E-01 0.20348637E+03</pdfrwt>
<totfact> 0.57954523E+04</totfact>
</mgrwt>
</event>
<event>
 4    1  0.4391134E+000  0.2423399E+03  0.7546771E-02  0.1118244E+00
         21   -1    0    0  503  502  0.00000000000E+00  0.00000000000E+00  0.23023846210E+04  0.23023846210E+04  0.00000000000E+00 0.  1.
         21   -1    0    0  501  503 -0.00000000000E+00 -0.00000000000E+00 -0.73418021392E+02  0.73418021392E+02  0.00000000000E+00 0.  1.
          6    1    1    2  501    0  0.10150288620E+03  0.13600297171E+03  0.15487641159E+03  0.28760275918E+03  0.17300000000E+03 0.  1.
         -6    1    1    2    0  502 -0.10150288620E+03 -0.13600297171E+03  0.20740901880E+04  0.20881998832E+04  0.17300000000E+03 0.  1.
<mgrwt>
<rscale>  2 0.24233994E+03</rscale>
<asrwt>0</asrwt>
<pdfrwt beam="1">  1       21 0.35421296E+00 0.24233994E+03</pdfrwt>
<pdfrwt beam="2">  1       21 0.11295082E-01 0.24233994E+03</pdfrwt>
<totfact> 0.10114757E+03</totfact>
</mgrwt>
</event>
<event>
 4    1  0.4391134E+000  0.2063657E+03  0.7546771E-02  0.1144477E+00
         21   -1    0    0  503  502  0.00000000000E+00  0.00000000000E+00  0.21124158502E+02  0.21124158502E+02  0.00000000000E+00 0. -1.
         21   -1    0    0  501  503 -0.00000000000E+00 -0.00000000000E+00 -0.23318643577E+04  0.23318643577E+04  0.00000000000E+00 0. -1.
          6    1    1    2  501    0  0.53944190516E+02  0.98731157924E+02 -0.15883540142E+04  0.16017038714E+04  0.17300000000E+03 0. -1.
         -6    1    1    2    0  502 -0.53944190516E+02 -0.98731157924E+02 -0.72238618496E+03  0.75128464476E+03  0.17300000000E+03 0. -1.
<mgrwt>
<rscale>  2 0.20636574E+03</rscale>
<asrwt>0</asrwt>
<pdfrwt beam="1">  1       21 0.32498705E-02 0.20636574E+03</pdfrwt>
<pdfrwt beam="2">  1       21 0.35874837E+00 0.20636574E+03</pdfrwt>
<totfact> 0.84610673E+03</totfact>
</mgrwt>
</event>
<event>
 4    1  0.4391134E+000  0.1801865E+03  0.7546771E-02  0.1167623E+00
         21   -1    0    0  503  502  0.00000000000E+00  0.00000000000E+00  0.10010481996E+04  0.10010481996E+04  0.00000000000E+00 0. -1.
         21   -1    0    0  501  503 -0.00000000000E+00 -0.00000000000E+00 -0.77544508023E+02  0.77544508023E+02  0.00000000000E+00 0. -1.
          6    1    1    2  501    0  0.48133306571E+02  0.14878030784E+02  0.50417670508E+02  0.18710722194E+03  0.17300000000E+03 0. -1.
         -6    1    1    2    0  502 -0.48133306571E+02 -0.14878030784E+02  0.87308602102E+03  0.89148548564E+03  0.17300000000E+03 0. -1.
<mgrwt>
<rscale>  2 0.18018649E+03</rscale>
<asrwt>0</asrwt>
<pdfrwt beam="1">  1       21 0.15400741E+00 0.18018649E+03</pdfrwt>
<pdfrwt beam="2">  1       21 0.11929925E-01 0.18018649E+03</pdfrwt>
<totfact> 0.16678706E+04</totfact>
</mgrwt>
</event>
<event>
 4    1  0.4391134E+000  0.2360580E+03  0.7546771E-02  0.1122447E+00
         21   -1    0    0  501  502  0.00000000000E+00  0.00000000000E+00  0.35514341066E+03  0.35514341066E+03  0.00000000000E+00 0.  1.
         21   -1    0    0  502  503 -0.00000000000E+00 -0.00000000000E+00 -0.56642908615E+03  0.56642908615E+03  0.00000000000E+00 0. -1.
          6    1    1    2  501    0 -0.13833506227E+03 -0.81595241720E+02  0.28615953748E+03  0.37095909992E+03  0.17300000000E+03 0.  1.
         -6    1    1    2    0  503  0.13833506227E+03  0.81595241720E+02 -0.49744521297E+03  0.55061339689E+03  0.17300000000E+03 0. -1.
<mgrwt>
<rscale>  2 0.23605799E+03</rscale>
<asrwt>0</asrwt>
<pdfrwt beam="1">  1       21 0.54637448E-01 0.23605799E+03</pdfrwt>
<pdfrwt beam="2">  1       21 0.87142936E-01 0.23605799E+03</pdfrwt>
<totfact> 0.34616050E+03</totfact>
</mgrwt>
</event>
<event>
 4    1  0.4391134E+000  0.1859259E+03  0.7546771E-02  0.1162188E+00
         21   -1    0    0  501  502  0.00000000000E+00  0.00000000000E+00  0.19469262231E+03  0.19469262231E+03  0.00000000000E+00 0. -1.
         21   -1    0    0  502  503 -0.00000000000E+00 -0.00000000000E+00 -0.48784532746E+03  0.48784532746E+03  0.00000000000E+00 0. -1.
          6    1    1    2  501    0  0.68081775752E+02 -0.20801011953E+01  0.12559383187E+03  0.22437082166E+03  0.17300000000E+03 0. -1.
         -6    1    1    2    0  503 -0.68081775752E+02  0.20801011953E+01 -0.41874653702E+03  0.45816712811E+03  0.17300000000E+03 0. -1.
<mgrwt>
<rscale>  2 0.18592594E+03</rscale>
<asrwt>0</asrwt>
<pdfrwt beam="1">  1       21 0.29952711E-01 0.18592594E+03</pdfrwt>
<pdfrwt beam="2">  1       21 0.75053127E-01 0.18592594E+03</pdfrwt>
<totfact> 0.17038715E+04</totfact>
</mgrwt>
</event>
<event>
 4    1  0.4391134E+000  0.2210042E+03  0.7546771E-02  0.1133137E+00
         21   -1    0    0  503  502  0.00000000000E+00  0.00000000000E+00  0.51053955021E+03  0.51053955021E+03  0.00000000000E+00 0. -1.
         21   -1    0    0  501  503 -0.00000000000E+00 -0.00000000000E+00 -0.97587781822E+02  0.97587781822E+02  0.00000000000E+00 0.  1.
          6    1    1    2  501    0 -0.97935612258E+02 -0.96552907555E+02  0.16384044292E+03  0.27511186605E+03  0.17300000000E+03 0.  1.
         -6    1    1    2    0  502  0.97935612258E+02  0.96552907555E+02  0.24911132546E+03  0.33301546597E+03  0.17300000000E+03 0. -1.
<mgrwt>
<rscale>  2 0.22100418E+03</rscale>
<asrwt>0</asrwt>
<pdfrwt beam="1">  1       21 0.78544545E-01 0.22100418E+03</pdfrwt>
<pdfrwt beam="2">  1       21 0.15013505E-01 0.22100418E+03</pdfrwt>
<totfact> 0.55396420E+04</totfact>
</mgrwt>
</event>
<event>
 4    1  0.4391134E+000  0.2466104E+03  0.7546771E-02  0.1115466E+00
         21   -1    0    0  501  502  0.00000000000E+00  0.00000000000E+00  0.64398228538E+02  0.64398228538E+02  0.00000000000E+00 0.  1.
         21   -1    0    0  502  503 -0.00000000000E+00 -0.00000000000E+00 -0.96446698967E+03  0.96446698967E+03  0.00000000000E+00 0.  1.
          6    1    1    2  501    0 -0.28282468837E+02 -0.17345832160E+03 -0.37580192428E+03  0.44949279601E+03  0.17300000000E+03 0.  1.
         -6    1    1    2    0  503  0.28282468837E+02  0.17345832160E+03 -0.52426683685E+03  0.57937242219E+03  0.17300000000E+03 0.  1.
<mgrwt>
<rscale>  2 0.24661040E+03</rscale>
<asrwt>0</asrwt>
<pdfrwt beam="1">  1       21 0.99074202E-02 0.24661040E+03</pdfrwt>
<pdfrwt beam="2">  1       21 0.14837953E+00 0.24661040E+03</pdfrwt>
<totfact> 0.24571869E+04</totfact>
</mgrwt>
</event>
<event>
 4    1  0.4391134E+000  0.1877248E+03  0.7546771E-02  0.1160530E+00
         21   -1    0    0  503  502  0.00000000000E+00  0.00000000000E+00  0.45336278103E+03  0.45336278103E+03  0.00000000000E+00 0. -1.
         21   -1    0    0  501  503 -0.00000000000E+00 -0.00000000000E+00 -0.84435127078E+02  0.84435127078E+02  0.00000000000E+00 0. -1.
          6    1    1    2  501    0 -0.72474101267E+02 -0.76881050858E+01  0.26023082428E+03  0.32087487315E+03  0.17300000000E+03 0. -1.
         -6    1    1    2    0  502  0.72474101267E+02  0.76881050858E+01  0.10869682968E+03  0.21692303496E+03  0.17300000000E+03 0. -1.
<mgrwt>
<rscale>  2 0.18772480E+03</rscale>
<asrwt>0</asrwt>
<pdfrwt beam="1">  1       21 0.69748119E-01 0.18772480E+03</pdfrwt>
<pdfrwt beam="2">  1       21 0.12990020E-01 0.18772480E+03</pdfrwt>
<totfact> 0.95252588E+04</totfact>
</mgrwt>
</event>
