<event>
 4    1  0.4475741E+000  0.1921276E+03  0.7818608E-02  0.1156556E+00
         21   -1    0    0  503  502  0.00000000000E+00  0.00000000000E+00  0.54025188470E+02  0.54025188470E+02  0.00000000000E+00 0.  1.
         21   -1    0    0  501  503 -0.00000000000E+00 -0.00000000000E+00 -0.72856995345E+03  0.72856995345E+03  0.00000000000E+00 0. -1.
          6    1    1    2  501    0 -0.79503701307E+02  0.31751660959E+02 -0.43485893050E+03  0.47541066031E+03  0.17200000000E+03 0. -1.
         -6    1    1    2    0  502  0.79503701307E+02 -0.31751660959E+02 -0.23968583448E+03  0.30718448161E+03  0.17200000000E+03 0.  1.
</event>
<event>
 4    1  0.4475741E+000  0.2457604E+03  0.7818608E-02  0.1116014E+00
         21   -1    0    0  503  502  0.00000000000E+00  0.00000000000E+00  0.12744256717E+03  0.12744256717E+03  0.00000000000E+00 0. -1.
         21   -1    0    0  501  503 -0.00000000000E+00 -0.00000000000E+00 -0.51581207707E+03  0.51581207707E+03  0.00000000000E+00 0. -1.
          6    1    1    2  501    0  0.12539054575E+03  0.12284699414E+03 -0.10253125179E+03  0.26629087578E+03  0.17200000000E+03 0. -1.
         -6    1    1    2    0  502 -0.12539054575E+03 -0.12284699414E+03 -0.28583825810E+03  0.37696376846E+03  0.17200000000E+03 0. -1.
</event>
<event>
 4    1  0.4475741E+000  0.2633115E+03  0.7818608E-02  0.1105170E+00
         21   -1    0    0  501  502  0.00000000000E+00  0.00000000000E+00  0.96398014611E+02  0.96398014611E+02  0.00000000000E+00 0. -1.
         21   -1    0    0  502  503 -0.00000000000E+00 -0.00000000000E+00 -0.80553462693E+03  0.80553462693E+03  0.00000000000E+00 0. -1.
          6    1    1    2  501    0 -0.21357772303E+02 -0.19822406837E+03 -0.20696244657E+03  0.33491251097E+03  0.17200000000E+03 0. -1.
         -6    1    1    2    0  503  0.21357772303E+02  0.19822406837E+03 -0.50217416575E+03  0.56702013057E+03  0.17200000000E+03 0. -1.
</event>
<event>
 4    1  0.4475741E+000  0.2039191E+03  0.7818608E-02  0.1146474E+00
         21   -1    0    0  503  502  0.00000000000E+00  0.00000000000E+00  0.18045566397E+03  0.18045566397E+03  0.00000000000E+00 0. -1.
         21   -1    0    0  501  503 -0.00000000000E+00 -0.00000000000E+00 -0.35896756553E+03  0.35896756553E+03  0.00000000000E+00 0. -1.
          6    1    1    2  501    0 -0.14334391942E+02  0.10859799804E+03 -0.25064774507E+03  0.32312117244E+03  0.17200000000E+03 0. -1.
         -6    1    1    2    0  502  0.14334391942E+02 -0.10859799804E+03  0.72135843503E+02  0.21630205706E+03  0.17200000000E+03 0. -1.
</event>
<event>
 4    1  0.4475741E+000  0.2116310E+03  0.7818608E-02  0.1140281E+00
         21   -1    0    0  501  502  0.00000000000E+00  0.00000000000E+00  0.11162156780E+03  0.11162156780E+03  0.00000000000E+00 0. -1.
         21   -1    0    0  502  503 -0.00000000000E+00 -0.00000000000E+00 -0.42085941989E+03  0.42085941989E+03  0.00000000000E+00 0. -1.
          6    1    1    2  501    0 -0.24507803461E+02  0.12084302812E+03 -0.97142998612E+02  0.23286140096E+03  0.17200000000E+03 0. -1.
         -6    1    1    2    0  503  0.24507803461E+02 -0.12084302812E+03 -0.21209485348E+03  0.29961958672E+03  0.17200000000E+03 0. -1.
</event>
<event>
 4    1  0.4475741E+000  0.1897003E+03  0.7818608E-02  0.1158732E+00
         21   -1    0    0  503  502  0.00000000000E+00  0.00000000000E+00  0.17447200665E+03  0.17447200665E+03  0.00000000000E+00 0.  1.
         21   -1    0    0  501  503 -0.00000000000E+00 -0.00000000000E+00 -0.49943651176E+03  0.49943651176E+03  0.00000000000E+00 0.  1.
          6    1    1    2  501    0 -0.58447338914E+02  0.54645213444E+02 -0.42064710373E+03  0.46144357906E+03  0.17200000000E+03 0.  1.
         -6    1    1    2    0  502  0.58447338914E+02 -0.54645213444E+02  0.95682598607E+02  0.21246493935E+03  0.17200000000E+03 0.  1.
</event>
<event>
 4    1  0.4475741E+000  0.1757578E+03  0.7818608E-02  0.1171973E+00
         21   -1    0    0  503  502  0.00000000000E+00  0.00000000000E+00  0.12980420792E+03  0.12980420792E+03  0.00000000000E+00 0.  1.
         21   -1    0    0  501  503 -0.00000000000E+00 -0.00000000000E+00 -0.24858239523E+03  0.24858239523E+03  0.00000000000E+00 0.  1.
          6    1    1    2  501    0  0.35931673864E+02  0.39641982037E+01 -0.20316394792E+02  0.17692810956E+03  0.17200000000E+03 0.  1.
         -6    1    1    2    0  502 -0.35931673864E+02 -0.39641982037E+01 -0.98461792517E+02  0.20145849359E+03  0.17200000000E+03 0.  1.
</event>
<event>
 4    1  0.4475741E+000  0.2111902E+03  0.7818608E-02  0.1140627E+00
         21   -1    0    0  501  502  0.00000000000E+00  0.00000000000E+00  0.27691530758E+03  0.27691530758E+03  0.00000000000E+00 0.  1.
         21   -1    0    0  502  503 -0.00000000000E+00 -0.00000000000E+00 -0.17238420977E+03  0.17238420977E+03  0.00000000000E+00 0. -1.
          6    1    1    2  501    0 -0.14597537060E+02  0.12167251764E+03 -0.53010301878E+01  0.21125669352E+03  0.17200000000E+03 0.  1.
         -6    1    1    2    0  503  0.14597537060E+02 -0.12167251764E+03  0.10983212799E+03  0.23804282383E+03  0.17200000000E+03 0. -1.
</event>
<event>
 4    1  0.4475741E+000  0.2297116E+03  0.7818608E-02  0.1126843E+00
         21   -1    0    0  503  502  0.00000000000E+00  0.00000000000E+00  0.15323232057E+04  0.15323232057E+04  0.00000000000E+00 0.  1.
         21   -1    0    0  501  503 -0.00000000000E+00 -0.00000000000E+00 -0.34727904289E+02  0.34727904289E+02  0.00000000000E+00 0.  1.
          6    1    1    2  501    0  0.20503179080E+02  0.15087420011E+03  0.67698889562E+03  0.71489955197E+03  0.17200000000E+03 0.  1.
         -6    1    1    2    0  502 -0.20503179080E+02 -0.15087420011E+03  0.82060640582E+03  0.85215155805E+03  0.17200000000E+03 0.  1.
</event>
<event>
 4    1  0.4475741E+000  0.2190392E+03  0.7818608E-02  0.1134601E+00
         21   -1    0    0  501  502  0.00000000000E+00  0.00000000000E+00  0.13682089279E+03  0.13682089279E+03  0.00000000000E+00 0.  1.
         21   -1    0    0  502  503 -0.00000000000E+00 -0.00000000000E+00 -0.50430757625E+03  0.50430757625E+03  0.00000000000E+00 0.  1.
          6    1    1    2  501    0  0.19604734187E+01 -0.13561088769E+03 -0.68039305261E+01  0.21914481465E+03  0.17200000000E+03 0.  1.
         -6    1    1    2    0  503 -0.19604734187E+01  0.13561088769E+03 -0.36068275293E+03  0.42198365440E+03  0.17200000000E+03 0.  1.
</event>
<event>
 4    1  0.4475741E+000  0.1759343E+03  0.7818608E-02  0.1171797E+00
         21   -1    0    0  501  502  0.00000000000E+00  0.00000000000E+00  0.13757415836E+03  0.13757415836E+03  0.00000000000E+00 0.  1.
         21   -1    0    0  502  503 -0.00000000000E+00 -0.00000000000E+00 -0.26099686197E+03  0.26099686197E+03  0.00000000000E+00 0.  1.
          6    1    1    2  501    0 -0.15462228445E+02 -0.33612624785E+02 -0.13573103918E+03  0.22220666968E+03  0.17200000000E+03 0.  1.
         -6    1    1    2    0  503  0.15462228445E+02  0.33612624785E+02  0.12308335566E+02  0.17636435064E+03  0.17200000000E+03 0.  1.
</event>
<event>
 4    1  0.4475741E+000  0.1942658E+03  0.7818608E-02  0.1154669E+00
         21   -1    0    0  503  502  0.00000000000E+00  0.00000000000E+00  0.10961525270E+04  0.10961525270E+04  0.00000000000E+00 0.  1.
         21   -1    0    0  501  503 -0.00000000000E+00 -0.00000000000E+00 -0.36971178776E+02  0.36971178776E+02  0.00000000000E+00 0. -1.
          6    1    1    2  501    0  0.86156954568E+02  0.27058877136E+02  0.38101873911E+03  0.42768502804E+03  0.17200000000E+03 0. -1.
         -6    1    1    2    0  502 -0.86156954568E+02 -0.27058877136E+02  0.67816260913E+03  0.70543867775E+03  0.17200000000E+03 0.  1.
</event>
<event>
 4    1  0.4475741E+000  0.2093351E+03  0.7818608E-02  0.1142094E+00
         21   -1    0    0  503  502  0.00000000000E+00  0.00000000000E+00  0.16930026434E+03  0.16930026434E+03  0.00000000000E+00 0. -1.
         21   -1    0    0  501  503 -0.00000000000E+00 -0.00000000000E+00 -0.64155982947E+03  0.64155982947E+03  0.00000000000E+00 0. -1.
          6    1    1    2  501    0  0.31941161859E+02  0.11496501845E+03 -0.54927044413E+03  0.58780882443E+03  0.17200000000E+03 0. -1.
         -6    1    1    2    0  502 -0.31941161859E+02 -0.11496501845E+03  0.77010878999E+02  0.22305126938E+03  0.17200000000E+03 0. -1.
</event>
<event>
 4    1  0.4475741E+000  0.1788052E+03  0.7818608E-02  0.1168964E+00
         21   -1    0    0  501  502  0.00000000000E+00  0.00000000000E+00  0.18112366678E+03  0.18112366678E+03  0.00000000000E+00 0.  1.
         21   -1    0    0  502  503 -0.00000000000E+00 -0.00000000000E+00 -0.24339385297E+03  0.24339385297E+03  0.00000000000E+00 0.  1.
          6    1    1    2  501    0 -0.37383711754E+00  0.48858580945E+02  0.80127871346E+02  0.19593819549E+03  0.17200000000E+03 0.  1.
         -6    1    1    2    0  503  0.37383711754E+00 -0.48858580945E+02 -0.14239805754E+03  0.22857932425E+03  0.17200000000E+03 0.  1.
</event>
<event>
 4    1  0.4475741E+000  0.1878185E+03  0.7818608E-02  0.1160444E+00
         21   -1    0    0  503  502  0.00000000000E+00  0.00000000000E+00  0.33792215398E+03  0.33792215398E+03  0.00000000000E+00 0.  1.
         21   -1    0    0  501  503 -0.00000000000E+00 -0.00000000000E+00 -0.12371537447E+03  0.12371537447E+03  0.00000000000E+00 0.  1.
          6    1    1    2  501    0 -0.49378722487E+02  0.57039602440E+02  0.15876987880E+02  0.18848833711E+03  0.17200000000E+03 0.  1.
         -6    1    1    2    0  502  0.49378722487E+02 -0.57039602440E+02  0.19832979163E+03  0.27314919134E+03  0.17200000000E+03 0.  1.
</event>
<event>
 4    1  0.4475741E+000  0.2006533E+03  0.7818608E-02  0.1149189E+00
         21   -1    0    0  501  502  0.00000000000E+00  0.00000000000E+00  0.11908918379E+04  0.11908918379E+04  0.00000000000E+00 0. -1.
         21   -1    0    0  502  503 -0.00000000000E+00 -0.00000000000E+00 -0.34491322290E+02  0.34491322290E+02  0.00000000000E+00 0. -1.
          6    1    1    2  501    0 -0.91376530484E+02  0.48250217261E+02  0.66443410438E+03  0.69407091342E+03  0.17200000000E+03 0. -1.
         -6    1    1    2    0  503  0.91376530484E+02 -0.48250217261E+02  0.49196641121E+03  0.53131224675E+03  0.17200000000E+03 0. -1.
</event>
<event>
 4    1  0.4475741E+000  0.2262900E+03  0.7818608E-02  0.1129279E+00
         21   -1    0    0  501  502  0.00000000000E+00  0.00000000000E+00  0.17518488965E+03  0.17518488965E+03  0.00000000000E+00 0. -1.
         21   -1    0    0  502  503 -0.00000000000E+00 -0.00000000000E+00 -0.29844951628E+03  0.29844951628E+03  0.00000000000E+00 0.  1.
          6    1    1    2  501    0  0.32497703546E+02  0.14341223926E+03 -0.27648532547E+02  0.22797283272E+03  0.17200000000E+03 0. -1.
         -6    1    1    2    0  503 -0.32497703546E+02 -0.14341223926E+03 -0.95616094085E+02  0.24566157321E+03  0.17200000000E+03 0.  1.
</event>
<event>
 4    1  0.4475741E+000  0.1885144E+03  0.7818608E-02  0.1159808E+00
         21   -1    0    0  501  502  0.00000000000E+00  0.00000000000E+00  0.32946712804E+03  0.32946712804E+03  0.00000000000E+00 0.  1.
         21   -1    0    0  502  503 -0.00000000000E+00 -0.00000000000E+00 -0.15115307042E+03  0.15115307042E+03  0.00000000000E+00 0.  1.
          6    1    1    2  501    0 -0.21669952518E+02  0.74054747588E+02  0.21776026635E+03  0.28802296103E+03  0.17200000000E+03 0.  1.
         -6    1    1    2    0  503  0.21669952518E+02 -0.74054747588E+02 -0.39446208723E+02  0.19259723743E+03  0.17200000000E+03 0.  1.
</event>
<event>
 4    1  0.4475741E+000  0.1845528E+03  0.7818608E-02  0.1163468E+00
         21   -1    0    0  501  502  0.00000000000E+00  0.00000000000E+00  0.80803417950E+03  0.80803417950E+03  0.00000000000E+00 0. -1.
         21   -1    0    0  502  503 -0.00000000000E+00 -0.00000000000E+00 -0.45943822693E+02  0.45943822693E+02  0.00000000000E+00 0. -1.
          6    1    1    2  501    0 -0.72971928410E+01  0.66501655141E+02  0.50372276707E+03  0.53646653691E+03  0.17200000000E+03 0. -1.
         -6    1    1    2    0  503  0.72971928410E+01 -0.66501655141E+02  0.25836758974E+03  0.31751146528E+03  0.17200000000E+03 0. -1.
</event>
<event>
 4    1  0.4475741E+000  0.2004452E+03  0.7818608E-02  0.1149364E+00
         21   -1    0    0  503  502  0.00000000000E+00  0.00000000000E+00  0.30466414895E+03  0.30466414895E+03  0.00000000000E+00 0.  1.
         21   -1    0    0  501  503 -0.00000000000E+00 -0.00000000000E+00 -0.13188453580E+03  0.13188453580E+03  0.00000000000E+00 0. -1.
          6    1    1    2  501    0 -0.83838556589E+02 -0.59710649700E+02  0.88013937245E+02  0.21891714964E+03  0.17200000000E+03 0. -1.
         -6    1    1    2    0  502  0.83838556589E+02  0.59710649700E+02  0.84765675909E+02  0.21763153510E+03  0.17200000000E+03 0.  1.
</event>
<event>
 4    1  0.4475741E+000  0.1827325E+03  0.7818608E-02  0.1165184E+00
         21   -1    0    0  503  502  0.00000000000E+00  0.00000000000E+00  0.40852937317E+03  0.40852937317E+03  0.00000000000E+00 0. -1.
         21   -1    0    0  501  503 -0.00000000000E+00 -0.00000000000E+00 -0.21122779158E+03  0.21122779158E+03  0.00000000000E+00 0. -1.
          6    1    1    2  501    0  0.38413381997E+02 -0.48286561864E+02 -0.14397596880E+03  0.23263761426E+03  0.17200000000E+03 0. -1.
         -6    1    1    2    0  502 -0.38413381997E+02  0.48286561864E+02  0.34127755039E+03  0.38711955049E+03  0.17200000000E+03 0. -1.
</event>
<event>
 4    1  0.4475741E+000  0.1910012E+03  0.7818608E-02  0.1157561E+00
         21   -1    0    0  503  502  0.00000000000E+00  0.00000000000E+00  0.45836260787E+02  0.45836260787E+02  0.00000000000E+00 0. -1.
         21   -1    0    0  501  503 -0.00000000000E+00 -0.00000000000E+00 -0.79662846923E+03  0.79662846923E+03  0.00000000000E+00 0.  1.
          6    1    1    2  501    0  0.49453625999E+02 -0.66721752007E+02 -0.38806263571E+03  0.43252059205E+03  0.17200000000E+03 0. -1.
         -6    1    1    2    0  502 -0.49453625999E+02  0.66721752007E+02 -0.36272957273E+03  0.40994413796E+03  0.17200000000E+03 0.  1.
</event>
<event>
 4    1  0.4475741E+000  0.2166486E+03  0.7818608E-02  0.1136407E+00
         21   -1    0    0  503  502  0.00000000000E+00  0.00000000000E+00  0.89049313006E+02  0.89049313006E+02  0.00000000000E+00 0.  1.
         21   -1    0    0  501  503 -0.00000000000E+00 -0.00000000000E+00 -0.13705825147E+04  0.13705825147E+04  0.00000000000E+00 0. -1.
          6    1    1    2  501    0  0.46102826090E+02  0.12339831005E+03 -0.12133021748E+04  0.12324929131E+04  0.17200000000E+03 0. -1.
         -6    1    1    2    0  502 -0.46102826090E+02 -0.12339831005E+03 -0.68231026904E+02  0.22713891460E+03  0.17200000000E+03 0.  1.
</event>
<event>
 4    1  0.4475741E+000  0.1976494E+03  0.7818608E-02  0.1151738E+00
         21   -1    0    0  503  502  0.00000000000E+00  0.00000000000E+00  0.17734171801E+03  0.17734171801E+03  0.00000000000E+00 0.  1.
         21   -1    0    0  501  503 -0.00000000000E+00 -0.00000000000E+00 -0.22202742968E+03  0.22202742968E+03  0.00000000000E+00 0. -1.
          6    1    1    2  501    0  0.38798727954E+02 -0.89308043261E+02 -0.40045435640E+02  0.20166532869E+03  0.17200000000E+03 0. -1.
         -6    1    1    2    0  502 -0.38798727954E+02  0.89308043261E+02 -0.46402760306E+01  0.19770381899E+03  0.17200000000E+03 0.  1.
</event>
<event>
 4    1  0.4475741E+000  0.2604926E+03  0.7818608E-02  0.1106848E+00
         21   -1    0    0  501  502  0.00000000000E+00  0.00000000000E+00  0.74141752861E+03  0.74141752861E+03  0.00000000000E+00 0. -1.
         21   -1    0    0  502  503 -0.00000000000E+00 -0.00000000000E+00 -0.13812337492E+03  0.13812337492E+03  0.00000000000E+00 0. -1.
          6    1    1    2  501    0 -0.36922544742E+01  0.19559841336E+03  0.55708747145E+03  0.61498196958E+03  0.17200000000E+03 0. -1.
         -6    1    1    2    0  503  0.36922544742E+01 -0.19559841336E+03  0.46206682242E+02  0.26455893396E+03  0.17200000000E+03 0. -1.
</event>
<event>
 4    1  0.4475741E+000  0.2786539E+03  0.7818608E-02  0.1096426E+00
         21   -1    0    0  503  502  0.00000000000E+00  0.00000000000E+00  0.24403525291E+04  0.24403525291E+04  0.00000000000E+00 0.  1.
         21   -1    0    0  501  503 -0.00000000000E+00 -0.00000000000E+00 -0.64670178774E+02  0.64670178774E+02  0.00000000000E+00 0.  1.
          6    1    1    2  501    0 -0.21923011840E+03 -0.14669610965E+01  0.29513323013E+03  0.40589607083E+03  0.17200000000E+03 0.  1.
         -6    1    1    2    0  502  0.21923011840E+03  0.14669610965E+01  0.20805491202E+04  0.20991266370E+04  0.17200000000E+03 0.  1.
</event>
<event>
 4    1  0.4475741E+000  0.1801271E+03  0.7818608E-02  0.1167680E+00
         21   -1    0    0  503  502  0.00000000000E+00  0.00000000000E+00  0.34121649106E+03  0.34121649106E+03  0.00000000000E+00 0. -1.
         21   -1    0    0  501  503 -0.00000000000E+00 -0.00000000000E+00 -0.11825337849E+03  0.11825337849E+03  0.00000000000E+00 0. -1.
          6    1    1    2  501    0  0.36524835127E+02  0.39085791887E+02  0.98016072116E+01  0.18039355369E+03  0.17200000000E+03 0. -1.
         -6    1    1    2    0  502 -0.36524835127E+02 -0.39085791887E+02  0.21316150536E+03  0.27907631586E+03  0.17200000000E+03 0. -1.
</event>
<event>
 4    1  0.4475741E+000  0.2344372E+03  0.7818608E-02  0.1123555E+00
         21   -1    0    0  501  502  0.00000000000E+00  0.00000000000E+00  0.18205124754E+03  0.18205124754E+03  0.00000000000E+00 0.  1.
         21   -1    0    0  502  503 -0.00000000000E+00 -0.00000000000E+00 -0.34455248280E+03  0.34455248280E+03  0.00000000000E+00 0.  1.
          6    1    1    2  501    0  0.15540292744E+03 -0.35024883127E+02  0.11392091590E+02  0.23471385141E+03  0.17200000000E+03 0.  1.
         -6    1    1    2    0  503 -0.15540292744E+03  0.35024883127E+02 -0.17389332686E+03  0.29188987893E+03  0.17200000000E+03 0.  1.
</event>
<event>
 4    1  0.4475741E+000  0.2904306E+03  0.7818608E-02  0.1090125E+00
         21   -1    0    0  501  502  0.00000000000E+00  0.00000000000E+00  0.37855871587E+03  0.37855871587E+03  0.00000000000E+00 0. -1.
         21   -1    0    0  502  503 -0.00000000000E+00 -0.00000000000E+00 -0.27178565523E+03  0.27178565523E+03  0.00000000000E+00 0.  1.
          6    1    1    2  501    0  0.22958723738E+03 -0.45339171719E+02  0.19140967540E+03  0.34783272401E+03  0.17200000000E+03 0. -1.
         -6    1    1    2    0  503 -0.22958723738E+03  0.45339171719E+02 -0.84636614758E+02  0.30251164708E+03  0.17200000000E+03 0.  1.
</event>
<event>
 4    1  0.4475741E+000  0.1801657E+03  0.7818608E-02  0.1167643E+00
         21   -1    0    0  501  502  0.00000000000E+00  0.00000000000E+00  0.16822594447E+04  0.16822594447E+04  0.00000000000E+00 0. -1.
         21   -1    0    0  502  503 -0.00000000000E+00 -0.00000000000E+00 -0.41401570976E+02  0.41401570976E+02  0.00000000000E+00 0. -1.
          6    1    1    2  501    0 -0.45063310030E+02  0.29068516179E+02  0.14501834888E+04  0.14613322113E+04  0.17200000000E+03 0. -1.
         -6    1    1    2    0  503  0.45063310030E+02 -0.29068516179E+02  0.19067438489E+03  0.26232880436E+03  0.17200000000E+03 0. -1.
</event>
<event>
 4    1  0.4475741E+000  0.1831081E+03  0.7818608E-02  0.1164828E+00
         21   -1    0    0  501  502  0.00000000000E+00  0.00000000000E+00  0.18717816022E+03  0.18717816022E+03  0.00000000000E+00 0. -1.
         21   -1    0    0  502  503 -0.00000000000E+00 -0.00000000000E+00 -0.18743876633E+03  0.18743876633E+03  0.00000000000E+00 0. -1.
          6    1    1    2  501    0  0.34206720117E+02 -0.52673364971E+02  0.39314102249E+02  0.18728102337E+03  0.17200000000E+03 0. -1.
         -6    1    1    2    0  503 -0.34206720117E+02  0.52673364971E+02 -0.39574708352E+02  0.18733590318E+03  0.17200000000E+03 0. -1.
</event>
<event>
 4    1  0.4475741E+000  0.2424461E+03  0.7818608E-02  0.1118174E+00
         21   -1    0    0  503  502  0.00000000000E+00  0.00000000000E+00  0.17114519539E+03  0.17114519539E+03  0.00000000000E+00 0. -1.
         21   -1    0    0  501  503 -0.00000000000E+00 -0.00000000000E+00 -0.36291455943E+03  0.36291455943E+03  0.00000000000E+00 0. -1.
          6    1    1    2  501    0 -0.16982155536E+03 -0.18888273429E+02 -0.15772329355E+03  0.28923479193E+03  0.17200000000E+03 0. -1.
         -6    1    1    2    0  502  0.16982155536E+03  0.18888273429E+02 -0.34046070493E+02  0.24482496289E+03  0.17200000000E+03 0. -1.
</event>
<event>
 4    1  0.4475741E+000  0.1836054E+03  0.7818608E-02  0.1164359E+00
         21   -1    0    0  501  502  0.00000000000E+00  0.00000000000E+00  0.39768030085E+03  0.39768030085E+03  0.00000000000E+00 0. -1.
         21   -1    0    0  502  503 -0.00000000000E+00 -0.00000000000E+00 -0.25159273393E+03  0.25159273393E+03  0.00000000000E+00 0. -1.
          6    1    1    2  501    0  0.14611391774E+02 -0.62557630984E+02  0.33739254482E+03  0.38411545044E+03  0.17200000000E+03 0. -1.
         -6    1    1    2    0  503 -0.14611391774E+02  0.62557630984E+02 -0.19130497790E+03  0.26515758434E+03  0.17200000000E+03 0. -1.
</event>
<event>
 4    1  0.4475741E+000  0.1779809E+03  0.7818608E-02  0.1169772E+00
         21   -1    0    0  501  502  0.00000000000E+00  0.00000000000E+00  0.26815964866E+03  0.26815964866E+03  0.00000000000E+00 0. -1.
         21   -1    0    0  502  503 -0.00000000000E+00 -0.00000000000E+00 -0.35902779608E+03  0.35902779608E+03  0.00000000000E+00 0. -1.
          6    1    1    2  501    0  0.38796742382E+02 -0.24249234033E+02  0.21144065063E+03  0.27637720837E+03  0.17200000000E+03 0. -1.
         -6    1    1    2    0  503 -0.38796742382E+02  0.24249234033E+02 -0.30230879804E+03  0.35081023637E+03  0.17200000000E+03 0. -1.
</event>
<event>
 4    1  0.4475741E+000  0.2055320E+03  0.7818608E-02  0.1145154E+00
         21   -1    0    0  503  502  0.00000000000E+00  0.00000000000E+00  0.73336010409E+03  0.73336010409E+03  0.00000000000E+00 0. -1.
         21   -1    0    0  501  503 -0.00000000000E+00 -0.00000000000E+00 -0.57658948581E+02  0.57658948581E+02  0.00000000000E+00 0.  1.
          6    1    1    2  501    0  0.18503762497E+01  0.11249884958E+03  0.35021978893E+03  0.40607550481E+03  0.17200000000E+03 0.  1.
         -6    1    1    2    0  502 -0.18503762497E+01 -0.11249884958E+03  0.32548136658E+03  0.38494354786E+03  0.17200000000E+03 0. -1.
</event>
<event>
 4    1  0.4475741E+000  0.1906052E+03  0.7818608E-02  0.1157917E+00
         21   -1    0    0  501  502  0.00000000000E+00  0.00000000000E+00  0.63132580988E+02  0.63132580988E+02  0.00000000000E+00 0. -1.
         21   -1    0    0  502  503 -0.00000000000E+00 -0.00000000000E+00 -0.69252641424E+03  0.69252641424E+03  0.00000000000E+00 0.  1.
          6    1    1    2  501    0  0.71062352263E+02 -0.41188207991E+02 -0.47004014956E+03  0.50721599796E+03  0.17200000000E+03 0.  1.
         -6    1    1    2    0  503 -0.71062352263E+02  0.41188207991E+02 -0.15935368370E+03  0.24844299727E+03  0.17200000000E+03 0. -1.
</event>
<event>
 4    1  0.4475741E+000  0.2721962E+03  0.7818608E-02  0.1100029E+00
         21   -1    0    0  501  502  0.00000000000E+00  0.00000000000E+00  0.15033283486E+04  0.15033283486E+04  0.00000000000E+00 0.  1.
         21   -1    0    0  502  503 -0.00000000000E+00 -0.00000000000E+00 -0.50647847185E+02  0.50647847185E+02  0.00000000000E+00 0. -1.
          6    1    1    2  501    0  0.19185086888E+03  0.87749826938E+02  0.59886176671E+03  0.65781927886E+03  0.17200000000E+03 0.  1.
         -6    1    1    2    0  503 -0.19185086888E+03 -0.87749826938E+02  0.85381873475E+03  0.89615691697E+03  0.17200000000E+03 0.  1.
</event>
<event>
 4    1  0.4475741E+000  0.2214217E+03  0.7818608E-02  0.1132828E+00
         21   -1    0    0  501  502  0.00000000000E+00  0.00000000000E+00  0.81300791180E+02  0.81300791180E+02  0.00000000000E+00 0. -1.
         21   -1    0    0  502  503 -0.00000000000E+00 -0.00000000000E+00 -0.60596466454E+03  0.60596466454E+03  0.00000000000E+00 0.  1.
          6    1    1    2  501    0 -0.60348777951E+02  0.12570435523E+03 -0.23845535914E+03  0.32540516011E+03  0.17200000000E+03 0.  1.
         -6    1    1    2    0  503  0.60348777951E+02 -0.12570435523E+03 -0.28620851422E+03  0.36186029561E+03  0.17200000000E+03 0. -1.
</event>
<event>
 4    1  0.4475741E+000  0.1849543E+03  0.7818608E-02  0.1163093E+00
         21   -1    0    0  503  502  0.00000000000E+00  0.00000000000E+00  0.17023505419E+03  0.17023505419E+03  0.00000000000E+00 0.  1.
         21   -1    0    0  501  503 -0.00000000000E+00 -0.00000000000E+00 -0.30032500746E+03  0.30032500746E+03  0.00000000000E+00 0.  1.
          6    1    1    2  501    0  0.53812266373E+02  0.41573395645E+02 -0.20038802501E+03  0.27269665896E+03  0.17200000000E+03 0.  1.
         -6    1    1    2    0  502 -0.53812266373E+02 -0.41573395645E+02  0.70298071740E+02  0.19786340270E+03  0.17200000000E+03 0.  1.
</event>
<event>
 4    1  0.4475741E+000  0.1951153E+03  0.7818608E-02  0.1153927E+00
         21   -1    0    0  503  502  0.00000000000E+00  0.00000000000E+00  0.19005247036E+03  0.19005247036E+03  0.00000000000E+00 0. -1.
         21   -1    0    0  501  503 -0.00000000000E+00 -0.00000000000E+00 -0.27482659069E+03  0.27482659069E+03  0.00000000000E+00 0. -1.
          6    1    1    2  501    0 -0.61554996146E+02 -0.68534343734E+02 -0.16341857324E+03  0.25451051825E+03  0.17200000000E+03 0. -1.
         -6    1    1    2    0  502  0.61554996146E+02  0.68534343734E+02  0.78644452914E+02  0.21036854279E+03  0.17200000000E+03 0. -1.
</event>
<event>
 4    1  0.4475741E+000  0.2140595E+03  0.7818608E-02  0.1138391E+00
         21   -1    0    0  503  502  0.00000000000E+00  0.00000000000E+00  0.10999164640E+03  0.10999164640E+03  0.00000000000E+00 0. -1.
         21   -1    0    0  501  503 -0.00000000000E+00 -0.00000000000E+00 -0.60415992195E+03  0.60415992195E+03  0.00000000000E+00 0.  1.
          6    1    1    2  501    0  0.11682443161E+03 -0.50887170053E+02 -0.44604410713E+03  0.49474922679E+03  0.17200000000E+03 0.  1.
         -6    1    1    2    0  502 -0.11682443161E+03  0.50887170053E+02 -0.48124168413E+02  0.21940234156E+03  0.17200000000E+03 0. -1.
</event>
<event>
 4    1  0.4475741E+000  0.1924083E+03  0.7818608E-02  0.1156307E+00
         21   -1    0    0  503  502  0.00000000000E+00  0.00000000000E+00  0.70825154029E+03  0.70825154029E+03  0.00000000000E+00 0. -1.
         21   -1    0    0  501  503 -0.00000000000E+00 -0.00000000000E+00 -0.63484398005E+02  0.63484398005E+02  0.00000000000E+00 0. -1.
          6    1    1    2  501    0 -0.50965194375E+02  0.69566588087E+02  0.16021176628E+03  0.25037725789E+03  0.17200000000E+03 0. -1.
         -6    1    1    2    0  502  0.50965194375E+02 -0.69566588087E+02  0.48455537601E+03  0.52135868041E+03  0.17200000000E+03 0. -1.
</event>
<event>
 4    1  0.4475741E+000  0.2108011E+03  0.7818608E-02  0.1140933E+00
         21   -1    0    0  503  502  0.00000000000E+00  0.00000000000E+00  0.90634783782E+02  0.90634783782E+02  0.00000000000E+00 0.  1.
         21   -1    0    0  501  503 -0.00000000000E+00 -0.00000000000E+00 -0.50218413927E+03  0.50218413927E+03  0.00000000000E+00 0. -1.
          6    1    1    2  501    0  0.11956143124E+03 -0.23625447365E+02 -0.16015276300E+03  0.26473761557E+03  0.17200000000E+03 0.  1.
         -6    1    1    2    0  502 -0.11956143124E+03  0.23625447365E+02 -0.25139659249E+03  0.32808130748E+03  0.17200000000E+03 0. -1.
</event>
<event>
 4    1  0.4475741E+000  0.1886683E+03  0.7818608E-02  0.1159668E+00
         21   -1    0    0  501  502  0.00000000000E+00  0.00000000000E+00  0.21091623623E+03  0.21091623623E+03  0.00000000000E+00 0.  1.
         21   -1    0    0  502  503 -0.00000000000E+00 -0.00000000000E+00 -0.19504021276E+03  0.19504021276E+03  0.00000000000E+00 0.  1.
          6    1    1    2  501    0  0.72522510793E+02  0.27426543524E+02  0.82435701779E+02  0.20589165789E+03  0.17200000000E+03 0.  1.
         -6    1    1    2    0  503 -0.72522510793E+02 -0.27426543524E+02 -0.66559678313E+02  0.20006479110E+03  0.17200000000E+03 0.  1.
</event>
<event>
 4    1  0.4475741E+000  0.1913717E+03  0.7818608E-02  0.1157230E+00
         21   -1    0    0  503  502  0.00000000000E+00  0.00000000000E+00  0.20086962841E+03  0.20086962841E+03  0.00000000000E+00 0. -1.
         21   -1    0    0  501  503 -0.00000000000E+00 -0.00000000000E+00 -0.32189010612E+03  0.32189010612E+03  0.00000000000E+00 0. -1.
          6    1    1    2  501    0 -0.71180686708E+02  0.44412047782E+02 -0.23262182713E+03  0.30122422646E+03  0.17200000000E+03 0.  1.
         -6    1    1    2    0  502  0.71180686708E+02 -0.44412047782E+02  0.11160134941E+03  0.22153550808E+03  0.17200000000E+03 0.  1.
</event>
<event>
 4    1  0.4475741E+000  0.1894029E+03  0.7818608E-02  0.1159001E+00
         21   -1    0    0  501  502  0.00000000000E+00  0.00000000000E+00  0.17556983145E+03  0.17556983145E+03  0.00000000000E+00 0. -1.
         21   -1    0    0  502  503 -0.00000000000E+00 -0.00000000000E+00 -0.71644721949E+03  0.71644721949E+03  0.00000000000E+00 0. -1.
          6    1    1    2  501    0  0.22165942821E+02  0.76145380892E+02  0.10664480261E+03  0.21736274284E+03  0.17200000000E+03 0. -1.
         -6    1    1    2    0  503 -0.22165942821E+02 -0.76145380892E+02 -0.64752219065E+03  0.67465430810E+03  0.17200000000E+03 0. -1.
</event>
<event>
 4    1  0.4475741E+000  0.1854682E+03  0.7818608E-02  0.1162613E+00
         21   -1    0    0  503  502  0.00000000000E+00  0.00000000000E+00  0.97793644368E+02  0.97793644368E+02  0.00000000000E+00 0.  1.
         21   -1    0    0  501  503 -0.00000000000E+00 -0.00000000000E+00 -0.38166067594E+03  0.38166067594E+03  0.00000000000E+00 0.  1.
          6    1    1    2  501    0  0.74046291842E+01  0.68990130833E+02 -0.20904933285E+03  0.27946393372E+03  0.17200000000E+03 0. -1.
         -6    1    1    2    0  502 -0.74046291842E+01 -0.68990130833E+02 -0.74817698724E+02  0.19999038659E+03  0.17200000000E+03 0. -1.
</event>
<event>
 4    1  0.4475741E+000  0.4328529E+03  0.7818608E-02  0.1032963E+00
         21   -1    0    0  503  502  0.00000000000E+00  0.00000000000E+00  0.87267290097E+03  0.87267290097E+03  0.00000000000E+00 0.  1.
         21   -1    0    0  501  503 -0.00000000000E+00 -0.00000000000E+00 -0.21485614069E+03  0.21485614069E+03  0.00000000000E+00 0.  1.
          6    1    1    2  501    0  0.14263347116E+03  0.37072002756E+03  0.34363285910E+03  0.55267095796E+03  0.17200000000E+03 0.  1.
         -6    1    1    2    0  502 -0.14263347116E+03 -0.37072002756E+03  0.31418390118E+03  0.53485808369E+03  0.17200000000E+03 0.  1.
</event>
<event>
 4    1  0.4475741E+000  0.1865488E+03  0.7818608E-02  0.1161611E+00
         21   -1    0    0  501  502  0.00000000000E+00  0.00000000000E+00  0.61440309610E+03  0.61440309610E+03  0.00000000000E+00 0.  1.
         21   -1    0    0  502  503 -0.00000000000E+00 -0.00000000000E+00 -0.56904532666E+02  0.56904532666E+02  0.00000000000E+00 0. -1.
          6    1    1    2  501    0 -0.37012711825E+02 -0.62020236681E+02  0.30158818556E+03  0.35462076119E+03  0.17200000000E+03 0.  1.
         -6    1    1    2    0  503  0.37012711825E+02  0.62020236681E+02  0.25591037787E+03  0.31668686758E+03  0.17200000000E+03 0. -1.
</event>
<event>
 4    1  0.4475741E+000  0.1754014E+03  0.7818608E-02  0.1172329E+00
         21   -1    0    0  503  502  0.00000000000E+00  0.00000000000E+00  0.64929738630E+03  0.64929738630E+03  0.00000000000E+00 0. -1.
         21   -1    0    0  501  503 -0.00000000000E+00 -0.00000000000E+00 -0.47433652369E+02  0.47433652369E+02  0.00000000000E+00 0. -1.
          6    1    1    2  501    0 -0.24282643254E+02  0.24330897343E+02  0.28954470849E+03  0.33852884300E+03  0.17200000000E+03 0. -1.
         -6    1    1    2    0  502  0.24282643254E+02 -0.24330897343E+02  0.31231902544E+03  0.35820219567E+03  0.17200000000E+03 0. -1.
</event>
<event>
 4    1  0.4475741E+000  0.3755449E+03  0.7818608E-02  0.1052593E+00
         21   -1    0    0  501  502  0.00000000000E+00  0.00000000000E+00  0.22510053782E+03  0.22510053782E+03  0.00000000000E+00 0. -1.
         21   -1    0    0  502  503 -0.00000000000E+00 -0.00000000000E+00 -0.62678976765E+03  0.62678976765E+03  0.00000000000E+00 0.  1.
          6    1    1    2  501    0  0.95538992385E+02 -0.31987858386E+03 -0.19230535538E+03  0.42191866181E+03  0.17200000000E+03 0.  1.
         -6    1    1    2    0  503 -0.95538992385E+02  0.31987858386E+03 -0.20938387445E+03  0.42997164367E+03  0.17200000000E+03 0. -1.
</event>
<event>
 4    1  0.4475741E+000  0.2960937E+03  0.7818608E-02  0.1087210E+00
         21   -1    0    0  501  502  0.00000000000E+00  0.00000000000E+00  0.15192082369E+04  0.15192082369E+04  0.00000000000E+00 0.  1.
         21   -1    0    0  502  503 -0.00000000000E+00 -0.00000000000E+00 -0.88999384285E+02  0.88999384285E+02  0.00000000000E+00 0. -1.
          6    1    1    2  501    0  0.87573796709E+02  0.22454015596E+03  0.11918937465E+04  0.12281213924E+04  0.17200000000E+03 0.  1.
         -6    1    1    2    0  503 -0.87573796709E+02 -0.22454015596E+03  0.23831510611E+03  0.38008622878E+03  0.17200000000E+03 0. -1.
</event>
<event>
 4    1  0.4475741E+000  0.1990833E+03  0.7818608E-02  0.1150515E+00
         21   -1    0    0  503  502  0.00000000000E+00  0.00000000000E+00  0.27589437672E+03  0.27589437672E+03  0.00000000000E+00 0. -1.
         21   -1    0    0  501  503 -0.00000000000E+00 -0.00000000000E+00 -0.14605578041E+03  0.14605578041E+03  0.00000000000E+00 0. -1.
          6    1    1    2  501    0 -0.91422559363E+02 -0.41134803329E+02  0.37881724916E+02  0.20265532682E+03  0.17200000000E+03 0. -1.
         -6    1    1    2    0  502  0.91422559363E+02  0.41134803329E+02  0.91956871389E+02  0.21929483031E+03  0.17200000000E+03 0. -1.
</event>
<event>
 4    1  0.4475741E+000  0.2138827E+03  0.7818608E-02  0.1138528E+00
         21   -1    0    0  501  502  0.00000000000E+00  0.00000000000E+00  0.11161552123E+03  0.11161552123E+03  0.00000000000E+00 0. -1.
         21   -1    0    0  502  503 -0.00000000000E+00 -0.00000000000E+00 -0.44302008867E+03  0.44302008867E+03  0.00000000000E+00 0.  1.
          6    1    1    2  501    0 -0.14632243454E+02 -0.12628418746E+03 -0.24158257135E+03  0.32265761626E+03  0.17200000000E+03 0.  1.
         -6    1    1    2    0  503  0.14632243454E+02  0.12628418746E+03 -0.89821996088E+02  0.23197799364E+03  0.17200000000E+03 0. -1.
</event>
<event>
 4    1  0.4475741E+000  0.1921948E+03  0.7818608E-02  0.1156497E+00
         21   -1    0    0  503  502  0.00000000000E+00  0.00000000000E+00  0.77055219688E+03  0.77055219688E+03  0.00000000000E+00 0.  1.
         21   -1    0    0  501  503 -0.00000000000E+00 -0.00000000000E+00 -0.51448802746E+02  0.51448802746E+02  0.00000000000E+00 0. -1.
          6    1    1    2  501    0 -0.82467234613E+02  0.23537073528E+02  0.25219001498E+03  0.31707829044E+03  0.17200000000E+03 0. -1.
         -6    1    1    2    0  502  0.82467234613E+02 -0.23537073528E+02  0.46691337915E+03  0.50492270918E+03  0.17200000000E+03 0.  1.
</event>
<event>
 4    1  0.4475741E+000  0.2358263E+03  0.7818608E-02  0.1122605E+00
         21   -1    0    0  501  502  0.00000000000E+00  0.00000000000E+00  0.65957259162E+02  0.65957259162E+02  0.00000000000E+00 0. -1.
         21   -1    0    0  502  503 -0.00000000000E+00 -0.00000000000E+00 -0.85831632511E+03  0.85831632511E+03  0.00000000000E+00 0. -1.
          6    1    1    2  501    0  0.12638968963E+02  0.16084252217E+03 -0.45754294646E+03  0.51474227369E+03  0.17200000000E+03 0. -1.
         -6    1    1    2    0  503 -0.12638968963E+02 -0.16084252217E+03 -0.33481611949E+03  0.40953131057E+03  0.17200000000E+03 0. -1.
</event>
<event>
 4    1  0.4475741E+000  0.1783138E+03  0.7818608E-02  0.1169445E+00
         21   -1    0    0  501  502  0.00000000000E+00  0.00000000000E+00  0.29505289154E+02  0.29505289154E+02  0.00000000000E+00 0. -1.
         21   -1    0    0  502  503 -0.00000000000E+00 -0.00000000000E+00 -0.10988559913E+04  0.10988559913E+04  0.00000000000E+00 0. -1.
          6    1    1    2  501    0 -0.24685342057E+02  0.40030686345E+02 -0.45626581624E+03  0.48987173528E+03  0.17200000000E+03 0. -1.
         -6    1    1    2    0  503  0.24685342057E+02 -0.40030686345E+02 -0.61308488588E+03  0.63848954515E+03  0.17200000000E+03 0. -1.
</event>
<event>
 4    1  0.4475741E+000  0.2002326E+03  0.7818608E-02  0.1149543E+00
         21   -1    0    0  501  502  0.00000000000E+00  0.00000000000E+00  0.52999936128E+02  0.52999936128E+02  0.00000000000E+00 0.  1.
         21   -1    0    0  502  503 -0.00000000000E+00 -0.00000000000E+00 -0.79897630090E+03  0.79897630090E+03  0.00000000000E+00 0.  1.
          6    1    1    2  501    0  0.41793053907E+02 -0.93607918821E+02 -0.27473784607E+03  0.33996174179E+03  0.17200000000E+03 0. -1.
         -6    1    1    2    0  503 -0.41793053907E+02  0.93607918821E+02 -0.47123851870E+03  0.51201449523E+03  0.17200000000E+03 0. -1.
</event>
<event>
 4    1  0.4475741E+000  0.1772540E+03  0.7818608E-02  0.1170487E+00
         21   -1    0    0  501  502  0.00000000000E+00  0.00000000000E+00  0.10932531519E+04  0.10932531519E+04  0.00000000000E+00 0. -1.
         21   -1    0    0  502  503 -0.00000000000E+00 -0.00000000000E+00 -0.61907835777E+02  0.61907835777E+02  0.00000000000E+00 0. -1.
          6    1    1    2  501    0  0.41330172958E+02  0.11260175013E+02  0.93844346029E+03  0.95503670238E+03  0.17200000000E+03 0. -1.
         -6    1    1    2    0  503 -0.41330172958E+02 -0.11260175013E+02  0.92901855792E+02  0.20012428525E+03  0.17200000000E+03 0. -1.
</event>
<event>
 4    1  0.4475741E+000  0.1739910E+03  0.7818608E-02  0.1173749E+00
         21   -1    0    0  501  502  0.00000000000E+00  0.00000000000E+00  0.60803780705E+03  0.60803780705E+03  0.00000000000E+00 0. -1.
         21   -1    0    0  502  503 -0.00000000000E+00 -0.00000000000E+00 -0.53491940051E+02  0.53491940051E+02  0.00000000000E+00 0. -1.
          6    1    1    2  501    0  0.96116144503E+01  0.24423002086E+02  0.36431291074E+03  0.40372857602E+03  0.17200000000E+03 0. -1.
         -6    1    1    2    0  503 -0.96116144503E+01 -0.24423002086E+02  0.19023295626E+03  0.25780117108E+03  0.17200000000E+03 0. -1.
</event>
<event>
 4    1  0.4475741E+000  0.1969163E+03  0.7818608E-02  0.1152367E+00
         21   -1    0    0  503  502  0.00000000000E+00  0.00000000000E+00  0.57640429883E+02  0.57640429883E+02  0.00000000000E+00 0.  1.
         21   -1    0    0  501  503 -0.00000000000E+00 -0.00000000000E+00 -0.80933381720E+03  0.80933381720E+03  0.00000000000E+00 0.  1.
          6    1    1    2  501    0  0.95567681615E+02 -0.76703241556E+01 -0.55394330434E+03  0.58790237290E+03  0.17200000000E+03 0.  1.
         -6    1    1    2    0  502 -0.95567681615E+02  0.76703241556E+01 -0.19775008298E+03  0.27907187419E+03  0.17200000000E+03 0.  1.
</event>
<event>
 4    1  0.4475741E+000  0.1980157E+03  0.7818608E-02  0.1151424E+00
         21   -1    0    0  503  502  0.00000000000E+00  0.00000000000E+00  0.47228067094E+03  0.47228067094E+03  0.00000000000E+00 0.  1.
         21   -1    0    0  501  503 -0.00000000000E+00 -0.00000000000E+00 -0.16240277858E+03  0.16240277858E+03  0.00000000000E+00 0.  1.
          6    1    1    2  501    0  0.18483556922E+02 -0.96356490486E+02 -0.66924145996E+02  0.20901927292E+03  0.17200000000E+03 0.  1.
         -6    1    1    2    0  502 -0.18483556922E+02  0.96356490486E+02  0.37680203835E+03  0.42566417660E+03  0.17200000000E+03 0.  1.
</event>
<event>
 4    1  0.4475741E+000  0.2225294E+03  0.7818608E-02  0.1132011E+00
         21   -1    0    0  503  502  0.00000000000E+00  0.00000000000E+00  0.95368099130E+02  0.95368099130E+02  0.00000000000E+00 0.  1.
         21   -1    0    0  501  503 -0.00000000000E+00 -0.00000000000E+00 -0.52018046829E+03  0.52018046829E+03  0.00000000000E+00 0.  1.
          6    1    1    2  501    0 -0.11464884138E+03 -0.82407287535E+02 -0.19934776400E+03  0.29876219453E+03  0.17200000000E+03 0.  1.
         -6    1    1    2    0  502  0.11464884138E+03  0.82407287535E+02 -0.22546460516E+03  0.31678637289E+03  0.17200000000E+03 0.  1.
</event>
<event>
 4    1  0.4475741E+000  0.2034823E+03  0.7818608E-02  0.1146834E+00
         21   -1    0    0  503  502  0.00000000000E+00  0.00000000000E+00  0.70380497089E+03  0.70380497089E+03  0.00000000000E+00 0. -1.
         21   -1    0    0  501  503 -0.00000000000E+00 -0.00000000000E+00 -0.12980303487E+03  0.12980303487E+03  0.00000000000E+00 0.  1.
          6    1    1    2  501    0  0.91997234974E+02 -0.57944361618E+02 -0.21200926065E+02  0.20458377148E+03  0.17200000000E+03 0.  1.
         -6    1    1    2    0  502 -0.91997234974E+02  0.57944361618E+02  0.59520286208E+03  0.62902423428E+03  0.17200000000E+03 0. -1.
</event>
<event>
 4    1  0.4475741E+000  0.3104766E+03  0.7818608E-02  0.1080118E+00
         21   -1    0    0  503  502  0.00000000000E+00  0.00000000000E+00  0.69477485824E+03  0.69477485824E+03  0.00000000000E+00 0.  1.
         21   -1    0    0  501  503 -0.00000000000E+00 -0.00000000000E+00 -0.14597387678E+03  0.14597387678E+03  0.00000000000E+00 0. -1.
          6    1    1    2  501    0 -0.16052358004E+03  0.20259295072E+03  0.36795597896E+03  0.48144296224E+03  0.17200000000E+03 0.  1.
         -6    1    1    2    0  502  0.16052358004E+03 -0.20259295072E+03  0.18084500250E+03  0.35930577279E+03  0.17200000000E+03 0.  1.
</event>
<event>
 4    1  0.4475741E+000  0.1846498E+03  0.7818608E-02  0.1163377E+00
         21   -1    0    0  501  502  0.00000000000E+00  0.00000000000E+00  0.17840596474E+03  0.17840596474E+03  0.00000000000E+00 0. -1.
         21   -1    0    0  502  503 -0.00000000000E+00 -0.00000000000E+00 -0.19132487719E+03  0.19132487719E+03  0.00000000000E+00 0. -1.
          6    1    1    2  501    0  0.58038175185E+02 -0.33810097560E+02 -0.29559351745E+00  0.18465004698E+03  0.17200000000E+03 0. -1.
         -6    1    1    2    0  503 -0.58038175185E+02  0.33810097560E+02 -0.12623318928E+02  0.18508079494E+03  0.17200000000E+03 0. -1.
</event>
<event>
 4    1  0.4475741E+000  0.2384236E+03  0.7818608E-02  0.1120847E+00
         21   -1    0    0  503  502  0.00000000000E+00  0.00000000000E+00  0.98810227988E+03  0.98810227988E+03  0.00000000000E+00 0. -1.
         21   -1    0    0  501  503 -0.00000000000E+00 -0.00000000000E+00 -0.20039391045E+03  0.20039391045E+03  0.00000000000E+00 0. -1.
          6    1    1    2  501    0  0.12183113872E+03 -0.11144054774E+03 -0.10789462017E+03  0.26170034602E+03  0.17200000000E+03 0. -1.
         -6    1    1    2    0  502 -0.12183113872E+03  0.11144054774E+03  0.89560298960E+03  0.92679584431E+03  0.17200000000E+03 0. -1.
</event>
<event>
 4    1  0.4475741E+000  0.1898855E+03  0.7818608E-02  0.1158565E+00
         21   -1    0    0  501  502  0.00000000000E+00  0.00000000000E+00  0.17209553229E+03  0.17209553229E+03  0.00000000000E+00 0.  1.
         21   -1    0    0  502  503 -0.00000000000E+00 -0.00000000000E+00 -0.21694445830E+03  0.21694445830E+03  0.00000000000E+00 0.  1.
          6    1    1    2  501    0 -0.39537443347E+02 -0.70066407820E+02  0.13573912099E+02  0.19037006598E+03  0.17200000000E+03 0.  1.
         -6    1    1    2    0  503  0.39537443347E+02  0.70066407820E+02 -0.58422838116E+02  0.19866992461E+03  0.17200000000E+03 0.  1.
</event>
<event>
 4    1  0.4475741E+000  0.1883731E+03  0.7818608E-02  0.1159937E+00
         21   -1    0    0  501  502  0.00000000000E+00  0.00000000000E+00  0.22990836309E+03  0.22990836309E+03  0.00000000000E+00 0.  1.
         21   -1    0    0  502  503 -0.00000000000E+00 -0.00000000000E+00 -0.73978341349E+03  0.73978341349E+03  0.00000000000E+00 0.  1.
          6    1    1    2  501    0 -0.43150817812E+02  0.63548688709E+02  0.17637620533E+03  0.25805618520E+03  0.17200000000E+03 0.  1.
         -6    1    1    2    0  503  0.43150817812E+02 -0.63548688709E+02 -0.68625125573E+03  0.71163559137E+03  0.17200000000E+03 0.  1.
</event>
<event>
 4    1  0.4475741E+000  0.2171470E+03  0.7818608E-02  0.1136028E+00
         21   -1    0    0  501  502  0.00000000000E+00  0.00000000000E+00  0.46719009641E+03  0.46719009641E+03  0.00000000000E+00 0.  1.
         21   -1    0    0  502  503 -0.00000000000E+00 -0.00000000000E+00 -0.25556773457E+03  0.25556773457E+03  0.00000000000E+00 0.  1.
          6    1    1    2  501    0  0.10191495768E+03 -0.84747559995E+02  0.38691685286E+03  0.44368621632E+03  0.17200000000E+03 0.  1.
         -6    1    1    2    0  503 -0.10191495768E+03  0.84747559995E+02 -0.17529449103E+03  0.27907161466E+03  0.17200000000E+03 0.  1.
</event>
<event>
 4    1  0.4475741E+000  0.2124408E+03  0.7818608E-02  0.1139648E+00
         21   -1    0    0  501  502  0.00000000000E+00  0.00000000000E+00  0.63636138359E+02  0.63636138359E+02  0.00000000000E+00 0.  1.
         21   -1    0    0  502  503 -0.00000000000E+00 -0.00000000000E+00 -0.70927230683E+03  0.70927230683E+03  0.00000000000E+00 0.  1.
          6    1    1    2  501    0 -0.12430143111E+03  0.98098251313E+01 -0.31905827549E+03  0.38331352912E+03  0.17200000000E+03 0.  1.
         -6    1    1    2    0  503  0.12430143111E+03 -0.98098251313E+01 -0.32657789298E+03  0.38959491607E+03  0.17200000000E+03 0.  1.
</event>
<event>
 4    1  0.4475741E+000  0.2128088E+03  0.7818608E-02  0.1139361E+00
         21   -1    0    0  503  502  0.00000000000E+00  0.00000000000E+00  0.18002926558E+02  0.18002926558E+02  0.00000000000E+00 0.  1.
         21   -1    0    0  501  503 -0.00000000000E+00 -0.00000000000E+00 -0.25580323660E+04  0.25580323660E+04  0.00000000000E+00 0.  1.
          6    1    1    2  501    0 -0.12493122203E+03  0.97874382269E+01 -0.11040652229E+04  0.11243876648E+04  0.17200000000E+03 0.  1.
         -6    1    1    2    0  502  0.12493122203E+03 -0.97874382269E+01 -0.14359642165E+04  0.14516476278E+04  0.17200000000E+03 0.  1.
</event>
<event>
 4    1  0.4475741E+000  0.1988258E+03  0.7818608E-02  0.1150733E+00
         21   -1    0    0  503  502  0.00000000000E+00  0.00000000000E+00  0.52933202301E+03  0.52933202301E+03  0.00000000000E+00 0.  1.
         21   -1    0    0  501  503 -0.00000000000E+00 -0.00000000000E+00 -0.86615216283E+02  0.86615216283E+02  0.00000000000E+00 0. -1.
          6    1    1    2  501    0  0.98301763437E+02 -0.16865777456E+02  0.33567022724E+03  0.39013612060E+03  0.17200000000E+03 0.  1.
         -6    1    1    2    0  502 -0.98301763437E+02  0.16865777456E+02  0.10704657949E+03  0.22581111869E+03  0.17200000000E+03 0. -1.
</event>
<event>
 4    1  0.4475741E+000  0.2171255E+03  0.7818608E-02  0.1136044E+00
         21   -1    0    0  503  502  0.00000000000E+00  0.00000000000E+00  0.35423987386E+03  0.35423987386E+03  0.00000000000E+00 0.  1.
         21   -1    0    0  501  503 -0.00000000000E+00 -0.00000000000E+00 -0.23738319990E+03  0.23738319990E+03  0.00000000000E+00 0.  1.
          6    1    1    2  501    0 -0.11558299581E+03  0.64807729680E+02 -0.13765094818E+03  0.25708219363E+03  0.17200000000E+03 0.  1.
         -6    1    1    2    0  502  0.11558299581E+03 -0.64807729680E+02  0.25450762215E+03  0.33454088013E+03  0.17200000000E+03 0.  1.
</event>
<event>
 4    1  0.4475741E+000  0.2582216E+03  0.7818608E-02  0.1108216E+00
         21   -1    0    0  501  502  0.00000000000E+00  0.00000000000E+00  0.55320590828E+02  0.55320590828E+02  0.00000000000E+00 0. -1.
         21   -1    0    0  502  503 -0.00000000000E+00 -0.00000000000E+00 -0.16259331882E+04  0.16259331882E+04  0.00000000000E+00 0. -1.
          6    1    1    2  501    0 -0.15498428218E+03  0.11434271197E+03 -0.35774413942E+03  0.44120205439E+03  0.17200000000E+03 0. -1.
         -6    1    1    2    0  503  0.15498428218E+03 -0.11434271197E+03 -0.12128684580E+04  0.12400517247E+04  0.17200000000E+03 0. -1.
</event>
<event>
 4    1  0.4475741E+000  0.2966781E+03  0.7818608E-02  0.1086913E+00
         21   -1    0    0  501  502  0.00000000000E+00  0.00000000000E+00  0.54560093860E+03  0.54560093860E+03  0.00000000000E+00 0. -1.
         21   -1    0    0  502  503 -0.00000000000E+00 -0.00000000000E+00 -0.37625127562E+03  0.37625127562E+03  0.00000000000E+00 0. -1.
          6    1    1    2  501    0  0.17481841119E+02  0.24109805869E+03  0.43304364041E+03  0.52492350221E+03  0.17200000000E+03 0. -1.
         -6    1    1    2    0  503 -0.17481841119E+02 -0.24109805869E+03 -0.26369397743E+03  0.39692871200E+03  0.17200000000E+03 0. -1.
</event>
<event>
 4    1  0.4475741E+000  0.1758872E+03  0.7818608E-02  0.1171844E+00
         21   -1    0    0  503  502  0.00000000000E+00  0.00000000000E+00  0.89218334926E+02  0.89218334926E+02  0.00000000000E+00 0. -1.
         21   -1    0    0  501  503 -0.00000000000E+00 -0.00000000000E+00 -0.34706593733E+03  0.34706593733E+03  0.00000000000E+00 0. -1.
          6    1    1    2  501    0  0.29379769616E+01 -0.36656058405E+02 -0.13552401265E+03  0.22204291552E+03  0.17200000000E+03 0. -1.
         -6    1    1    2    0  502 -0.29379769616E+01  0.36656058405E+02 -0.12232358975E+03  0.21424135674E+03  0.17200000000E+03 0. -1.
</event>
<event>
 4    1  0.4475741E+000  0.1945160E+03  0.7818608E-02  0.1154450E+00
         21   -1    0    0  503  502  0.00000000000E+00  0.00000000000E+00  0.29963311138E+03  0.29963311138E+03  0.00000000000E+00 0. -1.
         21   -1    0    0  501  503 -0.00000000000E+00 -0.00000000000E+00 -0.20861293628E+03  0.20861293628E+03  0.00000000000E+00 0. -1.
          6    1    1    2  501    0 -0.89771040800E+02  0.13915567723E+02 -0.11414054448E+03  0.22553169774E+03  0.17200000000E+03 0. -1.
         -6    1    1    2    0  502  0.89771040800E+02 -0.13915567723E+02  0.20516071958E+03  0.28271434992E+03  0.17200000000E+03 0. -1.
</event>
<event>
 4    1  0.4475741E+000  0.5361501E+03  0.7818608E-02  0.1004751E+00
         21   -1    0    0  503  502  0.00000000000E+00  0.00000000000E+00  0.75042274424E+03  0.75042274424E+03  0.00000000000E+00 0. -1.
         21   -1    0    0  501  503 -0.00000000000E+00 -0.00000000000E+00 -0.38315780579E+03  0.38315780579E+03  0.00000000000E+00 0.  1.
          6    1    1    2  501    0 -0.47126014384E+03 -0.18917406796E+03  0.19268712967E+03  0.56972386391E+03  0.17200000000E+03 0. -1.
         -6    1    1    2    0  502  0.47126014384E+03  0.18917406796E+03  0.17457780878E+03  0.56385668612E+03  0.17200000000E+03 0.  1.
</event>
<event>
 4    1  0.4475741E+000  0.1808889E+03  0.7818608E-02  0.1166946E+00
         21   -1    0    0  501  502  0.00000000000E+00  0.00000000000E+00  0.20700130238E+03  0.20700130238E+03  0.00000000000E+00 0. -1.
         21   -1    0    0  502  503 -0.00000000000E+00 -0.00000000000E+00 -0.25669365017E+03  0.25669365017E+03  0.00000000000E+00 0. -1.
          6    1    1    2  501    0 -0.55786102436E+02  0.49707864354E+01  0.11886292307E+03  0.21644674270E+03  0.17200000000E+03 0. -1.
         -6    1    1    2    0  503  0.55786102436E+02 -0.49707864354E+01 -0.16855527086E+03  0.24724820986E+03  0.17200000000E+03 0. -1.
</event>
<event>
 4    1  0.4475741E+000  0.2071829E+03  0.7818608E-02  0.1143816E+00
         21   -1    0    0  503  502  0.00000000000E+00  0.00000000000E+00  0.29829280895E+03  0.29829280895E+03  0.00000000000E+00 0. -1.
         21   -1    0    0  501  503 -0.00000000000E+00 -0.00000000000E+00 -0.29029849875E+03  0.29029849875E+03  0.00000000000E+00 0.  1.
          6    1    1    2  501    0 -0.32746956875E+02  0.11076272509E+03 -0.20499391523E+03  0.29145711474E+03  0.17200000000E+03 0.  1.
         -6    1    1    2    0  502  0.32746956875E+02 -0.11076272509E+03  0.21298822543E+03  0.29713419296E+03  0.17200000000E+03 0. -1.
</event>
<event>
 4    1  0.4475741E+000  0.1887852E+03  0.7818608E-02  0.1159562E+00
         21   -1    0    0  503  502  0.00000000000E+00  0.00000000000E+00  0.61398096051E+03  0.61398096051E+03  0.00000000000E+00 0.  1.
         21   -1    0    0  501  503 -0.00000000000E+00 -0.00000000000E+00 -0.58160080392E+02  0.58160080392E+02  0.00000000000E+00 0.  1.
          6    1    1    2  501    0 -0.68158150652E+02 -0.37553992508E+02  0.29272032566E+03  0.34831741976E+03  0.17200000000E+03 0.  1.
         -6    1    1    2    0  502  0.68158150652E+02  0.37553992508E+02  0.26310055446E+03  0.32382362114E+03  0.17200000000E+03 0.  1.
</event>
<event>
 4    1  0.4475741E+000  0.2260639E+03  0.7818608E-02  0.1129441E+00
         21   -1    0    0  503  502  0.00000000000E+00  0.00000000000E+00  0.35106442425E+03  0.35106442425E+03  0.00000000000E+00 0. -1.
         21   -1    0    0  501  503 -0.00000000000E+00 -0.00000000000E+00 -0.14767494832E+03  0.14767494832E+03  0.00000000000E+00 0.  1.
          6    1    1    2  501    0  0.13724339753E+03 -0.51818398523E+02  0.71931568637E+02  0.23723205339E+03  0.17200000000E+03 0.  1.
         -6    1    1    2    0  502 -0.13724339753E+03  0.51818398523E+02  0.13145790730E+03  0.26150731917E+03  0.17200000000E+03 0. -1.
</event>
<event>
 4    1  0.4475741E+000  0.2544345E+03  0.7818608E-02  0.1110534E+00
         21   -1    0    0  501  502  0.00000000000E+00  0.00000000000E+00  0.75722100730E+02  0.75722100730E+02  0.00000000000E+00 0. -1.
         21   -1    0    0  502  503 -0.00000000000E+00 -0.00000000000E+00 -0.14477019938E+04  0.14477019938E+04  0.00000000000E+00 0.  1.
          6    1    1    2  501    0  0.13708795480E+03  0.12790551741E+03 -0.19857832087E+03  0.32275420719E+03  0.17200000000E+03 0. -1.
         -6    1    1    2    0  503 -0.13708795480E+03 -0.12790551741E+03 -0.11734015722E+04  0.12006698873E+04  0.17200000000E+03 0.  1.
</event>
<event>
 4    1  0.4475741E+000  0.1726016E+03  0.7818608E-02  0.1175162E+00
         21   -1    0    0  503  502  0.00000000000E+00  0.00000000000E+00  0.11966142392E+03  0.11966142392E+03  0.00000000000E+00 0.  1.
         21   -1    0    0  501  503 -0.00000000000E+00 -0.00000000000E+00 -0.94669888466E+03  0.94669888466E+03  0.00000000000E+00 0.  1.
          6    1    1    2  501    0 -0.13213622678E+02  0.57196744287E+01 -0.87125302240E+03  0.88818530924E+03  0.17200000000E+03 0.  1.
         -6    1    1    2    0  502  0.13213622678E+02 -0.57196744287E+01  0.44215561661E+02  0.17817499935E+03  0.17200000000E+03 0.  1.
</event>
<event>
 4    1  0.4475741E+000  0.2379525E+03  0.7818608E-02  0.1121164E+00
         21   -1    0    0  501  502  0.00000000000E+00  0.00000000000E+00  0.32905822724E+03  0.32905822724E+03  0.00000000000E+00 0.  1.
         21   -1    0    0  502  503 -0.00000000000E+00 -0.00000000000E+00 -0.17217785076E+03  0.17217785076E+03  0.00000000000E+00 0.  1.
          6    1    1    2  501    0 -0.32665751925E+02  0.16115317096E+03  0.84681897152E+02  0.25257161275E+03  0.17200000000E+03 0.  1.
         -6    1    1    2    0  503  0.32665751925E+02 -0.16115317096E+03  0.72198479330E+02  0.24866446525E+03  0.17200000000E+03 0.  1.
</event>
<event>
 4    1  0.4475741E+000  0.1750480E+03  0.7818608E-02  0.1172684E+00
         21   -1    0    0  501  502  0.00000000000E+00  0.00000000000E+00  0.17376296562E+03  0.17376296562E+03  0.00000000000E+00 0. -1.
         21   -1    0    0  502  503 -0.00000000000E+00 -0.00000000000E+00 -0.20060277436E+03  0.20060277436E+03  0.00000000000E+00 0. -1.
          6    1    1    2  501    0  0.32143966828E+02  0.49551262630E+01 -0.78514644046E+02  0.19184977772E+03  0.17200000000E+03 0. -1.
         -6    1    1    2    0  503 -0.32143966828E+02 -0.49551262630E+01  0.51674835303E+02  0.18251596227E+03  0.17200000000E+03 0. -1.
</event>
<event>
 4    1  0.4475741E+000  0.1862166E+03  0.7818608E-02  0.1161919E+00
         21   -1    0    0  501  502  0.00000000000E+00  0.00000000000E+00  0.97664496660E+02  0.97664496660E+02  0.00000000000E+00 0.  1.
         21   -1    0    0  502  503 -0.00000000000E+00 -0.00000000000E+00 -0.36699166897E+03  0.36699166897E+03  0.00000000000E+00 0.  1.
          6    1    1    2  501    0 -0.19384024927E+02  0.68679422920E+02 -0.17655766479E+03  0.25661101409E+03  0.17200000000E+03 0.  1.
         -6    1    1    2    0  503  0.19384024927E+02 -0.68679422920E+02 -0.92769507518E+02  0.20804515154E+03  0.17200000000E+03 0.  1.
</event>
<event>
 4    1  0.4475741E+000  0.2017895E+03  0.7818608E-02  0.1148238E+00
         21   -1    0    0  501  502  0.00000000000E+00  0.00000000000E+00  0.11999010833E+03  0.11999010833E+03  0.00000000000E+00 0. -1.
         21   -1    0    0  502  503 -0.00000000000E+00 -0.00000000000E+00 -0.53214908114E+03  0.53214908114E+03  0.00000000000E+00 0. -1.
          6    1    1    2  501    0 -0.93217987943E+02  0.49450979151E+02 -0.98144920886E+01  0.20202801011E+03  0.17200000000E+03 0. -1.
         -6    1    1    2    0  503  0.93217987943E+02 -0.49450979151E+02 -0.40234448072E+03  0.45011117936E+03  0.17200000000E+03 0. -1.
</event>
<event>
 4    1  0.4475741E+000  0.2109263E+03  0.7818608E-02  0.1140835E+00
         21   -1    0    0  503  502  0.00000000000E+00  0.00000000000E+00  0.40613982809E+03  0.40613982809E+03  0.00000000000E+00 0. -1.
         21   -1    0    0  501  503 -0.00000000000E+00 -0.00000000000E+00 -0.13517853684E+03  0.13517853684E+03  0.00000000000E+00 0. -1.
          6    1    1    2  501    0  0.12071596504E+03  0.18264172474E+02  0.17615066292E+02  0.21166061224E+03  0.17200000000E+03 0. -1.
         -6    1    1    2    0  502 -0.12071596504E+03 -0.18264172474E+02  0.25334622496E+03  0.32965775270E+03  0.17200000000E+03 0. -1.
</event>
<event>
 4    1  0.4475741E+000  0.1755704E+03  0.7818608E-02  0.1172160E+00
         21   -1    0    0  503  502  0.00000000000E+00  0.00000000000E+00  0.96442354304E+02  0.96442354304E+02  0.00000000000E+00 0. -1.
         21   -1    0    0  501  503 -0.00000000000E+00 -0.00000000000E+00 -0.81448791785E+03  0.81448791785E+03  0.00000000000E+00 0. -1.
          6    1    1    2  501    0 -0.31758419489E+02 -0.15243313282E+02 -0.71404639190E+03  0.73531435835E+03  0.17200000000E+03 0. -1.
         -6    1    1    2    0  502  0.31758419489E+02  0.15243313282E+02 -0.39991716463E+01  0.17561591381E+03  0.17200000000E+03 0. -1.
</event>
<event>
 4    1  0.4475741E+000  0.2125522E+03  0.7818608E-02  0.1139561E+00
         21   -1    0    0  501  502  0.00000000000E+00  0.00000000000E+00  0.49221749786E+03  0.49221749786E+03  0.00000000000E+00 0. -1.
         21   -1    0    0  502  503 -0.00000000000E+00 -0.00000000000E+00 -0.10813830184E+03  0.10813830184E+03  0.00000000000E+00 0.  1.
          6    1    1    2  501    0  0.92419222897E+02 -0.83982789628E+02  0.30877033561E+03  0.37485669511E+03  0.17200000000E+03 0.  1.
         -6    1    1    2    0  503 -0.92419222897E+02  0.83982789628E+02  0.75308860419E+02  0.22549910459E+03  0.17200000000E+03 0.  1.
</event>
<event>
 4    1  0.4475741E+000  0.1736843E+03  0.7818608E-02  0.1174059E+00
         21   -1    0    0  503  502  0.00000000000E+00  0.00000000000E+00  0.20785233317E+03  0.20785233317E+03  0.00000000000E+00 0. -1.
         21   -1    0    0  501  503 -0.00000000000E+00 -0.00000000000E+00 -0.14634628550E+03  0.14634628550E+03  0.00000000000E+00 0. -1.
          6    1    1    2  501    0  0.20592608294E+02  0.12576862916E+02  0.14627744847E+02  0.17429917933E+03  0.17200000000E+03 0. -1.
         -6    1    1    2    0  502 -0.20592608294E+02 -0.12576862916E+02  0.46878302820E+02  0.17989943933E+03  0.17200000000E+03 0. -1.
</event>
<event>
 4    1  0.4475741E+000  0.2129631E+03  0.7818608E-02  0.1139241E+00
         21   -1    0    0  503  502  0.00000000000E+00  0.00000000000E+00  0.13475943607E+04  0.13475943607E+04  0.00000000000E+00 0.  1.
         21   -1    0    0  501  503 -0.00000000000E+00 -0.00000000000E+00 -0.16579523009E+03  0.16579523009E+03  0.00000000000E+00 0.  1.
          6    1    1    2  501    0  0.12180966757E+03 -0.30523450139E+02 -0.84642309904E+02  0.22916718078E+03  0.17200000000E+03 0.  1.
         -6    1    1    2    0  502 -0.12180966757E+03  0.30523450139E+02  0.12664414406E+04  0.12842224101E+04  0.17200000000E+03 0.  1.
</event>
<event>
 4    1  0.4475741E+000  0.1757869E+03  0.7818608E-02  0.1171944E+00
         21   -1    0    0  503  502  0.00000000000E+00  0.00000000000E+00  0.86789601131E+03  0.86789601131E+03  0.00000000000E+00 0.  1.
         21   -1    0    0  501  503 -0.00000000000E+00 -0.00000000000E+00 -0.66747470378E+02  0.66747470378E+02  0.00000000000E+00 0.  1.
          6    1    1    2  501    0 -0.34401158206E+02 -0.11557802609E+02  0.81362832720E+02  0.19370320863E+03  0.17200000000E+03 0.  1.
         -6    1    1    2    0  502  0.34401158206E+02  0.11557802609E+02  0.71978570821E+03  0.74094027305E+03  0.17200000000E+03 0.  1.
</event>
<event>
 4    1  0.4475741E+000  0.1775870E+03  0.7818608E-02  0.1170159E+00
         21   -1    0    0  501  502  0.00000000000E+00  0.00000000000E+00  0.26061887281E+03  0.26061887281E+03  0.00000000000E+00 0. -1.
         21   -1    0    0  502  503 -0.00000000000E+00 -0.00000000000E+00 -0.13652530267E+03  0.13652530267E+03  0.00000000000E+00 0. -1.
          6    1    1    2  501    0 -0.33368452775E+02 -0.28977475104E+02  0.12899054857E+03  0.21948965653E+03  0.17200000000E+03 0.  1.
         -6    1    1    2    0  503  0.33368452775E+02  0.28977475104E+02 -0.48969784377E+01  0.17765451895E+03  0.17200000000E+03 0.  1.
</event>
<event>
 4    1  0.4475741E+000  0.3050782E+03  0.7818608E-02  0.1082729E+00
         21   -1    0    0  501  502  0.00000000000E+00  0.00000000000E+00  0.26256876436E+03  0.26256876436E+03  0.00000000000E+00 0. -1.
         21   -1    0    0  502  503 -0.00000000000E+00 -0.00000000000E+00 -0.48235241692E+03  0.48235241692E+03  0.00000000000E+00 0.  1.
          6    1    1    2  501    0 -0.44222698670E+02  0.24805861581E+03  0.81888336872E+02  0.31587722879E+03  0.17200000000E+03 0. -1.
         -6    1    1    2    0  503  0.44222698670E+02 -0.24805861581E+03 -0.30167198944E+03  0.42904395249E+03  0.17200000000E+03 0.  1.
</event>
<event>
 4    1  0.4475741E+000  0.1824593E+03  0.7818608E-02  0.1165444E+00
         21   -1    0    0  501  502  0.00000000000E+00  0.00000000000E+00  0.92383750656E+02  0.92383750656E+02  0.00000000000E+00 0.  1.
         21   -1    0    0  502  503 -0.00000000000E+00 -0.00000000000E+00 -0.13135020963E+04  0.13135020963E+04  0.00000000000E+00 0.  1.
          6    1    1    2  501    0 -0.57446058850E+02 -0.20183103963E+02 -0.11756808951E+02  0.18283771471E+03  0.17200000000E+03 0.  1.
         -6    1    1    2    0  503  0.57446058850E+02  0.20183103963E+02 -0.12093615367E+04  0.12230481323E+04  0.17200000000E+03 0.  1.
</event>
<event>
 4    1  0.4475741E+000  0.3453049E+03  0.7818608E-02  0.1064559E+00
         21   -1    0    0  503  502  0.00000000000E+00  0.00000000000E+00  0.62615778606E+02  0.62615778606E+02  0.00000000000E+00 0. -1.
         21   -1    0    0  501  503 -0.00000000000E+00 -0.00000000000E+00 -0.21467612252E+04  0.21467612252E+04  0.00000000000E+00 0. -1.
          6    1    1    2  501    0  0.25816038649E+03 -0.15167299177E+03 -0.14133707808E+04  0.14549407017E+04  0.17200000000E+03 0. -1.
         -6    1    1    2    0  502 -0.25816038649E+03  0.15167299177E+03 -0.67077466575E+03  0.75443630201E+03  0.17200000000E+03 0. -1.
</event>
<event>
 4    1  0.4475741E+000  0.1849184E+03  0.7818608E-02  0.1163126E+00
         21   -1    0    0  503  502  0.00000000000E+00  0.00000000000E+00  0.12997703709E+03  0.12997703709E+03  0.00000000000E+00 0. -1.
         21   -1    0    0  501  503 -0.00000000000E+00 -0.00000000000E+00 -0.52610341124E+03  0.52610341124E+03  0.00000000000E+00 0. -1.
          6    1    1    2  501    0  0.49373883809E+02  0.46615769697E+02 -0.43000864720E+03  0.46808358981E+03  0.17200000000E+03 0. -1.
         -6    1    1    2    0  502 -0.49373883809E+02 -0.46615769697E+02  0.33882273052E+02  0.18799685852E+03  0.17200000000E+03 0. -1.
</event>
<event>
 4    1  0.4475741E+000  0.1833657E+03  0.7818608E-02  0.1164585E+00
         21   -1    0    0  503  502  0.00000000000E+00  0.00000000000E+00  0.97855592902E+03  0.97855592902E+03  0.00000000000E+00 0.  1.
         21   -1    0    0  501  503 -0.00000000000E+00 -0.00000000000E+00 -0.86209045460E+02  0.86209045460E+02  0.00000000000E+00 0.  1.
          6    1    1    2  501    0  0.55447529818E+02  0.31057503750E+02  0.33298509438E+02  0.18636466358E+03  0.17200000000E+03 0.  1.
         -6    1    1    2    0  502 -0.55447529818E+02 -0.31057503750E+02  0.85904837412E+03  0.87840031090E+03  0.17200000000E+03 0.  1.
</event>
<event>
 4    1  0.4475741E+000  0.1960161E+03  0.7818608E-02  0.1153144E+00
         21   -1    0    0  501  502  0.00000000000E+00  0.00000000000E+00  0.92503347339E+03  0.92503347339E+03  0.00000000000E+00 0.  1.
         21   -1    0    0  502  503 -0.00000000000E+00 -0.00000000000E+00 -0.48137490029E+02  0.48137490029E+02  0.00000000000E+00 0. -1.
          6    1    1    2  501    0  0.55871458067E+02 -0.75608810740E+02  0.61863940130E+03  0.64895070763E+03  0.17200000000E+03 0.  1.
         -6    1    1    2    0  503 -0.55871458067E+02  0.75608810740E+02  0.25825658206E+03  0.32422025579E+03  0.17200000000E+03 0. -1.
</event>
<event>
 4    1  0.4475741E+000  0.2391437E+03  0.7818608E-02  0.1120365E+00
         21   -1    0    0  501  502  0.00000000000E+00  0.00000000000E+00  0.38720359317E+03  0.38720359317E+03  0.00000000000E+00 0.  1.
         21   -1    0    0  502  503 -0.00000000000E+00 -0.00000000000E+00 -0.15751977596E+03  0.15751977596E+03  0.00000000000E+00 0.  1.
          6    1    1    2  501    0 -0.16551400336E+03  0.14520149079E+02  0.18284733594E+03  0.30103632389E+03  0.17200000000E+03 0.  1.
         -6    1    1    2    0  503  0.16551400336E+03 -0.14520149079E+02  0.46836481264E+02  0.24368704523E+03  0.17200000000E+03 0.  1.
</event>
<event>
 4    1  0.4475741E+000  0.2091793E+03  0.7818608E-02  0.1142218E+00
         21   -1    0    0  501  502  0.00000000000E+00  0.00000000000E+00  0.79199634285E+03  0.79199634285E+03  0.00000000000E+00 0.  1.
         21   -1    0    0  502  503 -0.00000000000E+00 -0.00000000000E+00 -0.55279513251E+02  0.55279513251E+02  0.00000000000E+00 0. -1.
          6    1    1    2  501    0  0.11040861394E+03  0.44518890472E+02  0.37851780612E+03  0.43247164438E+03  0.17200000000E+03 0.  1.
         -6    1    1    2    0  503 -0.11040861394E+03 -0.44518890472E+02  0.35819902348E+03  0.41480421172E+03  0.17200000000E+03 0. -1.
</event>
<event>
 4    1  0.4475741E+000  0.2485061E+03  0.7818608E-02  0.1114253E+00
         21   -1    0    0  501  502  0.00000000000E+00  0.00000000000E+00  0.14589633713E+04  0.14589633713E+04  0.00000000000E+00 0.  1.
         21   -1    0    0  502  503 -0.00000000000E+00 -0.00000000000E+00 -0.74988288440E+02  0.74988288440E+02  0.00000000000E+00 0. -1.
          6    1    1    2  501    0 -0.93564181506E+02 -0.15302617421E+03  0.11981544628E+04  0.12236541108E+04  0.17200000000E+03 0.  1.
         -6    1    1    2    0  503  0.93564181506E+02  0.15302617421E+03  0.18582062003E+03  0.31029754895E+03  0.17200000000E+03 0. -1.
</event>
<event>
 4    1  0.4475741E+000  0.1771260E+03  0.7818608E-02  0.1170614E+00
         21   -1    0    0  503  502  0.00000000000E+00  0.00000000000E+00  0.40597437863E+02  0.40597437863E+02  0.00000000000E+00 0.  1.
         21   -1    0    0  501  503 -0.00000000000E+00 -0.00000000000E+00 -0.78116590880E+03  0.78116590880E+03  0.00000000000E+00 0.  1.
          6    1    1    2  501    0  0.33255342979E+02  0.26147626416E+02 -0.41281030544E+03  0.44920592659E+03  0.17200000000E+03 0.  1.
         -6    1    1    2    0  502 -0.33255342979E+02 -0.26147626416E+02 -0.32775816550E+03  0.37255742008E+03  0.17200000000E+03 0.  1.
</event>
<event>
 4    1  0.4475741E+000  0.1782169E+03  0.7818608E-02  0.1169540E+00
         21   -1    0    0  501  502  0.00000000000E+00  0.00000000000E+00  0.34345187933E+03  0.34345187933E+03  0.00000000000E+00 0. -1.
         21   -1    0    0  502  503 -0.00000000000E+00 -0.00000000000E+00 -0.11923051203E+03  0.11923051203E+03  0.00000000000E+00 0. -1.
          6    1    1    2  501    0  0.11254632974E+02 -0.45283493530E+02  0.22169614261E+03  0.28444760713E+03  0.17200000000E+03 0. -1.
         -6    1    1    2    0  503 -0.11254632974E+02  0.45283493530E+02  0.25252246806E+01  0.17823478423E+03  0.17200000000E+03 0. -1.
</event>
<event>
 4    1  0.4475741E+000  0.2187752E+03  0.7818608E-02  0.1134800E+00
         21   -1    0    0  503  502  0.00000000000E+00  0.00000000000E+00  0.55987360377E+02  0.55987360377E+02  0.00000000000E+00 0. -1.
         21   -1    0    0  501  503 -0.00000000000E+00 -0.00000000000E+00 -0.85537809813E+03  0.85537809813E+03  0.00000000000E+00 0. -1.
          6    1    1    2  501    0  0.12843211007E+02 -0.13458685661E+03 -0.38871803624E+03  0.44605412422E+03  0.17200000000E+03 0. -1.
         -6    1    1    2    0  502 -0.12843211007E+02  0.13458685661E+03 -0.41067270152E+03  0.46531133428E+03  0.17200000000E+03 0. -1.
</event>
<event>
 4    1  0.4475741E+000  0.2331561E+03  0.7818608E-02  0.1124438E+00
         21   -1    0    0  501  502  0.00000000000E+00  0.00000000000E+00  0.40797102269E+03  0.40797102269E+03  0.00000000000E+00 0.  1.
         21   -1    0    0  502  503 -0.00000000000E+00 -0.00000000000E+00 -0.24698938951E+03  0.24698938951E+03  0.00000000000E+00 0.  1.
          6    1    1    2  501    0 -0.12245010568E+03  0.98912813750E+02  0.30272101005E+03  0.38210179669E+03  0.17200000000E+03 0.  1.
         -6    1    1    2    0  503  0.12245010568E+03 -0.98912813750E+02 -0.14173937687E+03  0.27285861552E+03  0.17200000000E+03 0.  1.
</event>
<event>
 4    1  0.4475741E+000  0.1923631E+03  0.7818608E-02  0.1156347E+00
         21   -1    0    0  503  502  0.00000000000E+00  0.00000000000E+00  0.34315141150E+03  0.34315141150E+03  0.00000000000E+00 0. -1.
         21   -1    0    0  501  503 -0.00000000000E+00 -0.00000000000E+00 -0.11208378243E+03  0.11208378243E+03  0.00000000000E+00 0.  1.
          6    1    1    2  501    0 -0.51627608877E+02 -0.68950419072E+02  0.71214723671E+02  0.20512217617E+03  0.17200000000E+03 0.  1.
         -6    1    1    2    0  502  0.51627608877E+02  0.68950419072E+02  0.15985290540E+03  0.25011301776E+03  0.17200000000E+03 0. -1.
</event>
<event>
 4    1  0.4475741E+000  0.1877163E+03  0.7818608E-02  0.1160537E+00
         21   -1    0    0  503  502  0.00000000000E+00  0.00000000000E+00  0.33128779541E+03  0.33128779541E+03  0.00000000000E+00 0.  1.
         21   -1    0    0  501  503 -0.00000000000E+00 -0.00000000000E+00 -0.12397696366E+03  0.12397696366E+03  0.00000000000E+00 0. -1.
          6    1    1    2  501    0  0.53573743311E+02  0.52756797555E+02  0.17859333647E+02  0.18856399831E+03  0.17200000000E+03 0. -1.
         -6    1    1    2    0  502 -0.53573743311E+02 -0.52756797555E+02  0.18945149810E+03  0.26670076077E+03  0.17200000000E+03 0.  1.
</event>
<event>
 4    1  0.4475741E+000  0.1884947E+03  0.7818608E-02  0.1159826E+00
         21   -1    0    0  503  502  0.00000000000E+00  0.00000000000E+00  0.11660668664E+03  0.11660668664E+03  0.00000000000E+00 0. -1.
         21   -1    0    0  501  503 -0.00000000000E+00 -0.00000000000E+00 -0.30929424702E+03  0.30929424702E+03  0.00000000000E+00 0. -1.
          6    1    1    2  501    0  0.13586153453E+02  0.75905702633E+02 -0.12229262443E+03  0.22469033190E+03  0.17200000000E+03 0. -1.
         -6    1    1    2    0  502 -0.13586153453E+02 -0.75905702633E+02 -0.70394935949E+02  0.20121060177E+03  0.17200000000E+03 0. -1.
</event>
<event>
 4    1  0.4475741E+000  0.1831810E+03  0.7818608E-02  0.1164760E+00
         21   -1    0    0  503  502  0.00000000000E+00  0.00000000000E+00  0.12711890643E+03  0.12711890643E+03  0.00000000000E+00 0.  1.
         21   -1    0    0  501  503 -0.00000000000E+00 -0.00000000000E+00 -0.26414172718E+03  0.26414172718E+03  0.00000000000E+00 0. -1.
          6    1    1    2  501    0  0.30528099304E+02 -0.55129880462E+02 -0.73534731328E+02  0.19738952677E+03  0.17200000000E+03 0.  1.
         -6    1    1    2    0  502 -0.30528099304E+02  0.55129880462E+02 -0.63488089421E+02  0.19387110683E+03  0.17200000000E+03 0.  1.
</event>
<event>
 4    1  0.4475741E+000  0.1756540E+03  0.7818608E-02  0.1172077E+00
         21   -1    0    0  503  502  0.00000000000E+00  0.00000000000E+00  0.22362759284E+03  0.22362759284E+03  0.00000000000E+00 0.  1.
         21   -1    0    0  501  503 -0.00000000000E+00 -0.00000000000E+00 -0.23549053737E+03  0.23549053737E+03  0.00000000000E+00 0.  1.
          6    1    1    2  501    0 -0.30253346923E+02  0.18842710089E+02 -0.15365567004E+03  0.23337604346E+03  0.17200000000E+03 0.  1.
         -6    1    1    2    0  502  0.30253346923E+02 -0.18842710089E+02  0.14179272551E+03  0.22574208675E+03  0.17200000000E+03 0.  1.
</event>
<event>
 4    1  0.4475741E+000  0.2576021E+03  0.7818608E-02  0.1108593E+00
         21   -1    0    0  501  502  0.00000000000E+00  0.00000000000E+00  0.27399718004E+03  0.27399718004E+03  0.00000000000E+00 0. -1.
         21   -1    0    0  502  503 -0.00000000000E+00 -0.00000000000E+00 -0.33727641457E+03  0.33727641457E+03  0.00000000000E+00 0. -1.
          6    1    1    2  501    0 -0.13611614458E+02 -0.19128398476E+03  0.13064463363E+03  0.28883708067E+03  0.17200000000E+03 0. -1.
         -6    1    1    2    0  503  0.13611614458E+02  0.19128398476E+03 -0.19392386816E+03  0.32243651394E+03  0.17200000000E+03 0. -1.
</event>
<event>
 4    1  0.4475741E+000  0.1812727E+03  0.7818608E-02  0.1166577E+00
         21   -1    0    0  503  502  0.00000000000E+00  0.00000000000E+00  0.42172138366E+02  0.42172138366E+02  0.00000000000E+00 0.  1.
         21   -1    0    0  501  503 -0.00000000000E+00 -0.00000000000E+00 -0.77990117321E+03  0.77990117321E+03  0.00000000000E+00 0.  1.
          6    1    1    2  501    0  0.13183166615E+02  0.55695626858E+02 -0.38134064194E+03  0.42223273669E+03  0.17200000000E+03 0. -1.
         -6    1    1    2    0  502 -0.13183166615E+02 -0.55695626858E+02 -0.35638839290E+03  0.39984057489E+03  0.17200000000E+03 0. -1.
</event>
<event>
 4    1  0.4475741E+000  0.1734747E+03  0.7818608E-02  0.1174272E+00
         21   -1    0    0  501  502  0.00000000000E+00  0.00000000000E+00  0.63826922117E+02  0.63826922117E+02  0.00000000000E+00 0. -1.
         21   -1    0    0  502  503 -0.00000000000E+00 -0.00000000000E+00 -0.47203169230E+03  0.47203169230E+03  0.00000000000E+00 0. -1.
          6    1    1    2  501    0 -0.14617257797E+02 -0.17199060965E+02 -0.19498889384E+03  0.26098685914E+03  0.17200000000E+03 0.  1.
         -6    1    1    2    0  503  0.14617257797E+02  0.17199060965E+02 -0.21321587634E+03  0.27487175528E+03  0.17200000000E+03 0.  1.
</event>
<event>
 4    1  0.4475741E+000  0.1912654E+03  0.7818608E-02  0.1157325E+00
         21   -1    0    0  503  502  0.00000000000E+00  0.00000000000E+00  0.43115798891E+03  0.43115798891E+03  0.00000000000E+00 0.  1.
         21   -1    0    0  501  503 -0.00000000000E+00 -0.00000000000E+00 -0.11685977330E+03  0.11685977330E+03  0.00000000000E+00 0. -1.
          6    1    1    2  501    0 -0.10041321377E+02 -0.83051929014E+02  0.13734318353E+02  0.19175787480E+03  0.17200000000E+03 0. -1.
         -6    1    1    2    0  502  0.10041321377E+02  0.83051929014E+02  0.30056389725E+03  0.35625988741E+03  0.17200000000E+03 0.  1.
</event>
<event>
 4    1  0.4475741E+000  0.1882629E+03  0.7818608E-02  0.1160037E+00
         21   -1    0    0  501  502  0.00000000000E+00  0.00000000000E+00  0.61971814442E+03  0.61971814442E+03  0.00000000000E+00 0. -1.
         21   -1    0    0  502  503 -0.00000000000E+00 -0.00000000000E+00 -0.67679677161E+02  0.67679677161E+02  0.00000000000E+00 0. -1.
          6    1    1    2  501    0  0.65721872630E+02 -0.39237229570E+02  0.41131634290E+03  0.45235390864E+03  0.17200000000E+03 0. -1.
         -6    1    1    2    0  503 -0.65721872630E+02  0.39237229570E+02  0.14072212436E+03  0.23504391294E+03  0.17200000000E+03 0. -1.
</event>
<event>
 4    1  0.4475741E+000  0.1924244E+03  0.7818608E-02  0.1156293E+00
         21   -1    0    0  501  502  0.00000000000E+00  0.00000000000E+00  0.12913545452E+04  0.12913545452E+04  0.00000000000E+00 0. -1.
         21   -1    0    0  502  503 -0.00000000000E+00 -0.00000000000E+00 -0.42017830116E+02  0.42017830116E+02  0.00000000000E+00 0. -1.
          6    1    1    2  501    0 -0.26985670851E+02  0.81944619163E+02  0.10003841334E+04  0.10187225144E+04  0.17200000000E+03 0. -1.
         -6    1    1    2    0  503  0.26985670851E+02 -0.81944619163E+02  0.24895258176E+03  0.31464986097E+03  0.17200000000E+03 0. -1.
</event>
<event>
 4    1  0.4475741E+000  0.1743131E+03  0.7818608E-02  0.1173423E+00
         21   -1    0    0  503  502  0.00000000000E+00  0.00000000000E+00  0.18989610845E+03  0.18989610845E+03  0.00000000000E+00 0.  1.
         21   -1    0    0  501  503 -0.00000000000E+00 -0.00000000000E+00 -0.20505203776E+03  0.20505203776E+03  0.00000000000E+00 0.  1.
          6    1    1    2  501    0 -0.25007896248E+02  0.13253442520E+02 -0.10013146218E+03  0.20102576534E+03  0.17200000000E+03 0.  1.
         -6    1    1    2    0  502  0.25007896248E+02 -0.13253442520E+02  0.84975532878E+02  0.19392238087E+03  0.17200000000E+03 0.  1.
</event>
<event>
 4    1  0.4475741E+000  0.1918889E+03  0.7818608E-02  0.1156769E+00
         21   -1    0    0  501  502  0.00000000000E+00  0.00000000000E+00  0.15197352987E+04  0.15197352987E+04  0.00000000000E+00 0. -1.
         21   -1    0    0  502  503 -0.00000000000E+00 -0.00000000000E+00 -0.24250922111E+02  0.24250922111E+02  0.00000000000E+00 0. -1.
          6    1    1    2  501    0  0.39473597576E+02 -0.75360300405E+02  0.72441781779E+03  0.74940143750E+03  0.17200000000E+03 0. -1.
         -6    1    1    2    0  503 -0.39473597576E+02  0.75360300405E+02  0.77106655877E+03  0.79458478329E+03  0.17200000000E+03 0. -1.
</event>
<event>
 4    1  0.4475741E+000  0.2321331E+03  0.7818608E-02  0.1125147E+00
         21   -1    0    0  503  502  0.00000000000E+00  0.00000000000E+00  0.89301894686E+03  0.89301894686E+03  0.00000000000E+00 0.  1.
         21   -1    0    0  501  503 -0.00000000000E+00 -0.00000000000E+00 -0.60584654098E+02  0.60584654098E+02  0.00000000000E+00 0. -1.
          6    1    1    2  501    0 -0.22684875462E+02 -0.15423097568E+03  0.38598962702E+03  0.45041513030E+03  0.17200000000E+03 0. -1.
         -6    1    1    2    0  502  0.22684875462E+02  0.15423097568E+03  0.44644466574E+03  0.50318847066E+03  0.17200000000E+03 0. -1.
</event>
<event>
 4    1  0.4475741E+000  0.1721886E+03  0.7818608E-02  0.1175585E+00
         21   -1    0    0  501  502  0.00000000000E+00  0.00000000000E+00  0.35815189419E+03  0.35815189419E+03  0.00000000000E+00 0.  1.
         21   -1    0    0  502  503 -0.00000000000E+00 -0.00000000000E+00 -0.12370635667E+03  0.12370635667E+03  0.00000000000E+00 0.  1.
          6    1    1    2  501    0 -0.45031855305E+01 -0.66807959396E+01  0.25579575393E+03  0.30835106526E+03  0.17200000000E+03 0.  1.
         -6    1    1    2    0  503  0.45031855305E+01  0.66807959396E+01 -0.21350216415E+02  0.17350718560E+03  0.17200000000E+03 0.  1.
</event>
<event>
 4    1  0.4475741E+000  0.2095243E+03  0.7818608E-02  0.1141943E+00
         21   -1    0    0  503  502  0.00000000000E+00  0.00000000000E+00  0.30938964540E+03  0.30938964540E+03  0.00000000000E+00 0.  1.
         21   -1    0    0  501  503 -0.00000000000E+00 -0.00000000000E+00 -0.14217299885E+03  0.14217299885E+03  0.00000000000E+00 0.  1.
          6    1    1    2  501    0  0.90274351655E+02  0.78530187710E+02  0.73601519688E+02  0.22207573629E+03  0.17200000000E+03 0.  1.
         -6    1    1    2    0  502 -0.90274351655E+02 -0.78530187710E+02  0.93615126860E+02  0.22948690796E+03  0.17200000000E+03 0.  1.
</event>
<event>
 4    1  0.4475741E+000  0.2187421E+03  0.7818608E-02  0.1134824E+00
         21   -1    0    0  501  502  0.00000000000E+00  0.00000000000E+00  0.20856903471E+03  0.20856903471E+03  0.00000000000E+00 0.  1.
         21   -1    0    0  502  503 -0.00000000000E+00 -0.00000000000E+00 -0.27985573327E+03  0.27985573327E+03  0.00000000000E+00 0. -1.
          6    1    1    2  501    0 -0.43122022798E+02  0.12808039204E+03  0.68039555404E+02  0.22907962977E+03  0.17200000000E+03 0.  1.
         -6    1    1    2    0  503  0.43122022798E+02 -0.12808039204E+03 -0.13932625396E+03  0.25934513822E+03  0.17200000000E+03 0. -1.
</event>
<event>
 4    1  0.4475741E+000  0.1736489E+03  0.7818608E-02  0.1174095E+00
         21   -1    0    0  501  502  0.00000000000E+00  0.00000000000E+00  0.17370088692E+04  0.17370088692E+04  0.00000000000E+00 0. -1.
         21   -1    0    0  502  503 -0.00000000000E+00 -0.00000000000E+00 -0.19284664038E+02  0.19284664038E+02  0.00000000000E+00 0. -1.
          6    1    1    2  501    0  0.11564261950E+02  0.20885773604E+02  0.11363044268E+04  0.11494962801E+04  0.17200000000E+03 0. -1.
         -6    1    1    2    0  503 -0.11564261950E+02 -0.20885773604E+02  0.58141977834E+03  0.60679725308E+03  0.17200000000E+03 0. -1.
</event>
<event>
 4    1  0.4475741E+000  0.1849317E+03  0.7818608E-02  0.1163114E+00
         21   -1    0    0  503  502  0.00000000000E+00  0.00000000000E+00  0.22343006638E+03  0.22343006638E+03  0.00000000000E+00 0. -1.
         21   -1    0    0  501  503 -0.00000000000E+00 -0.00000000000E+00 -0.19412619803E+03  0.19412619803E+03  0.00000000000E+00 0. -1.
          6    1    1    2  501    0 -0.52102430013E+02 -0.43601199862E+02 -0.81365293393E+02  0.20203969613E+03  0.17200000000E+03 0. -1.
         -6    1    1    2    0  502  0.52102430013E+02  0.43601199862E+02  0.11066916174E+03  0.21551656828E+03  0.17200000000E+03 0. -1.
</event>
<event>
 4    1  0.4475741E+000  0.1893984E+03  0.7818608E-02  0.1159005E+00
         21   -1    0    0  501  502  0.00000000000E+00  0.00000000000E+00  0.24843885940E+02  0.24843885940E+02  0.00000000000E+00 0. -1.
         21   -1    0    0  502  503 -0.00000000000E+00 -0.00000000000E+00 -0.14543642013E+04  0.14543642013E+04  0.00000000000E+00 0.  1.
          6    1    1    2  501    0 -0.46625485041E+02  0.64139023487E+02 -0.65198370059E+03  0.67893629747E+03  0.17200000000E+03 0. -1.
         -6    1    1    2    0  503  0.46625485041E+02 -0.64139023487E+02 -0.77753661473E+03  0.80027178973E+03  0.17200000000E+03 0. -1.
</event>
<event>
 4    1  0.4475741E+000  0.2213123E+03  0.7818608E-02  0.1132908E+00
         21   -1    0    0  503  502  0.00000000000E+00  0.00000000000E+00  0.77340392870E+02  0.77340392870E+02  0.00000000000E+00 0.  1.
         21   -1    0    0  501  503 -0.00000000000E+00 -0.00000000000E+00 -0.66690037864E+03  0.66690037864E+03  0.00000000000E+00 0.  1.
          6    1    1    2  501    0  0.13845441905E+03  0.15017440158E+02 -0.37831501825E+03  0.43829374020E+03  0.17200000000E+03 0.  1.
         -6    1    1    2    0  502 -0.13845441905E+03 -0.15017440158E+02 -0.21124496752E+03  0.30594703131E+03  0.17200000000E+03 0.  1.
</event>
<event>
 4    1  0.4475741E+000  0.2505561E+03  0.7818608E-02  0.1112954E+00
         21   -1    0    0  501  502  0.00000000000E+00  0.00000000000E+00  0.31514337188E+03  0.31514337188E+03  0.00000000000E+00 0.  1.
         21   -1    0    0  502  503 -0.00000000000E+00 -0.00000000000E+00 -0.24968581782E+03  0.24968581782E+03  0.00000000000E+00 0.  1.
          6    1    1    2  501    0 -0.11488935600E+02  0.18183062143E+03  0.15971312134E+03  0.29713069794E+03  0.17200000000E+03 0.  1.
         -6    1    1    2    0  503  0.11488935600E+02 -0.18183062143E+03 -0.94255567279E+02  0.26769849176E+03  0.17200000000E+03 0.  1.
</event>
<event>
 4    1  0.4475741E+000  0.1816516E+03  0.7818608E-02  0.1166214E+00
         21   -1    0    0  501  502  0.00000000000E+00  0.00000000000E+00  0.64184754011E+03  0.64184754011E+03  0.00000000000E+00 0. -1.
         21   -1    0    0  502  503 -0.00000000000E+00 -0.00000000000E+00 -0.54677284956E+02  0.54677284956E+02  0.00000000000E+00 0. -1.
          6    1    1    2  501    0 -0.88828160408E+01  0.57744251385E+02  0.37871947770E+03  0.42003064862E+03  0.17200000000E+03 0.  1.
         -6    1    1    2    0  503  0.88828160408E+01 -0.57744251385E+02  0.20845077746E+03  0.27649417645E+03  0.17200000000E+03 0.  1.
</event>
<event>
 4    1  0.4475741E+000  0.3009260E+03  0.7818608E-02  0.1084779E+00
         21   -1    0    0  503  502  0.00000000000E+00  0.00000000000E+00  0.71528155402E+03  0.71528155402E+03  0.00000000000E+00 0. -1.
         21   -1    0    0  501  503 -0.00000000000E+00 -0.00000000000E+00 -0.18459957676E+03  0.18459957676E+03  0.00000000000E+00 0. -1.
          6    1    1    2  501    0 -0.81220875143E+02  0.23318580485E+03  0.13142336391E+02  0.30121283363E+03  0.17200000000E+03 0. -1.
         -6    1    1    2    0  502  0.81220875143E+02 -0.23318580485E+03  0.51753964087E+03  0.59866829715E+03  0.17200000000E+03 0. -1.
</event>
<event>
 4    1  0.4475741E+000  0.1769598E+03  0.7818608E-02  0.1170778E+00
         21   -1    0    0  503  502  0.00000000000E+00  0.00000000000E+00  0.73369230373E+02  0.73369230373E+02  0.00000000000E+00 0.  1.
         21   -1    0    0  501  503 -0.00000000000E+00 -0.00000000000E+00 -0.47654243115E+03  0.47654243115E+03  0.00000000000E+00 0.  1.
          6    1    1    2  501    0 -0.11148388815E+02  0.40080899505E+02 -0.29041040684E+03  0.34007788737E+03  0.17200000000E+03 0.  1.
         -6    1    1    2    0  502  0.11148388815E+02 -0.40080899505E+02 -0.11276279394E+03  0.20983377415E+03  0.17200000000E+03 0.  1.
</event>
<event>
 4    1  0.4475741E+000  0.1765043E+03  0.7818608E-02  0.1171230E+00
         21   -1    0    0  503  502  0.00000000000E+00  0.00000000000E+00  0.67457196929E+03  0.67457196929E+03  0.00000000000E+00 0. -1.
         21   -1    0    0  501  503 -0.00000000000E+00 -0.00000000000E+00 -0.48084982110E+02  0.48084982110E+02  0.00000000000E+00 0. -1.
          6    1    1    2  501    0 -0.39215678751E+02 -0.56487802910E+01  0.24138185221E+03  0.29903005996E+03  0.17200000000E+03 0.  1.
         -6    1    1    2    0  502  0.39215678751E+02  0.56487802910E+01  0.38510513497E+03  0.42362689145E+03  0.17200000000E+03 0.  1.
</event>
<event>
 4    1  0.4475741E+000  0.1957265E+03  0.7818608E-02  0.1153395E+00
         21   -1    0    0  501  502  0.00000000000E+00  0.00000000000E+00  0.10389961924E+03  0.10389961924E+03  0.00000000000E+00 0. -1.
         21   -1    0    0  502  503 -0.00000000000E+00 -0.00000000000E+00 -0.40083489620E+03  0.40083489620E+03  0.00000000000E+00 0. -1.
          6    1    1    2  501    0 -0.36958176846E+02 -0.85784430241E+02 -0.77023257922E+02  0.21033653408E+03  0.17200000000E+03 0. -1.
         -6    1    1    2    0  503  0.36958176846E+02  0.85784430241E+02 -0.21991201905E+03  0.29439798136E+03  0.17200000000E+03 0. -1.
</event>
<event>
 4    1  0.4475741E+000  0.1966611E+03  0.7818608E-02  0.1152587E+00
         21   -1    0    0  503  502  0.00000000000E+00  0.00000000000E+00  0.35791021630E+03  0.35791021630E+03  0.00000000000E+00 0. -1.
         21   -1    0    0  501  503 -0.00000000000E+00 -0.00000000000E+00 -0.12092522717E+03  0.12092522717E+03  0.00000000000E+00 0. -1.
          6    1    1    2  501    0 -0.18862817939E+02 -0.93465478028E+02  0.19658599507E+03  0.27806771647E+03  0.17200000000E+03 0. -1.
         -6    1    1    2    0  502  0.18862817939E+02  0.93465478028E+02  0.40398994061E+02  0.20076772700E+03  0.17200000000E+03 0. -1.
</event>
<event>
 4    1  0.4475741E+000  0.1751899E+03  0.7818608E-02  0.1172541E+00
         21   -1    0    0  501  502  0.00000000000E+00  0.00000000000E+00  0.15122474552E+03  0.15122474552E+03  0.00000000000E+00 0.  1.
         21   -1    0    0  502  503 -0.00000000000E+00 -0.00000000000E+00 -0.21392567369E+03  0.21392567369E+03  0.00000000000E+00 0.  1.
          6    1    1    2  501    0 -0.18600679964E+02  0.27595634264E+02 -0.72699756701E+02  0.18967540418E+03  0.17200000000E+03 0.  1.
         -6    1    1    2    0  503  0.18600679964E+02 -0.27595634264E+02  0.99988285315E+01  0.17547501502E+03  0.17200000000E+03 0.  1.
</event>
<event>
 4    1  0.4475741E+000  0.2390162E+03  0.7818608E-02  0.1120450E+00
         21   -1    0    0  503  502  0.00000000000E+00  0.00000000000E+00  0.65192434842E+03  0.65192434842E+03  0.00000000000E+00 0.  1.
         21   -1    0    0  501  503 -0.00000000000E+00 -0.00000000000E+00 -0.11221456911E+03  0.11221456911E+03  0.00000000000E+00 0.  1.
          6    1    1    2  501    0 -0.13704172544E+03 -0.93617965856E+02  0.91024838788E+02  0.25576215380E+03  0.17200000000E+03 0.  1.
         -6    1    1    2    0  502  0.13704172544E+03  0.93617965856E+02  0.44868494053E+03  0.50837676373E+03  0.17200000000E+03 0.  1.
</event>
<event>
 4    1  0.4475741E+000  0.1769930E+03  0.7818608E-02  0.1170745E+00
         21   -1    0    0  501  502  0.00000000000E+00  0.00000000000E+00  0.25511354930E+02  0.25511354930E+02  0.00000000000E+00 0.  1.
         21   -1    0    0  502  503 -0.00000000000E+00 -0.00000000000E+00 -0.14075083361E+04  0.14075083361E+04  0.00000000000E+00 0.  1.
          6    1    1    2  501    0  0.38328119756E+02 -0.16537214115E+02 -0.94691970637E+03  0.96331897859E+03  0.17200000000E+03 0.  1.
         -6    1    1    2    0  503 -0.38328119756E+02  0.16537214115E+02 -0.43507727484E+03  0.46970071247E+03  0.17200000000E+03 0.  1.
</event>
<event>
 4    1  0.4475741E+000  0.2106450E+03  0.7818608E-02  0.1141056E+00
         21   -1    0    0  503  502  0.00000000000E+00  0.00000000000E+00  0.46215494982E+03  0.46215494982E+03  0.00000000000E+00 0. -1.
         21   -1    0    0  501  503 -0.00000000000E+00 -0.00000000000E+00 -0.14443540166E+03  0.14443540166E+03  0.00000000000E+00 0. -1.
          6    1    1    2  501    0 -0.11875902197E+03 -0.26146087951E+02 -0.16757396205E+02  0.21131051451E+03  0.17200000000E+03 0. -1.
         -6    1    1    2    0  502  0.11875902197E+03  0.26146087951E+02  0.33447694436E+03  0.39527983698E+03  0.17200000000E+03 0. -1.
</event>
<event>
 4    1  0.4475741E+000  0.4235198E+03  0.7818608E-02  0.1035927E+00
         21   -1    0    0  501  502  0.00000000000E+00  0.00000000000E+00  0.18106148358E+04  0.18106148358E+04  0.00000000000E+00 0.  1.
         21   -1    0    0  502  503 -0.00000000000E+00 -0.00000000000E+00 -0.10022272505E+03  0.10022272505E+03  0.00000000000E+00 0. -1.
          6    1    1    2  501    0 -0.23960215353E+03 -0.30393386365E+03  0.95787211047E+03  0.10473241931E+04  0.17200000000E+03 0.  1.
         -6    1    1    2    0  503  0.23960215353E+03  0.30393386365E+03  0.75252000026E+03  0.86351336772E+03  0.17200000000E+03 0. -1.
</event>
<event>
 4    1  0.4475741E+000  0.1904917E+03  0.7818608E-02  0.1158019E+00
         21   -1    0    0  503  502  0.00000000000E+00  0.00000000000E+00  0.35594026201E+02  0.35594026201E+02  0.00000000000E+00 0. -1.
         21   -1    0    0  501  503 -0.00000000000E+00 -0.00000000000E+00 -0.13856961838E+04  0.13856961838E+04  0.00000000000E+00 0.  1.
          6    1    1    2  501    0  0.45498417376E+02 -0.68065900053E+02 -0.10403874750E+04  0.10576829255E+04  0.17200000000E+03 0.  1.
         -6    1    1    2    0  502 -0.45498417376E+02  0.68065900053E+02 -0.30971468261E+03  0.36360728452E+03  0.17200000000E+03 0. -1.
</event>
<event>
 4    1  0.4475741E+000  0.1864287E+03  0.7818608E-02  0.1161722E+00
         21   -1    0    0  503  502  0.00000000000E+00  0.00000000000E+00  0.21762998331E+02  0.21762998331E+02  0.00000000000E+00 0.  1.
         21   -1    0    0  501  503 -0.00000000000E+00 -0.00000000000E+00 -0.24863414268E+04  0.24863414268E+04  0.00000000000E+00 0.  1.
          6    1    1    2  501    0  0.46454862006E+02  0.54896253954E+02 -0.48227779604E+03  0.51705659793E+03  0.17200000000E+03 0.  1.
         -6    1    1    2    0  502 -0.46454862006E+02 -0.54896253954E+02 -0.19823006324E+04  0.19910478272E+04  0.17200000000E+03 0.  1.
</event>
<event>
 4    1  0.4475741E+000  0.1882170E+03  0.7818608E-02  0.1160079E+00
         21   -1    0    0  501  502  0.00000000000E+00  0.00000000000E+00  0.10885109349E+04  0.10885109349E+04  0.00000000000E+00 0. -1.
         21   -1    0    0  502  503 -0.00000000000E+00 -0.00000000000E+00 -0.34861135457E+02  0.34861135457E+02  0.00000000000E+00 0. -1.
          6    1    1    2  501    0  0.47912758828E+02  0.59548233065E+02  0.67160261769E+03  0.69747810045E+03  0.17200000000E+03 0.  1.
         -6    1    1    2    0  503 -0.47912758828E+02 -0.59548233065E+02  0.38204718177E+03  0.42589396993E+03  0.17200000000E+03 0.  1.
</event>
<event>
 4    1  0.4475741E+000  0.2186910E+03  0.7818608E-02  0.1134863E+00
         21   -1    0    0  503  502  0.00000000000E+00  0.00000000000E+00  0.83617735774E+02  0.83617735774E+02  0.00000000000E+00 0.  1.
         21   -1    0    0  501  503 -0.00000000000E+00 -0.00000000000E+00 -0.58659753841E+03  0.58659753841E+03  0.00000000000E+00 0.  1.
          6    1    1    2  501    0 -0.91106073780E+02 -0.99706701681E+02 -0.30443110874E+03  0.37483868932E+03  0.17200000000E+03 0.  1.
         -6    1    1    2    0  502  0.91106073780E+02  0.99706701681E+02 -0.19854869389E+03  0.29537658486E+03  0.17200000000E+03 0.  1.
</event>
<event>
 4    1  0.4475741E+000  0.1728777E+03  0.7818608E-02  0.1174880E+00
         21   -1    0    0  503  502  0.00000000000E+00  0.00000000000E+00  0.13184444733E+04  0.13184444733E+04  0.00000000000E+00 0.  1.
         21   -1    0    0  501  503 -0.00000000000E+00 -0.00000000000E+00 -0.22850176988E+02  0.22850176988E+02  0.00000000000E+00 0.  1.
          6    1    1    2  501    0  0.41727095860E+01 -0.16890694702E+02  0.58794106858E+03  0.61283065132E+03  0.17200000000E+03 0.  1.
         -6    1    1    2    0  502 -0.41727095860E+01  0.16890694702E+02  0.70765322771E+03  0.72846399895E+03  0.17200000000E+03 0.  1.
</event>
<event>
 4    1  0.4475741E+000  0.2157241E+03  0.7818608E-02  0.1137112E+00
         21   -1    0    0  501  502  0.00000000000E+00  0.00000000000E+00  0.67376130166E+03  0.67376130166E+03  0.00000000000E+00 0.  1.
         21   -1    0    0  502  503 -0.00000000000E+00 -0.00000000000E+00 -0.73925825752E+02  0.73925825752E+02  0.00000000000E+00 0.  1.
          6    1    1    2  501    0 -0.12721775349E+03 -0.27722740194E+02  0.39572736670E+03  0.45070728404E+03  0.17200000000E+03 0.  1.
         -6    1    1    2    0  503  0.12721775349E+03  0.27722740194E+02  0.20410810921E+03  0.29697984337E+03  0.17200000000E+03 0.  1.
</event>
<event>
 4    1  0.4475741E+000  0.2181840E+03  0.7818608E-02  0.1135244E+00
         21   -1    0    0  503  502  0.00000000000E+00  0.00000000000E+00  0.21536929658E+03  0.21536929658E+03  0.00000000000E+00 0.  1.
         21   -1    0    0  501  503 -0.00000000000E+00 -0.00000000000E+00 -0.23103281914E+03  0.23103281914E+03  0.00000000000E+00 0.  1.
          6    1    1    2  501    0  0.13386344601E+03 -0.10041160183E+02 -0.54262170018E+02  0.22483022521E+03  0.17200000000E+03 0.  1.
         -6    1    1    2    0  502 -0.13386344601E+03  0.10041160183E+02  0.38598647458E+02  0.22157189050E+03  0.17200000000E+03 0.  1.
</event>
<event>
 4    1  0.4475741E+000  0.3163151E+03  0.7818608E-02  0.1077358E+00
         21   -1    0    0  503  502  0.00000000000E+00  0.00000000000E+00  0.74268414731E+02  0.74268414731E+02  0.00000000000E+00 0.  1.
         21   -1    0    0  501  503 -0.00000000000E+00 -0.00000000000E+00 -0.13537063679E+04  0.13537063679E+04  0.00000000000E+00 0. -1.
          6    1    1    2  501    0  0.12911591062E+03 -0.23194895748E+03 -0.68917563811E+03  0.75829960926E+03  0.17200000000E+03 0.  1.
         -6    1    1    2    0  502 -0.12911591062E+03  0.23194895748E+03 -0.59026231511E+03  0.66967517341E+03  0.17200000000E+03 0. -1.
</event>
<event>
 4    1  0.4475741E+000  0.2056243E+03  0.7818608E-02  0.1145079E+00
         21   -1    0    0  501  502  0.00000000000E+00  0.00000000000E+00  0.17912389630E+03  0.17912389630E+03  0.00000000000E+00 0.  1.
         21   -1    0    0  502  503 -0.00000000000E+00 -0.00000000000E+00 -0.42656412509E+03  0.42656412509E+03  0.00000000000E+00 0.  1.
          6    1    1    2  501    0 -0.76432896787E+02  0.82797018045E+02  0.78673077414E+02  0.22016082081E+03  0.17200000000E+03 0.  1.
         -6    1    1    2    0  503  0.76432896787E+02 -0.82797018045E+02 -0.32611330620E+03  0.38552720058E+03  0.17200000000E+03 0.  1.
</event>
<event>
 4    1  0.4475741E+000  0.1760070E+03  0.7818608E-02  0.1171724E+00
         21   -1    0    0  501  502  0.00000000000E+00  0.00000000000E+00  0.36123009211E+02  0.36123009211E+02  0.00000000000E+00 0.  1.
         21   -1    0    0  502  503 -0.00000000000E+00 -0.00000000000E+00 -0.89358177595E+03  0.89358177595E+03  0.00000000000E+00 0.  1.
          6    1    1    2  501    0 -0.11533001041E+02  0.35517133982E+02 -0.33542714387E+03  0.37880053559E+03  0.17200000000E+03 0.  1.
         -6    1    1    2    0  503  0.11533001041E+02 -0.35517133982E+02 -0.52203162287E+03  0.55090424957E+03  0.17200000000E+03 0.  1.
</event>
<event>
 4    1  0.4475741E+000  0.2704835E+03  0.7818608E-02  0.1101003E+00
         21   -1    0    0  501  502  0.00000000000E+00  0.00000000000E+00  0.26672839092E+04  0.26672839092E+04  0.00000000000E+00 0.  1.
         21   -1    0    0  502  503 -0.00000000000E+00 -0.00000000000E+00 -0.29199157343E+02  0.29199157343E+02  0.00000000000E+00 0. -1.
          6    1    1    2  501    0 -0.20753945101E+03 -0.22465194715E+02  0.98709359625E+03  0.10234818398E+04  0.17200000000E+03 0. -1.
         -6    1    1    2    0  503  0.20753945101E+03  0.22465194715E+02  0.16509911556E+04  0.16730012267E+04  0.17200000000E+03 0.  1.
</event>
<event>
 4    1  0.4475741E+000  0.2042429E+03  0.7818608E-02  0.1146208E+00
         21   -1    0    0  503  502  0.00000000000E+00  0.00000000000E+00  0.84405576676E+02  0.84405576676E+02  0.00000000000E+00 0.  1.
         21   -1    0    0  501  503 -0.00000000000E+00 -0.00000000000E+00 -0.58237970286E+03  0.58237970286E+03  0.00000000000E+00 0. -1.
          6    1    1    2  501    0 -0.33776090395E+02  0.10483482978E+03 -0.37869928470E+03  0.43026539955E+03  0.17200000000E+03 0. -1.
         -6    1    1    2    0  502  0.33776090395E+02 -0.10483482978E+03 -0.11927484148E+03  0.23651987998E+03  0.17200000000E+03 0.  1.
</event>
<event>
 4    1  0.4475741E+000  0.2483659E+03  0.7818608E-02  0.1114342E+00
         21   -1    0    0  503  502  0.00000000000E+00  0.00000000000E+00  0.18727334590E+03  0.18727334590E+03  0.00000000000E+00 0. -1.
         21   -1    0    0  501  503 -0.00000000000E+00 -0.00000000000E+00 -0.33564547552E+03  0.33564547552E+03  0.00000000000E+00 0. -1.
          6    1    1    2  501    0 -0.42819771099E+02 -0.17397727523E+03 -0.38486946873E+02  0.25133020148E+03  0.17200000000E+03 0. -1.
         -6    1    1    2    0  502  0.42819771099E+02  0.17397727523E+03 -0.10988518274E+03  0.27158861994E+03  0.17200000000E+03 0. -1.
</event>
<event>
 4    1  0.4475741E+000  0.2036907E+03  0.7818608E-02  0.1146662E+00
         21   -1    0    0  501  502  0.00000000000E+00  0.00000000000E+00  0.13379028311E+04  0.13379028311E+04  0.00000000000E+00 0. -1.
         21   -1    0    0  502  503 -0.00000000000E+00 -0.00000000000E+00 -0.31103785562E+02  0.31103785562E+02  0.00000000000E+00 0. -1.
          6    1    1    2  501    0 -0.60450478943E+01  0.10894655067E+03  0.69075709116E+03  0.72016335126E+03  0.17200000000E+03 0. -1.
         -6    1    1    2    0  503  0.60450478943E+01 -0.10894655067E+03  0.61604195435E+03  0.64884326537E+03  0.17200000000E+03 0. -1.
</event>
<event>
 4    1  0.4475741E+000  0.2358167E+03  0.7818608E-02  0.1122611E+00
         21   -1    0    0  503  502  0.00000000000E+00  0.00000000000E+00  0.14586723375E+03  0.14586723375E+03  0.00000000000E+00 0. -1.
         21   -1    0    0  501  503 -0.00000000000E+00 -0.00000000000E+00 -0.15045452660E+04  0.15045452660E+04  0.00000000000E+00 0. -1.
          6    1    1    2  501    0  0.26188422013E+02 -0.15918448525E+03 -0.13923725526E+04  0.14122007148E+04  0.17200000000E+03 0. -1.
         -6    1    1    2    0  502 -0.26188422013E+02  0.15918448525E+03  0.33694520301E+02  0.23821178495E+03  0.17200000000E+03 0. -1.
</event>
<event>
 4    1  0.4475741E+000  0.1773699E+03  0.7818608E-02  0.1170373E+00
         21   -1    0    0  503  502  0.00000000000E+00  0.00000000000E+00  0.11397463084E+03  0.11397463084E+03  0.00000000000E+00 0.  1.
         21   -1    0    0  501  503 -0.00000000000E+00 -0.00000000000E+00 -0.71914750421E+03  0.71914750421E+03  0.00000000000E+00 0. -1.
          6    1    1    2  501    0  0.29275384126E+02  0.31922255247E+02 -0.62957352103E+03  0.65408172033E+03  0.17200000000E+03 0. -1.
         -6    1    1    2    0  502 -0.29275384126E+02 -0.31922255247E+02  0.24400647657E+02  0.17904041472E+03  0.17200000000E+03 0.  1.
</event>
<event>
 4    1  0.4475741E+000  0.3522230E+03  0.7818608E-02  0.1061706E+00
         21   -1    0    0  501  502  0.00000000000E+00  0.00000000000E+00  0.11139031211E+03  0.11139031211E+03  0.00000000000E+00 0.  1.
         21   -1    0    0  502  503 -0.00000000000E+00 -0.00000000000E+00 -0.15056288426E+04  0.15056288426E+04  0.00000000000E+00 0.  1.
          6    1    1    2  501    0 -0.27005704027E+03 -0.14678634096E+03 -0.28464036072E+03  0.45285888514E+03  0.17200000000E+03 0.  1.
         -6    1    1    2    0  503  0.27005704027E+03  0.14678634096E+03 -0.11095981697E+04  0.11641602695E+04  0.17200000000E+03 0.  1.
</event>
<event>
 4    1  0.4475741E+000  0.1813828E+03  0.7818608E-02  0.1166471E+00
         21   -1    0    0  503  502  0.00000000000E+00  0.00000000000E+00  0.46211624059E+03  0.46211624059E+03  0.00000000000E+00 0.  1.
         21   -1    0    0  501  503 -0.00000000000E+00 -0.00000000000E+00 -0.99377858087E+02  0.99377858087E+02  0.00000000000E+00 0. -1.
          6    1    1    2  501    0  0.52907853044E+02  0.22726099773E+02  0.31857991766E+02  0.18415930105E+03  0.17200000000E+03 0. -1.
         -6    1    1    2    0  502 -0.52907853044E+02 -0.22726099773E+02  0.33088039074E+03  0.37733479762E+03  0.17200000000E+03 0.  1.
</event>
<event>
 4    1  0.4475741E+000  0.2293155E+03  0.7818608E-02  0.1127123E+00
         21   -1    0    0  503  502  0.00000000000E+00  0.00000000000E+00  0.10375740875E+03  0.10375740875E+03  0.00000000000E+00 0. -1.
         21   -1    0    0  501  503 -0.00000000000E+00 -0.00000000000E+00 -0.53734469955E+03  0.53734469955E+03  0.00000000000E+00 0. -1.
          6    1    1    2  501    0  0.13415621603E+03 -0.70736752559E+02 -0.29320324746E+03  0.37222805212E+03  0.17200000000E+03 0. -1.
         -6    1    1    2    0  502 -0.13415621603E+03  0.70736752559E+02 -0.14038404335E+03  0.26887405618E+03  0.17200000000E+03 0. -1.
</event>
<event>
 4    1  0.4475741E+000  0.2233244E+03  0.7818608E-02  0.1131429E+00
         21   -1    0    0  501  502  0.00000000000E+00  0.00000000000E+00  0.12078704755E+03  0.12078704755E+03  0.00000000000E+00 0. -1.
         21   -1    0    0  502  503 -0.00000000000E+00 -0.00000000000E+00 -0.41341930320E+03  0.41341930320E+03  0.00000000000E+00 0.  1.
          6    1    1    2  501    0  0.69286772588E+02 -0.12445533695E+03 -0.13691128854E+03  0.26195130975E+03  0.17200000000E+03 0.  1.
         -6    1    1    2    0  503 -0.69286772588E+02  0.12445533695E+03 -0.15572096711E+03  0.27225504100E+03  0.17200000000E+03 0.  1.
</event>
<event>
 4    1  0.4475741E+000  0.2422981E+03  0.7818608E-02  0.1118271E+00
         21   -1    0    0  501  502  0.00000000000E+00  0.00000000000E+00  0.36746021764E+03  0.36746021764E+03  0.00000000000E+00 0.  1.
         21   -1    0    0  502  503 -0.00000000000E+00 -0.00000000000E+00 -0.20631048834E+03  0.20631048834E+03  0.00000000000E+00 0. -1.
          6    1    1    2  501    0  0.72150726219E+02 -0.15465655418E+03  0.21683619054E+03  0.32515582506E+03  0.17200000000E+03 0.  1.
         -6    1    1    2    0  503 -0.72150726219E+02  0.15465655418E+03 -0.55686461240E+02  0.24861488091E+03  0.17200000000E+03 0. -1.
</event>
<event>
 4    1  0.4475741E+000  0.2303861E+03  0.7818608E-02  0.1126368E+00
         21   -1    0    0  503  502  0.00000000000E+00  0.00000000000E+00  0.70134370306E+03  0.70134370306E+03  0.00000000000E+00 0. -1.
         21   -1    0    0  501  503 -0.00000000000E+00 -0.00000000000E+00 -0.22055244402E+03  0.22055244402E+03  0.00000000000E+00 0.  1.
          6    1    1    2  501    0  0.15222049995E+03 -0.17962874586E+02 -0.13318886684E+03  0.26611467400E+03  0.17200000000E+03 0.  1.
         -6    1    1    2    0  502 -0.15222049995E+03  0.17962874586E+02  0.61398012588E+03  0.65578147308E+03  0.17200000000E+03 0. -1.
</event>
<event>
 4    1  0.4475741E+000  0.2259148E+03  0.7818608E-02  0.1129549E+00
         21   -1    0    0  503  502  0.00000000000E+00  0.00000000000E+00  0.37522148206E+03  0.37522148206E+03  0.00000000000E+00 0.  1.
         21   -1    0    0  501  503 -0.00000000000E+00 -0.00000000000E+00 -0.15649745516E+03  0.15649745516E+03  0.00000000000E+00 0. -1.
          6    1    1    2  501    0  0.13624648347E+03 -0.53762265985E+02  0.13191827771E+02  0.22629960191E+03  0.17200000000E+03 0.  1.
         -6    1    1    2    0  502 -0.13624648347E+03  0.53762265985E+02  0.20553219913E+03  0.30541933531E+03  0.17200000000E+03 0.  1.
</event>
<event>
 4    1  0.4475741E+000  0.1879918E+03  0.7818608E-02  0.1160285E+00
         21   -1    0    0  501  502  0.00000000000E+00  0.00000000000E+00  0.66795539767E+03  0.66795539767E+03  0.00000000000E+00 0. -1.
         21   -1    0    0  502  503 -0.00000000000E+00 -0.00000000000E+00 -0.55542002398E+02  0.55542002398E+02  0.00000000000E+00 0. -1.
          6    1    1    2  501    0  0.33323233698E+01 -0.75801237126E+02  0.38496783659E+03  0.42841704814E+03  0.17200000000E+03 0. -1.
         -6    1    1    2    0  503 -0.33323233698E+01  0.75801237126E+02  0.22744555868E+03  0.29508035193E+03  0.17200000000E+03 0. -1.
</event>
<event>
 4    1  0.4475741E+000  0.3374681E+03  0.7818608E-02  0.1067879E+00
         21   -1    0    0  503  502  0.00000000000E+00  0.00000000000E+00  0.33931923759E+03  0.33931923759E+03  0.00000000000E+00 0. -1.
         21   -1    0    0  501  503 -0.00000000000E+00 -0.00000000000E+00 -0.65169160698E+03  0.65169160698E+03  0.00000000000E+00 0. -1.
          6    1    1    2  501    0 -0.21705102559E+03 -0.19284605989E+03 -0.50126251714E+03  0.60427548487E+03  0.17200000000E+03 0. -1.
         -6    1    1    2    0  502  0.21705102559E+03  0.19284605989E+03  0.18889014775E+03  0.38673535970E+03  0.17200000000E+03 0. -1.
</event>
<event>
 4    1  0.4475741E+000  0.1743882E+03  0.7818608E-02  0.1173347E+00
         21   -1    0    0  501  502  0.00000000000E+00  0.00000000000E+00  0.37724754548E+03  0.37724754548E+03  0.00000000000E+00 0. -1.
         21   -1    0    0  502  503 -0.00000000000E+00 -0.00000000000E+00 -0.83450635286E+02  0.83450635286E+02  0.00000000000E+00 0. -1.
          6    1    1    2  501    0  0.11732760814E+02 -0.26259935112E+02  0.10442551379E+03  0.20326320326E+03  0.17200000000E+03 0. -1.
         -6    1    1    2    0  503 -0.11732760814E+02  0.26259935112E+02  0.18937139639E+03  0.25743497750E+03  0.17200000000E+03 0. -1.
</event>
<event>
 4    1  0.4475741E+000  0.2524842E+03  0.7818608E-02  0.1111745E+00
         21   -1    0    0  501  502  0.00000000000E+00  0.00000000000E+00  0.69915101644E+03  0.69915101644E+03  0.00000000000E+00 0.  1.
         21   -1    0    0  502  503 -0.00000000000E+00 -0.00000000000E+00 -0.20114558135E+03  0.20114558135E+03  0.00000000000E+00 0. -1.
          6    1    1    2  501    0  0.17343263141E+03  0.63917162895E+02  0.58183820331E+03  0.63425860356E+03  0.17200000000E+03 0.  1.
         -6    1    1    2    0  503 -0.17343263141E+03 -0.63917162895E+02 -0.83832768219E+02  0.26603799424E+03  0.17200000000E+03 0. -1.
</event>
<event>
 4    1  0.4475741E+000  0.1824896E+03  0.7818608E-02  0.1165415E+00
         21   -1    0    0  501  502  0.00000000000E+00  0.00000000000E+00  0.56613148796E+03  0.56613148796E+03  0.00000000000E+00 0. -1.
         21   -1    0    0  502  503 -0.00000000000E+00 -0.00000000000E+00 -0.68877983532E+02  0.68877983532E+02  0.00000000000E+00 0. -1.
          6    1    1    2  501    0 -0.22728063406E+02  0.56585086769E+02  0.36992846631E+03  0.41249182670E+03  0.17200000000E+03 0.  1.
         -6    1    1    2    0  503  0.22728063406E+02 -0.56585086769E+02  0.12732503812E+03  0.22251764479E+03  0.17200000000E+03 0.  1.
</event>
<event>
 4    1  0.4475741E+000  0.2672811E+03  0.7818608E-02  0.1102846E+00
         21   -1    0    0  501  502  0.00000000000E+00  0.00000000000E+00  0.51261955708E+03  0.51261955708E+03  0.00000000000E+00 0.  1.
         21   -1    0    0  502  503 -0.00000000000E+00 -0.00000000000E+00 -0.37645618698E+03  0.37645618698E+03  0.00000000000E+00 0.  1.
          6    1    1    2  501    0 -0.20457188038E+03  0.23515741739E+01  0.42086894861E+03  0.49856780486E+03  0.17200000000E+03 0.  1.
         -6    1    1    2    0  503  0.20457188038E+03 -0.23515741739E+01 -0.28470557851E+03  0.39050793920E+03  0.17200000000E+03 0.  1.
</event>
<event>
 4    1  0.4475741E+000  0.1833468E+03  0.7818608E-02  0.1164603E+00
         21   -1    0    0  501  502  0.00000000000E+00  0.00000000000E+00  0.61311440429E+03  0.61311440429E+03  0.00000000000E+00 0.  1.
         21   -1    0    0  502  503 -0.00000000000E+00 -0.00000000000E+00 -0.13395719427E+03  0.13395719427E+03  0.00000000000E+00 0.  1.
          6    1    1    2  501    0  0.27806356464E+02 -0.57086236725E+02  0.52666770690E+03  0.55766917197E+03  0.17200000000E+03 0.  1.
         -6    1    1    2    0  503 -0.27806356464E+02  0.57086236725E+02 -0.47510496869E+02  0.18940242658E+03  0.17200000000E+03 0.  1.
</event>
<event>
 4    1  0.4475741E+000  0.1897758E+03  0.7818608E-02  0.1158664E+00
         21   -1    0    0  501  502  0.00000000000E+00  0.00000000000E+00  0.20655309957E+03  0.20655309957E+03  0.00000000000E+00 0. -1.
         21   -1    0    0  502  503 -0.00000000000E+00 -0.00000000000E+00 -0.36862219217E+03  0.36862219217E+03  0.00000000000E+00 0.  1.
          6    1    1    2  501    0 -0.79085163874E+02 -0.13281697684E+02  0.12773741839E+03  0.22876126135E+03  0.17200000000E+03 0. -1.
         -6    1    1    2    0  503  0.79085163874E+02  0.13281697684E+02 -0.28980651099E+03  0.34641403039E+03  0.17200000000E+03 0.  1.
</event>
<event>
 4    1  0.4475741E+000  0.2152726E+03  0.7818608E-02  0.1137457E+00
         21   -1    0    0  501  502  0.00000000000E+00  0.00000000000E+00  0.22617037023E+03  0.22617037023E+03  0.00000000000E+00 0. -1.
         21   -1    0    0  502  503 -0.00000000000E+00 -0.00000000000E+00 -0.21371112738E+03  0.21371112738E+03  0.00000000000E+00 0.  1.
          6    1    1    2  501    0 -0.12778232659E+03 -0.20735731824E+02  0.50888677389E+02  0.22120567590E+03  0.17200000000E+03 0. -1.
         -6    1    1    2    0  503  0.12778232659E+03  0.20735731824E+02 -0.38429434530E+02  0.21867582171E+03  0.17200000000E+03 0. -1.
</event>
<event>
 4    1  0.4475741E+000  0.2351771E+03  0.7818608E-02  0.1123048E+00
         21   -1    0    0  503  502  0.00000000000E+00  0.00000000000E+00  0.22460766042E+03  0.22460766042E+03  0.00000000000E+00 0. -1.
         21   -1    0    0  501  503 -0.00000000000E+00 -0.00000000000E+00 -0.53676691422E+03  0.53676691422E+03  0.00000000000E+00 0.  1.
          6    1    1    2  501    0 -0.12978802881E+03 -0.94230330672E+02 -0.43614905499E+03  0.49551416307E+03  0.17200000000E+03 0.  1.
         -6    1    1    2    0  502  0.12978802881E+03  0.94230330672E+02  0.12398980119E+03  0.26586041157E+03  0.17200000000E+03 0. -1.
</event>
<event>
 4    1  0.4475741E+000  0.2277856E+03  0.7818608E-02  0.1128208E+00
         21   -1    0    0  501  502  0.00000000000E+00  0.00000000000E+00  0.22244647792E+03  0.22244647792E+03  0.00000000000E+00 0.  1.
         21   -1    0    0  502  503 -0.00000000000E+00 -0.00000000000E+00 -0.35950346302E+03  0.35950346302E+03  0.00000000000E+00 0.  1.
          6    1    1    2  501    0 -0.44775903200E+02  0.14246889519E+03  0.10390471157E+03  0.25036464744E+03  0.17200000000E+03 0.  1.
         -6    1    1    2    0  503  0.44775903200E+02 -0.14246889519E+03 -0.24096169667E+03  0.33158529350E+03  0.17200000000E+03 0.  1.
</event>
<event>
 4    1  0.4475741E+000  0.1866139E+03  0.7818608E-02  0.1161551E+00
         21   -1    0    0  503  502  0.00000000000E+00  0.00000000000E+00  0.58252824119E+03  0.58252824119E+03  0.00000000000E+00 0.  1.
         21   -1    0    0  501  503 -0.00000000000E+00 -0.00000000000E+00 -0.60208297816E+02  0.60208297816E+02  0.00000000000E+00 0.  1.
          6    1    1    2  501    0 -0.26760193719E+02  0.67265484294E+02  0.23412115877E+03  0.29939517419E+03  0.17200000000E+03 0.  1.
         -6    1    1    2    0  502  0.26760193719E+02 -0.67265484294E+02  0.28819878460E+03  0.34334136481E+03  0.17200000000E+03 0.  1.
</event>
<event>
 4    1  0.4475741E+000  0.1883604E+03  0.7818608E-02  0.1159949E+00
         21   -1    0    0  501  502  0.00000000000E+00  0.00000000000E+00  0.90232229639E+02  0.90232229639E+02  0.00000000000E+00 0.  1.
         21   -1    0    0  502  503 -0.00000000000E+00 -0.00000000000E+00 -0.10599867295E+04  0.10599867295E+04  0.00000000000E+00 0.  1.
          6    1    1    2  501    0  0.19937945096E+02 -0.74149240537E+02 -0.28743050642E+02  0.19054079481E+03  0.17200000000E+03 0.  1.
         -6    1    1    2    0  503 -0.19937945096E+02  0.74149240537E+02 -0.94101144924E+03  0.95967816435E+03  0.17200000000E+03 0.  1.
</event>
<event>
 4    1  0.4475741E+000  0.2549759E+03  0.7818608E-02  0.1110200E+00
         21   -1    0    0  501  502  0.00000000000E+00  0.00000000000E+00  0.82248331072E+03  0.82248331072E+03  0.00000000000E+00 0. -1.
         21   -1    0    0  502  503 -0.00000000000E+00 -0.00000000000E+00 -0.79088905462E+02  0.79088905462E+02  0.00000000000E+00 0.  1.
          6    1    1    2  501    0 -0.18558887654E+03  0.31392507139E+02  0.36100675235E+03  0.44197126133E+03  0.17200000000E+03 0. -1.
         -6    1    1    2    0  503  0.18558887654E+03 -0.31392507139E+02  0.38238765291E+03  0.45960095485E+03  0.17200000000E+03 0.  1.
</event>
<event>
 4    1  0.4475741E+000  0.2654379E+03  0.7818608E-02  0.1103919E+00
         21   -1    0    0  503  502  0.00000000000E+00  0.00000000000E+00  0.21053256543E+03  0.21053256543E+03  0.00000000000E+00 0. -1.
         21   -1    0    0  501  503 -0.00000000000E+00 -0.00000000000E+00 -0.41161154919E+03  0.41161154919E+03  0.00000000000E+00 0. -1.
          6    1    1    2  501    0 -0.18972306738E+03  0.69845909230E+02 -0.23503868431E+03  0.35454262995E+03  0.17200000000E+03 0. -1.
         -6    1    1    2    0  502  0.18972306738E+03 -0.69845909230E+02  0.33959700549E+02  0.26760148466E+03  0.17200000000E+03 0. -1.
</event>
<event>
 4    1  0.4475741E+000  0.1826649E+03  0.7818608E-02  0.1165249E+00
         21   -1    0    0  501  502  0.00000000000E+00  0.00000000000E+00  0.10163037984E+03  0.10163037984E+03  0.00000000000E+00 0.  1.
         21   -1    0    0  502  503 -0.00000000000E+00 -0.00000000000E+00 -0.35850915081E+03  0.35850915081E+03  0.00000000000E+00 0. -1.
          6    1    1    2  501    0  0.22533091395E+02  0.57225225833E+02 -0.19521115366E+03  0.26734595788E+03  0.17200000000E+03 0.  1.
         -6    1    1    2    0  503 -0.22533091395E+02 -0.57225225833E+02 -0.61667617299E+02  0.19279357277E+03  0.17200000000E+03 0.  1.
</event>
<event>
 4    1  0.4475741E+000  0.1739077E+03  0.7818608E-02  0.1173833E+00
         21   -1    0    0  503  502  0.00000000000E+00  0.00000000000E+00  0.15433302124E+04  0.15433302124E+04  0.00000000000E+00 0.  1.
         21   -1    0    0  501  503 -0.00000000000E+00 -0.00000000000E+00 -0.61271439744E+02  0.61271439744E+02  0.00000000000E+00 0.  1.
          6    1    1    2  501    0 -0.14072761636E+02 -0.21490981055E+02  0.79353099186E+02  0.19115653072E+03  0.17200000000E+03 0.  1.
         -6    1    1    2    0  502  0.14072761636E+02  0.21490981055E+02  0.14027056734E+04  0.14134451214E+04  0.17200000000E+03 0.  1.
</event>
<event>
 4    1  0.4475741E+000  0.1775717E+03  0.7818608E-02  0.1170174E+00
         21   -1    0    0  501  502  0.00000000000E+00  0.00000000000E+00  0.10640371012E+03  0.10640371012E+03  0.00000000000E+00 0. -1.
         21   -1    0    0  502  503 -0.00000000000E+00 -0.00000000000E+00 -0.29903497833E+03  0.29903497833E+03  0.00000000000E+00 0. -1.
          6    1    1    2  501    0  0.30465381762E+02 -0.31930469316E+02 -0.77071537707E+02  0.19357612529E+03  0.17200000000E+03 0. -1.
         -6    1    1    2    0  503 -0.30465381762E+02  0.31930469316E+02 -0.11555973050E+03  0.21186256317E+03  0.17200000000E+03 0. -1.
</event>
<event>
 4    1  0.4475741E+000  0.1944273E+03  0.7818608E-02  0.1154528E+00
         21   -1    0    0  503  502  0.00000000000E+00  0.00000000000E+00  0.15534810204E+04  0.15534810204E+04  0.00000000000E+00 0.  1.
         21   -1    0    0  501  503 -0.00000000000E+00 -0.00000000000E+00 -0.41628483069E+02  0.41628483069E+02  0.00000000000E+00 0.  1.
          6    1    1    2  501    0  0.45625886848E+02 -0.78334290688E+02  0.24185605838E+03  0.31031650878E+03  0.17200000000E+03 0.  1.
         -6    1    1    2    0  502 -0.45625886848E+02  0.78334290688E+02  0.12699964789E+04  0.12847929946E+04  0.17200000000E+03 0.  1.
</event>
<event>
 4    1  0.4475741E+000  0.2439426E+03  0.7818608E-02  0.1117194E+00
         21   -1    0    0  501  502  0.00000000000E+00  0.00000000000E+00  0.17550802810E+03  0.17550802810E+03  0.00000000000E+00 0.  1.
         21   -1    0    0  502  503 -0.00000000000E+00 -0.00000000000E+00 -0.48384756454E+03  0.48384756454E+03  0.00000000000E+00 0. -1.
          6    1    1    2  501    0 -0.16562430623E+03 -0.49925588428E+02  0.26173170854E+02  0.24534263809E+03  0.17200000000E+03 0.  1.
         -6    1    1    2    0  503  0.16562430623E+03  0.49925588428E+02 -0.33451270730E+03  0.41401295455E+03  0.17200000000E+03 0. -1.
</event>
<event>
 4    1  0.4475741E+000  0.2181876E+03  0.7818608E-02  0.1135241E+00
         21   -1    0    0  501  502  0.00000000000E+00  0.00000000000E+00  0.13016915134E+03  0.13016915134E+03  0.00000000000E+00 0.  1.
         21   -1    0    0  502  503 -0.00000000000E+00 -0.00000000000E+00 -0.54075160997E+03  0.54075160997E+03  0.00000000000E+00 0. -1.
          6    1    1    2  501    0 -0.12967132899E+03  0.34744731043E+02 -0.14439160559E+02  0.21866490175E+03  0.17200000000E+03 0.  1.
         -6    1    1    2    0  503  0.12967132899E+03 -0.34744731043E+02 -0.39614329807E+03  0.45225585956E+03  0.17200000000E+03 0. -1.
</event>
<event>
 4    1  0.4475741E+000  0.1856053E+03  0.7818608E-02  0.1162486E+00
         21   -1    0    0  501  502  0.00000000000E+00  0.00000000000E+00  0.25640131288E+02  0.25640131288E+02  0.00000000000E+00 0.  1.
         21   -1    0    0  502  503 -0.00000000000E+00 -0.00000000000E+00 -0.14129519297E+04  0.14129519297E+04  0.00000000000E+00 0.  1.
          6    1    1    2  501    0  0.63545919030E+02 -0.28761736897E+02 -0.53426411959E+03  0.56558595352E+03  0.17200000000E+03 0.  1.
         -6    1    1    2    0  503 -0.63545919030E+02  0.28761736897E+02 -0.85304767878E+03  0.87300610743E+03  0.17200000000E+03 0.  1.
</event>
<event>
 4    1  0.4475741E+000  0.2435072E+03  0.7818608E-02  0.1117478E+00
         21   -1    0    0  501  502  0.00000000000E+00  0.00000000000E+00  0.18144371871E+04  0.18144371871E+04  0.00000000000E+00 0. -1.
         21   -1    0    0  502  503 -0.00000000000E+00 -0.00000000000E+00 -0.24040665606E+03  0.24040665606E+03  0.00000000000E+00 0. -1.
          6    1    1    2  501    0 -0.46583775416E+02  0.16595689834E+03  0.17420556526E+04  0.17589922220E+04  0.17200000000E+03 0. -1.
         -6    1    1    2    0  503  0.46583775416E+02 -0.16595689834E+03 -0.16802512160E+03  0.29585162114E+03  0.17200000000E+03 0. -1.
</event>
<event>
 4    1  0.4475741E+000  0.1855972E+03  0.7818608E-02  0.1162493E+00
         21   -1    0    0  501  502  0.00000000000E+00  0.00000000000E+00  0.36019323671E+03  0.36019323671E+03  0.00000000000E+00 0. -1.
         21   -1    0    0  502  503 -0.00000000000E+00 -0.00000000000E+00 -0.16173528022E+03  0.16173528022E+03  0.00000000000E+00 0. -1.
          6    1    1    2  501    0 -0.57605062366E+02 -0.39293464650E+02  0.26606400501E+03  0.32440156340E+03  0.17200000000E+03 0. -1.
         -6    1    1    2    0  503  0.57605062366E+02  0.39293464650E+02 -0.67606048524E+02  0.19752695353E+03  0.17200000000E+03 0. -1.
</event>
<event>
 4    1  0.4475741E+000  0.2330789E+03  0.7818608E-02  0.1124491E+00
         21   -1    0    0  501  502  0.00000000000E+00  0.00000000000E+00  0.92711216688E+02  0.92711216688E+02  0.00000000000E+00 0. -1.
         21   -1    0    0  502  503 -0.00000000000E+00 -0.00000000000E+00 -0.62243453207E+03  0.62243453207E+03  0.00000000000E+00 0.  1.
          6    1    1    2  501    0  0.49133820174E+02 -0.14942440678E+03 -0.17831181537E+03  0.29346360785E+03  0.17200000000E+03 0. -1.
         -6    1    1    2    0  503 -0.49133820174E+02  0.14942440678E+03 -0.35141150001E+03  0.42168214091E+03  0.17200000000E+03 0.  1.
</event>
<event>
 4    1  0.4475741E+000  0.2750876E+03  0.7818608E-02  0.1098403E+00
         21   -1    0    0  503  502  0.00000000000E+00  0.00000000000E+00  0.13852768997E+03  0.13852768997E+03  0.00000000000E+00 0.  1.
         21   -1    0    0  501  503 -0.00000000000E+00 -0.00000000000E+00 -0.56394986269E+03  0.56394986269E+03  0.00000000000E+00 0. -1.
          6    1    1    2  501    0 -0.47845475549E+02  0.20928452113E+03 -0.27490531703E+03  0.38890375885E+03  0.17200000000E+03 0.  1.
         -6    1    1    2    0  502  0.47845475549E+02 -0.20928452113E+03 -0.15051685570E+03  0.31357379381E+03  0.17200000000E+03 0. -1.
</event>
<event>
 4    1  0.4475741E+000  0.2068094E+03  0.7818608E-02  0.1144118E+00
         21   -1    0    0  501  502  0.00000000000E+00  0.00000000000E+00  0.15070289448E+03  0.15070289448E+03  0.00000000000E+00 0. -1.
         21   -1    0    0  502  503 -0.00000000000E+00 -0.00000000000E+00 -0.11772140584E+04  0.11772140584E+04  0.00000000000E+00 0.  1.
          6    1    1    2  501    0  0.95737986430E+02 -0.63406268697E+02  0.65158111388E+02  0.21683103199E+03  0.17200000000E+03 0. -1.
         -6    1    1    2    0  503 -0.95737986430E+02  0.63406268697E+02 -0.10916692753E+04  0.11110859209E+04  0.17200000000E+03 0.  1.
</event>
<event>
 4    1  0.4475741E+000  0.1958245E+03  0.7818608E-02  0.1153310E+00
         21   -1    0    0  501  502  0.00000000000E+00  0.00000000000E+00  0.28858095727E+02  0.28858095727E+02  0.00000000000E+00 0. -1.
         21   -1    0    0  502  503 -0.00000000000E+00 -0.00000000000E+00 -0.13781267399E+04  0.13781267399E+04  0.00000000000E+00 0.  1.
          6    1    1    2  501    0  0.71283695720E+02  0.60678367388E+02 -0.54156874256E+03  0.57588534663E+03  0.17200000000E+03 0. -1.
         -6    1    1    2    0  503 -0.71283695720E+02 -0.60678367388E+02 -0.80769990158E+03  0.83109948897E+03  0.17200000000E+03 0.  1.
</event>
<event>
 4    1  0.4475741E+000  0.2046865E+03  0.7818608E-02  0.1145844E+00
         21   -1    0    0  501  502  0.00000000000E+00  0.00000000000E+00  0.42380948601E+03  0.42380948601E+03  0.00000000000E+00 0. -1.
         21   -1    0    0  502  503 -0.00000000000E+00 -0.00000000000E+00 -0.11205115854E+03  0.11205115854E+03  0.00000000000E+00 0. -1.
          6    1    1    2  501    0  0.12241953223E+02  0.11028465335E+03  0.24781887781E+03  0.32141992219E+03  0.17200000000E+03 0. -1.
         -6    1    1    2    0  503 -0.12241953223E+02 -0.11028465335E+03  0.63939449659E+02  0.21444072236E+03  0.17200000000E+03 0. -1.
</event>
<event>
 4    1  0.4475741E+000  0.1802648E+03  0.7818608E-02  0.1167547E+00
         21   -1    0    0  503  502  0.00000000000E+00  0.00000000000E+00  0.82132676319E+03  0.82132676319E+03  0.00000000000E+00 0.  1.
         21   -1    0    0  501  503 -0.00000000000E+00 -0.00000000000E+00 -0.46099480143E+02  0.46099480143E+02  0.00000000000E+00 0. -1.
          6    1    1    2  501    0  0.41500261161E+01 -0.53797494704E+02  0.22431737264E+03  0.28777365554E+03  0.17200000000E+03 0.  1.
         -6    1    1    2    0  502 -0.41500261161E+01  0.53797494704E+02  0.55090991041E+03  0.57965258780E+03  0.17200000000E+03 0.  1.
</event>
<event>
 4    1  0.4475741E+000  0.1786808E+03  0.7818608E-02  0.1169086E+00
         21   -1    0    0  501  502  0.00000000000E+00  0.00000000000E+00  0.21469331408E+04  0.21469331408E+04  0.00000000000E+00 0. -1.
         21   -1    0    0  502  503 -0.00000000000E+00 -0.00000000000E+00 -0.13098870777E+03  0.13098870777E+03  0.00000000000E+00 0. -1.
          6    1    1    2  501    0 -0.27951181158E+02 -0.39516789036E+02  0.20803339170E+04  0.20879933073E+04  0.17200000000E+03 0. -1.
         -6    1    1    2    0  503  0.27951181158E+02  0.39516789036E+02 -0.64389483965E+02  0.18992854127E+03  0.17200000000E+03 0. -1.
</event>
<event>
 4    1  0.4475741E+000  0.2074785E+03  0.7818608E-02  0.1143578E+00
         21   -1    0    0  503  502  0.00000000000E+00  0.00000000000E+00  0.69616334149E+02  0.69616334149E+02  0.00000000000E+00 0.  1.
         21   -1    0    0  501  503 -0.00000000000E+00 -0.00000000000E+00 -0.75205135755E+03  0.75205135755E+03  0.00000000000E+00 0. -1.
          6    1    1    2  501    0  0.98447145482E+02 -0.61412394023E+02 -0.51444185301E+03  0.55470509527E+03  0.17200000000E+03 0. -1.
         -6    1    1    2    0  502 -0.98447145482E+02  0.61412394023E+02 -0.16799317040E+03  0.26696259643E+03  0.17200000000E+03 0.  1.
</event>
<event>
 4    1  0.4475741E+000  0.2692121E+03  0.7818608E-02  0.1101731E+00
         21   -1    0    0  503  502  0.00000000000E+00  0.00000000000E+00  0.21038402450E+03  0.21038402450E+03  0.00000000000E+00 0. -1.
         21   -1    0    0  501  503 -0.00000000000E+00 -0.00000000000E+00 -0.34534991079E+03  0.34534991079E+03  0.00000000000E+00 0. -1.
          6    1    1    2  501    0  0.15381773172E+03  0.13867675065E+03 -0.53615315986E+02  0.27449906716E+03  0.17200000000E+03 0. -1.
         -6    1    1    2    0  502 -0.15381773172E+03 -0.13867675065E+03 -0.81350570309E+02  0.28123486813E+03  0.17200000000E+03 0. -1.
</event>
<event>
 4    1  0.4475741E+000  0.1983983E+03  0.7818608E-02  0.1151097E+00
         21   -1    0    0  501  502  0.00000000000E+00  0.00000000000E+00  0.57099439009E+03  0.57099439009E+03  0.00000000000E+00 0.  1.
         21   -1    0    0  502  503 -0.00000000000E+00 -0.00000000000E+00 -0.70753188573E+02  0.70753188573E+02  0.00000000000E+00 0.  1.
          6    1    1    2  501    0 -0.85650209849E+02  0.49415854044E+02  0.30154861770E+03  0.36096184551E+03  0.17200000000E+03 0.  1.
         -6    1    1    2    0  503  0.85650209849E+02 -0.49415854044E+02  0.19869258382E+03  0.28078573316E+03  0.17200000000E+03 0.  1.
</event>
<event>
 4    1  0.4475741E+000  0.2000060E+03  0.7818608E-02  0.1149734E+00
         21   -1    0    0  503  502  0.00000000000E+00  0.00000000000E+00  0.57698654348E+02  0.57698654348E+02  0.00000000000E+00 0.  1.
         21   -1    0    0  501  503 -0.00000000000E+00 -0.00000000000E+00 -0.79231809133E+03  0.79231809133E+03  0.00000000000E+00 0. -1.
          6    1    1    2  501    0 -0.89955778425E+02  0.48232185463E+02 -0.51755763006E+03  0.55485879845E+03  0.17200000000E+03 0. -1.
         -6    1    1    2    0  502  0.89955778425E+02 -0.48232185463E+02 -0.21706180692E+03  0.29515794723E+03  0.17200000000E+03 0.  1.
</event>
<event>
 4    1  0.4475741E+000  0.2442464E+03  0.7818608E-02  0.1116996E+00
         21   -1    0    0  503  502  0.00000000000E+00  0.00000000000E+00  0.19904030575E+03  0.19904030575E+03  0.00000000000E+00 0. -1.
         21   -1    0    0  501  503 -0.00000000000E+00 -0.00000000000E+00 -0.60309819037E+03  0.60309819037E+03  0.00000000000E+00 0.  1.
          6    1    1    2  501    0  0.17417348130E+02  0.17253671525E+03 -0.48648671879E+03  0.54435797935E+03  0.17200000000E+03 0.  1.
         -6    1    1    2    0  502 -0.17417348130E+02 -0.17253671525E+03  0.82428834167E+02  0.25778051677E+03  0.17200000000E+03 0. -1.
</event>
<event>
 4    1  0.4475741E+000  0.2664134E+03  0.7818608E-02  0.1103350E+00
         21   -1    0    0  503  502  0.00000000000E+00  0.00000000000E+00  0.15961423816E+03  0.15961423816E+03  0.00000000000E+00 0.  1.
         21   -1    0    0  501  503 -0.00000000000E+00 -0.00000000000E+00 -0.16678271247E+04  0.16678271247E+04  0.00000000000E+00 0. -1.
          6    1    1    2  501    0 -0.71963994007E+02  0.19029783328E+03 -0.15365960861E+04  0.15595203152E+04  0.17200000000E+03 0. -1.
         -6    1    1    2    0  502  0.71963994007E+02 -0.19029783328E+03  0.28383199501E+02  0.26792104769E+03  0.17200000000E+03 0.  1.
</event>
<event>
 4    1  0.4475741E+000  0.2798074E+03  0.7818608E-02  0.1095794E+00
         21   -1    0    0  501  502  0.00000000000E+00  0.00000000000E+00  0.16860408110E+03  0.16860408110E+03  0.00000000000E+00 0. -1.
         21   -1    0    0  502  503 -0.00000000000E+00 -0.00000000000E+00 -0.47714268043E+03  0.47714268043E+03  0.00000000000E+00 0.  1.
          6    1    1    2  501    0  0.14459325608E+03 -0.16673631239E+03 -0.20712575118E+03  0.34812825851E+03  0.17200000000E+03 0. -1.
         -6    1    1    2    0  503 -0.14459325608E+03  0.16673631239E+03 -0.10141284815E+03  0.29761850302E+03  0.17200000000E+03 0.  1.
</event>
<event>
 4    1  0.4475741E+000  0.2070261E+03  0.7818608E-02  0.1143943E+00
         21   -1    0    0  501  502  0.00000000000E+00  0.00000000000E+00  0.93284515869E+03  0.93284515869E+03  0.00000000000E+00 0.  1.
         21   -1    0    0  502  503 -0.00000000000E+00 -0.00000000000E+00 -0.80307281667E+02  0.80307281667E+02  0.00000000000E+00 0. -1.
          6    1    1    2  501    0  0.41623623244E+02  0.10743975323E+03  0.75763391232E+03  0.78541006594E+03  0.17200000000E+03 0.  1.
         -6    1    1    2    0  503 -0.41623623244E+02 -0.10743975323E+03  0.94903964699E+02  0.22774237441E+03  0.17200000000E+03 0. -1.
</event>
<event>
 4    1  0.4475741E+000  0.1906582E+03  0.7818608E-02  0.1157869E+00
         21   -1    0    0  501  502  0.00000000000E+00  0.00000000000E+00  0.26613559109E+03  0.26613559109E+03  0.00000000000E+00 0.  1.
         21   -1    0    0  502  503 -0.00000000000E+00 -0.00000000000E+00 -0.19803127484E+03  0.19803127484E+03  0.00000000000E+00 0.  1.
          6    1    1    2  501    0 -0.50091700190E+02 -0.65248638556E+02  0.16332856439E+03  0.25105135571E+03  0.17200000000E+03 0.  1.
         -6    1    1    2    0  503  0.50091700190E+02  0.65248638556E+02 -0.95224248134E+02  0.21311551021E+03  0.17200000000E+03 0.  1.
</event>
<event>
 4    1  0.4475741E+000  0.2093253E+03  0.7818608E-02  0.1142101E+00
         21   -1    0    0  503  502  0.00000000000E+00  0.00000000000E+00  0.21024524776E+03  0.21024524776E+03  0.00000000000E+00 0.  1.
         21   -1    0    0  501  503 -0.00000000000E+00 -0.00000000000E+00 -0.21189269712E+03  0.21189269712E+03  0.00000000000E+00 0.  1.
          6    1    1    2  501    0  0.21754258314E+02 -0.11730223072E+03 -0.27886294267E+02  0.21117458771E+03  0.17200000000E+03 0. -1.
         -6    1    1    2    0  502 -0.21754258314E+02  0.11730223072E+03  0.26238844903E+02  0.21096335717E+03  0.17200000000E+03 0. -1.
</event>
<event>
 4    1  0.4475741E+000  0.2048195E+03  0.7818608E-02  0.1145735E+00
         21   -1    0    0  501  502  0.00000000000E+00  0.00000000000E+00  0.99361328470E+03  0.99361328470E+03  0.00000000000E+00 0.  1.
         21   -1    0    0  502  503 -0.00000000000E+00 -0.00000000000E+00 -0.48037434412E+02  0.48037434412E+02  0.00000000000E+00 0.  1.
          6    1    1    2  501    0  0.99787148049E+02 -0.49087092759E+02  0.65402331038E+03  0.68534480965E+03  0.17200000000E+03 0.  1.
         -6    1    1    2    0  503 -0.99787148049E+02  0.49087092759E+02  0.29155253991E+03  0.35630590946E+03  0.17200000000E+03 0.  1.
</event>
<event>
 4    1  0.4475741E+000  0.1966825E+03  0.7818608E-02  0.1152569E+00
         21   -1    0    0  503  502  0.00000000000E+00  0.00000000000E+00  0.13430016038E+03  0.13430016038E+03  0.00000000000E+00 0.  1.
         21   -1    0    0  501  503 -0.00000000000E+00 -0.00000000000E+00 -0.32864730591E+03  0.32864730591E+03  0.00000000000E+00 0.  1.
          6    1    1    2  501    0  0.89309441474E+02 -0.33523587888E+02 -0.17853737532E+03  0.26563057367E+03  0.17200000000E+03 0.  1.
         -6    1    1    2    0  502 -0.89309441474E+02  0.33523587888E+02 -0.15809770210E+02  0.19731689263E+03  0.17200000000E+03 0.  1.
</event>
<event>
 4    1  0.4475741E+000  0.2450783E+03  0.7818608E-02  0.1116455E+00
         21   -1    0    0  503  502  0.00000000000E+00  0.00000000000E+00  0.17757709358E+03  0.17757709358E+03  0.00000000000E+00 0. -1.
         21   -1    0    0  501  503 -0.00000000000E+00 -0.00000000000E+00 -0.35731081999E+03  0.35731081999E+03  0.00000000000E+00 0. -1.
          6    1    1    2  501    0  0.17455137587E+03  0.33484539261E+01 -0.15165604106E+03  0.28820643600E+03  0.17200000000E+03 0. -1.
         -6    1    1    2    0  502 -0.17455137587E+03 -0.33484539261E+01 -0.28077685349E+02  0.24668147757E+03  0.17200000000E+03 0. -1.
</event>
<event>
 4    1  0.4475741E+000  0.2285397E+03  0.7818608E-02  0.1127672E+00
         21   -1    0    0  501  502  0.00000000000E+00  0.00000000000E+00  0.95108359308E+02  0.95108359308E+02  0.00000000000E+00 0. -1.
         21   -1    0    0  502  503 -0.00000000000E+00 -0.00000000000E+00 -0.12375514125E+04  0.12375514125E+04  0.00000000000E+00 0. -1.
          6    1    1    2  501    0  0.13686754669E+03  0.62559438237E+02 -0.74259665009E+02  0.24030169890E+03  0.17200000000E+03 0. -1.
         -6    1    1    2    0  503 -0.13686754669E+03 -0.62559438237E+02 -0.10681833882E+04  0.10923580729E+04  0.17200000000E+03 0. -1.
</event>
<event>
 4    1  0.4475741E+000  0.1888722E+03  0.7818608E-02  0.1159483E+00
         21   -1    0    0  501  502  0.00000000000E+00  0.00000000000E+00  0.97806617474E+02  0.97806617474E+02  0.00000000000E+00 0. -1.
         21   -1    0    0  502  503 -0.00000000000E+00 -0.00000000000E+00 -0.55113497744E+03  0.55113497744E+03  0.00000000000E+00 0. -1.
          6    1    1    2  501    0 -0.31914590760E+02  0.71205009986E+02 -0.37961047326E+02  0.19264925555E+03  0.17200000000E+03 0. -1.
         -6    1    1    2    0  503  0.31914590760E+02 -0.71205009986E+02 -0.41536731264E+03  0.45629233936E+03  0.17200000000E+03 0. -1.
</event>
<event>
 4    1  0.4475741E+000  0.1964147E+03  0.7818608E-02  0.1152800E+00
         21   -1    0    0  501  502  0.00000000000E+00  0.00000000000E+00  0.15761250582E+04  0.15761250582E+04  0.00000000000E+00 0. -1.
         21   -1    0    0  502  503 -0.00000000000E+00 -0.00000000000E+00 -0.48360390057E+02  0.48360390057E+02  0.00000000000E+00 0.  1.
          6    1    1    2  501    0  0.85320180436E+02  0.41415184329E+02  0.13346893174E+04  0.13490642404E+04  0.17200000000E+03 0. -1.
         -6    1    1    2    0  503 -0.85320180436E+02 -0.41415184329E+02  0.19307535073E+03  0.27542120786E+03  0.17200000000E+03 0.  1.
</event>
<event>
 4    1  0.4475741E+000  0.1725618E+03  0.7818608E-02  0.1175202E+00
         21   -1    0    0  501  502  0.00000000000E+00  0.00000000000E+00  0.33198083410E+03  0.33198083410E+03  0.00000000000E+00 0.  1.
         21   -1    0    0  502  503 -0.00000000000E+00 -0.00000000000E+00 -0.90296475335E+02  0.90296475335E+02  0.00000000000E+00 0.  1.
          6    1    1    2  501    0 -0.11774120662E+02 -0.74117711381E+01  0.13805093894E+03  0.22098784132E+03  0.17200000000E+03 0. -1.
         -6    1    1    2    0  503  0.11774120662E+02  0.74117711381E+01  0.10363341982E+03  0.20128946811E+03  0.17200000000E+03 0. -1.
</event>
<event>
 4    1  0.4475741E+000  0.2971875E+03  0.7818608E-02  0.1086655E+00
         21   -1    0    0  501  502  0.00000000000E+00  0.00000000000E+00  0.17266404154E+03  0.17266404154E+03  0.00000000000E+00 0.  1.
         21   -1    0    0  502  503 -0.00000000000E+00 -0.00000000000E+00 -0.98592426250E+03  0.98592426250E+03  0.00000000000E+00 0.  1.
          6    1    1    2  501    0  0.20959981210E+03  0.12167313822E+03 -0.47898446718E+01  0.29722613682E+03  0.17200000000E+03 0.  1.
         -6    1    1    2    0  503 -0.20959981210E+03 -0.12167313822E+03 -0.80847037628E+03  0.86136216722E+03  0.17200000000E+03 0.  1.
</event>
<event>
 4    1  0.4475741E+000  0.1739787E+03  0.7818608E-02  0.1173761E+00
         21   -1    0    0  501  502  0.00000000000E+00  0.00000000000E+00  0.13513537481E+03  0.13513537481E+03  0.00000000000E+00 0.  1.
         21   -1    0    0  502  503 -0.00000000000E+00 -0.00000000000E+00 -0.26005997900E+03  0.26005997900E+03  0.00000000000E+00 0.  1.
          6    1    1    2  501    0  0.20481635442E+02  0.16281874345E+02 -0.13605500563E+03  0.22086095485E+03  0.17200000000E+03 0.  1.
         -6    1    1    2    0  503 -0.20481635442E+02 -0.16281874345E+02  0.11130401434E+02  0.17433439895E+03  0.17200000000E+03 0.  1.
</event>
<event>
 4    1  0.4475741E+000  0.1804473E+03  0.7818608E-02  0.1167371E+00
         21   -1    0    0  501  502  0.00000000000E+00  0.00000000000E+00  0.61300793818E+02  0.61300793818E+02  0.00000000000E+00 0. -1.
         21   -1    0    0  502  503 -0.00000000000E+00 -0.00000000000E+00 -0.53192603446E+03  0.53192603446E+03  0.00000000000E+00 0. -1.
          6    1    1    2  501    0 -0.38784398728E+02  0.38379780153E+02 -0.22414159749E+03  0.28775109528E+03  0.17200000000E+03 0. -1.
         -6    1    1    2    0  503  0.38784398728E+02 -0.38379780153E+02 -0.24648364316E+03  0.30547573300E+03  0.17200000000E+03 0. -1.
</event>
<event>
 4    1  0.4475741E+000  0.2645004E+03  0.7818608E-02  0.1104469E+00
         21   -1    0    0  501  502  0.00000000000E+00  0.00000000000E+00  0.81487682497E+03  0.81487682497E+03  0.00000000000E+00 0. -1.
         21   -1    0    0  502  503 -0.00000000000E+00 -0.00000000000E+00 -0.22170046788E+03  0.22170046788E+03  0.00000000000E+00 0.  1.
          6    1    1    2  501    0 -0.12289756690E+03 -0.15897371226E+03  0.70229520584E+03  0.75045253633E+03  0.17200000000E+03 0. -1.
         -6    1    1    2    0  503  0.12289756690E+03  0.15897371226E+03 -0.10911884874E+03  0.28612475652E+03  0.17200000000E+03 0.  1.
</event>
<event>
 4    1  0.4475741E+000  0.2313550E+03  0.7818608E-02  0.1125690E+00
         21   -1    0    0  501  502  0.00000000000E+00  0.00000000000E+00  0.13194744396E+04  0.13194744396E+04  0.00000000000E+00 0. -1.
         21   -1    0    0  502  503 -0.00000000000E+00 -0.00000000000E+00 -0.44632751245E+03  0.44632751245E+03  0.00000000000E+00 0. -1.
          6    1    1    2  501    0 -0.12082155059E+03  0.96660801335E+02  0.12783965923E+04  0.12991624244E+04  0.17200000000E+03 0. -1.
         -6    1    1    2    0  503  0.12082155059E+03 -0.96660801335E+02 -0.40524966522E+03  0.46663952765E+03  0.17200000000E+03 0. -1.
</event>
<event>
 4    1  0.4475741E+000  0.2388815E+03  0.7818608E-02  0.1120540E+00
         21   -1    0    0  503  502  0.00000000000E+00  0.00000000000E+00  0.25926829435E+03  0.25926829435E+03  0.00000000000E+00 0. -1.
         21   -1    0    0  501  503 -0.00000000000E+00 -0.00000000000E+00 -0.22296965466E+03  0.22296965466E+03  0.00000000000E+00 0. -1.
          6    1    1    2  501    0  0.82606540758E+02  0.14372382218E+03  0.45514025026E+02  0.24317874930E+03  0.17200000000E+03 0. -1.
         -6    1    1    2    0  502 -0.82606540758E+02 -0.14372382218E+03 -0.92153853375E+01  0.23905919971E+03  0.17200000000E+03 0. -1.
</event>
<event>
 4    1  0.4475741E+000  0.2229367E+03  0.7818608E-02  0.1131712E+00
         21   -1    0    0  501  502  0.00000000000E+00  0.00000000000E+00  0.54941471831E+03  0.54941471831E+03  0.00000000000E+00 0.  1.
         21   -1    0    0  502  503 -0.00000000000E+00 -0.00000000000E+00 -0.14659073180E+03  0.14659073180E+03  0.00000000000E+00 0. -1.
          6    1    1    2  501    0  0.12237696246E+03 -0.71698311989E+02  0.41675199719E+03  0.47263410377E+03  0.17200000000E+03 0.  1.
         -6    1    1    2    0  503 -0.12237696246E+03  0.71698311989E+02 -0.13928010683E+02  0.22337134634E+03  0.17200000000E+03 0. -1.
</event>
<event>
 4    1  0.4475741E+000  0.1750053E+03  0.7818608E-02  0.1172726E+00
         21   -1    0    0  501  502  0.00000000000E+00  0.00000000000E+00  0.76751770723E+03  0.76751770723E+03  0.00000000000E+00 0.  1.
         21   -1    0    0  502  503 -0.00000000000E+00 -0.00000000000E+00 -0.61407306537E+02  0.61407306537E+02  0.00000000000E+00 0.  1.
          6    1    1    2  501    0  0.31057339201E+02 -0.88486540710E+01  0.59831709536E+03  0.62338607908E+03  0.17200000000E+03 0.  1.
         -6    1    1    2    0  503 -0.31057339201E+02  0.88486540710E+01  0.10779330534E+03  0.20553893469E+03  0.17200000000E+03 0.  1.
</event>
<event>
 4    1  0.4475741E+000  0.2276760E+03  0.7818608E-02  0.1128286E+00
         21   -1    0    0  501  502  0.00000000000E+00  0.00000000000E+00  0.65246774176E+02  0.65246774176E+02  0.00000000000E+00 0. -1.
         21   -1    0    0  502  503 -0.00000000000E+00 -0.00000000000E+00 -0.14638471461E+04  0.14638471461E+04  0.00000000000E+00 0. -1.
          6    1    1    2  501    0  0.14865929661E+03  0.12359791241E+02 -0.18229725793E+03  0.29166528960E+03  0.17200000000E+03 0. -1.
         -6    1    1    2    0  503 -0.14865929661E+03 -0.12359791241E+02 -0.12163031140E+04  0.12374286306E+04  0.17200000000E+03 0. -1.
</event>
<event>
 4    1  0.4475741E+000  0.1972352E+03  0.7818608E-02  0.1152093E+00
         21   -1    0    0  501  502  0.00000000000E+00  0.00000000000E+00  0.14220365067E+04  0.14220365067E+04  0.00000000000E+00 0.  1.
         21   -1    0    0  502  503 -0.00000000000E+00 -0.00000000000E+00 -0.30235070090E+02  0.30235070090E+02  0.00000000000E+00 0.  1.
          6    1    1    2  501    0 -0.95379358314E+02  0.14848918287E+02  0.91995999077E+03  0.94086561048E+03  0.17200000000E+03 0.  1.
         -6    1    1    2    0  503  0.95379358314E+02 -0.14848918287E+02  0.47184144587E+03  0.51140596634E+03  0.17200000000E+03 0.  1.
</event>
<event>
 4    1  0.4475741E+000  0.1749625E+03  0.7818608E-02  0.1172769E+00
         21   -1    0    0  503  502  0.00000000000E+00  0.00000000000E+00  0.11328034881E+03  0.11328034881E+03  0.00000000000E+00 0. -1.
         21   -1    0    0  501  503 -0.00000000000E+00 -0.00000000000E+00 -0.32832109200E+03  0.32832109200E+03  0.00000000000E+00 0. -1.
          6    1    1    2  501    0  0.25224894043E+02  0.19788666966E+02 -0.14644840126E+02  0.17557436590E+03  0.17200000000E+03 0. -1.
         -6    1    1    2    0  502 -0.25224894043E+02 -0.19788666966E+02 -0.20039590307E+03  0.26602707491E+03  0.17200000000E+03 0. -1.
</event>
<event>
 4    1  0.4475741E+000  0.1765488E+03  0.7818608E-02  0.1171185E+00
         21   -1    0    0  501  502  0.00000000000E+00  0.00000000000E+00  0.13454738616E+04  0.13454738616E+04  0.00000000000E+00 0.  1.
         21   -1    0    0  502  503 -0.00000000000E+00 -0.00000000000E+00 -0.23174762371E+02  0.23174762371E+02  0.00000000000E+00 0.  1.
          6    1    1    2  501    0  0.13282210854E+02  0.37537678969E+02  0.64798313272E+03  0.67160377810E+03  0.17200000000E+03 0.  1.
         -6    1    1    2    0  503 -0.13282210854E+02 -0.37537678969E+02  0.67431596653E+03  0.69704484590E+03  0.17200000000E+03 0.  1.
</event>
<event>
 4    1  0.4475741E+000  0.2226112E+03  0.7818608E-02  0.1131951E+00
         21   -1    0    0  501  502  0.00000000000E+00  0.00000000000E+00  0.57093924514E+03  0.57093924514E+03  0.00000000000E+00 0. -1.
         21   -1    0    0  502  503 -0.00000000000E+00 -0.00000000000E+00 -0.14090372068E+03  0.14090372068E+03  0.00000000000E+00 0. -1.
          6    1    1    2  501    0  0.13209954281E+03  0.50214064110E+02  0.43557386830E+03  0.48916289331E+03  0.17200000000E+03 0. -1.
         -6    1    1    2    0  503 -0.13209954281E+03 -0.50214064110E+02 -0.55383438394E+01  0.22268007252E+03  0.17200000000E+03 0. -1.
</event>
<event>
 4    1  0.4475741E+000  0.1989044E+03  0.7818608E-02  0.1150667E+00
         21   -1    0    0  503  502  0.00000000000E+00  0.00000000000E+00  0.73993419047E+03  0.73993419047E+03  0.00000000000E+00 0. -1.
         21   -1    0    0  501  503 -0.00000000000E+00 -0.00000000000E+00 -0.55706086998E+02  0.55706086998E+02  0.00000000000E+00 0.  1.
          6    1    1    2  501    0 -0.99837915579E+02 -0.33685287282E+01  0.26237820972E+03  0.32924957298E+03  0.17200000000E+03 0.  1.
         -6    1    1    2    0  502  0.99837915579E+02  0.33685287282E+01  0.42184989376E+03  0.46639070449E+03  0.17200000000E+03 0. -1.
</event>
<event>
 4    1  0.4475741E+000  0.1794456E+03  0.7818608E-02  0.1168341E+00
         21   -1    0    0  501  502  0.00000000000E+00  0.00000000000E+00  0.61304210894E+02  0.61304210894E+02  0.00000000000E+00 0. -1.
         21   -1    0    0  502  503 -0.00000000000E+00 -0.00000000000E+00 -0.52960027532E+03  0.52960027532E+03  0.00000000000E+00 0.  1.
          6    1    1    2  501    0 -0.15005901675E+02 -0.48903488602E+02 -0.20740517645E+03  0.27425833716E+03  0.17200000000E+03 0.  1.
         -6    1    1    2    0  503  0.15005901675E+02  0.48903488602E+02 -0.26089088798E+03  0.31664614905E+03  0.17200000000E+03 0.  1.
</event>
<event>
 4    1  0.4475741E+000  0.1759945E+03  0.7818608E-02  0.1171737E+00
         21   -1    0    0  503  502  0.00000000000E+00  0.00000000000E+00  0.32783575014E+03  0.32783575014E+03  0.00000000000E+00 0. -1.
         21   -1    0    0  501  503 -0.00000000000E+00 -0.00000000000E+00 -0.13402239826E+03  0.13402239826E+03  0.00000000000E+00 0. -1.
          6    1    1    2  501    0 -0.37277704942E+02 -0.65858051585E+00 -0.28528427058E+02  0.17829170526E+03  0.17200000000E+03 0. -1.
         -6    1    1    2    0  502  0.37277704942E+02  0.65858051585E+00  0.22234177894E+03  0.28356644314E+03  0.17200000000E+03 0. -1.
</event>
<event>
 4    1  0.4475741E+000  0.3161834E+03  0.7818608E-02  0.1077419E+00
         21   -1    0    0  501  502  0.00000000000E+00  0.00000000000E+00  0.78514700765E+03  0.78514700765E+03  0.00000000000E+00 0.  1.
         21   -1    0    0  502  503 -0.00000000000E+00 -0.00000000000E+00 -0.10341110190E+04  0.10341110190E+04  0.00000000000E+00 0. -1.
          6    1    1    2  501    0 -0.25790225256E+03  0.62244640854E+02  0.72730728588E+03  0.79306232749E+03  0.17200000000E+03 0.  1.
         -6    1    1    2    0  503  0.25790225256E+03 -0.62244640854E+02 -0.97627129719E+03  0.10261956991E+04  0.17200000000E+03 0. -1.
</event>
<event>
 4    1  0.4475741E+000  0.1856454E+03  0.7818608E-02  0.1162449E+00
         21   -1    0    0  501  502  0.00000000000E+00  0.00000000000E+00  0.67089069753E+03  0.67089069753E+03  0.00000000000E+00 0. -1.
         21   -1    0    0  502  503 -0.00000000000E+00 -0.00000000000E+00 -0.56214863406E+02  0.56214863406E+02  0.00000000000E+00 0. -1.
          6    1    1    2  501    0  0.68240410211E+02 -0.14948351688E+02  0.41405791315E+03  0.45377104606E+03  0.17200000000E+03 0. -1.
         -6    1    1    2    0  503 -0.68240410211E+02  0.14948351688E+02  0.20061792097E+03  0.27333451487E+03  0.17200000000E+03 0. -1.
</event>
<event>
 4    1  0.4475741E+000  0.1812057E+03  0.7818608E-02  0.1166641E+00
         21   -1    0    0  501  502  0.00000000000E+00  0.00000000000E+00  0.31358916086E+03  0.31358916086E+03  0.00000000000E+00 0.  1.
         21   -1    0    0  502  503 -0.00000000000E+00 -0.00000000000E+00 -0.11902089109E+03  0.11902089109E+03  0.00000000000E+00 0.  1.
          6    1    1    2  501    0  0.28167372504E+02 -0.49579347301E+02  0.17229222621E+03  0.25004024429E+03  0.17200000000E+03 0.  1.
         -6    1    1    2    0  503 -0.28167372504E+02  0.49579347301E+02  0.22276043559E+02  0.18256980766E+03  0.17200000000E+03 0.  1.
</event>
<event>
 4    1  0.4475741E+000  0.3025610E+03  0.7818608E-02  0.1083967E+00
         21   -1    0    0  503  502  0.00000000000E+00  0.00000000000E+00  0.26650114186E+03  0.26650114186E+03  0.00000000000E+00 0. -1.
         21   -1    0    0  501  503 -0.00000000000E+00 -0.00000000000E+00 -0.34450765917E+03  0.34450765917E+03  0.00000000000E+00 0. -1.
          6    1    1    2  501    0  0.15619078208E+03  0.19381326023E+03 -0.55525785356E+02  0.30761380510E+03  0.17200000000E+03 0. -1.
         -6    1    1    2    0  502 -0.15619078208E+03 -0.19381326023E+03 -0.22480731952E+02  0.30339499593E+03  0.17200000000E+03 0. -1.
</event>
<event>
 4    1  0.4475741E+000  0.1875502E+03  0.7818608E-02  0.1160690E+00
         21   -1    0    0  503  502  0.00000000000E+00  0.00000000000E+00  0.26808760037E+03  0.26808760037E+03  0.00000000000E+00 0.  1.
         21   -1    0    0  501  503 -0.00000000000E+00 -0.00000000000E+00 -0.17350376621E+03  0.17350376621E+03  0.00000000000E+00 0.  1.
          6    1    1    2  501    0 -0.22572431044E+02  0.71285211784E+02 -0.61723341498E+02  0.19744585827E+03  0.17200000000E+03 0.  1.
         -6    1    1    2    0  502  0.22572431044E+02 -0.71285211784E+02  0.15630717566E+03  0.24414550830E+03  0.17200000000E+03 0.  1.
</event>
<event>
 4    1  0.4475741E+000  0.2340193E+03  0.7818608E-02  0.1123842E+00
         21   -1    0    0  501  502  0.00000000000E+00  0.00000000000E+00  0.13388404119E+03  0.13388404119E+03  0.00000000000E+00 0. -1.
         21   -1    0    0  502  503 -0.00000000000E+00 -0.00000000000E+00 -0.99557775614E+03  0.99557775614E+03  0.00000000000E+00 0. -1.
          6    1    1    2  501    0  0.12583473469E+03 -0.96678193620E+02  0.26129490137E+01  0.23403393147E+03  0.17200000000E+03 0. -1.
         -6    1    1    2    0  503 -0.12583473469E+03  0.96678193620E+02 -0.86430666397E+03  0.89542786586E+03  0.17200000000E+03 0. -1.
</event>
<event>
 4    1  0.4475741E+000  0.1762558E+03  0.7818608E-02  0.1171477E+00
         21   -1    0    0  501  502  0.00000000000E+00  0.00000000000E+00  0.15863299902E+03  0.15863299902E+03  0.00000000000E+00 0.  1.
         21   -1    0    0  502  503 -0.00000000000E+00 -0.00000000000E+00 -0.31184732831E+03  0.31184732831E+03  0.00000000000E+00 0.  1.
          6    1    1    2  501    0  0.99145547040E+01  0.37199386555E+02  0.66872442157E+02  0.18851529454E+03  0.17200000000E+03 0.  1.
         -6    1    1    2    0  503 -0.99145547040E+01 -0.37199386555E+02 -0.22008677145E+03  0.28196503280E+03  0.17200000000E+03 0.  1.
</event>
<event>
 4    1  0.4475741E+000  0.2078947E+03  0.7818608E-02  0.1143244E+00
         21   -1    0    0  501  502  0.00000000000E+00  0.00000000000E+00  0.10399955912E+03  0.10399955912E+03  0.00000000000E+00 0. -1.
         21   -1    0    0  502  503 -0.00000000000E+00 -0.00000000000E+00 -0.44242146760E+03  0.44242146760E+03  0.00000000000E+00 0.  1.
          6    1    1    2  501    0  0.72908826654E+02 -0.91216755885E+02 -0.10191669398E+03  0.23153230027E+03  0.17200000000E+03 0. -1.
         -6    1    1    2    0  503 -0.72908826654E+02  0.91216755885E+02 -0.23650521450E+03  0.31488872645E+03  0.17200000000E+03 0.  1.
</event>
<event>
 4    1  0.4475741E+000  0.2344087E+03  0.7818608E-02  0.1123575E+00
         21   -1    0    0  501  502  0.00000000000E+00  0.00000000000E+00  0.15750732395E+03  0.15750732395E+03  0.00000000000E+00 0.  1.
         21   -1    0    0  502  503 -0.00000000000E+00 -0.00000000000E+00 -0.35244456116E+03  0.35244456116E+03  0.00000000000E+00 0. -1.
          6    1    1    2  501    0 -0.14591947174E+03  0.63803807697E+02 -0.12319610845E+03  0.26481068567E+03  0.17200000000E+03 0. -1.
         -6    1    1    2    0  503  0.14591947174E+03 -0.63803807697E+02 -0.71741128756E+02  0.24514119944E+03  0.17200000000E+03 0. -1.
</event>
<event>
 4    1  0.4475741E+000  0.1792782E+03  0.7818608E-02  0.1168503E+00
         21   -1    0    0  501  502  0.00000000000E+00  0.00000000000E+00  0.36977322833E+03  0.36977322833E+03  0.00000000000E+00 0.  1.
         21   -1    0    0  502  503 -0.00000000000E+00 -0.00000000000E+00 -0.66165385345E+03  0.66165385345E+03  0.00000000000E+00 0.  1.
          6    1    1    2  501    0  0.45814505790E+02 -0.21394258396E+02  0.33470698740E+03  0.37969652441E+03  0.17200000000E+03 0.  1.
         -6    1    1    2    0  503 -0.45814505790E+02  0.21394258396E+02 -0.62658761253E+03  0.65173055737E+03  0.17200000000E+03 0.  1.
</event>
<event>
 4    1  0.4475741E+000  0.2217769E+03  0.7818608E-02  0.1132565E+00
         21   -1    0    0  501  502  0.00000000000E+00  0.00000000000E+00  0.94426907547E+02  0.94426907547E+02  0.00000000000E+00 0.  1.
         21   -1    0    0  502  503 -0.00000000000E+00 -0.00000000000E+00 -0.78361442096E+03  0.78361442096E+03  0.00000000000E+00 0.  1.
          6    1    1    2  501    0 -0.79520155126E+02  0.11522815247E+03 -0.90383445632E+02  0.23948726362E+03  0.17200000000E+03 0.  1.
         -6    1    1    2    0  503  0.79520155126E+02 -0.11522815247E+03 -0.59880406778E+03  0.63855406488E+03  0.17200000000E+03 0.  1.
</event>
<event>
 4    1  0.4475741E+000  0.2176006E+03  0.7818608E-02  0.1135685E+00
         21   -1    0    0  501  502  0.00000000000E+00  0.00000000000E+00  0.87488570448E+03  0.87488570448E+03  0.00000000000E+00 0. -1.
         21   -1    0    0  502  503 -0.00000000000E+00 -0.00000000000E+00 -0.89378760977E+02  0.89378760977E+02  0.00000000000E+00 0. -1.
          6    1    1    2  501    0 -0.12388153050E+03  0.49187222290E+02  0.69556615612E+03  0.72880881853E+03  0.17200000000E+03 0. -1.
         -6    1    1    2    0  503  0.12388153050E+03 -0.49187222290E+02  0.89940787390E+02  0.23545564693E+03  0.17200000000E+03 0. -1.
</event>
<event>
 4    1  0.4475741E+000  0.1780004E+03  0.7818608E-02  0.1169752E+00
         21   -1    0    0  503  502  0.00000000000E+00  0.00000000000E+00  0.14091226448E+04  0.14091226448E+04  0.00000000000E+00 0.  1.
         21   -1    0    0  501  503 -0.00000000000E+00 -0.00000000000E+00 -0.49204740736E+02  0.49204740736E+02  0.00000000000E+00 0.  1.
          6    1    1    2  501    0 -0.44126560955E+02  0.12369509263E+02  0.14263342031E+03  0.22809745884E+03  0.17200000000E+03 0.  1.
         -6    1    1    2    0  502  0.44126560955E+02 -0.12369509263E+02  0.12172844837E+04  0.12302299266E+04  0.17200000000E+03 0.  1.
</event>
<event>
 4    1  0.4475741E+000  0.1878149E+03  0.7818608E-02  0.1160447E+00
         21   -1    0    0  503  502  0.00000000000E+00  0.00000000000E+00  0.10563028020E+03  0.10563028020E+03  0.00000000000E+00 0. -1.
         21   -1    0    0  501  503 -0.00000000000E+00 -0.00000000000E+00 -0.36198871852E+03  0.36198871852E+03  0.00000000000E+00 0. -1.
          6    1    1    2  501    0  0.39692467313E+02  0.64147711192E+02 -0.19326006455E+03  0.26948816925E+03  0.17200000000E+03 0.  1.
         -6    1    1    2    0  502 -0.39692467313E+02 -0.64147711192E+02 -0.63098373767E+02  0.19813082947E+03  0.17200000000E+03 0.  1.
</event>
<event>
 4    1  0.4475741E+000  0.2043048E+03  0.7818608E-02  0.1146157E+00
         21   -1    0    0  503  502  0.00000000000E+00  0.00000000000E+00  0.13467209801E+03  0.13467209801E+03  0.00000000000E+00 0. -1.
         21   -1    0    0  501  503 -0.00000000000E+00 -0.00000000000E+00 -0.15547608755E+04  0.15547608755E+04  0.00000000000E+00 0. -1.
          6    1    1    2  501    0  0.27425684505E+02  0.10679092878E+03 -0.14658886856E+04  0.14800574682E+04  0.17200000000E+03 0. -1.
         -6    1    1    2    0  502 -0.27425684505E+02 -0.10679092878E+03  0.45799908092E+02  0.20937550531E+03  0.17200000000E+03 0. -1.
</event>
<event>
 4    1  0.4475741E+000  0.2165863E+03  0.7818608E-02  0.1136454E+00
         21   -1    0    0  503  502  0.00000000000E+00  0.00000000000E+00  0.38862870666E+03  0.38862870666E+03  0.00000000000E+00 0.  1.
         21   -1    0    0  501  503 -0.00000000000E+00 -0.00000000000E+00 -0.12566558230E+03  0.12566558230E+03  0.00000000000E+00 0.  1.
          6    1    1    2  501    0  0.64777385823E+02 -0.11458411151E+03  0.80393750470E+02  0.23102550387E+03  0.17200000000E+03 0.  1.
         -6    1    1    2    0  502 -0.64777385823E+02  0.11458411151E+03  0.18256937389E+03  0.28326878509E+03  0.17200000000E+03 0.  1.
</event>
<event>
 4    1  0.4475741E+000  0.2101547E+03  0.7818608E-02  0.1141444E+00
         21   -1    0    0  501  502  0.00000000000E+00  0.00000000000E+00  0.63175531419E+03  0.63175531419E+03  0.00000000000E+00 0.  1.
         21   -1    0    0  502  503 -0.00000000000E+00 -0.00000000000E+00 -0.87359640962E+02  0.87359640962E+02  0.00000000000E+00 0. -1.
          6    1    1    2  501    0  0.77378887715E+02 -0.92701103090E+02  0.43290172533E+03  0.48121605395E+03  0.17200000000E+03 0.  1.
         -6    1    1    2    0  503 -0.77378887715E+02  0.92701103090E+02  0.11149394790E+03  0.23789890121E+03  0.17200000000E+03 0. -1.
</event>
<event>
 4    1  0.4475741E+000  0.1808047E+03  0.7818608E-02  0.1167026E+00
         21   -1    0    0  503  502  0.00000000000E+00  0.00000000000E+00  0.56022739387E+03  0.56022739387E+03  0.00000000000E+00 0. -1.
         21   -1    0    0  501  503 -0.00000000000E+00 -0.00000000000E+00 -0.90477460322E+02  0.90477460322E+02  0.00000000000E+00 0. -1.
          6    1    1    2  501    0  0.39614420102E+02  0.39205230776E+02  0.41005699013E+02  0.18539638549E+03  0.17200000000E+03 0. -1.
         -6    1    1    2    0  502 -0.39614420102E+02 -0.39205230776E+02  0.42874423453E+03  0.46530846870E+03  0.17200000000E+03 0. -1.
</event>
<event>
 4    1  0.4475741E+000  0.2489173E+03  0.7818608E-02  0.1113991E+00
         21   -1    0    0  503  502  0.00000000000E+00  0.00000000000E+00  0.19280743101E+03  0.19280743101E+03  0.00000000000E+00 0. -1.
         21   -1    0    0  501  503 -0.00000000000E+00 -0.00000000000E+00 -0.48231279848E+03  0.48231279848E+03  0.00000000000E+00 0. -1.
          6    1    1    2  501    0 -0.14573227638E+03  0.10553629651E+03 -0.33975578799E+03  0.42118143564E+03  0.17200000000E+03 0. -1.
         -6    1    1    2    0  502  0.14573227638E+03 -0.10553629651E+03  0.50250420518E+02  0.25393879385E+03  0.17200000000E+03 0. -1.
</event>
<event>
 4    1  0.4475741E+000  0.2403815E+03  0.7818608E-02  0.1119539E+00
         21   -1    0    0  503  502  0.00000000000E+00  0.00000000000E+00  0.74314922196E+02  0.74314922196E+02  0.00000000000E+00 0.  1.
         21   -1    0    0  501  503 -0.00000000000E+00 -0.00000000000E+00 -0.78320033329E+03  0.78320033329E+03  0.00000000000E+00 0. -1.
          6    1    1    2  501    0 -0.77824155431E+02 -0.14880407281E+03 -0.31801128782E+03  0.39864072852E+03  0.17200000000E+03 0.  1.
         -6    1    1    2    0  502  0.77824155431E+02  0.14880407281E+03 -0.39087412327E+03  0.45887452697E+03  0.17200000000E+03 0. -1.
</event>
<event>
 4    1  0.4475741E+000  0.1811993E+03  0.7818608E-02  0.1166647E+00
         21   -1    0    0  503  502  0.00000000000E+00  0.00000000000E+00  0.11963415500E+03  0.11963415500E+03  0.00000000000E+00 0. -1.
         21   -1    0    0  501  503 -0.00000000000E+00 -0.00000000000E+00 -0.29980787410E+03  0.29980787410E+03  0.00000000000E+00 0. -1.
          6    1    1    2  501    0 -0.55279334500E+02  0.13906552027E+02 -0.29090311759E+02  0.18351959909E+03  0.17200000000E+03 0. -1.
         -6    1    1    2    0  502  0.55279334500E+02 -0.13906552027E+02 -0.15108340734E+03  0.23592243002E+03  0.17200000000E+03 0. -1.
</event>
<event>
 4    1  0.4475741E+000  0.1735660E+03  0.7818608E-02  0.1174179E+00
         21   -1    0    0  503  502  0.00000000000E+00  0.00000000000E+00  0.34908046070E+03  0.34908046070E+03  0.00000000000E+00 0. -1.
         21   -1    0    0  501  503 -0.00000000000E+00 -0.00000000000E+00 -0.12150785098E+03  0.12150785098E+03  0.00000000000E+00 0. -1.
          6    1    1    2  501    0  0.20811241544E+02 -0.10395115858E+02 -0.12873019324E+02  0.17404275577E+03  0.17200000000E+03 0. -1.
         -6    1    1    2    0  502 -0.20811241544E+02  0.10395115858E+02  0.24044562904E+03  0.29654555592E+03  0.17200000000E+03 0. -1.
</event>
<event>
 4    1  0.4475741E+000  0.2025461E+03  0.7818608E-02  0.1147608E+00
         21   -1    0    0  501  502  0.00000000000E+00  0.00000000000E+00  0.73311709605E+03  0.73311709605E+03  0.00000000000E+00 0. -1.
         21   -1    0    0  502  503 -0.00000000000E+00 -0.00000000000E+00 -0.15333447997E+03  0.15333447997E+03  0.00000000000E+00 0. -1.
          6    1    1    2  501    0 -0.39559456743E+02 -0.99377872360E+02  0.64309778530E+03  0.67424007118E+03  0.17200000000E+03 0. -1.
         -6    1    1    2    0  503  0.39559456743E+02  0.99377872360E+02 -0.63315169221E+02  0.21221150484E+03  0.17200000000E+03 0. -1.
</event>
<event>
 4    1  0.4475741E+000  0.1737801E+03  0.7818608E-02  0.1173962E+00
         21   -1    0    0  501  502  0.00000000000E+00  0.00000000000E+00  0.33255235858E+03  0.33255235858E+03  0.00000000000E+00 0. -1.
         21   -1    0    0  502  503 -0.00000000000E+00 -0.00000000000E+00 -0.91663892295E+02  0.91663892295E+02  0.00000000000E+00 0. -1.
          6    1    1    2  501    0 -0.48671398429E+01 -0.24327324803E+02  0.14090076896E+03  0.22372423757E+03  0.17200000000E+03 0. -1.
         -6    1    1    2    0  503  0.48671398429E+01  0.24327324803E+02  0.99987697322E+02  0.20049201330E+03  0.17200000000E+03 0. -1.
</event>
<event>
 4    1  0.4475741E+000  0.1845969E+03  0.7818608E-02  0.1163427E+00
         21   -1    0    0  503  502  0.00000000000E+00  0.00000000000E+00  0.34790376140E+03  0.34790376140E+03  0.00000000000E+00 0. -1.
         21   -1    0    0  501  503 -0.00000000000E+00 -0.00000000000E+00 -0.10142647664E+03  0.10142647664E+03  0.00000000000E+00 0. -1.
          6    1    1    2  501    0 -0.23560866649E+02 -0.62744800188E+02  0.81624989826E+02  0.20183821083E+03  0.17200000000E+03 0. -1.
         -6    1    1    2    0  502  0.23560866649E+02  0.62744800188E+02  0.16485229494E+03  0.24749202721E+03  0.17200000000E+03 0. -1.
</event>
<event>
 4    1  0.4475741E+000  0.1734500E+03  0.7818608E-02  0.1174297E+00
         21   -1    0    0  503  502  0.00000000000E+00  0.00000000000E+00  0.11254547252E+03  0.11254547252E+03  0.00000000000E+00 0. -1.
         21   -1    0    0  501  503 -0.00000000000E+00 -0.00000000000E+00 -0.28365967333E+03  0.28365967333E+03  0.00000000000E+00 0. -1.
          6    1    1    2  501    0  0.38936712907E+01 -0.22039187152E+02 -0.38001264563E+02  0.17756402382E+03  0.17200000000E+03 0.  1.
         -6    1    1    2    0  502 -0.38936712907E+01  0.22039187152E+02 -0.13311293624E+03  0.21864112203E+03  0.17200000000E+03 0.  1.
</event>
<event>
 4    1  0.4475741E+000  0.2087287E+03  0.7818608E-02  0.1142577E+00
         21   -1    0    0  503  502  0.00000000000E+00  0.00000000000E+00  0.23244025434E+03  0.23244025434E+03  0.00000000000E+00 0.  1.
         21   -1    0    0  501  503 -0.00000000000E+00 -0.00000000000E+00 -0.22389595522E+03  0.22389595522E+03  0.00000000000E+00 0.  1.
          6    1    1    2  501    0  0.56557098352E+02  0.10385062676E+03 -0.87802531130E+02  0.22644412672E+03  0.17200000000E+03 0.  1.
         -6    1    1    2    0  502 -0.56557098352E+02 -0.10385062676E+03  0.96346830245E+02  0.22989208284E+03  0.17200000000E+03 0.  1.
</event>
<event>
 4    1  0.4475741E+000  0.2547050E+03  0.7818608E-02  0.1110367E+00
         21   -1    0    0  501  502  0.00000000000E+00  0.00000000000E+00  0.46927618039E+03  0.46927618039E+03  0.00000000000E+00 0.  1.
         21   -1    0    0  502  503 -0.00000000000E+00 -0.00000000000E+00 -0.14410185852E+03  0.14410185852E+03  0.00000000000E+00 0. -1.
          6    1    1    2  501    0 -0.98126249207E+02 -0.16019321821E+03  0.10075250425E+03  0.27390818728E+03  0.17200000000E+03 0. -1.
         -6    1    1    2    0  503  0.98126249207E+02  0.16019321821E+03  0.22442181762E+03  0.33946985164E+03  0.17200000000E+03 0.  1.
</event>
<event>
 4    1  0.4475741E+000  0.2318916E+03  0.7818608E-02  0.1125315E+00
         21   -1    0    0  503  502  0.00000000000E+00  0.00000000000E+00  0.13785726778E+03  0.13785726778E+03  0.00000000000E+00 0. -1.
         21   -1    0    0  501  503 -0.00000000000E+00 -0.00000000000E+00 -0.51964681849E+03  0.51964681849E+03  0.00000000000E+00 0.  1.
          6    1    1    2  501    0 -0.55000093319E+02  0.14548094529E+03 -0.35506003097E+03  0.42407704642E+03  0.17200000000E+03 0.  1.
         -6    1    1    2    0  502  0.55000093319E+02 -0.14548094529E+03 -0.26729519741E+02  0.23342703985E+03  0.17200000000E+03 0. -1.
</event>
<event>
 4    1  0.4475741E+000  0.2177671E+03  0.7818608E-02  0.1135559E+00
         21   -1    0    0  503  502  0.00000000000E+00  0.00000000000E+00  0.70405624813E+03  0.70405624813E+03  0.00000000000E+00 0. -1.
         21   -1    0    0  501  503 -0.00000000000E+00 -0.00000000000E+00 -0.67887568500E+02  0.67887568500E+02  0.00000000000E+00 0. -1.
          6    1    1    2  501    0 -0.29390710421E+02  0.13028691299E+03  0.35223453892E+03  0.41411552008E+03  0.17200000000E+03 0. -1.
         -6    1    1    2    0  502  0.29390710421E+02 -0.13028691299E+03  0.28393414071E+03  0.35782829656E+03  0.17200000000E+03 0. -1.
</event>
<event>
 4    1  0.4475741E+000  0.1981959E+03  0.7818608E-02  0.1151270E+00
         21   -1    0    0  501  502  0.00000000000E+00  0.00000000000E+00  0.79493773304E+02  0.79493773304E+02  0.00000000000E+00 0.  1.
         21   -1    0    0  502  503 -0.00000000000E+00 -0.00000000000E+00 -0.49889791361E+03  0.49889791361E+03  0.00000000000E+00 0.  1.
          6    1    1    2  501    0 -0.80303749015E+02 -0.56999234151E+02 -0.18148073688E+03  0.26873195318E+03  0.17200000000E+03 0. -1.
         -6    1    1    2    0  503  0.80303749015E+02  0.56999234151E+02 -0.23792340342E+03  0.30965973373E+03  0.17200000000E+03 0. -1.
</event>
<event>
 4    1  0.4475741E+000  0.2414018E+03  0.7818608E-02  0.1118862E+00
         21   -1    0    0  503  502  0.00000000000E+00  0.00000000000E+00  0.95633679259E+02  0.95633679259E+02  0.00000000000E+00 0. -1.
         21   -1    0    0  501  503 -0.00000000000E+00 -0.00000000000E+00 -0.65736963961E+03  0.65736963961E+03  0.00000000000E+00 0. -1.
          6    1    1    2  501    0  0.74716182203E+02 -0.15201427285E+03 -0.38262152620E+03  0.45240919459E+03  0.17200000000E+03 0. -1.
         -6    1    1    2    0  502 -0.74716182203E+02  0.15201427285E+03 -0.17911443415E+03  0.30059412428E+03  0.17200000000E+03 0. -1.
</event>
<event>
 4    1  0.4475741E+000  0.2609134E+03  0.7818608E-02  0.1106596E+00
         21   -1    0    0  503  502  0.00000000000E+00  0.00000000000E+00  0.37993711899E+03  0.37993711899E+03  0.00000000000E+00 0.  1.
         21   -1    0    0  501  503 -0.00000000000E+00 -0.00000000000E+00 -0.19791681344E+03  0.19791681344E+03  0.00000000000E+00 0. -1.
          6    1    1    2  501    0  0.19591103659E+03 -0.10520499963E+02  0.21033910046E+01  0.26092190293E+03  0.17200000000E+03 0.  1.
         -6    1    1    2    0  502 -0.19591103659E+03  0.10520499963E+02  0.17991691455E+03  0.31693202949E+03  0.17200000000E+03 0.  1.
</event>
<event>
 4    1  0.4475741E+000  0.1887272E+03  0.7818608E-02  0.1159614E+00
         21   -1    0    0  501  502  0.00000000000E+00  0.00000000000E+00  0.13310411111E+04  0.13310411111E+04  0.00000000000E+00 0.  1.
         21   -1    0    0  502  503 -0.00000000000E+00 -0.00000000000E+00 -0.93968762445E+02  0.93968762445E+02  0.00000000000E+00 0. -1.
          6    1    1    2  501    0  0.59583294832E+02  0.49837545785E+02  0.12211107411E+04  0.12356089155E+04  0.17200000000E+03 0.  1.
         -6    1    1    2    0  503 -0.59583294832E+02 -0.49837545785E+02  0.15961607539E+02  0.18940095804E+03  0.17200000000E+03 0. -1.
</event>
<event>
 4    1  0.4475741E+000  0.1798524E+03  0.7818608E-02  0.1167946E+00
         21   -1    0    0  501  502  0.00000000000E+00  0.00000000000E+00  0.12860571713E+03  0.12860571713E+03  0.00000000000E+00 0.  1.
         21   -1    0    0  502  503 -0.00000000000E+00 -0.00000000000E+00 -0.28625100419E+03  0.28625100419E+03  0.00000000000E+00 0.  1.
          6    1    1    2  501    0  0.32774335197E+02  0.41094055456E+02 -0.65698191006E+01  0.17997233389E+03  0.17200000000E+03 0.  1.
         -6    1    1    2    0  503 -0.32774335197E+02 -0.41094055456E+02 -0.15107546796E+03  0.23488438743E+03  0.17200000000E+03 0.  1.
</event>
<event>
 4    1  0.4475741E+000  0.1814459E+03  0.7818608E-02  0.1166411E+00
         21   -1    0    0  503  502  0.00000000000E+00  0.00000000000E+00  0.48007870442E+02  0.48007870442E+02  0.00000000000E+00 0.  1.
         21   -1    0    0  501  503 -0.00000000000E+00 -0.00000000000E+00 -0.69391799020E+03  0.69391799020E+03  0.00000000000E+00 0.  1.
          6    1    1    2  501    0  0.25145281622E+02 -0.52022343825E+02 -0.36313984765E+03  0.40594723597E+03  0.17200000000E+03 0.  1.
         -6    1    1    2    0  502 -0.25145281622E+02  0.52022343825E+02 -0.28277027211E+03  0.33597862466E+03  0.17200000000E+03 0.  1.
</event>
<event>
 4    1  0.4475741E+000  0.2205877E+03  0.7818608E-02  0.1133446E+00
         21   -1    0    0  503  502  0.00000000000E+00  0.00000000000E+00  0.17503515667E+03  0.17503515667E+03  0.00000000000E+00 0.  1.
         21   -1    0    0  501  503 -0.00000000000E+00 -0.00000000000E+00 -0.51861070497E+03  0.51861070497E+03  0.00000000000E+00 0. -1.
          6    1    1    2  501    0 -0.13152622282E+03  0.42139860199E+02 -0.40802534282E+03  0.46383574193E+03  0.17200000000E+03 0. -1.
         -6    1    1    2    0  502  0.13152622282E+03 -0.42139860199E+02  0.64449794520E+02  0.22981011971E+03  0.17200000000E+03 0. -1.
</event>
<event>
 4    1  0.4475741E+000  0.2348015E+03  0.7818608E-02  0.1123305E+00
         21   -1    0    0  501  502  0.00000000000E+00  0.00000000000E+00  0.87074265485E+02  0.87074265485E+02  0.00000000000E+00 0. -1.
         21   -1    0    0  502  503 -0.00000000000E+00 -0.00000000000E+00 -0.99005121170E+03  0.99005121170E+03  0.00000000000E+00 0.  1.
          6    1    1    2  501    0  0.53500728343E+02  0.15061672853E+03 -0.12813546707E+03  0.26748911149E+03  0.17200000000E+03 0. -1.
         -6    1    1    2    0  503 -0.53500728343E+02 -0.15061672853E+03 -0.77484147915E+03  0.80963636570E+03  0.17200000000E+03 0.  1.
</event>
<event>
 4    1  0.4475741E+000  0.1907715E+03  0.7818608E-02  0.1157767E+00
         21   -1    0    0  503  502  0.00000000000E+00  0.00000000000E+00  0.23332280819E+03  0.23332280819E+03  0.00000000000E+00 0.  1.
         21   -1    0    0  501  503 -0.00000000000E+00 -0.00000000000E+00 -0.18548158612E+03  0.18548158612E+03  0.00000000000E+00 0. -1.
          6    1    1    2  501    0 -0.47431170211E+02 -0.67528240233E+02 -0.59591748799E+02  0.19986234178E+03  0.17200000000E+03 0. -1.
         -6    1    1    2    0  502  0.47431170211E+02  0.67528240233E+02  0.10743297087E+03  0.21894205253E+03  0.17200000000E+03 0.  1.
</event>
<event>
 4    1  0.4475741E+000  0.1734392E+03  0.7818608E-02  0.1174308E+00
         21   -1    0    0  501  502  0.00000000000E+00  0.00000000000E+00  0.75609105417E+03  0.75609105417E+03  0.00000000000E+00 0. -1.
         21   -1    0    0  502  503 -0.00000000000E+00 -0.00000000000E+00 -0.39924604444E+02  0.39924604444E+02  0.00000000000E+00 0. -1.
          6    1    1    2  501    0 -0.60655890049E+01  0.21455755314E+02  0.38161209810E+03  0.41917649531E+03  0.17200000000E+03 0. -1.
         -6    1    1    2    0  503  0.60655890049E+01 -0.21455755314E+02  0.33455435163E+03  0.37683916330E+03  0.17200000000E+03 0. -1.
</event>
<event>
 4    1  0.4475741E+000  0.1835130E+03  0.7818608E-02  0.1164446E+00
         21   -1    0    0  503  502  0.00000000000E+00  0.00000000000E+00  0.20775440198E+03  0.20775440198E+03  0.00000000000E+00 0. -1.
         21   -1    0    0  501  503 -0.00000000000E+00 -0.00000000000E+00 -0.16210031840E+03  0.16210031840E+03  0.00000000000E+00 0. -1.
          6    1    1    2  501    0  0.20950235633E+02 -0.60449375170E+02  0.22952003443E+02  0.18494278519E+03  0.17200000000E+03 0. -1.
         -6    1    1    2    0  502 -0.20950235633E+02  0.60449375170E+02  0.22702080138E+02  0.18491193519E+03  0.17200000000E+03 0. -1.
</event>
<event>
 4    1  0.4475741E+000  0.1783585E+03  0.7818608E-02  0.1169401E+00
         21   -1    0    0  503  502  0.00000000000E+00  0.00000000000E+00  0.15654806408E+04  0.15654806408E+04  0.00000000000E+00 0. -1.
         21   -1    0    0  501  503 -0.00000000000E+00 -0.00000000000E+00 -0.21479867184E+02  0.21479867184E+02  0.00000000000E+00 0.  1.
          6    1    1    2  501    0  0.25624167422E+02 -0.39637610284E+02  0.58767535641E+03  0.61414498503E+03  0.17200000000E+03 0.  1.
         -6    1    1    2    0  502 -0.25624167422E+02  0.39637610284E+02  0.95632541719E+03  0.97281552293E+03  0.17200000000E+03 0. -1.
</event>
<event>
 4    1  0.4475741E+000  0.2349412E+03  0.7818608E-02  0.1123209E+00
         21   -1    0    0  501  502  0.00000000000E+00  0.00000000000E+00  0.32133250916E+03  0.32133250916E+03  0.00000000000E+00 0.  1.
         21   -1    0    0  502  503 -0.00000000000E+00 -0.00000000000E+00 -0.22372519553E+03  0.22372519553E+03  0.00000000000E+00 0. -1.
          6    1    1    2  501    0  0.10439854662E+03  0.12130249614E+03  0.18012721585E+03  0.29604588496E+03  0.17200000000E+03 0.  1.
         -6    1    1    2    0  503 -0.10439854662E+03 -0.12130249614E+03 -0.82519902225E+02  0.24901181974E+03  0.17200000000E+03 0. -1.
</event>
<event>
 4    1  0.4475741E+000  0.1906967E+03  0.7818608E-02  0.1157834E+00
         21   -1    0    0  501  502  0.00000000000E+00  0.00000000000E+00  0.88947159701E+02  0.88947159701E+02  0.00000000000E+00 0.  1.
         21   -1    0    0  502  503 -0.00000000000E+00 -0.00000000000E+00 -0.64662141873E+03  0.64662141873E+03  0.00000000000E+00 0. -1.
          6    1    1    2  501    0  0.31241033082E+01 -0.82289043934E+02 -0.55810786511E+02  0.19869597546E+03  0.17200000000E+03 0.  1.
         -6    1    1    2    0  503 -0.31241033082E+01  0.82289043934E+02 -0.50186347252E+03  0.53687260297E+03  0.17200000000E+03 0. -1.
</event>
<event>
 4    1  0.4475741E+000  0.1940947E+03  0.7818608E-02  0.1154819E+00
         21   -1    0    0  501  502  0.00000000000E+00  0.00000000000E+00  0.78065978593E+03  0.78065978593E+03  0.00000000000E+00 0.  1.
         21   -1    0    0  502  503 -0.00000000000E+00 -0.00000000000E+00 -0.48896279080E+02  0.48896279080E+02  0.00000000000E+00 0.  1.
          6    1    1    2  501    0  0.89166155495E+02 -0.11753531837E+02  0.31847639727E+03  0.37296107627E+03  0.17200000000E+03 0.  1.
         -6    1    1    2    0  503 -0.89166155495E+02  0.11753531837E+02  0.41328710958E+03  0.45659498874E+03  0.17200000000E+03 0.  1.
</event>
<event>
 4    1  0.4475741E+000  0.2096274E+03  0.7818608E-02  0.1141861E+00
         21   -1    0    0  501  502  0.00000000000E+00  0.00000000000E+00  0.67571879071E+02  0.67571879071E+02  0.00000000000E+00 0.  1.
         21   -1    0    0  502  503 -0.00000000000E+00 -0.00000000000E+00 -0.71992577388E+03  0.71992577388E+03  0.00000000000E+00 0.  1.
          6    1    1    2  501    0  0.11450906315E+03  0.35317692769E+02 -0.44860564913E+03  0.49516733878E+03  0.17200000000E+03 0.  1.
         -6    1    1    2    0  503 -0.11450906315E+03 -0.35317692769E+02 -0.20374824568E+03  0.29233031417E+03  0.17200000000E+03 0.  1.
</event>
<event>
 4    1  0.4475741E+000  0.2398449E+03  0.7818608E-02  0.1119896E+00
         21   -1    0    0  503  502  0.00000000000E+00  0.00000000000E+00  0.12149274298E+04  0.12149274298E+04  0.00000000000E+00 0.  1.
         21   -1    0    0  501  503 -0.00000000000E+00 -0.00000000000E+00 -0.58222078023E+02  0.58222078023E+02  0.00000000000E+00 0. -1.
          6    1    1    2  501    0  0.16676518774E+03  0.11443311948E+02  0.30325801099E+03  0.38664065805E+03  0.17200000000E+03 0. -1.
         -6    1    1    2    0  502 -0.16676518774E+03 -0.11443311948E+02  0.85344734079E+03  0.88650884978E+03  0.17200000000E+03 0.  1.
</event>
<event>
 4    1  0.4475741E+000  0.1800182E+03  0.7818608E-02  0.1167785E+00
         21   -1    0    0  501  502  0.00000000000E+00  0.00000000000E+00  0.35859306213E+03  0.35859306213E+03  0.00000000000E+00 0. -1.
         21   -1    0    0  502  503 -0.00000000000E+00 -0.00000000000E+00 -0.98525314457E+02  0.98525314457E+02  0.00000000000E+00 0. -1.
          6    1    1    2  501    0  0.13303709312E+02  0.51434975519E+02  0.19578583518E+03  0.26596736387E+03  0.17200000000E+03 0. -1.
         -6    1    1    2    0  503 -0.13303709312E+02 -0.51434975519E+02  0.64281912494E+02  0.19115101272E+03  0.17200000000E+03 0. -1.
</event>
<event>
 4    1  0.4475741E+000  0.1828420E+03  0.7818608E-02  0.1165081E+00
         21   -1    0    0  501  502  0.00000000000E+00  0.00000000000E+00  0.15398904937E+04  0.15398904937E+04  0.00000000000E+00 0. -1.
         21   -1    0    0  502  503 -0.00000000000E+00 -0.00000000000E+00 -0.24401750505E+02  0.24401750505E+02  0.00000000000E+00 0. -1.
          6    1    1    2  501    0 -0.22058779529E+02 -0.57970645702E+02  0.10175127437E+04  0.10338101223E+04  0.17200000000E+03 0. -1.
         -6    1    1    2    0  503  0.22058779529E+02  0.57970645702E+02  0.49797599953E+03  0.53048212187E+03  0.17200000000E+03 0. -1.
</event>
<event>
 4    1  0.4475741E+000  0.2797756E+03  0.7818608E-02  0.1095812E+00
         21   -1    0    0  503  502  0.00000000000E+00  0.00000000000E+00  0.47965422831E+03  0.47965422831E+03  0.00000000000E+00 0.  1.
         21   -1    0    0  501  503 -0.00000000000E+00 -0.00000000000E+00 -0.37397052556E+03  0.37397052556E+03  0.00000000000E+00 0.  1.
          6    1    1    2  501    0 -0.12275334499E+03  0.18336307370E+03 -0.26758902692E+03  0.38714117300E+03  0.17200000000E+03 0.  1.
         -6    1    1    2    0  502  0.12275334499E+03 -0.18336307370E+03  0.37327272968E+03  0.46648358087E+03  0.17200000000E+03 0.  1.
</event>
<event>
 4    1  0.4475741E+000  0.2228951E+03  0.7818608E-02  0.1131743E+00
         21   -1    0    0  501  502  0.00000000000E+00  0.00000000000E+00  0.14350640423E+03  0.14350640423E+03  0.00000000000E+00 0. -1.
         21   -1    0    0  502  503 -0.00000000000E+00 -0.00000000000E+00 -0.42580952052E+03  0.42580952052E+03  0.00000000000E+00 0.  1.
          6    1    1    2  501    0 -0.82399731508E+02  0.11536260323E+03 -0.18070305818E+02  0.22362643388E+03  0.17200000000E+03 0. -1.
         -6    1    1    2    0  503  0.82399731508E+02 -0.11536260323E+03 -0.26423281046E+03  0.34568949088E+03  0.17200000000E+03 0.  1.
</event>
<event>
 4    1  0.4475741E+000  0.3195678E+03  0.7818608E-02  0.1075848E+00
         21   -1    0    0  503  502  0.00000000000E+00  0.00000000000E+00  0.13325495471E+03  0.13325495471E+03  0.00000000000E+00 0.  1.
         21   -1    0    0  501  503 -0.00000000000E+00 -0.00000000000E+00 -0.89449231158E+03  0.89449231158E+03  0.00000000000E+00 0. -1.
          6    1    1    2  501    0  0.18708875550E+03  0.19374567874E+03 -0.57509548251E+03  0.65791975534E+03  0.17200000000E+03 0. -1.
         -6    1    1    2    0  502 -0.18708875550E+03 -0.19374567874E+03 -0.18614187437E+03  0.36982751095E+03  0.17200000000E+03 0.  1.
</event>
<event>
 4    1  0.4475741E+000  0.1987516E+03  0.7818608E-02  0.1150797E+00
         21   -1    0    0  503  502  0.00000000000E+00  0.00000000000E+00  0.29347176025E+02  0.29347176025E+02  0.00000000000E+00 0. -1.
         21   -1    0    0  501  503 -0.00000000000E+00 -0.00000000000E+00 -0.23192461236E+04  0.23192461236E+04  0.00000000000E+00 0.  1.
          6    1    1    2  501    0 -0.77727798131E+02  0.62262284074E+02 -0.19056415159E+04  0.19159780243E+04  0.17200000000E+03 0.  1.
         -6    1    1    2    0  502  0.77727798131E+02 -0.62262284074E+02 -0.38425743173E+03  0.43261527535E+03  0.17200000000E+03 0. -1.
</event>
<event>
 4    1  0.4475741E+000  0.2208482E+03  0.7818608E-02  0.1133252E+00
         21   -1    0    0  501  502  0.00000000000E+00  0.00000000000E+00  0.43527954287E+03  0.43527954287E+03  0.00000000000E+00 0. -1.
         21   -1    0    0  502  503 -0.00000000000E+00 -0.00000000000E+00 -0.13452482261E+03  0.13452482261E+03  0.00000000000E+00 0. -1.
          6    1    1    2  501    0 -0.88509545408E+01  0.13824473273E+03  0.26682302525E+03  0.34636465225E+03  0.17200000000E+03 0. -1.
         -6    1    1    2    0  503  0.88509545408E+01 -0.13824473273E+03  0.33931694998E+02  0.22343971323E+03  0.17200000000E+03 0. -1.
</event>
<event>
 4    1  0.4475741E+000  0.2040476E+03  0.7818608E-02  0.1146368E+00
         21   -1    0    0  503  502  0.00000000000E+00  0.00000000000E+00  0.73871847290E+03  0.73871847290E+03  0.00000000000E+00 0.  1.
         21   -1    0    0  501  503 -0.00000000000E+00 -0.00000000000E+00 -0.88799890270E+02  0.88799890270E+02  0.00000000000E+00 0.  1.
          6    1    1    2  501    0  0.59275966355E+02  0.92400041449E+02  0.74884491792E+02  0.21735476751E+03  0.17200000000E+03 0.  1.
         -6    1    1    2    0  502 -0.59275966355E+02 -0.92400041449E+02  0.57503409084E+03  0.61016359567E+03  0.17200000000E+03 0.  1.
</event>
<event>
 4    1  0.4475741E+000  0.2077256E+03  0.7818608E-02  0.1143380E+00
         21   -1    0    0  503  502  0.00000000000E+00  0.00000000000E+00  0.68669420596E+03  0.68669420596E+03  0.00000000000E+00 0. -1.
         21   -1    0    0  501  503 -0.00000000000E+00 -0.00000000000E+00 -0.69914280405E+02  0.69914280405E+02  0.00000000000E+00 0. -1.
          6    1    1    2  501    0 -0.62251804955E+02  0.98440954443E+02  0.18802868759E+03  0.28018689492E+03  0.17200000000E+03 0. -1.
         -6    1    1    2    0  502  0.62251804955E+02 -0.98440954443E+02  0.42875123796E+03  0.47642159144E+03  0.17200000000E+03 0. -1.
</event>
<event>
 4    1  0.4475741E+000  0.3180600E+03  0.7818608E-02  0.1076546E+00
         21   -1    0    0  501  502  0.00000000000E+00  0.00000000000E+00  0.41283543762E+03  0.41283543762E+03  0.00000000000E+00 0.  1.
         21   -1    0    0  502  503 -0.00000000000E+00 -0.00000000000E+00 -0.27743902775E+03  0.27743902775E+03  0.00000000000E+00 0.  1.
          6    1    1    2  501    0  0.81686328986E+02  0.25476559641E+03  0.18563743253E+03  0.36827085388E+03  0.17200000000E+03 0.  1.
         -6    1    1    2    0  503 -0.81686328986E+02 -0.25476559641E+03 -0.50241022659E+02  0.32200361150E+03  0.17200000000E+03 0.  1.
</event>
<event>
 4    1  0.4475741E+000  0.1917764E+03  0.7818608E-02  0.1156869E+00
         21   -1    0    0  503  502  0.00000000000E+00  0.00000000000E+00  0.28053576197E+03  0.28053576197E+03  0.00000000000E+00 0. -1.
         21   -1    0    0  501  503 -0.00000000000E+00 -0.00000000000E+00 -0.13427666236E+03  0.13427666236E+03  0.00000000000E+00 0. -1.
          6    1    1    2  501    0 -0.25054110830E+02 -0.81033900946E+02  0.41227690736E+02  0.19615790592E+03  0.17200000000E+03 0. -1.
         -6    1    1    2    0  502  0.25054110830E+02  0.81033900946E+02  0.10503140887E+03  0.21865451841E+03  0.17200000000E+03 0. -1.
</event>
<event>
 4    1  0.4475741E+000  0.1770797E+03  0.7818608E-02  0.1170660E+00
         21   -1    0    0  501  502  0.00000000000E+00  0.00000000000E+00  0.10173356115E+04  0.10173356115E+04  0.00000000000E+00 0.  1.
         21   -1    0    0  502  503 -0.00000000000E+00 -0.00000000000E+00 -0.32367500974E+02  0.32367500974E+02  0.00000000000E+00 0.  1.
          6    1    1    2  501    0  0.32206817857E+01 -0.41986468965E+02  0.60713818556E+03  0.63243498696E+03  0.17200000000E+03 0.  1.
         -6    1    1    2    0  503 -0.32206817857E+01  0.41986468965E+02  0.37782992495E+03  0.41726812549E+03  0.17200000000E+03 0.  1.
</event>
<event>
 4    1  0.4475741E+000  0.2067175E+03  0.7818608E-02  0.1144192E+00
         21   -1    0    0  503  502  0.00000000000E+00  0.00000000000E+00  0.53726105813E+03  0.53726105813E+03  0.00000000000E+00 0.  1.
         21   -1    0    0  501  503 -0.00000000000E+00 -0.00000000000E+00 -0.97868310745E+02  0.97868310745E+02  0.00000000000E+00 0. -1.
          6    1    1    2  501    0 -0.22712602613E+02 -0.11239338433E+03  0.35713470097E+03  0.41264673729E+03  0.17200000000E+03 0.  1.
         -6    1    1    2    0  502  0.22712602613E+02  0.11239338433E+03  0.82258046423E+02  0.22248263159E+03  0.17200000000E+03 0. -1.
</event>
<event>
 4    1  0.4475741E+000  0.1789496E+03  0.7818608E-02  0.1168824E+00
         21   -1    0    0  503  502  0.00000000000E+00  0.00000000000E+00  0.43513826174E+03  0.43513826174E+03  0.00000000000E+00 0. -1.
         21   -1    0    0  501  503 -0.00000000000E+00 -0.00000000000E+00 -0.99860500279E+02  0.99860500279E+02  0.00000000000E+00 0. -1.
          6    1    1    2  501    0  0.28176200575E+01 -0.49305201607E+02  0.30443698461E+02  0.18152068936E+03  0.17200000000E+03 0. -1.
         -6    1    1    2    0  502 -0.28176200575E+01  0.49305201607E+02  0.30483406300E+03  0.35347807267E+03  0.17200000000E+03 0. -1.
</event>
<event>
 4    1  0.4475741E+000  0.1835724E+03  0.7818608E-02  0.1164390E+00
         21   -1    0    0  501  502  0.00000000000E+00  0.00000000000E+00  0.32682726298E+03  0.32682726298E+03  0.00000000000E+00 0.  1.
         21   -1    0    0  502  503 -0.00000000000E+00 -0.00000000000E+00 -0.11629743952E+03  0.11629743952E+03  0.00000000000E+00 0. -1.
          6    1    1    2  501    0 -0.51393539189E+02  0.38386662225E+02  0.17987672979E+03  0.25701064108E+03  0.17200000000E+03 0.  1.
         -6    1    1    2    0  503  0.51393539189E+02 -0.38386662225E+02  0.30653093670E+02  0.18611406142E+03  0.17200000000E+03 0. -1.
</event>
<event>
 4    1  0.4475741E+000  0.1743242E+03  0.7818608E-02  0.1173412E+00
         21   -1    0    0  503  502  0.00000000000E+00  0.00000000000E+00  0.15343205048E+03  0.15343205048E+03  0.00000000000E+00 0. -1.
         21   -1    0    0  501  503 -0.00000000000E+00 -0.00000000000E+00 -0.20597830447E+03  0.20597830447E+03  0.00000000000E+00 0. -1.
          6    1    1    2  501    0  0.16665908642E+02  0.22960441386E+02 -0.61504805506E+02  0.18485609398E+03  0.17200000000E+03 0.  1.
         -6    1    1    2    0  502 -0.16665908642E+02 -0.22960441386E+02  0.89585515164E+01  0.17455426098E+03  0.17200000000E+03 0.  1.
</event>
<event>
 4    1  0.4475741E+000  0.2658550E+03  0.7818608E-02  0.1103676E+00
         21   -1    0    0  501  502  0.00000000000E+00  0.00000000000E+00  0.26118921070E+03  0.26118921070E+03  0.00000000000E+00 0. -1.
         21   -1    0    0  502  503 -0.00000000000E+00 -0.00000000000E+00 -0.27587234623E+03  0.27587234623E+03  0.00000000000E+00 0.  1.
          6    1    1    2  501    0 -0.28362276577E+01 -0.20269892745E+03 -0.44449656560E+02  0.26954530481E+03  0.17200000000E+03 0. -1.
         -6    1    1    2    0  503  0.28362276577E+01  0.20269892745E+03  0.29766521039E+02  0.26751625212E+03  0.17200000000E+03 0.  1.
</event>
<event>
 4    1  0.4475741E+000  0.2681383E+03  0.7818608E-02  0.1102350E+00
         21   -1    0    0  501  502  0.00000000000E+00  0.00000000000E+00  0.29368708125E+03  0.29368708125E+03  0.00000000000E+00 0. -1.
         21   -1    0    0  502  503 -0.00000000000E+00 -0.00000000000E+00 -0.68278151131E+03  0.68278151131E+03  0.00000000000E+00 0.  1.
          6    1    1    2  501    0  0.15056965574E+03 -0.14015317201E+03  0.19648210946E+03  0.33242044491E+03  0.17200000000E+03 0. -1.
         -6    1    1    2    0  503 -0.15056965574E+03  0.14015317201E+03 -0.58557653952E+03  0.64404814765E+03  0.17200000000E+03 0.  1.
</event>
<event>
 4    1  0.4475741E+000  0.1960017E+03  0.7818608E-02  0.1153157E+00
         21   -1    0    0  503  502  0.00000000000E+00  0.00000000000E+00  0.29693481952E+03  0.29693481952E+03  0.00000000000E+00 0. -1.
         21   -1    0    0  501  503 -0.00000000000E+00 -0.00000000000E+00 -0.25984927938E+03  0.25984927938E+03  0.00000000000E+00 0.  1.
          6    1    1    2  501    0  0.91896025596E+02 -0.19691844073E+02 -0.17872428733E+03  0.26525274574E+03  0.17200000000E+03 0.  1.
         -6    1    1    2    0  502 -0.91896025596E+02  0.19691844073E+02  0.21580982747E+03  0.29153135316E+03  0.17200000000E+03 0. -1.
</event>
<event>
 4    1  0.4475741E+000  0.1886942E+03  0.7818608E-02  0.1159644E+00
         21   -1    0    0  501  502  0.00000000000E+00  0.00000000000E+00  0.12620538505E+03  0.12620538505E+03  0.00000000000E+00 0.  1.
         21   -1    0    0  502  503 -0.00000000000E+00 -0.00000000000E+00 -0.28306494830E+03  0.28306494830E+03  0.00000000000E+00 0.  1.
          6    1    1    2  501    0 -0.48465727924E+02 -0.60601735083E+02 -0.66627938263E+02  0.20011191677E+03  0.17200000000E+03 0.  1.
         -6    1    1    2    0  503  0.48465727924E+02  0.60601735083E+02 -0.90231624978E+02  0.20915841658E+03  0.17200000000E+03 0.  1.
</event>
<event>
 4    1  0.4475741E+000  0.2061961E+03  0.7818608E-02  0.1144614E+00
         21   -1    0    0  501  502  0.00000000000E+00  0.00000000000E+00  0.68786072388E+03  0.68786072388E+03  0.00000000000E+00 0.  1.
         21   -1    0    0  502  503 -0.00000000000E+00 -0.00000000000E+00 -0.61824005857E+02  0.61824005857E+02  0.00000000000E+00 0. -1.
          6    1    1    2  501    0  0.11356750930E+03 -0.59376569730E+01  0.30742457211E+03  0.37017117996E+03  0.17200000000E+03 0. -1.
         -6    1    1    2    0  503 -0.11356750930E+03  0.59376569730E+01  0.31861214591E+03  0.37951354978E+03  0.17200000000E+03 0.  1.
</event>
<event>
 4    1  0.4475741E+000  0.1952142E+03  0.7818608E-02  0.1153841E+00
         21   -1    0    0  503  502  0.00000000000E+00  0.00000000000E+00  0.37891981276E+02  0.37891981276E+02  0.00000000000E+00 0. -1.
         21   -1    0    0  501  503 -0.00000000000E+00 -0.00000000000E+00 -0.10251352601E+04  0.10251352601E+04  0.00000000000E+00 0. -1.
          6    1    1    2  501    0 -0.92326338829E+02 -0.66420724305E+00 -0.56677488667E+03  0.59945172130E+03  0.17200000000E+03 0. -1.
         -6    1    1    2    0  502  0.92326338829E+02  0.66420724305E+00 -0.42046839219E+03  0.46357552011E+03  0.17200000000E+03 0. -1.
</event>
<event>
 4    1  0.4475741E+000  0.1820681E+03  0.7818608E-02  0.1165816E+00
         21   -1    0    0  503  502  0.00000000000E+00  0.00000000000E+00  0.21024588592E+03  0.21024588592E+03  0.00000000000E+00 0.  1.
         21   -1    0    0  501  503 -0.00000000000E+00 -0.00000000000E+00 -0.19210664036E+03  0.19210664036E+03  0.00000000000E+00 0. -1.
          6    1    1    2  501    0  0.52162785914E+02 -0.29048772552E+02 -0.76110129333E+02  0.19733610721E+03  0.17200000000E+03 0. -1.
         -6    1    1    2    0  502 -0.52162785914E+02  0.29048772552E+02  0.94249374896E+02  0.20501641907E+03  0.17200000000E+03 0.  1.
</event>
<event>
 4    1  0.4475741E+000  0.2973061E+03  0.7818608E-02  0.1086595E+00
         21   -1    0    0  501  502  0.00000000000E+00  0.00000000000E+00  0.45385826885E+02  0.45385826885E+02  0.00000000000E+00 0.  1.
         21   -1    0    0  502  503 -0.00000000000E+00 -0.00000000000E+00 -0.21574056352E+04  0.21574056352E+04  0.00000000000E+00 0.  1.
          6    1    1    2  501    0 -0.19187673838E+03 -0.14829104112E+03 -0.71249661954E+03  0.77203778953E+03  0.17200000000E+03 0.  1.
         -6    1    1    2    0  503  0.19187673838E+03  0.14829104112E+03 -0.13995231888E+04  0.14307536726E+04  0.17200000000E+03 0.  1.
</event>
<event>
 4    1  0.4475741E+000  0.1738599E+03  0.7818608E-02  0.1173881E+00
         21   -1    0    0  501  502  0.00000000000E+00  0.00000000000E+00  0.11356019334E+03  0.11356019334E+03  0.00000000000E+00 0. -1.
         21   -1    0    0  502  503 -0.00000000000E+00 -0.00000000000E+00 -0.53290217340E+03  0.53290217340E+03  0.00000000000E+00 0. -1.
          6    1    1    2  501    0  0.10630868185E+02  0.23027230675E+02  0.19004902629E+02  0.17489555465E+03  0.17200000000E+03 0. -1.
         -6    1    1    2    0  503 -0.10630868185E+02 -0.23027230675E+02 -0.43834688268E+03  0.47156681210E+03  0.17200000000E+03 0. -1.
</event>
<event>
 4    1  0.4475741E+000  0.2244304E+03  0.7818608E-02  0.1130622E+00
         21   -1    0    0  503  502  0.00000000000E+00  0.00000000000E+00  0.19085402975E+03  0.19085402975E+03  0.00000000000E+00 0.  1.
         21   -1    0    0  501  503 -0.00000000000E+00 -0.00000000000E+00 -0.27054785641E+03  0.27054785641E+03  0.00000000000E+00 0.  1.
          6    1    1    2  501    0  0.59228594998E+02  0.13144186401E+03 -0.75972981857E+02  0.23694067623E+03  0.17200000000E+03 0.  1.
         -6    1    1    2    0  502 -0.59228594998E+02 -0.13144186401E+03 -0.37208448060E+01  0.22446120994E+03  0.17200000000E+03 0.  1.
</event>
<event>
 4    1  0.4475741E+000  0.2241626E+03  0.7818608E-02  0.1130817E+00
         21   -1    0    0  501  502  0.00000000000E+00  0.00000000000E+00  0.31691045096E+03  0.31691045096E+03  0.00000000000E+00 0. -1.
         21   -1    0    0  502  503 -0.00000000000E+00 -0.00000000000E+00 -0.16872127460E+03  0.16872127460E+03  0.00000000000E+00 0.  1.
          6    1    1    2  501    0  0.11373265055E+03  0.87919089168E+02  0.13368766795E+03  0.26100052606E+03  0.17200000000E+03 0.  1.
         -6    1    1    2    0  503 -0.11373265055E+03 -0.87919089168E+02  0.14501508410E+02  0.22463119950E+03  0.17200000000E+03 0. -1.
</event>
<event>
 4    1  0.4475741E+000  0.1997584E+03  0.7818608E-02  0.1149943E+00
         21   -1    0    0  503  502  0.00000000000E+00  0.00000000000E+00  0.14069429351E+03  0.14069429351E+03  0.00000000000E+00 0. -1.
         21   -1    0    0  501  503 -0.00000000000E+00 -0.00000000000E+00 -0.29045820169E+03  0.29045820169E+03  0.00000000000E+00 0. -1.
          6    1    1    2  501    0 -0.33617439965E+02 -0.95860848840E+02 -0.10796408176E+03  0.22706756167E+03  0.17200000000E+03 0. -1.
         -6    1    1    2    0  502  0.33617439965E+02  0.95860848840E+02 -0.41799826415E+02  0.20408493354E+03  0.17200000000E+03 0. -1.
</event>
<event>
 4    1  0.4475741E+000  0.2573139E+03  0.7818608E-02  0.1108768E+00
         21   -1    0    0  501  502  0.00000000000E+00  0.00000000000E+00  0.15932253759E+03  0.15932253759E+03  0.00000000000E+00 0.  1.
         21   -1    0    0  502  503 -0.00000000000E+00 -0.00000000000E+00 -0.13674752984E+04  0.13674752984E+04  0.00000000000E+00 0.  1.
          6    1    1    2  501    0  0.14682719221E+03  0.12275274889E+03  0.32847495239E+02  0.25940204254E+03  0.17200000000E+03 0.  1.
         -6    1    1    2    0  503 -0.14682719221E+03 -0.12275274889E+03 -0.12410002561E+04  0.12673957935E+04  0.17200000000E+03 0.  1.
</event>
<event>
 4    1  0.4475741E+000  0.2646192E+03  0.7818608E-02  0.1104399E+00
         21   -1    0    0  503  502  0.00000000000E+00  0.00000000000E+00  0.12209910632E+03  0.12209910632E+03  0.00000000000E+00 0. -1.
         21   -1    0    0  501  503 -0.00000000000E+00 -0.00000000000E+00 -0.73175943614E+03  0.73175943614E+03  0.00000000000E+00 0.  1.
          6    1    1    2  501    0 -0.19216675986E+03 -0.59255961149E+02 -0.50337667038E+03  0.56869271563E+03  0.17200000000E+03 0.  1.
         -6    1    1    2    0  502  0.19216675986E+03  0.59255961149E+02 -0.10628365945E+03  0.28516582683E+03  0.17200000000E+03 0. -1.
</event>
<event>
 4    1  0.4475741E+000  0.1913615E+03  0.7818608E-02  0.1157239E+00
         21   -1    0    0  503  502  0.00000000000E+00  0.00000000000E+00  0.18878791983E+03  0.18878791983E+03  0.00000000000E+00 0. -1.
         21   -1    0    0  501  503 -0.00000000000E+00 -0.00000000000E+00 -0.19482391022E+03  0.19482391022E+03  0.00000000000E+00 0.  1.
          6    1    1    2  501    0 -0.33854104889E+02  0.76740586113E+02  0.96793542626E+01  0.19160612692E+03  0.17200000000E+03 0.  1.
         -6    1    1    2    0  502  0.33854104889E+02 -0.76740586113E+02 -0.15715344651E+02  0.19200570312E+03  0.17200000000E+03 0.  1.
</event>
<event>
 4    1  0.4475741E+000  0.2395955E+03  0.7818608E-02  0.1120063E+00
         21   -1    0    0  503  502  0.00000000000E+00  0.00000000000E+00  0.15410692804E+04  0.15410692804E+04  0.00000000000E+00 0.  1.
         21   -1    0    0  501  503 -0.00000000000E+00 -0.00000000000E+00 -0.89811349920E+02  0.89811349920E+02  0.00000000000E+00 0. -1.
          6    1    1    2  501    0 -0.12792743471E+01  0.16679441104E+03  0.10181275621E+03  0.26033026990E+03  0.17200000000E+03 0. -1.
         -6    1    1    2    0  502  0.12792743471E+01 -0.16679441104E+03  0.13494451743E+04  0.13705503604E+04  0.17200000000E+03 0.  1.
</event>
<event>
 4    1  0.4475741E+000  0.2100132E+03  0.7818608E-02  0.1141556E+00
         21   -1    0    0  503  502  0.00000000000E+00  0.00000000000E+00  0.36413234803E+03  0.36413234803E+03  0.00000000000E+00 0. -1.
         21   -1    0    0  501  503 -0.00000000000E+00 -0.00000000000E+00 -0.28228775168E+03  0.28228775168E+03  0.00000000000E+00 0. -1.
          6    1    1    2  501    0  0.11981071667E+03  0.12920914484E+02 -0.20329199316E+03  0.29228956934E+03  0.17200000000E+03 0. -1.
         -6    1    1    2    0  502 -0.11981071667E+03 -0.12920914484E+02  0.28513658951E+03  0.35413053037E+03  0.17200000000E+03 0. -1.
</event>
<event>
 4    1  0.4475741E+000  0.1791820E+03  0.7818608E-02  0.1168597E+00
         21   -1    0    0  503  502  0.00000000000E+00  0.00000000000E+00  0.42685948048E+02  0.42685948048E+02  0.00000000000E+00 0.  1.
         21   -1    0    0  501  503 -0.00000000000E+00 -0.00000000000E+00 -0.82756815423E+03  0.82756815423E+03  0.00000000000E+00 0. -1.
          6    1    1    2  501    0 -0.40068006810E+02  0.30277840349E+02 -0.26108354962E+03  0.31665566894E+03  0.17200000000E+03 0.  1.
         -6    1    1    2    0  502  0.40068006810E+02 -0.30277840349E+02 -0.52379865656E+03  0.55359843334E+03  0.17200000000E+03 0.  1.
</event>
<event>
 4    1  0.4475741E+000  0.3242831E+03  0.7818608E-02  0.1073695E+00
         21   -1    0    0  501  502  0.00000000000E+00  0.00000000000E+00  0.32958316185E+03  0.32958316185E+03  0.00000000000E+00 0.  1.
         21   -1    0    0  502  503 -0.00000000000E+00 -0.00000000000E+00 -0.33747374870E+03  0.33747374870E+03  0.00000000000E+00 0.  1.
          6    1    1    2  501    0  0.10258856700E+03  0.25505117043E+03  0.73945658794E+02  0.33260708662E+03  0.17200000000E+03 0.  1.
         -6    1    1    2    0  503 -0.10258856700E+03 -0.25505117043E+03 -0.81836245643E+02  0.33444982392E+03  0.17200000000E+03 0.  1.
</event>
<event>
 4    1  0.4475741E+000  0.1825272E+03  0.7818608E-02  0.1165379E+00
         21   -1    0    0  503  502  0.00000000000E+00  0.00000000000E+00  0.15318188230E+04  0.15318188230E+04  0.00000000000E+00 0. -1.
         21   -1    0    0  501  503 -0.00000000000E+00 -0.00000000000E+00 -0.24167271405E+02  0.24167271405E+02  0.00000000000E+00 0. -1.
          6    1    1    2  501    0 -0.10242419794E+02 -0.60226800372E+02  0.99990587461E+03  0.10164290102E+04  0.17200000000E+03 0. -1.
         -6    1    1    2    0  502  0.10242419794E+02  0.60226800372E+02  0.50774567699E+03  0.53955708424E+03  0.17200000000E+03 0. -1.
</event>
<event>
 4    1  0.4475741E+000  0.1871896E+03  0.7818608E-02  0.1161021E+00
         21   -1    0    0  503  502  0.00000000000E+00  0.00000000000E+00  0.76625711168E+03  0.76625711168E+03  0.00000000000E+00 0. -1.
         21   -1    0    0  501  503 -0.00000000000E+00 -0.00000000000E+00 -0.46297006537E+02  0.46297006537E+02  0.00000000000E+00 0. -1.
          6    1    1    2  501    0 -0.73422690964E+02  0.80667079896E+01  0.31496825806E+03  0.36639455087E+03  0.17200000000E+03 0.  1.
         -6    1    1    2    0  502  0.73422690964E+02 -0.80667079896E+01  0.40499184709E+03  0.44615956735E+03  0.17200000000E+03 0.  1.
</event>
<event>
 4    1  0.4475741E+000  0.3095382E+03  0.7818608E-02  0.1080567E+00
         21   -1    0    0  501  502  0.00000000000E+00  0.00000000000E+00  0.16972061885E+03  0.16972061885E+03  0.00000000000E+00 0.  1.
         21   -1    0    0  502  503 -0.00000000000E+00 -0.00000000000E+00 -0.56469877106E+03  0.56469877106E+03  0.00000000000E+00 0. -1.
          6    1    1    2  501    0  0.25214461686E+03  0.51507204125E+02 -0.19131142585E+03  0.36388729237E+03  0.17200000000E+03 0.  1.
         -6    1    1    2    0  503 -0.25214461686E+03 -0.51507204125E+02 -0.20366672636E+03  0.37053209755E+03  0.17200000000E+03 0. -1.
</event>
<event>
 4    1  0.4475741E+000  0.1905677E+03  0.7818608E-02  0.1157950E+00
         21   -1    0    0  503  502  0.00000000000E+00  0.00000000000E+00  0.18003542016E+04  0.18003542016E+04  0.00000000000E+00 0. -1.
         21   -1    0    0  501  503 -0.00000000000E+00 -0.00000000000E+00 -0.27426648411E+02  0.27426648411E+02  0.00000000000E+00 0. -1.
          6    1    1    2  501    0  0.28949911383E+02  0.76772019641E+02  0.41643152726E+03  0.45796425326E+03  0.17200000000E+03 0. -1.
         -6    1    1    2    0  502 -0.28949911383E+02 -0.76772019641E+02  0.13564960259E+04  0.13698165967E+04  0.17200000000E+03 0. -1.
</event>
<event>
 4    1  0.4475741E+000  0.2469552E+03  0.7818608E-02  0.1115244E+00
         21   -1    0    0  501  502  0.00000000000E+00  0.00000000000E+00  0.13349494444E+03  0.13349494444E+03  0.00000000000E+00 0.  1.
         21   -1    0    0  502  503 -0.00000000000E+00 -0.00000000000E+00 -0.57287159477E+03  0.57287159477E+03  0.00000000000E+00 0. -1.
          6    1    1    2  501    0  0.16483731733E+03 -0.65050249167E+02 -0.60744028388E+02  0.25431616757E+03  0.17200000000E+03 0.  1.
         -6    1    1    2    0  503 -0.16483731733E+03  0.65050249167E+02 -0.37863262194E+03  0.45205037164E+03  0.17200000000E+03 0. -1.
</event>
<event>
 4    1  0.4475741E+000  0.1726569E+03  0.7818608E-02  0.1175105E+00
         21   -1    0    0  503  502  0.00000000000E+00  0.00000000000E+00  0.14731024895E+04  0.14731024895E+04  0.00000000000E+00 0.  1.
         21   -1    0    0  501  503 -0.00000000000E+00 -0.00000000000E+00 -0.22198761177E+02  0.22198761177E+02  0.00000000000E+00 0.  1.
          6    1    1    2  501    0 -0.13989943166E+02 -0.55392101658E+01  0.50316411444E+03  0.53196290042E+03  0.17200000000E+03 0.  1.
         -6    1    1    2    0  502  0.13989943166E+02  0.55392101658E+01  0.94773961385E+03  0.96333835023E+03  0.17200000000E+03 0.  1.
</event>
<event>
 4    1  0.4475741E+000  0.2358922E+03  0.7818608E-02  0.1122560E+00
         21   -1    0    0  501  502  0.00000000000E+00  0.00000000000E+00  0.47930785241E+03  0.47930785241E+03  0.00000000000E+00 0. -1.
         21   -1    0    0  502  503 -0.00000000000E+00 -0.00000000000E+00 -0.11927488340E+03  0.11927488340E+03  0.00000000000E+00 0. -1.
          6    1    1    2  501    0  0.15582031486E+03 -0.42203748529E+02  0.13114650800E+03  0.26989726466E+03  0.17200000000E+03 0. -1.
         -6    1    1    2    0  503 -0.15582031486E+03  0.42203748529E+02  0.22888646100E+03  0.32868547115E+03  0.17200000000E+03 0. -1.
</event>
<event>
 4    1  0.4475741E+000  0.3075225E+03  0.7818608E-02  0.1081539E+00
         21   -1    0    0  501  502  0.00000000000E+00  0.00000000000E+00  0.48691008551E+03  0.48691008551E+03  0.00000000000E+00 0. -1.
         21   -1    0    0  502  503 -0.00000000000E+00 -0.00000000000E+00 -0.20670201281E+03  0.20670201281E+03  0.00000000000E+00 0.  1.
          6    1    1    2  501    0 -0.24949426635E+03  0.52332767951E+02  0.22530995399E+03  0.38122786219E+03  0.17200000000E+03 0. -1.
         -6    1    1    2    0  503  0.24949426635E+03 -0.52332767951E+02  0.54898118704E+02  0.31238423613E+03  0.17200000000E+03 0.  1.
</event>
<event>
 4    1  0.4475741E+000  0.5828525E+03  0.7818608E-02  0.9941634E-01
         21   -1    0    0  501  502  0.00000000000E+00  0.00000000000E+00  0.26903318639E+03  0.26903318639E+03  0.00000000000E+00 0. -1.
         21   -1    0    0  502  503 -0.00000000000E+00 -0.00000000000E+00 -0.13220026510E+04  0.13220026510E+04  0.00000000000E+00 0.  1.
          6    1    1    2  501    0 -0.22554792567E+03  0.50917698559E+03 -0.35804281849E+03  0.68404073658E+03  0.17200000000E+03 0. -1.
         -6    1    1    2    0  503  0.22554792567E+03 -0.50917698559E+03 -0.69492664612E+03  0.90699510082E+03  0.17200000000E+03 0.  1.
</event>
<event>
 4    1  0.4475741E+000  0.2112124E+03  0.7818608E-02  0.1140610E+00
         21   -1    0    0  503  502  0.00000000000E+00  0.00000000000E+00  0.59087864180E+03  0.59087864180E+03  0.00000000000E+00 0.  1.
         21   -1    0    0  501  503 -0.00000000000E+00 -0.00000000000E+00 -0.98256020903E+02  0.98256020903E+02  0.00000000000E+00 0. -1.
          6    1    1    2  501    0  0.15450880031E+02 -0.12160562470E+03  0.80484917781E+02  0.22602760814E+03  0.17200000000E+03 0. -1.
         -6    1    1    2    0  502 -0.15450880031E+02  0.12160562470E+03  0.41213770312E+03  0.46310705456E+03  0.17200000000E+03 0.  1.
</event>
<event>
 4    1  0.4475741E+000  0.1905791E+03  0.7818608E-02  0.1157940E+00
         21   -1    0    0  501  502  0.00000000000E+00  0.00000000000E+00  0.61294451653E+02  0.61294451653E+02  0.00000000000E+00 0.  1.
         21   -1    0    0  502  503 -0.00000000000E+00 -0.00000000000E+00 -0.72537976944E+03  0.72537976944E+03  0.00000000000E+00 0. -1.
          6    1    1    2  501    0  0.78803129732E+02 -0.22944485424E+02 -0.16372858356E+03  0.25125172983E+03  0.17200000000E+03 0.  1.
         -6    1    1    2    0  503 -0.78803129732E+02  0.22944485424E+02 -0.50035673422E+03  0.53542249126E+03  0.17200000000E+03 0. -1.
</event>
<event>
 4    1  0.4475741E+000  0.2691343E+03  0.7818608E-02  0.1101776E+00
         21   -1    0    0  501  502  0.00000000000E+00  0.00000000000E+00  0.26577415548E+03  0.26577415548E+03  0.00000000000E+00 0. -1.
         21   -1    0    0  502  503 -0.00000000000E+00 -0.00000000000E+00 -0.41856793434E+03  0.41856793434E+03  0.00000000000E+00 0.  1.
          6    1    1    2  501    0  0.90079485214E+02  0.18637321565E+03  0.12571074593E+03  0.29704626039E+03  0.17200000000E+03 0. -1.
         -6    1    1    2    0  503 -0.90079485214E+02 -0.18637321565E+03 -0.27850452479E+03  0.38729582943E+03  0.17200000000E+03 0.  1.
</event>
<event>
 4    1  0.4475741E+000  0.2010957E+03  0.7818608E-02  0.1148818E+00
         21   -1    0    0  503  502  0.00000000000E+00  0.00000000000E+00  0.26472515158E+03  0.26472515158E+03  0.00000000000E+00 0. -1.
         21   -1    0    0  501  503 -0.00000000000E+00 -0.00000000000E+00 -0.18160825528E+03  0.18160825528E+03  0.00000000000E+00 0. -1.
          6    1    1    2  501    0 -0.97965007318E+02 -0.35472839087E+02 -0.47386223547E+02  0.20660328931E+03  0.17200000000E+03 0. -1.
         -6    1    1    2    0  502  0.97965007318E+02  0.35472839087E+02  0.13050311985E+03  0.23973011755E+03  0.17200000000E+03 0. -1.
</event>
<event>
 4    1  0.4475741E+000  0.1756977E+03  0.7818608E-02  0.1172033E+00
         21   -1    0    0  501  502  0.00000000000E+00  0.00000000000E+00  0.23842530649E+04  0.23842530649E+04  0.00000000000E+00 0. -1.
         21   -1    0    0  502  503 -0.00000000000E+00 -0.00000000000E+00 -0.32148763351E+02  0.32148763351E+02  0.00000000000E+00 0. -1.
          6    1    1    2  501    0  0.33398911901E+02 -0.13045367302E+02  0.21097880348E+04  0.21170912169E+04  0.17200000000E+03 0. -1.
         -6    1    1    2    0  503 -0.33398911901E+02  0.13045367302E+02  0.24231626669E+03  0.29931061128E+03  0.17200000000E+03 0. -1.
</event>
<event>
 4    1  0.4475741E+000  0.2554093E+03  0.7818608E-02  0.1109933E+00
         21   -1    0    0  501  502  0.00000000000E+00  0.00000000000E+00  0.32480554796E+03  0.32480554796E+03  0.00000000000E+00 0.  1.
         21   -1    0    0  502  503 -0.00000000000E+00 -0.00000000000E+00 -0.20165038969E+03  0.20165038969E+03  0.00000000000E+00 0.  1.
          6    1    1    2  501    0 -0.56821440557E+02  0.18005898227E+03  0.78265672310E+02  0.26713185633E+03  0.17200000000E+03 0.  1.
         -6    1    1    2    0  503  0.56821440557E+02 -0.18005898227E+03  0.44889485962E+02  0.25932408132E+03  0.17200000000E+03 0.  1.
</event>
<event>
 4    1  0.4475741E+000  0.1758627E+03  0.7818608E-02  0.1171868E+00
         21   -1    0    0  501  502  0.00000000000E+00  0.00000000000E+00  0.47719553913E+03  0.47719553913E+03  0.00000000000E+00 0. -1.
         21   -1    0    0  502  503 -0.00000000000E+00 -0.00000000000E+00 -0.11013191654E+03  0.11013191654E+03  0.00000000000E+00 0. -1.
          6    1    1    2  501    0  0.30204540920E+02  0.20769494634E+02  0.37191467009E+03  0.41139787072E+03  0.17200000000E+03 0. -1.
         -6    1    1    2    0  503 -0.30204540920E+02 -0.20769494634E+02 -0.48510474955E+01  0.17592958495E+03  0.17200000000E+03 0. -1.
</event>
<event>
 4    1  0.4475741E+000  0.2032270E+03  0.7818608E-02  0.1147045E+00
         21   -1    0    0  501  502  0.00000000000E+00  0.00000000000E+00  0.21867291592E+03  0.21867291592E+03  0.00000000000E+00 0. -1.
         21   -1    0    0  502  503 -0.00000000000E+00 -0.00000000000E+00 -0.33765520903E+03  0.33765520903E+03  0.00000000000E+00 0. -1.
          6    1    1    2  501    0 -0.65707876635E+02 -0.86021458530E+02  0.12515535544E+03  0.23867358332E+03  0.17200000000E+03 0. -1.
         -6    1    1    2    0  503  0.65707876635E+02  0.86021458530E+02 -0.24413764855E+03  0.31765454163E+03  0.17200000000E+03 0. -1.
</event>
<event>
 4    1  0.4475741E+000  0.1723356E+03  0.7818608E-02  0.1175434E+00
         21   -1    0    0  501  502  0.00000000000E+00  0.00000000000E+00  0.70522584212E+02  0.70522584212E+02  0.00000000000E+00 0. -1.
         21   -1    0    0  502  503 -0.00000000000E+00 -0.00000000000E+00 -0.56126114634E+03  0.56126114634E+03  0.00000000000E+00 0. -1.
          6    1    1    2  501    0 -0.63976169693E+00 -0.10730204809E+02 -0.87529981660E+02  0.19329005220E+03  0.17200000000E+03 0.  1.
         -6    1    1    2    0  503  0.63976169693E+00  0.10730204809E+02 -0.40320858047E+03  0.43849367835E+03  0.17200000000E+03 0.  1.
</event>
<event>
 4    1  0.4475741E+000  0.1722041E+03  0.7818608E-02  0.1175569E+00
         21   -1    0    0  503  502  0.00000000000E+00  0.00000000000E+00  0.78190510203E+02  0.78190510203E+02  0.00000000000E+00 0. -1.
         21   -1    0    0  501  503 -0.00000000000E+00 -0.00000000000E+00 -0.46026424934E+03  0.46026424934E+03  0.00000000000E+00 0. -1.
          6    1    1    2  501    0  0.77649575596E+01  0.31563042320E+01 -0.30398497977E+03  0.34937247280E+03  0.17200000000E+03 0. -1.
         -6    1    1    2    0  502 -0.77649575596E+01 -0.31563042320E+01 -0.78088759372E+02  0.18908228675E+03  0.17200000000E+03 0. -1.
</event>
<event>
 4    1  0.4475741E+000  0.2082014E+03  0.7818608E-02  0.1142998E+00
         21   -1    0    0  503  502  0.00000000000E+00  0.00000000000E+00  0.53304314552E+02  0.53304314552E+02  0.00000000000E+00 0.  1.
         21   -1    0    0  501  503 -0.00000000000E+00 -0.00000000000E+00 -0.92797179195E+03  0.92797179195E+03  0.00000000000E+00 0. -1.
          6    1    1    2  501    0 -0.59848308388E+02  0.10090589358E+03 -0.60987174373E+03  0.64443103834E+03  0.17200000000E+03 0. -1.
         -6    1    1    2    0  502  0.59848308388E+02 -0.10090589358E+03 -0.26479573367E+03  0.33684506816E+03  0.17200000000E+03 0.  1.
</event>
<event>
 4    1  0.4475741E+000  0.2062481E+03  0.7818608E-02  0.1144572E+00
         21   -1    0    0  501  502  0.00000000000E+00  0.00000000000E+00  0.11528087461E+04  0.11528087461E+04  0.00000000000E+00 0. -1.
         21   -1    0    0  502  503 -0.00000000000E+00 -0.00000000000E+00 -0.37165769426E+02  0.37165769426E+02  0.00000000000E+00 0. -1.
          6    1    1    2  501    0 -0.11155848593E+03  0.22560477818E+02  0.60816597936E+03  0.64218698943E+03  0.17200000000E+03 0. -1.
         -6    1    1    2    0  503  0.11155848593E+03 -0.22560477818E+02  0.50747699728E+03  0.54778752607E+03  0.17200000000E+03 0. -1.
</event>
<event>
 4    1  0.4475741E+000  0.2722862E+03  0.7818608E-02  0.1099978E+00
         21   -1    0    0  501  502  0.00000000000E+00  0.00000000000E+00  0.20203351079E+04  0.20203351079E+04  0.00000000000E+00 0. -1.
         21   -1    0    0  502  503 -0.00000000000E+00 -0.00000000000E+00 -0.42511568459E+02  0.42511568459E+02  0.00000000000E+00 0.  1.
          6    1    1    2  501    0  0.16732866586E+03  0.12867351083E+03  0.60744996839E+03  0.66568402332E+03  0.17200000000E+03 0.  1.
         -6    1    1    2    0  503 -0.16732866586E+03 -0.12867351083E+03  0.13703735710E+04  0.13971626530E+04  0.17200000000E+03 0. -1.
</event>
<event>
 4    1  0.4475741E+000  0.1845049E+03  0.7818608E-02  0.1163513E+00
         21   -1    0    0  501  502  0.00000000000E+00  0.00000000000E+00  0.52983547369E+02  0.52983547369E+02  0.00000000000E+00 0.  1.
         21   -1    0    0  502  503 -0.00000000000E+00 -0.00000000000E+00 -0.76783327827E+03  0.76783327827E+03  0.00000000000E+00 0.  1.
          6    1    1    2  501    0  0.39788694802E+02  0.53618230195E+02 -0.19161442233E+03  0.26600402570E+03  0.17200000000E+03 0.  1.
         -6    1    1    2    0  503 -0.39788694802E+02 -0.53618230195E+02 -0.52323530857E+03  0.55481279994E+03  0.17200000000E+03 0.  1.
</event>
<event>
 4    1  0.4475741E+000  0.1799745E+03  0.7818608E-02  0.1167828E+00
         21   -1    0    0  501  502  0.00000000000E+00  0.00000000000E+00  0.52269913766E+03  0.52269913766E+03  0.00000000000E+00 0.  1.
         21   -1    0    0  502  503 -0.00000000000E+00 -0.00000000000E+00 -0.68095110514E+02  0.68095110514E+02  0.00000000000E+00 0. -1.
          6    1    1    2  501    0  0.52413169515E+02  0.77259401058E+01  0.31590776113E+03  0.36357742508E+03  0.17200000000E+03 0.  1.
         -6    1    1    2    0  503 -0.52413169515E+02 -0.77259401058E+01  0.13869626602E+03  0.22721682310E+03  0.17200000000E+03 0. -1.
</event>
<event>
 4    1  0.4475741E+000  0.1973861E+03  0.7818608E-02  0.1151963E+00
         21   -1    0    0  503  502  0.00000000000E+00  0.00000000000E+00  0.13623823221E+04  0.13623823221E+04  0.00000000000E+00 0. -1.
         21   -1    0    0  501  503 -0.00000000000E+00 -0.00000000000E+00 -0.78905546283E+02  0.78905546283E+02  0.00000000000E+00 0. -1.
          6    1    1    2  501    0 -0.75580947097E+02 -0.60537414081E+02  0.66319626406E+02  0.20822956302E+03  0.17200000000E+03 0. -1.
         -6    1    1    2    0  502  0.75580947097E+02  0.60537414081E+02  0.12171571494E+04  0.12330583054E+04  0.17200000000E+03 0. -1.
</event>
<event>
 4    1  0.4475741E+000  0.2137396E+03  0.7818608E-02  0.1138638E+00
         21   -1    0    0  501  502  0.00000000000E+00  0.00000000000E+00  0.19880873039E+03  0.19880873039E+03  0.00000000000E+00 0. -1.
         21   -1    0    0  502  503 -0.00000000000E+00 -0.00000000000E+00 -0.24194114165E+03  0.24194114165E+03  0.00000000000E+00 0. -1.
          6    1    1    2  501    0  0.12541861307E+03  0.19256215504E+02  0.27817357379E+02  0.21554219009E+03  0.17200000000E+03 0. -1.
         -6    1    1    2    0  503 -0.12541861307E+03 -0.19256215504E+02 -0.70949768642E+02  0.22520768195E+03  0.17200000000E+03 0. -1.
</event>
<event>
 4    1  0.4475741E+000  0.1794203E+03  0.7818608E-02  0.1168365E+00
         21   -1    0    0  503  502  0.00000000000E+00  0.00000000000E+00  0.10275327277E+03  0.10275327277E+03  0.00000000000E+00 0. -1.
         21   -1    0    0  501  503 -0.00000000000E+00 -0.00000000000E+00 -0.87917320773E+03  0.87917320773E+03  0.00000000000E+00 0.  1.
          6    1    1    2  501    0 -0.71678981632E+01  0.50559522500E+02 -0.78209990964E+03  0.80241629641E+03  0.17200000000E+03 0.  1.
         -6    1    1    2    0  502  0.71678981632E+01 -0.50559522500E+02  0.56799746830E+01  0.17951018409E+03  0.17200000000E+03 0. -1.
</event>
<event>
 4    1  0.4475741E+000  0.1814028E+03  0.7818608E-02  0.1166452E+00
         21   -1    0    0  503  502  0.00000000000E+00  0.00000000000E+00  0.44472661770E+03  0.44472661770E+03  0.00000000000E+00 0.  1.
         21   -1    0    0  501  503 -0.00000000000E+00 -0.00000000000E+00 -0.14647501668E+03  0.14647501668E+03  0.00000000000E+00 0.  1.
          6    1    1    2  501    0  0.33505695022E+02 -0.46907936506E+02 -0.58813590083E+02  0.19069877945E+03  0.17200000000E+03 0. -1.
         -6    1    1    2    0  502 -0.33505695022E+02  0.46907936506E+02  0.35706519110E+03  0.40050285492E+03  0.17200000000E+03 0. -1.
</event>
<event>
 4    1  0.4475741E+000  0.3523276E+03  0.7818608E-02  0.1061664E+00
         21   -1    0    0  503  502  0.00000000000E+00  0.00000000000E+00  0.12475490108E+04  0.12475490108E+04  0.00000000000E+00 0.  1.
         21   -1    0    0  501  503 -0.00000000000E+00 -0.00000000000E+00 -0.26520315148E+03  0.26520315148E+03  0.00000000000E+00 0.  1.
          6    1    1    2  501    0 -0.12745055279E+02  0.30722676558E+03 -0.10670160225E+03  0.36813034899E+03  0.17200000000E+03 0.  1.
         -6    1    1    2    0  502  0.12745055279E+02 -0.30722676558E+03  0.10890474616E+04  0.11446218133E+04  0.17200000000E+03 0.  1.
</event>
<event>
 4    1  0.4475741E+000  0.1915831E+03  0.7818608E-02  0.1157041E+00
         21   -1    0    0  503  502  0.00000000000E+00  0.00000000000E+00  0.24655545758E+03  0.24655545758E+03  0.00000000000E+00 0.  1.
         21   -1    0    0  501  503 -0.00000000000E+00 -0.00000000000E+00 -0.88326912915E+03  0.88326912915E+03  0.00000000000E+00 0.  1.
          6    1    1    2  501    0  0.84087319580E+02  0.70278695979E+01 -0.83346845616E+03  0.85520391467E+03  0.17200000000E+03 0.  1.
         -6    1    1    2    0  502 -0.84087319580E+02 -0.70278695979E+01  0.19675478459E+03  0.27462067206E+03  0.17200000000E+03 0.  1.
</event>
<event>
 4    1  0.4475741E+000  0.2106237E+03  0.7818608E-02  0.1141073E+00
         21   -1    0    0  501  502  0.00000000000E+00  0.00000000000E+00  0.72082794567E+03  0.72082794567E+03  0.00000000000E+00 0.  1.
         21   -1    0    0  502  503 -0.00000000000E+00 -0.00000000000E+00 -0.87308558177E+02  0.87308558177E+02  0.00000000000E+00 0.  1.
          6    1    1    2  501    0 -0.27277525922E+02 -0.11846645350E+03  0.53626288552E+03  0.57614255737E+03  0.17200000000E+03 0.  1.
         -6    1    1    2    0  503  0.27277525922E+02  0.11846645350E+03  0.97256501972E+02  0.23199394648E+03  0.17200000000E+03 0.  1.
</event>
<event>
 4    1  0.4475741E+000  0.1854257E+03  0.7818608E-02  0.1162653E+00
         21   -1    0    0  501  502  0.00000000000E+00  0.00000000000E+00  0.15483117135E+03  0.15483117135E+03  0.00000000000E+00 0. -1.
         21   -1    0    0  502  503 -0.00000000000E+00 -0.00000000000E+00 -0.22207617604E+03  0.22207617604E+03  0.00000000000E+00 0. -1.
          6    1    1    2  501    0 -0.56379631778E+02  0.40249334876E+02 -0.34925050903E+02  0.18868606472E+03  0.17200000000E+03 0. -1.
         -6    1    1    2    0  503  0.56379631778E+02 -0.40249334876E+02 -0.32319953782E+02  0.18822128267E+03  0.17200000000E+03 0. -1.
</event>
<event>
 4    1  0.4475741E+000  0.1952868E+03  0.7818608E-02  0.1153778E+00
         21   -1    0    0  501  502  0.00000000000E+00  0.00000000000E+00  0.59558262521E+02  0.59558262521E+02  0.00000000000E+00 0. -1.
         21   -1    0    0  502  503 -0.00000000000E+00 -0.00000000000E+00 -0.67563930310E+03  0.67563930310E+03  0.00000000000E+00 0. -1.
          6    1    1    2  501    0 -0.82310217206E+02  0.42166016803E+02 -0.39207565830E+03  0.43801856885E+03  0.17200000000E+03 0. -1.
         -6    1    1    2    0  503  0.82310217206E+02 -0.42166016803E+02 -0.22400538228E+03  0.29717899677E+03  0.17200000000E+03 0. -1.
</event>
<event>
 4    1  0.4475741E+000  0.1782615E+03  0.7818608E-02  0.1169496E+00
         21   -1    0    0  501  502  0.00000000000E+00  0.00000000000E+00  0.41154964300E+02  0.41154964300E+02  0.00000000000E+00 0.  1.
         21   -1    0    0  502  503 -0.00000000000E+00 -0.00000000000E+00 -0.17410813538E+04  0.17410813538E+04  0.00000000000E+00 0.  1.
          6    1    1    2  501    0 -0.34027970058E+02 -0.32175609157E+02 -0.18518661019E+03  0.25704329045E+03  0.17200000000E+03 0.  1.
         -6    1    1    2    0  503  0.34027970058E+02  0.32175609157E+02 -0.15147397793E+04  0.15251930276E+04  0.17200000000E+03 0.  1.
</event>
<event>
 4    1  0.4475741E+000  0.1881988E+03  0.7818608E-02  0.1160096E+00
         21   -1    0    0  501  502  0.00000000000E+00  0.00000000000E+00  0.77607761328E+02  0.77607761328E+02  0.00000000000E+00 0. -1.
         21   -1    0    0  502  503 -0.00000000000E+00 -0.00000000000E+00 -0.56112203963E+03  0.56112203963E+03  0.00000000000E+00 0. -1.
          6    1    1    2  501    0  0.12571211770E+02 -0.75344307924E+02 -0.37973661551E+03  0.42381446089E+03  0.17200000000E+03 0. -1.
         -6    1    1    2    0  503 -0.12571211770E+02  0.75344307924E+02 -0.10377766279E+03  0.21491534007E+03  0.17200000000E+03 0. -1.
</event>
<event>
 4    1  0.4475741E+000  0.1942293E+03  0.7818608E-02  0.1154701E+00
         21   -1    0    0  503  502  0.00000000000E+00  0.00000000000E+00  0.24772778095E+03  0.24772778095E+03  0.00000000000E+00 0. -1.
         21   -1    0    0  501  503 -0.00000000000E+00 -0.00000000000E+00 -0.15366296101E+03  0.15366296101E+03  0.00000000000E+00 0.  1.
          6    1    1    2  501    0  0.83086443747E+02 -0.35180584346E+02  0.66042969307E+02  0.20515044344E+03  0.17200000000E+03 0. -1.
         -6    1    1    2    0  502 -0.83086443747E+02  0.35180584346E+02  0.28021850637E+02  0.19624029852E+03  0.17200000000E+03 0.  1.
</event>
<event>
 4    1  0.4475741E+000  0.1916422E+03  0.7818608E-02  0.1156988E+00
         21   -1    0    0  501  502  0.00000000000E+00  0.00000000000E+00  0.17653504537E+03  0.17653504537E+03  0.00000000000E+00 0.  1.
         21   -1    0    0  502  503 -0.00000000000E+00 -0.00000000000E+00 -0.20994585742E+03  0.20994585742E+03  0.00000000000E+00 0. -1.
          6    1    1    2  501    0 -0.19968047704E+02 -0.82122029406E+02  0.16951693108E+01  0.19164974365E+03  0.17200000000E+03 0.  1.
         -6    1    1    2    0  503  0.19968047704E+02  0.82122029406E+02 -0.35105981359E+02  0.19483115914E+03  0.17200000000E+03 0.  1.
</event>
<event>
 4    1  0.4475741E+000  0.2353864E+03  0.7818608E-02  0.1122905E+00
         21   -1    0    0  501  502  0.00000000000E+00  0.00000000000E+00  0.13304124730E+03  0.13304124730E+03  0.00000000000E+00 0. -1.
         21   -1    0    0  502  503 -0.00000000000E+00 -0.00000000000E+00 -0.59240369011E+03  0.59240369011E+03  0.00000000000E+00 0. -1.
          6    1    1    2  501    0 -0.22749870295E+02  0.15907609340E+03 -0.32007609533E+02  0.23755261976E+03  0.17200000000E+03 0. -1.
         -6    1    1    2    0  503  0.22749870295E+02 -0.15907609340E+03 -0.42735483328E+03  0.48789231765E+03  0.17200000000E+03 0. -1.
</event>
<event>
 4    1  0.4475741E+000  0.2465977E+03  0.7818608E-02  0.1115474E+00
         21   -1    0    0  503  502  0.00000000000E+00  0.00000000000E+00  0.10716683591E+03  0.10716683591E+03  0.00000000000E+00 0. -1.
         21   -1    0    0  501  503 -0.00000000000E+00 -0.00000000000E+00 -0.56748296774E+03  0.56748296774E+03  0.00000000000E+00 0. -1.
          6    1    1    2  501    0 -0.17668245995E+03 -0.31195726543E+01 -0.23319542340E+03  0.33939730241E+03  0.17200000000E+03 0. -1.
         -6    1    1    2    0  502  0.17668245995E+03  0.31195726543E+01 -0.22712070843E+03  0.33525250123E+03  0.17200000000E+03 0. -1.
</event>
<event>
 4    1  0.4475741E+000  0.2055318E+03  0.7818608E-02  0.1145154E+00
         21   -1    0    0  503  502  0.00000000000E+00  0.00000000000E+00  0.91702947654E+03  0.91702947654E+03  0.00000000000E+00 0.  1.
         21   -1    0    0  501  503 -0.00000000000E+00 -0.00000000000E+00 -0.12005645089E+03  0.12005645089E+03  0.00000000000E+00 0. -1.
          6    1    1    2  501    0 -0.10799648585E+03  0.31560882890E+02 -0.85951979841E+01  0.20571146714E+03  0.17200000000E+03 0. -1.
         -6    1    1    2    0  502  0.10799648585E+03 -0.31560882890E+02  0.80556822363E+03  0.83137446028E+03  0.17200000000E+03 0.  1.
</event>
<event>
 4    1  0.4475741E+000  0.3275388E+03  0.7818608E-02  0.1072231E+00
         21   -1    0    0  503  502  0.00000000000E+00  0.00000000000E+00  0.85643790527E+03  0.85643790527E+03  0.00000000000E+00 0.  1.
         21   -1    0    0  501  503 -0.00000000000E+00 -0.00000000000E+00 -0.20007941811E+03  0.20007941811E+03  0.00000000000E+00 0.  1.
          6    1    1    2  501    0  0.23381125098E+03 -0.15175625486E+03  0.51527231055E+01  0.32757932250E+03  0.17200000000E+03 0.  1.
         -6    1    1    2    0  502 -0.23381125098E+03  0.15175625486E+03  0.65120576406E+03  0.72893800088E+03  0.17200000000E+03 0.  1.
</event>
<event>
 4    1  0.4475741E+000  0.1816930E+03  0.7818608E-02  0.1166175E+00
         21   -1    0    0  503  502  0.00000000000E+00  0.00000000000E+00  0.17914737223E+04  0.17914737223E+04  0.00000000000E+00 0.  1.
         21   -1    0    0  501  503 -0.00000000000E+00 -0.00000000000E+00 -0.67949005374E+02  0.67949005374E+02  0.00000000000E+00 0.  1.
          6    1    1    2  501    0 -0.74880168374E+01  0.58071154865E+02  0.68067375419E+02  0.19402447531E+03  0.17200000000E+03 0.  1.
         -6    1    1    2    0  502  0.74880168374E+01 -0.58071154865E+02  0.16554573415E+04  0.16653982523E+04  0.17200000000E+03 0.  1.
</event>
<event>
 4    1  0.4475741E+000  0.1950283E+03  0.7818608E-02  0.1154003E+00
         21   -1    0    0  503  502  0.00000000000E+00  0.00000000000E+00  0.13580281087E+03  0.13580281087E+03  0.00000000000E+00 0.  1.
         21   -1    0    0  501  503 -0.00000000000E+00 -0.00000000000E+00 -0.28010501053E+03  0.28010501053E+03  0.00000000000E+00 0.  1.
          6    1    1    2  501    0 -0.31081224389E+01 -0.91882500906E+02 -0.73995829033E+02  0.20859395272E+03  0.17200000000E+03 0.  1.
         -6    1    1    2    0  502  0.31081224389E+01  0.91882500906E+02 -0.70306370621E+02  0.20731386868E+03  0.17200000000E+03 0.  1.
</event>
<event>
 4    1  0.4475741E+000  0.1799174E+03  0.7818608E-02  0.1167883E+00
         21   -1    0    0  503  502  0.00000000000E+00  0.00000000000E+00  0.41492729054E+02  0.41492729054E+02  0.00000000000E+00 0.  1.
         21   -1    0    0  501  503 -0.00000000000E+00 -0.00000000000E+00 -0.87752915374E+03  0.87752915374E+03  0.00000000000E+00 0.  1.
          6    1    1    2  501    0 -0.51735715156E+02  0.10472638430E+02 -0.57109656521E+03  0.59876668843E+03  0.17200000000E+03 0.  1.
         -6    1    1    2    0  502  0.51735715156E+02 -0.10472638430E+02 -0.26493985947E+03  0.32025519436E+03  0.17200000000E+03 0.  1.
</event>
<event>
 4    1  0.4475741E+000  0.2417560E+03  0.7818608E-02  0.1118629E+00
         21   -1    0    0  501  502  0.00000000000E+00  0.00000000000E+00  0.35873690062E+02  0.35873690062E+02  0.00000000000E+00 0. -1.
         21   -1    0    0  502  503 -0.00000000000E+00 -0.00000000000E+00 -0.16661012025E+04  0.16661012025E+04  0.00000000000E+00 0. -1.
          6    1    1    2  501    0 -0.92317609753E+02 -0.14261638537E+03 -0.68849411612E+03  0.72970550387E+03  0.17200000000E+03 0. -1.
         -6    1    1    2    0  503  0.92317609753E+02  0.14261638537E+03 -0.94173339628E+03  0.97226938865E+03  0.17200000000E+03 0. -1.
</event>
<event>
 4    1  0.4475741E+000  0.2348301E+03  0.7818608E-02  0.1123286E+00
         21   -1    0    0  501  502  0.00000000000E+00  0.00000000000E+00  0.29591501652E+03  0.29591501652E+03  0.00000000000E+00 0. -1.
         21   -1    0    0  502  503 -0.00000000000E+00 -0.00000000000E+00 -0.88908362760E+03  0.88908362760E+03  0.00000000000E+00 0.  1.
          6    1    1    2  501    0 -0.93765355495E+02 -0.12949610503E+03  0.23017284150E+03  0.32882323530E+03  0.17200000000E+03 0. -1.
         -6    1    1    2    0  503  0.93765355495E+02  0.12949610503E+03 -0.82334145258E+03  0.85617540881E+03  0.17200000000E+03 0.  1.
</event>
<event>
 4    1  0.4475741E+000  0.2199268E+03  0.7818608E-02  0.1133938E+00
         21   -1    0    0  503  502  0.00000000000E+00  0.00000000000E+00  0.63713128742E+03  0.63713128742E+03  0.00000000000E+00 0.  1.
         21   -1    0    0  501  503 -0.00000000000E+00 -0.00000000000E+00 -0.76190834930E+02  0.76190834930E+02  0.00000000000E+00 0.  1.
          6    1    1    2  501    0  0.87661228367E+01 -0.13677334513E+03  0.30193194947E+03  0.37353807698E+03  0.17200000000E+03 0.  1.
         -6    1    1    2    0  502 -0.87661228367E+01  0.13677334513E+03  0.25900850302E+03  0.33978404537E+03  0.17200000000E+03 0.  1.
</event>
<event>
 4    1  0.4475741E+000  0.2421308E+03  0.7818608E-02  0.1118381E+00
         21   -1    0    0  501  502  0.00000000000E+00  0.00000000000E+00  0.25616826918E+03  0.25616826918E+03  0.00000000000E+00 0.  1.
         21   -1    0    0  502  503 -0.00000000000E+00 -0.00000000000E+00 -0.23335366612E+03  0.23335366612E+03  0.00000000000E+00 0. -1.
          6    1    1    2  501    0 -0.16778389965E+03 -0.29864702039E+02 -0.22548135873E+02  0.24317844444E+03  0.17200000000E+03 0. -1.
         -6    1    1    2    0  503  0.16778389965E+03  0.29864702039E+02  0.45362738931E+02  0.24634349087E+03  0.17200000000E+03 0.  1.
</event>
<event>
 4    1  0.4475741E+000  0.1827908E+03  0.7818608E-02  0.1165129E+00
         21   -1    0    0  501  502  0.00000000000E+00  0.00000000000E+00  0.71472066494E+03  0.71472066494E+03  0.00000000000E+00 0. -1.
         21   -1    0    0  502  503 -0.00000000000E+00 -0.00000000000E+00 -0.60238490962E+02  0.60238490962E+02  0.00000000000E+00 0. -1.
          6    1    1    2  501    0 -0.16290811127E+02 -0.59691711248E+02  0.51060304129E+03  0.54233564947E+03  0.17200000000E+03 0. -1.
         -6    1    1    2    0  503  0.16290811127E+02  0.59691711248E+02  0.14387913269E+03  0.23262350643E+03  0.17200000000E+03 0. -1.
</event>
<event>
 4    1  0.4475741E+000  0.1734483E+03  0.7818608E-02  0.1174299E+00
         21   -1    0    0  501  502  0.00000000000E+00  0.00000000000E+00  0.18778671995E+03  0.18778671995E+03  0.00000000000E+00 0.  1.
         21   -1    0    0  502  503 -0.00000000000E+00 -0.00000000000E+00 -0.17521233172E+03  0.17521233172E+03  0.00000000000E+00 0.  1.
          6    1    1    2  501    0 -0.69819671466E+01 -0.21250029836E+02  0.59406147784E+02  0.18333958118E+03  0.17200000000E+03 0.  1.
         -6    1    1    2    0  503  0.69819671466E+01  0.21250029836E+02 -0.46831759553E+02  0.17965947049E+03  0.17200000000E+03 0.  1.
</event>
<event>
 4    1  0.4475741E+000  0.1782754E+03  0.7818608E-02  0.1169483E+00
         21   -1    0    0  501  502  0.00000000000E+00  0.00000000000E+00  0.22187691525E+04  0.22187691525E+04  0.00000000000E+00 0.  1.
         21   -1    0    0  502  503 -0.00000000000E+00 -0.00000000000E+00 -0.23765810996E+02  0.23765810996E+02  0.00000000000E+00 0.  1.
          6    1    1    2  501    0  0.44587691010E+02  0.14493192089E+02  0.18042352624E+04  0.18130215104E+04  0.17200000000E+03 0.  1.
         -6    1    1    2    0  503 -0.44587691010E+02 -0.14493192089E+02  0.39076807906E+03  0.42951345313E+03  0.17200000000E+03 0.  1.
</event>
<event>
 4    1  0.4475741E+000  0.2321297E+03  0.7818608E-02  0.1125150E+00
         21   -1    0    0  501  502  0.00000000000E+00  0.00000000000E+00  0.10978412559E+04  0.10978412559E+04  0.00000000000E+00 0.  1.
         21   -1    0    0  502  503 -0.00000000000E+00 -0.00000000000E+00 -0.24419283671E+03  0.24419283671E+03  0.00000000000E+00 0.  1.
          6    1    1    2  501    0  0.15566640263E+03  0.82550377867E+01  0.10266261406E+04  0.10525423541E+04  0.17200000000E+03 0.  1.
         -6    1    1    2    0  503 -0.15566640263E+03 -0.82550377867E+01 -0.17297772143E+03  0.28949173852E+03  0.17200000000E+03 0.  1.
</event>
<event>
 4    1  0.4475741E+000  0.1842006E+03  0.7818608E-02  0.1163799E+00
         21   -1    0    0  501  502  0.00000000000E+00  0.00000000000E+00  0.24649045244E+03  0.24649045244E+03  0.00000000000E+00 0. -1.
         21   -1    0    0  502  503 -0.00000000000E+00 -0.00000000000E+00 -0.16782171984E+03  0.16782171984E+03  0.00000000000E+00 0. -1.
          6    1    1    2  501    0 -0.49317258038E+02  0.43745422812E+02  0.12716797095E+03  0.22383374811E+03  0.17200000000E+03 0. -1.
         -6    1    1    2    0  503  0.49317258038E+02 -0.43745422812E+02 -0.48499238348E+02  0.19047842418E+03  0.17200000000E+03 0. -1.
</event>
<event>
 4    1  0.4475741E+000  0.1895556E+03  0.7818608E-02  0.1158863E+00
         21   -1    0    0  503  502  0.00000000000E+00  0.00000000000E+00  0.26664202977E+03  0.26664202977E+03  0.00000000000E+00 0.  1.
         21   -1    0    0  501  503 -0.00000000000E+00 -0.00000000000E+00 -0.15460614958E+03  0.15460614958E+03  0.00000000000E+00 0.  1.
          6    1    1    2  501    0  0.84771714340E+01 -0.79217842760E+02 -0.19454469343E+02  0.19055131966E+03  0.17200000000E+03 0.  1.
         -6    1    1    2    0  502 -0.84771714340E+01  0.79217842760E+02  0.13149034954E+03  0.23069685969E+03  0.17200000000E+03 0.  1.
</event>
<event>
 4    1  0.4475741E+000  0.2475158E+03  0.7818608E-02  0.1114885E+00
         21   -1    0    0  501  502  0.00000000000E+00  0.00000000000E+00  0.63131790916E+03  0.63131790916E+03  0.00000000000E+00 0. -1.
         21   -1    0    0  502  503 -0.00000000000E+00 -0.00000000000E+00 -0.11472478466E+03  0.11472478466E+03  0.00000000000E+00 0.  1.
          6    1    1    2  501    0 -0.17599967176E+03  0.26536486016E+02  0.40474538805E+03  0.47442902387E+03  0.17200000000E+03 0. -1.
         -6    1    1    2    0  503  0.17599967176E+03 -0.26536486016E+02  0.11184773646E+03  0.27161366995E+03  0.17200000000E+03 0.  1.
</event>
<event>
 4    1  0.4475741E+000  0.2569997E+03  0.7818608E-02  0.1108959E+00
         21   -1    0    0  501  502  0.00000000000E+00  0.00000000000E+00  0.40180049183E+03  0.40180049183E+03  0.00000000000E+00 0. -1.
         21   -1    0    0  502  503 -0.00000000000E+00 -0.00000000000E+00 -0.16718252257E+03  0.16718252257E+03  0.00000000000E+00 0. -1.
          6    1    1    2  501    0 -0.30470099778E+02  0.18851099365E+03  0.15412892911E+03  0.29967407044E+03  0.17200000000E+03 0. -1.
         -6    1    1    2    0  503  0.30470099778E+02 -0.18851099365E+03  0.80489040161E+02  0.26930894396E+03  0.17200000000E+03 0. -1.
</event>
<event>
 4    1  0.4475741E+000  0.1838558E+03  0.7818608E-02  0.1164123E+00
         21   -1    0    0  501  502  0.00000000000E+00  0.00000000000E+00  0.47322083070E+03  0.47322083070E+03  0.00000000000E+00 0. -1.
         21   -1    0    0  502  503 -0.00000000000E+00 -0.00000000000E+00 -0.18279264182E+03  0.18279264182E+03  0.00000000000E+00 0. -1.
          6    1    1    2  501    0 -0.52788098565E+02 -0.37846739740E+02 -0.11080354816E+03  0.21466342339E+03  0.17200000000E+03 0. -1.
         -6    1    1    2    0  503  0.52788098565E+02  0.37846739740E+02  0.40123173703E+03  0.44135004912E+03  0.17200000000E+03 0. -1.
</event>
<event>
 4    1  0.4475741E+000  0.1915288E+03  0.7818608E-02  0.1157090E+00
         21   -1    0    0  503  502  0.00000000000E+00  0.00000000000E+00  0.29817989083E+02  0.29817989083E+02  0.00000000000E+00 0. -1.
         21   -1    0    0  501  503 -0.00000000000E+00 -0.00000000000E+00 -0.19765864231E+04  0.19765864231E+04  0.00000000000E+00 0. -1.
          6    1    1    2  501    0  0.42609687025E+02 -0.72689007806E+02 -0.15898384756E+04  0.16013337116E+04  0.17200000000E+03 0. -1.
         -6    1    1    2    0  502 -0.42609687025E+02  0.72689007806E+02 -0.35692995838E+03  0.40507070059E+03  0.17200000000E+03 0. -1.
</event>
<event>
 4    1  0.4475741E+000  0.2065280E+03  0.7818608E-02  0.1144345E+00
         21   -1    0    0  503  502  0.00000000000E+00  0.00000000000E+00  0.13554021657E+03  0.13554021657E+03  0.00000000000E+00 0.  1.
         21   -1    0    0  501  503 -0.00000000000E+00 -0.00000000000E+00 -0.31984159120E+03  0.31984159120E+03  0.00000000000E+00 0.  1.
          6    1    1    2  501    0  0.47610542435E+02  0.10393778081E+03 -0.12103345475E+03  0.23938028991E+03  0.17200000000E+03 0.  1.
         -6    1    1    2    0  502 -0.47610542435E+02 -0.10393778081E+03 -0.63267919887E+02  0.21600151786E+03  0.17200000000E+03 0.  1.
</event>
<event>
 4    1  0.4475741E+000  0.2178365E+03  0.7818608E-02  0.1135506E+00
         21   -1    0    0  501  502  0.00000000000E+00  0.00000000000E+00  0.51461362717E+03  0.51461362717E+03  0.00000000000E+00 0.  1.
         21   -1    0    0  502  503 -0.00000000000E+00 -0.00000000000E+00 -0.14867574064E+03  0.14867574064E+03  0.00000000000E+00 0.  1.
          6    1    1    2  501    0 -0.11891997411E+03  0.61047419895E+02  0.38735149486E+03  0.44440288961E+03  0.17200000000E+03 0.  1.
         -6    1    1    2    0  503  0.11891997411E+03 -0.61047419895E+02 -0.21413608330E+02  0.21888647820E+03  0.17200000000E+03 0.  1.
</event>
<event>
 4    1  0.4475741E+000  0.1844495E+03  0.7818608E-02  0.1163565E+00
         21   -1    0    0  503  502  0.00000000000E+00  0.00000000000E+00  0.46825293259E+02  0.46825293259E+02  0.00000000000E+00 0. -1.
         21   -1    0    0  501  503 -0.00000000000E+00 -0.00000000000E+00 -0.92920738302E+03  0.92920738302E+03  0.00000000000E+00 0. -1.
          6    1    1    2  501    0 -0.63815751371E+02  0.19109395231E+02 -0.66909044390E+03  0.69404873116E+03  0.17200000000E+03 0. -1.
         -6    1    1    2    0  502  0.63815751371E+02 -0.19109395231E+02 -0.21329164586E+03  0.28198394512E+03  0.17200000000E+03 0. -1.
</event>
<event>
 4    1  0.4475741E+000  0.1865725E+03  0.7818608E-02  0.1161590E+00
         21   -1    0    0  501  502  0.00000000000E+00  0.00000000000E+00  0.19188731496E+03  0.19188731496E+03  0.00000000000E+00 0. -1.
         21   -1    0    0  502  503 -0.00000000000E+00 -0.00000000000E+00 -0.22455833310E+03  0.22455833310E+03  0.00000000000E+00 0.  1.
          6    1    1    2  501    0 -0.55685247055E+01  0.72071400785E+02  0.74943627368E+02  0.20106178792E+03  0.17200000000E+03 0. -1.
         -6    1    1    2    0  503  0.55685247055E+01 -0.72071400785E+02 -0.10761464551E+03  0.21538386014E+03  0.17200000000E+03 0.  1.
</event>
<event>
 4    1  0.4475741E+000  0.2071175E+03  0.7818608E-02  0.1143869E+00
         21   -1    0    0  503  502  0.00000000000E+00  0.00000000000E+00  0.15339876934E+04  0.15339876934E+04  0.00000000000E+00 0.  1.
         21   -1    0    0  501  503 -0.00000000000E+00 -0.00000000000E+00 -0.28012564459E+02  0.28012564459E+02  0.00000000000E+00 0. -1.
          6    1    1    2  501    0 -0.32550269027E+01  0.11533884970E+03  0.72073476664E+03  0.74990416007E+03  0.17200000000E+03 0. -1.
         -6    1    1    2    0  502  0.32550269027E+01 -0.11533884970E+03  0.78524036227E+03  0.81209609776E+03  0.17200000000E+03 0.  1.
</event>
<event>
 4    1  0.4475741E+000  0.3822788E+03  0.7818608E-02  0.1050095E+00
         21   -1    0    0  501  502  0.00000000000E+00  0.00000000000E+00  0.16367022556E+04  0.16367022556E+04  0.00000000000E+00 0.  1.
         21   -1    0    0  502  503 -0.00000000000E+00 -0.00000000000E+00 -0.10881315937E+03  0.10881315937E+03  0.00000000000E+00 0.  1.
          6    1    1    2  501    0 -0.28210298946E+03  0.19227835096E+03  0.11336499370E+04  0.11963691908E+04  0.17200000000E+03 0.  1.
         -6    1    1    2    0  503  0.28210298946E+03 -0.19227835096E+03  0.39423915920E+03  0.54914622420E+03  0.17200000000E+03 0.  1.
</event>
<event>
 4    1  0.4475741E+000  0.2301288E+03  0.7818608E-02  0.1126549E+00
         21   -1    0    0  503  502  0.00000000000E+00  0.00000000000E+00  0.18801299527E+03  0.18801299527E+03  0.00000000000E+00 0. -1.
         21   -1    0    0  501  503 -0.00000000000E+00 -0.00000000000E+00 -0.35981752800E+03  0.35981752800E+03  0.00000000000E+00 0. -1.
          6    1    1    2  501    0 -0.14684967948E+03  0.42549163891E+02 -0.21354863538E+03  0.31394630016E+03  0.17200000000E+03 0. -1.
         -6    1    1    2    0  502  0.14684967948E+03 -0.42549163891E+02  0.41744102655E+02  0.23388422310E+03  0.17200000000E+03 0. -1.
</event>
<event>
 4    1  0.4475741E+000  0.2041192E+03  0.7818608E-02  0.1146309E+00
         21   -1    0    0  501  502  0.00000000000E+00  0.00000000000E+00  0.98086962069E+02  0.98086962069E+02  0.00000000000E+00 0. -1.
         21   -1    0    0  502  503 -0.00000000000E+00 -0.00000000000E+00 -0.42831177010E+03  0.42831177010E+03  0.00000000000E+00 0.  1.
          6    1    1    2  501    0  0.50522898465E+02 -0.97611929661E+02 -0.18903766549E+03  0.27820835907E+03  0.17200000000E+03 0. -1.
         -6    1    1    2    0  503 -0.50522898465E+02  0.97611929661E+02 -0.14118714254E+03  0.24819037310E+03  0.17200000000E+03 0.  1.
</event>
<event>
 4    1  0.4475741E+000  0.2243553E+03  0.7818608E-02  0.1130677E+00
         21   -1    0    0  501  502  0.00000000000E+00  0.00000000000E+00  0.13327282120E+03  0.13327282120E+03  0.00000000000E+00 0.  1.
         21   -1    0    0  502  503 -0.00000000000E+00 -0.00000000000E+00 -0.37796839280E+03  0.37796839280E+03  0.00000000000E+00 0.  1.
          6    1    1    2  501    0  0.13314132671E+03 -0.54997237516E+02 -0.12933204327E+03  0.25896348474E+03  0.17200000000E+03 0.  1.
         -6    1    1    2    0  503 -0.13314132671E+03  0.54997237516E+02 -0.11536352833E+03  0.25227772926E+03  0.17200000000E+03 0.  1.
</event>
<event>
 4    1  0.4475741E+000  0.1824627E+03  0.7818608E-02  0.1165441E+00
         21   -1    0    0  503  502  0.00000000000E+00  0.00000000000E+00  0.43925746833E+03  0.43925746833E+03  0.00000000000E+00 0. -1.
         21   -1    0    0  501  503 -0.00000000000E+00 -0.00000000000E+00 -0.10816284994E+03  0.10816284994E+03  0.00000000000E+00 0. -1.
          6    1    1    2  501    0 -0.13705777853E+02 -0.59336218240E+02  0.15812665563E+02  0.18314659575E+03  0.17200000000E+03 0. -1.
         -6    1    1    2    0  502  0.13705777853E+02  0.59336218240E+02  0.31528195282E+03  0.36427372252E+03  0.17200000000E+03 0. -1.
</event>
<event>
 4    1  0.4475741E+000  0.1996182E+03  0.7818608E-02  0.1150062E+00
         21   -1    0    0  501  502  0.00000000000E+00  0.00000000000E+00  0.22486569390E+02  0.22486569390E+02  0.00000000000E+00 0.  1.
         21   -1    0    0  502  503 -0.00000000000E+00 -0.00000000000E+00 -0.17875814597E+04  0.17875814597E+04  0.00000000000E+00 0.  1.
          6    1    1    2  501    0  0.37038094531E+02 -0.94295245557E+02 -0.79819783291E+03  0.82278016155E+03  0.17200000000E+03 0. -1.
         -6    1    1    2    0  503 -0.37038094531E+02  0.94295245557E+02 -0.96689705743E+03  0.98728786757E+03  0.17200000000E+03 0. -1.
</event>
<event>
 4    1  0.4475741E+000  0.2046834E+03  0.7818608E-02  0.1145847E+00
         21   -1    0    0  503  502  0.00000000000E+00  0.00000000000E+00  0.21526153363E+04  0.21526153363E+04  0.00000000000E+00 0.  1.
         21   -1    0    0  501  503 -0.00000000000E+00 -0.00000000000E+00 -0.34234355980E+02  0.34234355980E+02  0.00000000000E+00 0.  1.
          6    1    1    2  501    0  0.70629640553E+02  0.85573027846E+02  0.34094104512E+03  0.39766328152E+03  0.17200000000E+03 0.  1.
         -6    1    1    2    0  502 -0.70629640553E+02 -0.85573027846E+02  0.17774399352E+04  0.17891864108E+04  0.17200000000E+03 0.  1.
</event>
<event>
 4    1  0.4475741E+000  0.2017555E+03  0.7818608E-02  0.1148266E+00
         21   -1    0    0  501  502  0.00000000000E+00  0.00000000000E+00  0.12092159252E+04  0.12092159252E+04  0.00000000000E+00 0.  1.
         21   -1    0    0  502  503 -0.00000000000E+00 -0.00000000000E+00 -0.33815622484E+02  0.33815622484E+02  0.00000000000E+00 0.  1.
          6    1    1    2  501    0 -0.71521016418E+02 -0.77498606042E+02  0.62951631207E+03  0.66105678794E+03  0.17200000000E+03 0.  1.
         -6    1    1    2    0  503  0.71521016418E+02  0.77498606042E+02  0.54588399066E+03  0.58197475975E+03  0.17200000000E+03 0.  1.
</event>
<event>
 4    1  0.4475741E+000  0.1781663E+03  0.7818608E-02  0.1169590E+00
         21   -1    0    0  503  502  0.00000000000E+00  0.00000000000E+00  0.30079979024E+03  0.30079979024E+03  0.00000000000E+00 0.  1.
         21   -1    0    0  501  503 -0.00000000000E+00 -0.00000000000E+00 -0.28757841573E+03  0.28757841573E+03  0.00000000000E+00 0. -1.
          6    1    1    2  501    0 -0.44980051177E+02 -0.11663597427E+02 -0.22745756617E+03  0.28892938396E+03  0.17200000000E+03 0. -1.
         -6    1    1    2    0  502  0.44980051177E+02  0.11663597427E+02  0.24067894068E+03  0.29944882200E+03  0.17200000000E+03 0.  1.
</event>
<event>
 4    1  0.4475741E+000  0.2008235E+03  0.7818608E-02  0.1149046E+00
         21   -1    0    0  501  502  0.00000000000E+00  0.00000000000E+00  0.13338907772E+03  0.13338907772E+03  0.00000000000E+00 0. -1.
         21   -1    0    0  502  503 -0.00000000000E+00 -0.00000000000E+00 -0.39392019525E+03  0.39392019525E+03  0.00000000000E+00 0.  1.
          6    1    1    2  501    0 -0.77243353426E+02  0.69134255479E+02 -0.31466204227E+01  0.20084815695E+03  0.17200000000E+03 0.  1.
         -6    1    1    2    0  503  0.77243353426E+02 -0.69134255479E+02 -0.25738449710E+03  0.32646111603E+03  0.17200000000E+03 0.  1.
</event>
<event>
 4    1  0.4475741E+000  0.2022023E+03  0.7818608E-02  0.1147894E+00
         21   -1    0    0  501  502  0.00000000000E+00  0.00000000000E+00  0.96738904023E+02  0.96738904023E+02  0.00000000000E+00 0. -1.
         21   -1    0    0  502  503 -0.00000000000E+00 -0.00000000000E+00 -0.75208741629E+03  0.75208741629E+03  0.00000000000E+00 0. -1.
          6    1    1    2  501    0 -0.10585797561E+03  0.97899890943E+01 -0.46776954706E+02  0.20754237731E+03  0.17200000000E+03 0. -1.
         -6    1    1    2    0  503  0.10585797561E+03 -0.97899890943E+01 -0.60857155756E+03  0.64128394301E+03  0.17200000000E+03 0. -1.
</event>
<event>
 4    1  0.4475741E+000  0.2997811E+03  0.7818608E-02  0.1085350E+00
         21   -1    0    0  501  502  0.00000000000E+00  0.00000000000E+00  0.50143632128E+03  0.50143632128E+03  0.00000000000E+00 0. -1.
         21   -1    0    0  502  503 -0.00000000000E+00 -0.00000000000E+00 -0.20733455345E+03  0.20733455345E+03  0.00000000000E+00 0.  1.
          6    1    1    2  501    0 -0.24493336761E+03  0.17099123056E+02  0.27754331778E+03  0.40853277448E+03  0.17200000000E+03 0.  1.
         -6    1    1    2    0  503  0.24493336761E+03 -0.17099123056E+02  0.16558450052E+02  0.30023810025E+03  0.17200000000E+03 0. -1.
</event>
<event>
 4    1  0.4475741E+000  0.1736318E+03  0.7818608E-02  0.1174113E+00
         21   -1    0    0  503  502  0.00000000000E+00  0.00000000000E+00  0.18033022273E+03  0.18033022273E+03  0.00000000000E+00 0. -1.
         21   -1    0    0  501  503 -0.00000000000E+00 -0.00000000000E+00 -0.36584531481E+03  0.36584531481E+03  0.00000000000E+00 0. -1.
          6    1    1    2  501    0 -0.23480377250E+02  0.35605634968E+01 -0.29399652548E+03  0.34144100914E+03  0.17200000000E+03 0. -1.
         -6    1    1    2    0  502  0.23480377250E+02 -0.35605634968E+01  0.10848143340E+03  0.20473452841E+03  0.17200000000E+03 0. -1.
</event>
<event>
 4    1  0.4475741E+000  0.2190438E+03  0.7818608E-02  0.1134598E+00
         21   -1    0    0  503  502  0.00000000000E+00  0.00000000000E+00  0.31552738085E+03  0.31552738085E+03  0.00000000000E+00 0. -1.
         21   -1    0    0  501  503 -0.00000000000E+00 -0.00000000000E+00 -0.28143591350E+03  0.28143591350E+03  0.00000000000E+00 0. -1.
          6    1    1    2  501    0  0.40825464210E+02  0.12934249444E+03 -0.18532546619E+03  0.28692460302E+03  0.17200000000E+03 0. -1.
         -6    1    1    2    0  502 -0.40825464210E+02 -0.12934249444E+03  0.21941693355E+03  0.31003869134E+03  0.17200000000E+03 0. -1.
</event>
<event>
 4    1  0.4475741E+000  0.1836317E+03  0.7818608E-02  0.1164334E+00
         21   -1    0    0  501  502  0.00000000000E+00  0.00000000000E+00  0.42539839396E+03  0.42539839396E+03  0.00000000000E+00 0.  1.
         21   -1    0    0  502  503 -0.00000000000E+00 -0.00000000000E+00 -0.21613856434E+03  0.21613856434E+03  0.00000000000E+00 0.  1.
          6    1    1    2  501    0  0.18442250110E+02  0.61615743305E+02  0.35988833300E+03  0.40402998483E+03  0.17200000000E+03 0.  1.
         -6    1    1    2    0  503 -0.18442250110E+02 -0.61615743305E+02 -0.15062850339E+03  0.23750697346E+03  0.17200000000E+03 0.  1.
</event>
<event>
 4    1  0.4475741E+000  0.2805135E+03  0.7818608E-02  0.1095409E+00
         21   -1    0    0  501  502  0.00000000000E+00  0.00000000000E+00  0.18957816155E+03  0.18957816155E+03  0.00000000000E+00 0. -1.
         21   -1    0    0  502  503 -0.00000000000E+00 -0.00000000000E+00 -0.43502248161E+03  0.43502248161E+03  0.00000000000E+00 0. -1.
          6    1    1    2  501    0  0.76530428690E+02 -0.20795893796E+03 -0.55835899145E+02  0.28601656250E+03  0.17200000000E+03 0. -1.
         -6    1    1    2    0  503 -0.76530428690E+02  0.20795893796E+03 -0.18960842092E+03  0.33858408066E+03  0.17200000000E+03 0. -1.
</event>
<event>
 4    1  0.4475741E+000  0.2469479E+03  0.7818608E-02  0.1115249E+00
         21   -1    0    0  501  502  0.00000000000E+00  0.00000000000E+00  0.49361764884E+02  0.49361764884E+02  0.00000000000E+00 0. -1.
         21   -1    0    0  502  503 -0.00000000000E+00 -0.00000000000E+00 -0.12683054772E+04  0.12683054772E+04  0.00000000000E+00 0. -1.
          6    1    1    2  501    0 -0.35405181962E+01  0.17716297735E+03 -0.50340826833E+03  0.56071663114E+03  0.17200000000E+03 0. -1.
         -6    1    1    2    0  503  0.35405181962E+01 -0.17716297735E+03 -0.71553544400E+03  0.75695061096E+03  0.17200000000E+03 0. -1.
</event>
<event>
 4    1  0.4475741E+000  0.1796656E+03  0.7818608E-02  0.1168127E+00
         21   -1    0    0  503  502  0.00000000000E+00  0.00000000000E+00  0.13268810380E+03  0.13268810380E+03  0.00000000000E+00 0. -1.
         21   -1    0    0  501  503 -0.00000000000E+00 -0.00000000000E+00 -0.67421152614E+03  0.67421152614E+03  0.00000000000E+00 0. -1.
          6    1    1    2  501    0  0.18303450133E+02 -0.48587091717E+02 -0.59331241869E+03  0.61991882367E+03  0.17200000000E+03 0. -1.
         -6    1    1    2    0  502 -0.18303450133E+02  0.48587091717E+02  0.51788996353E+02  0.18698080627E+03  0.17200000000E+03 0. -1.
</event>
<event>
 4    1  0.4475741E+000  0.2541814E+03  0.7818608E-02  0.1110690E+00
         21   -1    0    0  503  502  0.00000000000E+00  0.00000000000E+00  0.18002071748E+04  0.18002071748E+04  0.00000000000E+00 0. -1.
         21   -1    0    0  501  503 -0.00000000000E+00 -0.00000000000E+00 -0.45164364304E+02  0.45164364304E+02  0.00000000000E+00 0.  1.
          6    1    1    2  501    0  0.60853952440E+02  0.17697731445E+03  0.45938848427E+03  0.52501995470E+03  0.17200000000E+03 0.  1.
         -6    1    1    2    0  502 -0.60853952440E+02 -0.17697731445E+03  0.12956543262E+04  0.13203515844E+04  0.17200000000E+03 0. -1.
</event>
<event>
 4    1  0.4475741E+000  0.1761025E+03  0.7818608E-02  0.1171629E+00
         21   -1    0    0  503  502  0.00000000000E+00  0.00000000000E+00  0.53413468190E+03  0.53413468190E+03  0.00000000000E+00 0.  1.
         21   -1    0    0  501  503 -0.00000000000E+00 -0.00000000000E+00 -0.13532960779E+03  0.13532960779E+03  0.00000000000E+00 0.  1.
          6    1    1    2  501    0 -0.13679964045E+02  0.35226977076E+02 -0.53529706457E+02  0.18405844399E+03  0.17200000000E+03 0.  1.
         -6    1    1    2    0  502  0.13679964045E+02 -0.35226977076E+02  0.45233478057E+03  0.48540584570E+03  0.17200000000E+03 0.  1.
</event>
<event>
 4    1  0.4475741E+000  0.1743983E+03  0.7818608E-02  0.1173337E+00
         21   -1    0    0  501  502  0.00000000000E+00  0.00000000000E+00  0.22847222715E+03  0.22847222715E+03  0.00000000000E+00 0.  1.
         21   -1    0    0  502  503 -0.00000000000E+00 -0.00000000000E+00 -0.76944846675E+03  0.76944846675E+03  0.00000000000E+00 0.  1.
          6    1    1    2  501    0 -0.13087204863E+02 -0.25680548766E+02  0.18326134873E+03  0.25298119980E+03  0.17200000000E+03 0.  1.
         -6    1    1    2    0  503  0.13087204863E+02  0.25680548766E+02 -0.72423758833E+03  0.74493949409E+03  0.17200000000E+03 0.  1.
</event>
<event>
 4    1  0.4475741E+000  0.1938539E+03  0.7818608E-02  0.1155031E+00
         21   -1    0    0  501  502  0.00000000000E+00  0.00000000000E+00  0.57531250666E+02  0.57531250666E+02  0.00000000000E+00 0.  1.
         21   -1    0    0  502  503 -0.00000000000E+00 -0.00000000000E+00 -0.96624983492E+03  0.96624983492E+03  0.00000000000E+00 0.  1.
          6    1    1    2  501    0  0.48903747893E+02  0.74858310227E+02 -0.16299255511E+03  0.25327044081E+03  0.17200000000E+03 0.  1.
         -6    1    1    2    0  503 -0.48903747893E+02 -0.74858310227E+02 -0.74572602915E+03  0.77051064478E+03  0.17200000000E+03 0.  1.
</event>
<event>
 4    1  0.4475741E+000  0.2079364E+03  0.7818608E-02  0.1143211E+00
         21   -1    0    0  503  502  0.00000000000E+00  0.00000000000E+00  0.11276032461E+03  0.11276032461E+03  0.00000000000E+00 0. -1.
         21   -1    0    0  501  503 -0.00000000000E+00 -0.00000000000E+00 -0.38878167045E+03  0.38878167045E+03  0.00000000000E+00 0. -1.
          6    1    1    2  501    0  0.64992548318E+02 -0.97105692251E+02 -0.16738719471E+03  0.26693823210E+03  0.17200000000E+03 0. -1.
         -6    1    1    2    0  502 -0.64992548318E+02  0.97105692251E+02 -0.10863415113E+03  0.23460376296E+03  0.17200000000E+03 0. -1.
</event>
<event>
 4    1  0.4475741E+000  0.1771338E+03  0.7818608E-02  0.1170606E+00
         21   -1    0    0  501  502  0.00000000000E+00  0.00000000000E+00  0.16528019728E+03  0.16528019728E+03  0.00000000000E+00 0. -1.
         21   -1    0    0  502  503 -0.00000000000E+00 -0.00000000000E+00 -0.36544089432E+03  0.36544089432E+03  0.00000000000E+00 0. -1.
          6    1    1    2  501    0  0.41010161387E+02 -0.10513747560E+02  0.83867319508E+02  0.19598494714E+03  0.17200000000E+03 0. -1.
         -6    1    1    2    0  503 -0.41010161387E+02  0.10513747560E+02 -0.28402801654E+03  0.33473614446E+03  0.17200000000E+03 0. -1.
</event>
<event>
 4    1  0.4475741E+000  0.1780966E+03  0.7818608E-02  0.1169658E+00
         21   -1    0    0  503  502  0.00000000000E+00  0.00000000000E+00  0.10752660510E+03  0.10752660510E+03  0.00000000000E+00 0.  1.
         21   -1    0    0  501  503 -0.00000000000E+00 -0.00000000000E+00 -0.89246497461E+03  0.89246497461E+03  0.00000000000E+00 0.  1.
          6    1    1    2  501    0 -0.28658591146E+02  0.36236648942E+02 -0.80157300584E+03  0.82111978010E+03  0.17200000000E+03 0.  1.
         -6    1    1    2    0  502  0.28658591146E+02 -0.36236648942E+02  0.16634636328E+02  0.17887179962E+03  0.17200000000E+03 0.  1.
</event>
<event>
 4    1  0.4475741E+000  0.1901805E+03  0.7818608E-02  0.1158299E+00
         21   -1    0    0  501  502  0.00000000000E+00  0.00000000000E+00  0.12741266797E+03  0.12741266797E+03  0.00000000000E+00 0.  1.
         21   -1    0    0  502  503 -0.00000000000E+00 -0.00000000000E+00 -0.31820001866E+03  0.31820001866E+03  0.00000000000E+00 0. -1.
          6    1    1    2  501    0 -0.80666745424E+02 -0.88025269105E+01 -0.22209741689E+02  0.19147292478E+03  0.17200000000E+03 0.  1.
         -6    1    1    2    0  503  0.80666745424E+02  0.88025269105E+01 -0.16857760900E+03  0.25413976185E+03  0.17200000000E+03 0. -1.
</event>
<event>
 4    1  0.4475741E+000  0.1855483E+03  0.7818608E-02  0.1162539E+00
         21   -1    0    0  501  502  0.00000000000E+00  0.00000000000E+00  0.42112029591E+03  0.42112029591E+03  0.00000000000E+00 0.  1.
         21   -1    0    0  502  503 -0.00000000000E+00 -0.00000000000E+00 -0.17116082991E+03  0.17116082991E+03  0.00000000000E+00 0.  1.
          6    1    1    2  501    0  0.39267250438E+02 -0.57465350614E+02  0.33901313046E+03  0.38646873884E+03  0.17200000000E+03 0.  1.
         -6    1    1    2    0  503 -0.39267250438E+02  0.57465350614E+02 -0.89053664460E+02  0.20581238697E+03  0.17200000000E+03 0.  1.
</event>
<event>
 4    1  0.4475741E+000  0.2099450E+03  0.7818608E-02  0.1141610E+00
         21   -1    0    0  501  502  0.00000000000E+00  0.00000000000E+00  0.40685003509E+02  0.40685003509E+02  0.00000000000E+00 0. -1.
         21   -1    0    0  502  503 -0.00000000000E+00 -0.00000000000E+00 -0.13044382791E+04  0.13044382791E+04  0.00000000000E+00 0.  1.
          6    1    1    2  501    0 -0.31847612016E+02 -0.11609743444E+03 -0.35500134179E+03  0.41243525231E+03  0.17200000000E+03 0.  1.
         -6    1    1    2    0  503  0.31847612016E+02  0.11609743444E+03 -0.90875193376E+03  0.93268803025E+03  0.17200000000E+03 0. -1.
</event>
<event>
 4    1  0.4475741E+000  0.1810164E+03  0.7818608E-02  0.1166823E+00
         21   -1    0    0  501  502  0.00000000000E+00  0.00000000000E+00  0.76470699582E+03  0.76470699582E+03  0.00000000000E+00 0. -1.
         21   -1    0    0  502  503 -0.00000000000E+00 -0.00000000000E+00 -0.42865004341E+02  0.42865004341E+02  0.00000000000E+00 0. -1.
          6    1    1    2  501    0  0.54379037325E+02  0.15029014952E+02  0.35312543952E+03  0.39681800240E+03  0.17200000000E+03 0. -1.
         -6    1    1    2    0  503 -0.54379037325E+02 -0.15029014952E+02  0.36871655196E+03  0.41075399776E+03  0.17200000000E+03 0. -1.
</event>
<event>
 4    1  0.4475741E+000  0.2193684E+03  0.7818608E-02  0.1134355E+00
         21   -1    0    0  501  502  0.00000000000E+00  0.00000000000E+00  0.65148771921E+02  0.65148771921E+02  0.00000000000E+00 0.  1.
         21   -1    0    0  502  503 -0.00000000000E+00 -0.00000000000E+00 -0.80339887813E+03  0.80339887813E+03  0.00000000000E+00 0.  1.
          6    1    1    2  501    0 -0.91146304321E+02 -0.10114754757E+03 -0.24584383053E+03  0.32948697118E+03  0.17200000000E+03 0.  1.
         -6    1    1    2    0  503  0.91146304321E+02  0.10114754757E+03 -0.49240627569E+03  0.53906067887E+03  0.17200000000E+03 0.  1.
</event>
<event>
 4    1  0.4475741E+000  0.2499484E+03  0.7818608E-02  0.1113337E+00
         21   -1    0    0  503  502  0.00000000000E+00  0.00000000000E+00  0.98257732868E+03  0.98257732868E+03  0.00000000000E+00 0.  1.
         21   -1    0    0  501  503 -0.00000000000E+00 -0.00000000000E+00 -0.63618171910E+02  0.63618171910E+02  0.00000000000E+00 0.  1.
          6    1    1    2  501    0  0.92416487444E+02 -0.15604299439E+03  0.47195426603E+03  0.53405528971E+03  0.17200000000E+03 0.  1.
         -6    1    1    2    0  502 -0.92416487444E+02  0.15604299439E+03  0.44700489074E+03  0.51214021088E+03  0.17200000000E+03 0.  1.
</event>
<event>
 4    1  0.4475741E+000  0.1772892E+03  0.7818608E-02  0.1170453E+00
         21   -1    0    0  501  502  0.00000000000E+00  0.00000000000E+00  0.83432019009E+02  0.83432019009E+02  0.00000000000E+00 0. -1.
         21   -1    0    0  502  503 -0.00000000000E+00 -0.00000000000E+00 -0.57155990724E+03  0.57155990724E+03  0.00000000000E+00 0. -1.
          6    1    1    2  501    0  0.42711251290E+02  0.48171587389E+01 -0.52857997444E+02  0.18500114567E+03  0.17200000000E+03 0. -1.
         -6    1    1    2    0  503 -0.42711251290E+02 -0.48171587389E+01 -0.43526989079E+03  0.46999078058E+03  0.17200000000E+03 0. -1.
</event>
<event>
 4    1  0.4475741E+000  0.1921100E+03  0.7818608E-02  0.1156572E+00
         21   -1    0    0  503  502  0.00000000000E+00  0.00000000000E+00  0.78640997794E+02  0.78640997794E+02  0.00000000000E+00 0.  1.
         21   -1    0    0  501  503 -0.00000000000E+00 -0.00000000000E+00 -0.50624865168E+03  0.50624865168E+03  0.00000000000E+00 0.  1.
          6    1    1    2  501    0 -0.62316970696E+02  0.58641828739E+02 -0.13479826577E+03  0.23468455716E+03  0.17200000000E+03 0.  1.
         -6    1    1    2    0  502  0.62316970696E+02 -0.58641828739E+02 -0.29280938811E+03  0.35020509231E+03  0.17200000000E+03 0.  1.
</event>
<event>
 4    1  0.4475741E+000  0.1931042E+03  0.7818608E-02  0.1155691E+00
         21   -1    0    0  503  502  0.00000000000E+00  0.00000000000E+00  0.27435493186E+03  0.27435493186E+03  0.00000000000E+00 0. -1.
         21   -1    0    0  501  503 -0.00000000000E+00 -0.00000000000E+00 -0.14483958249E+03  0.14483958249E+03  0.00000000000E+00 0. -1.
          6    1    1    2  501    0 -0.42062178142E+02  0.77045372066E+02  0.12732642358E+02  0.19352347756E+03  0.17200000000E+03 0. -1.
         -6    1    1    2    0  502  0.42062178142E+02 -0.77045372066E+02  0.11678270701E+03  0.22567103678E+03  0.17200000000E+03 0. -1.
</event>
<event>
 4    1  0.4475741E+000  0.2279797E+03  0.7818608E-02  0.1128070E+00
         21   -1    0    0  501  502  0.00000000000E+00  0.00000000000E+00  0.12848178272E+03  0.12848178272E+03  0.00000000000E+00 0.  1.
         21   -1    0    0  502  503 -0.00000000000E+00 -0.00000000000E+00 -0.45583787282E+03  0.45583787282E+03  0.00000000000E+00 0.  1.
          6    1    1    2  501    0 -0.14951290706E+03 -0.60517302798E+01 -0.26169639617E+03  0.34707309977E+03  0.17200000000E+03 0.  1.
         -6    1    1    2    0  503  0.14951290706E+03  0.60517302798E+01 -0.65659693920E+02  0.23724655577E+03  0.17200000000E+03 0.  1.
</event>
<event>
 4    1  0.4475741E+000  0.2350947E+03  0.7818608E-02  0.1123104E+00
         21   -1    0    0  501  502  0.00000000000E+00  0.00000000000E+00  0.12383539278E+04  0.12383539278E+04  0.00000000000E+00 0.  1.
         21   -1    0    0  502  503 -0.00000000000E+00 -0.00000000000E+00 -0.49617022747E+02  0.49617022747E+02  0.00000000000E+00 0. -1.
          6    1    1    2  501    0  0.14216322539E+03 -0.73994037379E+02  0.79850433359E+03  0.83239333910E+03  0.17200000000E+03 0.  1.
         -6    1    1    2    0  503 -0.14216322539E+03  0.73994037379E+02  0.39023257146E+03  0.45557761145E+03  0.17200000000E+03 0. -1.
</event>
<event>
 4    1  0.4475741E+000  0.1735036E+03  0.7818608E-02  0.1174243E+00
         21   -1    0    0  501  502  0.00000000000E+00  0.00000000000E+00  0.42289695113E+02  0.42289695113E+02  0.00000000000E+00 0.  1.
         21   -1    0    0  502  503 -0.00000000000E+00 -0.00000000000E+00 -0.10251437611E+04  0.10251437611E+04  0.00000000000E+00 0.  1.
          6    1    1    2  501    0  0.22786571561E+02  0.52500068949E+00 -0.19637329595E+03  0.26204193335E+03  0.17200000000E+03 0. -1.
         -6    1    1    2    0  503 -0.22786571561E+02 -0.52500068949E+00 -0.78648077003E+03  0.80539152286E+03  0.17200000000E+03 0. -1.
</event>
<event>
 4    1  0.4475741E+000  0.3920742E+03  0.7818608E-02  0.1046559E+00
         21   -1    0    0  503  502  0.00000000000E+00  0.00000000000E+00  0.18624044954E+04  0.18624044954E+04  0.00000000000E+00 0. -1.
         21   -1    0    0  501  503 -0.00000000000E+00 -0.00000000000E+00 -0.84906633906E+02  0.84906633906E+02  0.00000000000E+00 0.  1.
          6    1    1    2  501    0  0.13501530886E+03 -0.32543674211E+03  0.10513160118E+04  0.11220461503E+04  0.17200000000E+03 0.  1.
         -6    1    1    2    0  502 -0.13501530886E+03  0.32543674211E+03  0.72618184969E+03  0.82526497900E+03  0.17200000000E+03 0. -1.
</event>
<event>
 4    1  0.4475741E+000  0.2126224E+03  0.7818608E-02  0.1139506E+00
         21   -1    0    0  503  502  0.00000000000E+00  0.00000000000E+00  0.19195285137E+03  0.19195285137E+03  0.00000000000E+00 0. -1.
         21   -1    0    0  501  503 -0.00000000000E+00 -0.00000000000E+00 -0.36468697452E+03  0.36468697452E+03  0.00000000000E+00 0.  1.
          6    1    1    2  501    0 -0.40505388495E+02 -0.11825223631E+03 -0.25200655962E+03  0.32972046339E+03  0.17200000000E+03 0.  1.
         -6    1    1    2    0  502  0.40505388495E+02  0.11825223631E+03  0.79272436465E+02  0.22691936249E+03  0.17200000000E+03 0. -1.
</event>
<event>
 4    1  0.4475741E+000  0.2045704E+03  0.7818608E-02  0.1145939E+00
         21   -1    0    0  503  502  0.00000000000E+00  0.00000000000E+00  0.14298586943E+03  0.14298586943E+03  0.00000000000E+00 0.  1.
         21   -1    0    0  501  503 -0.00000000000E+00 -0.00000000000E+00 -0.62393215956E+03  0.62393215956E+03  0.00000000000E+00 0. -1.
          6    1    1    2  501    0  0.42833455800E+02 -0.10212904117E+03 -0.51987539081E+03  0.55867653249E+03  0.17200000000E+03 0. -1.
         -6    1    1    2    0  502 -0.42833455800E+02  0.10212904117E+03  0.38929100672E+02  0.20824149650E+03  0.17200000000E+03 0.  1.
</event>
<event>
 4    1  0.4475741E+000  0.2019487E+03  0.7818608E-02  0.1148105E+00
         21   -1    0    0  501  502  0.00000000000E+00  0.00000000000E+00  0.70414294321E+02  0.70414294321E+02  0.00000000000E+00 0. -1.
         21   -1    0    0  502  503 -0.00000000000E+00 -0.00000000000E+00 -0.12243953930E+04  0.12243953930E+04  0.00000000000E+00 0. -1.
          6    1    1    2  501    0  0.84057237295E+01  0.10549232943E+03 -0.10702725511E+03  0.22855660370E+03  0.17200000000E+03 0. -1.
         -6    1    1    2    0  503 -0.84057237295E+01 -0.10549232943E+03 -0.10469538435E+04  0.10662530836E+04  0.17200000000E+03 0. -1.
</event>
<event>
 4    1  0.4475741E+000  0.2205285E+03  0.7818608E-02  0.1133490E+00
         21   -1    0    0  503  502  0.00000000000E+00  0.00000000000E+00  0.30978943961E+03  0.30978943961E+03  0.00000000000E+00 0. -1.
         21   -1    0    0  501  503 -0.00000000000E+00 -0.00000000000E+00 -0.40038353742E+03  0.40038353742E+03  0.00000000000E+00 0.  1.
          6    1    1    2  501    0  0.11752782144E+03  0.72360497717E+02 -0.32215275675E+03  0.39040393072E+03  0.17200000000E+03 0.  1.
         -6    1    1    2    0  502 -0.11752782144E+03 -0.72360497717E+02  0.23155865895E+03  0.31976904631E+03  0.17200000000E+03 0. -1.
</event>
<event>
 4    1  0.4475741E+000  0.1982258E+03  0.7818608E-02  0.1151245E+00
         21   -1    0    0  501  502  0.00000000000E+00  0.00000000000E+00  0.22785064787E+04  0.22785064787E+04  0.00000000000E+00 0.  1.
         21   -1    0    0  502  503 -0.00000000000E+00 -0.00000000000E+00 -0.18829385741E+02  0.18829385741E+02  0.00000000000E+00 0.  1.
          6    1    1    2  501    0 -0.55005695186E+02 -0.81754700269E+02  0.14630116926E+04  0.14763795820E+04  0.17200000000E+03 0.  1.
         -6    1    1    2    0  503  0.55005695186E+02  0.81754700269E+02  0.79666540037E+03  0.82095628243E+03  0.17200000000E+03 0.  1.
</event>
<event>
 4    1  0.4475741E+000  0.1873058E+03  0.7818608E-02  0.1160914E+00
         21   -1    0    0  501  502  0.00000000000E+00  0.00000000000E+00  0.90592328050E+03  0.90592328050E+03  0.00000000000E+00 0. -1.
         21   -1    0    0  502  503 -0.00000000000E+00 -0.00000000000E+00 -0.40302358784E+02  0.40302358784E+02  0.00000000000E+00 0. -1.
          6    1    1    2  501    0 -0.41910822651E+02  0.61179531241E+02  0.33926438974E+03  0.38753551869E+03  0.17200000000E+03 0. -1.
         -6    1    1    2    0  503  0.41910822651E+02 -0.61179531241E+02  0.52635653197E+03  0.55869012059E+03  0.17200000000E+03 0. -1.
</event>
<event>
 4    1  0.4475741E+000  0.2013752E+03  0.7818608E-02  0.1148584E+00
         21   -1    0    0  503  502  0.00000000000E+00  0.00000000000E+00  0.14061192354E+03  0.14061192354E+03  0.00000000000E+00 0. -1.
         21   -1    0    0  501  503 -0.00000000000E+00 -0.00000000000E+00 -0.36995683241E+03  0.36995683241E+03  0.00000000000E+00 0. -1.
          6    1    1    2  501    0  0.36337879719E+02 -0.98221789612E+02 -0.23453643131E+03  0.30912667156E+03  0.17200000000E+03 0. -1.
         -6    1    1    2    0  502 -0.36337879719E+02  0.98221789612E+02  0.51915224466E+01  0.20144208439E+03  0.17200000000E+03 0. -1.
</event>
<event>
 4    1  0.4475741E+000  0.1877050E+03  0.7818608E-02  0.1160548E+00
         21   -1    0    0  503  502  0.00000000000E+00  0.00000000000E+00  0.75385163527E+03  0.75385163527E+03  0.00000000000E+00 0. -1.
         21   -1    0    0  501  503 -0.00000000000E+00 -0.00000000000E+00 -0.59118910276E+02  0.59118910276E+02  0.00000000000E+00 0. -1.
          6    1    1    2  501    0  0.73635608416E+02  0.15065222048E+02  0.16134358305E+03  0.24751750551E+03  0.17200000000E+03 0. -1.
         -6    1    1    2    0  502 -0.73635608416E+02 -0.15065222048E+02  0.53338914195E+03  0.56545304004E+03  0.17200000000E+03 0. -1.
</event>
<event>
 4    1  0.4475741E+000  0.2198034E+03  0.7818608E-02  0.1134030E+00
         21   -1    0    0  503  502  0.00000000000E+00  0.00000000000E+00  0.14648217804E+03  0.14648217804E+03  0.00000000000E+00 0.  1.
         21   -1    0    0  501  503 -0.00000000000E+00 -0.00000000000E+00 -0.10676294918E+04  0.10676294918E+04  0.00000000000E+00 0.  1.
          6    1    1    2  501    0  0.87536054392E+02 -0.10519967017E+03 -0.96522206742E+03  0.98993291230E+03  0.17200000000E+03 0.  1.
         -6    1    1    2    0  502 -0.87536054392E+02  0.10519967017E+03  0.44074753649E+02  0.22417875754E+03  0.17200000000E+03 0.  1.
</event>
<event>
 4    1  0.4475741E+000  0.1870921E+03  0.7818608E-02  0.1161111E+00
         21   -1    0    0  503  502  0.00000000000E+00  0.00000000000E+00  0.28196855269E+03  0.28196855269E+03  0.00000000000E+00 0. -1.
         21   -1    0    0  501  503 -0.00000000000E+00 -0.00000000000E+00 -0.15582294419E+03  0.15582294419E+03  0.00000000000E+00 0. -1.
          6    1    1    2  501    0 -0.71587338247E+02  0.17167074697E+02 -0.35631779870E+02  0.19045492692E+03  0.17200000000E+03 0. -1.
         -6    1    1    2    0  502  0.71587338247E+02 -0.17167074697E+02  0.16177738837E+03  0.24733656996E+03  0.17200000000E+03 0. -1.
</event>
<event>
 4    1  0.4475741E+000  0.2652030E+03  0.7818608E-02  0.1104057E+00
         21   -1    0    0  501  502  0.00000000000E+00  0.00000000000E+00  0.15725794039E+04  0.15725794039E+04  0.00000000000E+00 0.  1.
         21   -1    0    0  502  503 -0.00000000000E+00 -0.00000000000E+00 -0.46403821434E+02  0.46403821434E+02  0.00000000000E+00 0. -1.
          6    1    1    2  501    0 -0.19530512113E+03  0.51034697064E+02  0.91708703394E+03  0.95466290306E+03  0.17200000000E+03 0. -1.
         -6    1    1    2    0  503  0.19530512113E+03 -0.51034697064E+02  0.60908854848E+03  0.66432032224E+03  0.17200000000E+03 0.  1.
</event>
<event>
 4    1  0.4475741E+000  0.1777322E+03  0.7818608E-02  0.1170016E+00
         21   -1    0    0  503  502  0.00000000000E+00  0.00000000000E+00  0.23172262716E+03  0.23172262716E+03  0.00000000000E+00 0.  1.
         21   -1    0    0  501  503 -0.00000000000E+00 -0.00000000000E+00 -0.13656950767E+03  0.13656950767E+03  0.00000000000E+00 0.  1.
          6    1    1    2  501    0 -0.43181497163E+01 -0.44565683116E+02  0.39727278118E+02  0.18211810222E+03  0.17200000000E+03 0. -1.
         -6    1    1    2    0  502  0.43181497163E+01  0.44565683116E+02  0.55425841364E+02  0.18617403261E+03  0.17200000000E+03 0. -1.
</event>
<event>
 4    1  0.4475741E+000  0.1993079E+03  0.7818608E-02  0.1150324E+00
         21   -1    0    0  503  502  0.00000000000E+00  0.00000000000E+00  0.41290247031E+03  0.41290247031E+03  0.00000000000E+00 0.  1.
         21   -1    0    0  501  503 -0.00000000000E+00 -0.00000000000E+00 -0.11178060889E+03  0.11178060889E+03  0.00000000000E+00 0.  1.
          6    1    1    2  501    0 -0.34589932118E+02  0.94568404407E+02  0.52635826735E+02  0.20614115739E+03  0.17200000000E+03 0.  1.
         -6    1    1    2    0  502  0.34589932118E+02 -0.94568404407E+02  0.24848603469E+03  0.31854192181E+03  0.17200000000E+03 0.  1.
</event>
<event>
 4    1  0.4475741E+000  0.2688414E+03  0.7818608E-02  0.1101945E+00
         21   -1    0    0  503  502  0.00000000000E+00  0.00000000000E+00  0.33357899135E+03  0.33357899135E+03  0.00000000000E+00 0. -1.
         21   -1    0    0  501  503 -0.00000000000E+00 -0.00000000000E+00 -0.22094705388E+03  0.22094705388E+03  0.00000000000E+00 0.  1.
          6    1    1    2  501    0  0.19587248356E+03 -0.65769845028E+02  0.17728107124E+02  0.26942529227E+03  0.17200000000E+03 0.  1.
         -6    1    1    2    0  502 -0.19587248356E+03  0.65769845028E+02  0.94903830341E+02  0.28510075297E+03  0.17200000000E+03 0. -1.
</event>
<event>
 4    1  0.4475741E+000  0.2040088E+03  0.7818608E-02  0.1146400E+00
         21   -1    0    0  503  502  0.00000000000E+00  0.00000000000E+00  0.15344569126E+04  0.15344569126E+04  0.00000000000E+00 0.  1.
         21   -1    0    0  501  503 -0.00000000000E+00 -0.00000000000E+00 -0.30622996689E+02  0.30622996689E+02  0.00000000000E+00 0.  1.
          6    1    1    2  501    0  0.99354349833E+02 -0.46522035810E+02  0.48737424732E+03  0.52834954679E+03  0.17200000000E+03 0.  1.
         -6    1    1    2    0  502 -0.99354349833E+02  0.46522035810E+02  0.10164596686E+04  0.10367303625E+04  0.17200000000E+03 0.  1.
</event>
<event>
 4    1  0.4475741E+000  0.1827628E+03  0.7818608E-02  0.1165156E+00
         21   -1    0    0  503  502  0.00000000000E+00  0.00000000000E+00  0.34953980355E+03  0.34953980355E+03  0.00000000000E+00 0.  1.
         21   -1    0    0  501  503 -0.00000000000E+00 -0.00000000000E+00 -0.95818478386E+02  0.95818478386E+02  0.00000000000E+00 0.  1.
          6    1    1    2  501    0 -0.61610453785E+02  0.47318584073E+01  0.13841247079E+03  0.22926022457E+03  0.17200000000E+03 0.  1.
         -6    1    1    2    0  502  0.61610453785E+02 -0.47318584073E+01  0.11530885437E+03  0.21609805736E+03  0.17200000000E+03 0.  1.
</event>
<event>
 4    1  0.4475741E+000  0.2851882E+03  0.7818608E-02  0.1092889E+00
         21   -1    0    0  501  502  0.00000000000E+00  0.00000000000E+00  0.25810291175E+03  0.25810291175E+03  0.00000000000E+00 0.  1.
         21   -1    0    0  502  503 -0.00000000000E+00 -0.00000000000E+00 -0.65626589318E+03  0.65626589318E+03  0.00000000000E+00 0. -1.
          6    1    1    2  501    0 -0.47868069030E+02  0.22238920399E+03  0.13054660701E+03  0.31364745605E+03  0.17200000000E+03 0.  1.
         -6    1    1    2    0  503  0.47868069030E+02 -0.22238920399E+03 -0.52870958844E+03  0.60072134887E+03  0.17200000000E+03 0. -1.
</event>
<event>
 4    1  0.4475741E+000  0.2658407E+03  0.7818608E-02  0.1103684E+00
         21   -1    0    0  501  502  0.00000000000E+00  0.00000000000E+00  0.22758159519E+04  0.22758159519E+04  0.00000000000E+00 0. -1.
         21   -1    0    0  502  503 -0.00000000000E+00 -0.00000000000E+00 -0.33038989588E+02  0.33038989588E+02  0.00000000000E+00 0.  1.
          6    1    1    2  501    0  0.20164272936E+03 -0.20675544286E+02  0.14044133962E+04  0.14293523903E+04  0.17200000000E+03 0. -1.
         -6    1    1    2    0  503 -0.20164272936E+03  0.20675544286E+02  0.83836356617E+03  0.87950255117E+03  0.17200000000E+03 0.  1.
</event>
<event>
 4    1  0.4475741E+000  0.2088069E+03  0.7818608E-02  0.1142514E+00
         21   -1    0    0  501  502  0.00000000000E+00  0.00000000000E+00  0.20791247469E+03  0.20791247469E+03  0.00000000000E+00 0.  1.
         21   -1    0    0  502  503 -0.00000000000E+00 -0.00000000000E+00 -0.24009706478E+03  0.24009706478E+03  0.00000000000E+00 0.  1.
          6    1    1    2  501    0  0.88893424222E+02 -0.78193940724E+02  0.63604765442E+02  0.21827940678E+03  0.17200000000E+03 0.  1.
         -6    1    1    2    0  503 -0.88893424222E+02  0.78193940724E+02 -0.95789355533E+02  0.22973013270E+03  0.17200000000E+03 0.  1.
</event>
<event>
 4    1  0.4475741E+000  0.2955123E+03  0.7818608E-02  0.1087506E+00
         21   -1    0    0  503  502  0.00000000000E+00  0.00000000000E+00  0.24547668654E+03  0.24547668654E+03  0.00000000000E+00 0. -1.
         21   -1    0    0  501  503 -0.00000000000E+00 -0.00000000000E+00 -0.51403127814E+03  0.51403127814E+03  0.00000000000E+00 0.  1.
          6    1    1    2  501    0 -0.76457324340E+02 -0.22781093852E+03 -0.34500746976E+03  0.45426611182E+03  0.17200000000E+03 0.  1.
         -6    1    1    2    0  502  0.76457324340E+02  0.22781093852E+03  0.76452878162E+02  0.30524185286E+03  0.17200000000E+03 0. -1.
</event>
<event>
 4    1  0.4475741E+000  0.1978301E+03  0.7818608E-02  0.1151583E+00
         21   -1    0    0  501  502  0.00000000000E+00  0.00000000000E+00  0.68001396776E+03  0.68001396776E+03  0.00000000000E+00 0.  1.
         21   -1    0    0  502  503 -0.00000000000E+00 -0.00000000000E+00 -0.37541934921E+03  0.37541934921E+03  0.00000000000E+00 0.  1.
          6    1    1    2  501    0  0.66740674116E+02  0.71403191871E+02  0.63788186523E+03  0.66785478016E+03  0.17200000000E+03 0.  1.
         -6    1    1    2    0  503 -0.66740674116E+02 -0.71403191871E+02 -0.33328724668E+03  0.38757853681E+03  0.17200000000E+03 0.  1.
</event>
<event>
 4    1  0.4475741E+000  0.2023817E+03  0.7818608E-02  0.1147745E+00
         21   -1    0    0  503  502  0.00000000000E+00  0.00000000000E+00  0.24520685565E+03  0.24520685565E+03  0.00000000000E+00 0. -1.
         21   -1    0    0  501  503 -0.00000000000E+00 -0.00000000000E+00 -0.17063550973E+03  0.17063550973E+03  0.00000000000E+00 0. -1.
          6    1    1    2  501    0  0.10663425708E+03 -0.18645958369E+01  0.67484723770E+02  0.21333665752E+03  0.17200000000E+03 0. -1.
         -6    1    1    2    0  502 -0.10663425708E+03  0.18645958369E+01  0.70866221459E+01  0.20250570786E+03  0.17200000000E+03 0. -1.
</event>
<event>
 4    1  0.4475741E+000  0.1745647E+03  0.7818608E-02  0.1173169E+00
         21   -1    0    0  501  502  0.00000000000E+00  0.00000000000E+00  0.71514140888E+02  0.71514140888E+02  0.00000000000E+00 0.  1.
         21   -1    0    0  502  503 -0.00000000000E+00 -0.00000000000E+00 -0.75295008513E+03  0.75295008513E+03  0.00000000000E+00 0.  1.
          6    1    1    2  501    0  0.22212304518E+02 -0.19886232518E+02 -0.69119843380E+02  0.18775090270E+03  0.17200000000E+03 0.  1.
         -6    1    1    2    0  503 -0.22212304518E+02  0.19886232518E+02 -0.61231610087E+03  0.63671332332E+03  0.17200000000E+03 0.  1.
</event>
<event>
 4    1  0.4475741E+000  0.2220656E+03  0.7818608E-02  0.1132352E+00
         21   -1    0    0  501  502  0.00000000000E+00  0.00000000000E+00  0.51855509775E+03  0.51855509775E+03  0.00000000000E+00 0. -1.
         21   -1    0    0  502  503 -0.00000000000E+00 -0.00000000000E+00 -0.10527477482E+03  0.10527477482E+03  0.00000000000E+00 0.  1.
          6    1    1    2  501    0 -0.13605024210E+03 -0.34920986349E+02  0.30362323056E+03  0.37616513634E+03  0.17200000000E+03 0. -1.
         -6    1    1    2    0  503  0.13605024210E+03  0.34920986349E+02  0.10965709238E+03  0.24766473623E+03  0.17200000000E+03 0.  1.
</event>
<event>
 4    1  0.4475741E+000  0.1729107E+03  0.7818608E-02  0.1174846E+00
         21   -1    0    0  501  502  0.00000000000E+00  0.00000000000E+00  0.13578118541E+03  0.13578118541E+03  0.00000000000E+00 0.  1.
         21   -1    0    0  502  503 -0.00000000000E+00 -0.00000000000E+00 -0.32070777262E+03  0.32070777262E+03  0.00000000000E+00 0.  1.
          6    1    1    2  501    0 -0.68439482759E+01  0.16348061712E+02  0.35315850137E+02  0.17648033324E+03  0.17200000000E+03 0.  1.
         -6    1    1    2    0  503  0.68439482759E+01 -0.16348061712E+02 -0.22024243735E+03  0.28000862479E+03  0.17200000000E+03 0.  1.
</event>
<event>
 4    1  0.4475741E+000  0.1811178E+03  0.7818608E-02  0.1166726E+00
         21   -1    0    0  503  502  0.00000000000E+00  0.00000000000E+00  0.20440569316E+03  0.20440569316E+03  0.00000000000E+00 0. -1.
         21   -1    0    0  501  503 -0.00000000000E+00 -0.00000000000E+00 -0.23100375680E+03  0.23100375680E+03  0.00000000000E+00 0. -1.
          6    1    1    2  501    0  0.30743705198E+02  0.47691636890E+02 -0.13358539161E+03  0.22505271491E+03  0.17200000000E+03 0. -1.
         -6    1    1    2    0  502 -0.30743705198E+02 -0.47691636890E+02  0.10698732797E+03  0.21035673506E+03  0.17200000000E+03 0. -1.
</event>
<event>
 4    1  0.4475741E+000  0.2717001E+03  0.7818608E-02  0.1100311E+00
         21   -1    0    0  503  502  0.00000000000E+00  0.00000000000E+00  0.26804287190E+03  0.26804287190E+03  0.00000000000E+00 0.  1.
         21   -1    0    0  501  503 -0.00000000000E+00 -0.00000000000E+00 -0.35228041491E+03  0.35228041491E+03  0.00000000000E+00 0. -1.
          6    1    1    2  501    0  0.69841252760E+01 -0.21020985610E+03 -0.18700633209E+03  0.32983682307E+03  0.17200000000E+03 0. -1.
         -6    1    1    2    0  502 -0.69841252760E+01  0.21020985610E+03  0.10276878909E+03  0.29048646375E+03  0.17200000000E+03 0.  1.
</event>
<event>
 4    1  0.4475741E+000  0.2038256E+03  0.7818608E-02  0.1146551E+00
         21   -1    0    0  501  502  0.00000000000E+00  0.00000000000E+00  0.27996935664E+03  0.27996935664E+03  0.00000000000E+00 0.  1.
         21   -1    0    0  502  503 -0.00000000000E+00 -0.00000000000E+00 -0.18376410461E+03  0.18376410461E+03  0.00000000000E+00 0. -1.
          6    1    1    2  501    0  0.10562178432E+03 -0.28370857602E+02  0.14983194369E+03  0.25297129923E+03  0.17200000000E+03 0.  1.
         -6    1    1    2    0  503 -0.10562178432E+03  0.28370857602E+02 -0.53626691661E+02  0.21076216203E+03  0.17200000000E+03 0. -1.
</event>
<event>
 4    1  0.4475741E+000  0.2132813E+03  0.7818608E-02  0.1138994E+00
         21   -1    0    0  503  502  0.00000000000E+00  0.00000000000E+00  0.75076965881E+03  0.75076965881E+03  0.00000000000E+00 0. -1.
         21   -1    0    0  501  503 -0.00000000000E+00 -0.00000000000E+00 -0.60886046440E+02  0.60886046440E+02  0.00000000000E+00 0. -1.
          6    1    1    2  501    0 -0.12377385914E+03  0.24185422842E+02  0.37325495674E+03  0.42989320257E+03  0.17200000000E+03 0. -1.
         -6    1    1    2    0  502  0.12377385914E+03 -0.24185422842E+02  0.31662865562E+03  0.38176250267E+03  0.17200000000E+03 0. -1.
</event>
<event>
 4    1  0.4475741E+000  0.1851200E+03  0.7818608E-02  0.1162938E+00
         21   -1    0    0  501  502  0.00000000000E+00  0.00000000000E+00  0.72074802668E+03  0.72074802668E+03  0.00000000000E+00 0. -1.
         21   -1    0    0  502  503 -0.00000000000E+00 -0.00000000000E+00 -0.12093108419E+03  0.12093108419E+03  0.00000000000E+00 0. -1.
          6    1    1    2  501    0  0.67191102086E+02 -0.13067497421E+02  0.62773834806E+03  0.65446530642E+03  0.17200000000E+03 0. -1.
         -6    1    1    2    0  503 -0.67191102086E+02  0.13067497421E+02 -0.27921405570E+02  0.18721380445E+03  0.17200000000E+03 0. -1.
</event>
<event>
 4    1  0.4475741E+000  0.2301977E+03  0.7818608E-02  0.1126501E+00
         21   -1    0    0  503  502  0.00000000000E+00  0.00000000000E+00  0.63269498626E+03  0.63269498626E+03  0.00000000000E+00 0. -1.
         21   -1    0    0  501  503 -0.00000000000E+00 -0.00000000000E+00 -0.83788547184E+02  0.83788547184E+02  0.00000000000E+00 0. -1.
          6    1    1    2  501    0  0.84669929424E+02 -0.12742837059E+03  0.26722077297E+03  0.35270090457E+03  0.17200000000E+03 0. -1.
         -6    1    1    2    0  502 -0.84669929424E+02  0.12742837059E+03  0.28168566611E+03  0.36378262888E+03  0.17200000000E+03 0. -1.
</event>
<event>
 4    1  0.4475741E+000  0.1832528E+03  0.7818608E-02  0.1164692E+00
         21   -1    0    0  501  502  0.00000000000E+00  0.00000000000E+00  0.14070122167E+03  0.14070122167E+03  0.00000000000E+00 0.  1.
         21   -1    0    0  502  503 -0.00000000000E+00 -0.00000000000E+00 -0.25807515063E+03  0.25807515063E+03  0.00000000000E+00 0.  1.
          6    1    1    2  501    0  0.32786852790E+02 -0.54061274874E+02 -0.11335707516E+03  0.21547952489E+03  0.17200000000E+03 0.  1.
         -6    1    1    2    0  503 -0.32786852790E+02  0.54061274874E+02 -0.40168538018E+01  0.18329684741E+03  0.17200000000E+03 0.  1.
</event>
<event>
 4    1  0.4475741E+000  0.1751156E+03  0.7818608E-02  0.1172616E+00
         21   -1    0    0  503  502  0.00000000000E+00  0.00000000000E+00  0.86701500937E+02  0.86701500937E+02  0.00000000000E+00 0.  1.
         21   -1    0    0  501  503 -0.00000000000E+00 -0.00000000000E+00 -0.35436888502E+03  0.35436888502E+03  0.00000000000E+00 0.  1.
          6    1    1    2  501    0 -0.10964990910E+02  0.31003643401E+02 -0.14348612792E+03  0.22639285730E+03  0.17200000000E+03 0.  1.
         -6    1    1    2    0  502  0.10964990910E+02 -0.31003643401E+02 -0.12418125617E+03  0.21467752866E+03  0.17200000000E+03 0.  1.
</event>
<event>
 4    1  0.4475741E+000  0.2047286E+03  0.7818608E-02  0.1145810E+00
         21   -1    0    0  503  502  0.00000000000E+00  0.00000000000E+00  0.78133877734E+03  0.78133877734E+03  0.00000000000E+00 0. -1.
         21   -1    0    0  501  503 -0.00000000000E+00 -0.00000000000E+00 -0.77342475262E+02  0.77342475262E+02  0.00000000000E+00 0.  1.
          6    1    1    2  501    0  0.92807426382E+01 -0.11065108911E+03  0.58965873565E+03  0.62418844930E+03  0.17200000000E+03 0. -1.
         -6    1    1    2    0  502 -0.92807426382E+01  0.11065108911E+03  0.11433756642E+03  0.23449280330E+03  0.17200000000E+03 0.  1.
</event>
<event>
 4    1  0.4475741E+000  0.1792719E+03  0.7818608E-02  0.1168510E+00
         21   -1    0    0  501  502  0.00000000000E+00  0.00000000000E+00  0.29704532349E+04  0.29704532349E+04  0.00000000000E+00 0.  1.
         21   -1    0    0  502  503 -0.00000000000E+00 -0.00000000000E+00 -0.11097101810E+02  0.11097101810E+02  0.00000000000E+00 0.  1.
          6    1    1    2  501    0  0.50326866522E+02 -0.46503950753E+01  0.17155213892E+04  0.17248629095E+04  0.17200000000E+03 0. -1.
         -6    1    1    2    0  503 -0.50326866522E+02  0.46503950753E+01  0.12438347438E+04  0.12566874272E+04  0.17200000000E+03 0. -1.
</event>
<event>
 4    1  0.4475741E+000  0.2228772E+03  0.7818608E-02  0.1131756E+00
         21   -1    0    0  503  502  0.00000000000E+00  0.00000000000E+00  0.80580577054E+02  0.80580577054E+02  0.00000000000E+00 0.  1.
         21   -1    0    0  501  503 -0.00000000000E+00 -0.00000000000E+00 -0.88833302475E+03  0.88833302475E+03  0.00000000000E+00 0.  1.
          6    1    1    2  501    0  0.11485955388E+03 -0.83051463990E+02 -0.67188842851E+03  0.70789005019E+03  0.17200000000E+03 0.  1.
         -6    1    1    2    0  502 -0.11485955388E+03  0.83051463990E+02 -0.13586401919E+03  0.26102355162E+03  0.17200000000E+03 0.  1.
</event>
<event>
 4    1  0.4475741E+000  0.2458758E+03  0.7818608E-02  0.1115939E+00
         21   -1    0    0  503  502  0.00000000000E+00  0.00000000000E+00  0.17836989291E+03  0.17836989291E+03  0.00000000000E+00 0.  1.
         21   -1    0    0  501  503 -0.00000000000E+00 -0.00000000000E+00 -0.34639167574E+03  0.34639167574E+03  0.00000000000E+00 0. -1.
          6    1    1    2  501    0 -0.20065458502E+02  0.17455162256E+03 -0.12252050295E+03  0.27471105767E+03  0.17200000000E+03 0.  1.
         -6    1    1    2    0  502  0.20065458502E+02 -0.17455162256E+03 -0.45501279881E+02  0.25005051097E+03  0.17200000000E+03 0.  1.
</event>
<event>
 4    1  0.4475741E+000  0.2907738E+03  0.7818608E-02  0.1089946E+00
         21   -1    0    0  501  502  0.00000000000E+00  0.00000000000E+00  0.47864563437E+02  0.47864563437E+02  0.00000000000E+00 0.  1.
         21   -1    0    0  502  503 -0.00000000000E+00 -0.00000000000E+00 -0.17723644811E+04  0.17723644811E+04  0.00000000000E+00 0. -1.
          6    1    1    2  501    0  0.16959280573E+03 -0.16187547048E+03 -0.91491481582E+03  0.96000963949E+03  0.17200000000E+03 0.  1.
         -6    1    1    2    0  503 -0.16959280573E+03  0.16187547048E+03 -0.80958510181E+03  0.86021940502E+03  0.17200000000E+03 0.  1.
</event>
<event>
 4    1  0.4475741E+000  0.1802790E+03  0.7818608E-02  0.1167533E+00
         21   -1    0    0  501  502  0.00000000000E+00  0.00000000000E+00  0.39474738067E+03  0.39474738067E+03  0.00000000000E+00 0. -1.
         21   -1    0    0  502  503 -0.00000000000E+00 -0.00000000000E+00 -0.47936151555E+03  0.47936151555E+03  0.00000000000E+00 0.  1.
          6    1    1    2  501    0  0.34512066994E+02 -0.41538455005E+02  0.35544743398E+03  0.39855163321E+03  0.17200000000E+03 0. -1.
         -6    1    1    2    0  503 -0.34512066994E+02  0.41538455005E+02 -0.44006156886E+03  0.47555726301E+03  0.17200000000E+03 0.  1.
</event>
<event>
 4    1  0.4475741E+000  0.2289178E+03  0.7818608E-02  0.1127404E+00
         21   -1    0    0  503  502  0.00000000000E+00  0.00000000000E+00  0.50556780058E+03  0.50556780058E+03  0.00000000000E+00 0. -1.
         21   -1    0    0  501  503 -0.00000000000E+00 -0.00000000000E+00 -0.20697292806E+03  0.20697292806E+03  0.00000000000E+00 0.  1.
          6    1    1    2  501    0 -0.13840626332E+03 -0.60523424379E+02 -0.10242154987E+03  0.25078586982E+03  0.17200000000E+03 0.  1.
         -6    1    1    2    0  502  0.13840626332E+03  0.60523424379E+02  0.40101642238E+03  0.46175485882E+03  0.17200000000E+03 0. -1.
</event>
<event>
 4    1  0.4475741E+000  0.2063438E+03  0.7818608E-02  0.1144494E+00
         21   -1    0    0  503  502  0.00000000000E+00  0.00000000000E+00  0.10583448845E+03  0.10583448845E+03  0.00000000000E+00 0.  1.
         21   -1    0    0  501  503 -0.00000000000E+00 -0.00000000000E+00 -0.41080703369E+03  0.41080703369E+03  0.00000000000E+00 0. -1.
          6    1    1    2  501    0 -0.23478654752E+02  0.11154594121E+03 -0.11532404817E+03  0.23638396798E+03  0.17200000000E+03 0.  1.
         -6    1    1    2    0  502  0.23478654752E+02 -0.11154594121E+03 -0.18964849707E+03  0.28025755417E+03  0.17200000000E+03 0. -1.
</event>
<event>
 4    1  0.4475741E+000  0.1813792E+03  0.7818608E-02  0.1166475E+00
         21   -1    0    0  503  502  0.00000000000E+00  0.00000000000E+00  0.34136624174E+03  0.34136624174E+03  0.00000000000E+00 0. -1.
         21   -1    0    0  501  503 -0.00000000000E+00 -0.00000000000E+00 -0.41201832159E+03  0.41201832159E+03  0.00000000000E+00 0. -1.
          6    1    1    2  501    0 -0.56246124741E+02  0.12280154683E+02 -0.36503310754E+03  0.40761206845E+03  0.17200000000E+03 0. -1.
         -6    1    1    2    0  502  0.56246124741E+02 -0.12280154683E+02  0.29438102769E+03  0.34577249488E+03  0.17200000000E+03 0. -1.
</event>
<event>
 4    1  0.4475741E+000  0.1828030E+03  0.7818608E-02  0.1165117E+00
         21   -1    0    0  503  502  0.00000000000E+00  0.00000000000E+00  0.29073254916E+03  0.29073254916E+03  0.00000000000E+00 0. -1.
         21   -1    0    0  501  503 -0.00000000000E+00 -0.00000000000E+00 -0.21196230393E+03  0.21196230393E+03  0.00000000000E+00 0.  1.
          6    1    1    2  501    0  0.38103011764E+02  0.48796647501E+02 -0.13066609277E+03  0.22470109059E+03  0.17200000000E+03 0.  1.
         -6    1    1    2    0  502 -0.38103011764E+02 -0.48796647501E+02  0.20943633800E+03  0.27799376250E+03  0.17200000000E+03 0. -1.
</event>
<event>
 4    1  0.4475741E+000  0.3383745E+03  0.7818608E-02  0.1067490E+00
         21   -1    0    0  503  502  0.00000000000E+00  0.00000000000E+00  0.10107145867E+04  0.10107145867E+04  0.00000000000E+00 0.  1.
         21   -1    0    0  501  503 -0.00000000000E+00 -0.00000000000E+00 -0.11898062244E+03  0.11898062244E+03  0.00000000000E+00 0.  1.
          6    1    1    2  501    0  0.23731288005E+03 -0.16910322332E+03  0.32226646224E+03  0.46728254393E+03  0.17200000000E+03 0.  1.
         -6    1    1    2    0  502 -0.23731288005E+03  0.16910322332E+03  0.56946750203E+03  0.66241266522E+03  0.17200000000E+03 0.  1.
</event>
<event>
 4    1  0.4475741E+000  0.2341082E+03  0.7818608E-02  0.1123781E+00
         21   -1    0    0  501  502  0.00000000000E+00  0.00000000000E+00  0.29387004184E+03  0.29387004184E+03  0.00000000000E+00 0. -1.
         21   -1    0    0  502  503 -0.00000000000E+00 -0.00000000000E+00 -0.20341868799E+03  0.20341868799E+03  0.00000000000E+00 0. -1.
          6    1    1    2  501    0  0.25554786951E+01  0.15879588466E+03 -0.26482862414E+02  0.23560136981E+03  0.17200000000E+03 0. -1.
         -6    1    1    2    0  503 -0.25554786951E+01 -0.15879588466E+03  0.11693421627E+03  0.26168736001E+03  0.17200000000E+03 0. -1.
</event>
<event>
 4    1  0.4475741E+000  0.2206641E+03  0.7818608E-02  0.1133389E+00
         21   -1    0    0  503  502  0.00000000000E+00  0.00000000000E+00  0.88036188621E+02  0.88036188621E+02  0.00000000000E+00 0. -1.
         21   -1    0    0  501  503 -0.00000000000E+00 -0.00000000000E+00 -0.63728416244E+03  0.63728416244E+03  0.00000000000E+00 0. -1.
          6    1    1    2  501    0  0.11456052899E+03 -0.77359782648E+02 -0.40643549871E+03  0.46247428619E+03  0.17200000000E+03 0. -1.
         -6    1    1    2    0  502 -0.11456052899E+03  0.77359782648E+02 -0.14281247512E+03  0.26284606488E+03  0.17200000000E+03 0. -1.
</event>
<event>
 4    1  0.4475741E+000  0.2096169E+03  0.7818608E-02  0.1141870E+00
         21   -1    0    0  501  502  0.00000000000E+00  0.00000000000E+00  0.57452062393E+03  0.57452062393E+03  0.00000000000E+00 0.  1.
         21   -1    0    0  502  503 -0.00000000000E+00 -0.00000000000E+00 -0.95848818366E+02  0.95848818366E+02  0.00000000000E+00 0.  1.
          6    1    1    2  501    0  0.62420959893E+01  0.11965069434E+03  0.39001189227E+03  0.44277367642E+03  0.17200000000E+03 0.  1.
         -6    1    1    2    0  503 -0.62420959893E+01 -0.11965069434E+03  0.88659913298E+02  0.22759576588E+03  0.17200000000E+03 0.  1.
</event>
<event>
 4    1  0.4475741E+000  0.1905256E+03  0.7818608E-02  0.1157988E+00
         21   -1    0    0  503  502  0.00000000000E+00  0.00000000000E+00  0.92886019471E+03  0.92886019471E+03  0.00000000000E+00 0. -1.
         21   -1    0    0  501  503 -0.00000000000E+00 -0.00000000000E+00 -0.42285124371E+02  0.42285124371E+02  0.00000000000E+00 0. -1.
          6    1    1    2  501    0 -0.96860092344E+01 -0.81376839216E+02  0.30960589918E+03  0.36353242158E+03  0.17200000000E+03 0.  1.
         -6    1    1    2    0  502  0.96860092344E+01  0.81376839216E+02  0.57696917116E+03  0.60761289750E+03  0.17200000000E+03 0.  1.
</event>
<event>
 4    1  0.4475741E+000  0.2057685E+03  0.7818608E-02  0.1144961E+00
         21   -1    0    0  503  502  0.00000000000E+00  0.00000000000E+00  0.39908267655E+02  0.39908267655E+02  0.00000000000E+00 0.  1.
         21   -1    0    0  501  503 -0.00000000000E+00 -0.00000000000E+00 -0.14462761852E+04  0.14462761852E+04  0.00000000000E+00 0. -1.
          6    1    1    2  501    0 -0.89899533370E+02 -0.68372162633E+02 -0.10867422116E+04  0.11060512254E+04  0.17200000000E+03 0. -1.
         -6    1    1    2    0  502  0.89899533370E+02  0.68372162633E+02 -0.31962570598E+03  0.38013322750E+03  0.17200000000E+03 0.  1.
</event>
<event>
 4    1  0.4475741E+000  0.2476526E+03  0.7818608E-02  0.1114797E+00
         21   -1    0    0  501  502  0.00000000000E+00  0.00000000000E+00  0.31111879166E+03  0.31111879166E+03  0.00000000000E+00 0.  1.
         21   -1    0    0  502  503 -0.00000000000E+00 -0.00000000000E+00 -0.24995937628E+03  0.24995937628E+03  0.00000000000E+00 0. -1.
          6    1    1    2  501    0 -0.12269417250E+03 -0.12920506509E+03  0.15954822233E+03  0.29459708767E+03  0.17200000000E+03 0.  1.
         -6    1    1    2    0  503  0.12269417250E+03  0.12920506509E+03 -0.98388806953E+02  0.26648108028E+03  0.17200000000E+03 0. -1.
</event>
<event>
 4    1  0.4475741E+000  0.1866639E+03  0.7818608E-02  0.1161505E+00
         21   -1    0    0  503  502  0.00000000000E+00  0.00000000000E+00  0.11681554161E+03  0.11681554161E+03  0.00000000000E+00 0.  1.
         21   -1    0    0  501  503 -0.00000000000E+00 -0.00000000000E+00 -0.34966110715E+03  0.34966110715E+03  0.00000000000E+00 0.  1.
          6    1    1    2  501    0  0.29367806161E+01 -0.72462396599E+02 -0.27012099207E+02  0.18860826362E+03  0.17200000000E+03 0.  1.
         -6    1    1    2    0  502 -0.29367806161E+01  0.72462396599E+02 -0.20583346634E+03  0.27786838515E+03  0.17200000000E+03 0.  1.
</event>
<event>
 4    1  0.4475741E+000  0.1804249E+03  0.7818608E-02  0.1167393E+00
         21   -1    0    0  501  502  0.00000000000E+00  0.00000000000E+00  0.19669879850E+03  0.19669879850E+03  0.00000000000E+00 0. -1.
         21   -1    0    0  502  503 -0.00000000000E+00 -0.00000000000E+00 -0.16927554077E+03  0.16927554077E+03  0.00000000000E+00 0.  1.
          6    1    1    2  501    0 -0.53536152960E+02 -0.10149272309E+02 -0.13626337582E+02  0.18093867601E+03  0.17200000000E+03 0.  1.
         -6    1    1    2    0  503  0.53536152960E+02  0.10149272309E+02  0.41049595315E+02  0.18503566326E+03  0.17200000000E+03 0. -1.
</event>
<event>
 4    1  0.4475741E+000  0.1878483E+03  0.7818608E-02  0.1160416E+00
         21   -1    0    0  501  502  0.00000000000E+00  0.00000000000E+00  0.26179910893E+04  0.26179910893E+04  0.00000000000E+00 0. -1.
         21   -1    0    0  502  503 -0.00000000000E+00 -0.00000000000E+00 -0.28516357309E+02  0.28516357309E+02  0.00000000000E+00 0.  1.
          6    1    1    2  501    0  0.25449542007E+02  0.71100677062E+02  0.22556566638E+04  0.22634650363E+04  0.17200000000E+03 0. -1.
         -6    1    1    2    0  503 -0.25449542007E+02 -0.71100677062E+02  0.33381806817E+03  0.38304241032E+03  0.17200000000E+03 0.  1.
</event>
<event>
 4    1  0.4475741E+000  0.2386057E+03  0.7818608E-02  0.1120725E+00
         21   -1    0    0  503  502  0.00000000000E+00  0.00000000000E+00  0.52314834328E+03  0.52314834328E+03  0.00000000000E+00 0.  1.
         21   -1    0    0  501  503 -0.00000000000E+00 -0.00000000000E+00 -0.73945485752E+03  0.73945485752E+03  0.00000000000E+00 0.  1.
          6    1    1    2  501    0 -0.14864223900E+03  0.72485535344E+02 -0.69115201675E+03  0.73117971683E+03  0.17200000000E+03 0.  1.
         -6    1    1    2    0  502  0.14864223900E+03 -0.72485535344E+02  0.47484550251E+03  0.53142348396E+03  0.17200000000E+03 0.  1.
</event>
<event>
 4    1  0.4475741E+000  0.2028253E+03  0.7818608E-02  0.1147377E+00
         21   -1    0    0  503  502  0.00000000000E+00  0.00000000000E+00  0.30211531572E+03  0.30211531572E+03  0.00000000000E+00 0.  1.
         21   -1    0    0  501  503 -0.00000000000E+00 -0.00000000000E+00 -0.18523403143E+03  0.18523403143E+03  0.00000000000E+00 0.  1.
          6    1    1    2  501    0 -0.10146344715E+03  0.35486012064E+02 -0.66973236434E+02  0.21359658836E+03  0.17200000000E+03 0.  1.
         -6    1    1    2    0  502  0.10146344715E+03 -0.35486012064E+02  0.18385452072E+03  0.27375275880E+03  0.17200000000E+03 0.  1.
</event>
<event>
 4    1  0.4475741E+000  0.1833416E+03  0.7818608E-02  0.1164608E+00
         21   -1    0    0  501  502  0.00000000000E+00  0.00000000000E+00  0.16389915601E+03  0.16389915601E+03  0.00000000000E+00 0. -1.
         21   -1    0    0  502  503 -0.00000000000E+00 -0.00000000000E+00 -0.22669620052E+03  0.22669620052E+03  0.00000000000E+00 0. -1.
          6    1    1    2  501    0 -0.29487752594E+02 -0.56219393410E+02  0.28893503793E+02  0.18560437040E+03  0.17200000000E+03 0. -1.
         -6    1    1    2    0  503  0.29487752594E+02  0.56219393410E+02 -0.91690548302E+02  0.20499098613E+03  0.17200000000E+03 0. -1.
</event>
<event>
 4    1  0.4475741E+000  0.1810172E+03  0.7818608E-02  0.1166822E+00
         21   -1    0    0  503  502  0.00000000000E+00  0.00000000000E+00  0.41217421919E+03  0.41217421919E+03  0.00000000000E+00 0.  1.
         21   -1    0    0  501  503 -0.00000000000E+00 -0.00000000000E+00 -0.17584301648E+03  0.17584301648E+03  0.00000000000E+00 0. -1.
          6    1    1    2  501    0 -0.53963073526E+00 -0.56417358358E+02  0.33579177304E+03  0.38147519496E+03  0.17200000000E+03 0.  1.
         -6    1    1    2    0  502  0.53963073526E+00  0.56417358358E+02 -0.99460570336E+02  0.20654204070E+03  0.17200000000E+03 0. -1.
</event>
<event>
 4    1  0.4475741E+000  0.2560894E+03  0.7818608E-02  0.1109516E+00
         21   -1    0    0  501  502  0.00000000000E+00  0.00000000000E+00  0.80199705789E+03  0.80199705789E+03  0.00000000000E+00 0. -1.
         21   -1    0    0  502  503 -0.00000000000E+00 -0.00000000000E+00 -0.14136766002E+03  0.14136766002E+03  0.00000000000E+00 0. -1.
          6    1    1    2  501    0 -0.14969536835E+03 -0.11657209280E+03  0.24063327670E+02  0.25721741750E+03  0.17200000000E+03 0. -1.
         -6    1    1    2    0  503  0.14969536835E+03  0.11657209280E+03  0.63656607020E+03  0.68614730041E+03  0.17200000000E+03 0. -1.
</event>
<event>
 4    1  0.4475741E+000  0.1963440E+03  0.7818608E-02  0.1152861E+00
         21   -1    0    0  501  502  0.00000000000E+00  0.00000000000E+00  0.22850534206E+03  0.22850534206E+03  0.00000000000E+00 0.  1.
         21   -1    0    0  502  503 -0.00000000000E+00 -0.00000000000E+00 -0.29139421279E+03  0.29139421279E+03  0.00000000000E+00 0.  1.
          6    1    1    2  501    0 -0.40161999648E+02  0.85755380735E+02  0.13722819010E+03  0.23954654599E+03  0.17200000000E+03 0.  1.
         -6    1    1    2    0  503  0.40161999648E+02 -0.85755380735E+02 -0.20011706082E+03  0.28035300885E+03  0.17200000000E+03 0.  1.
</event>
<event>
 4    1  0.4475741E+000  0.2194516E+03  0.7818608E-02  0.1134293E+00
         21   -1    0    0  503  502  0.00000000000E+00  0.00000000000E+00  0.91814876807E+03  0.91814876807E+03  0.00000000000E+00 0. -1.
         21   -1    0    0  501  503 -0.00000000000E+00 -0.00000000000E+00 -0.55278704516E+02  0.55278704516E+02  0.00000000000E+00 0. -1.
          6    1    1    2  501    0 -0.15148219488E+02 -0.13544575895E+03  0.32137967073E+03  0.38915795628E+03  0.17200000000E+03 0. -1.
         -6    1    1    2    0  502  0.15148219488E+02  0.13544575895E+03  0.54149039282E+03  0.58426951631E+03  0.17200000000E+03 0. -1.
</event>
<event>
 4    1  0.4475741E+000  0.1884183E+03  0.7818608E-02  0.1159896E+00
         21   -1    0    0  503  502  0.00000000000E+00  0.00000000000E+00  0.88061105206E+03  0.88061105206E+03  0.00000000000E+00 0.  1.
         21   -1    0    0  501  503 -0.00000000000E+00 -0.00000000000E+00 -0.10254162423E+03  0.10254162423E+03  0.00000000000E+00 0.  1.
          6    1    1    2  501    0 -0.70294110774E+02  0.31244086573E+02  0.77197450755E+03  0.79463582556E+03  0.17200000000E+03 0.  1.
         -6    1    1    2    0  502  0.70294110774E+02 -0.31244086573E+02  0.60949202808E+01  0.18851685073E+03  0.17200000000E+03 0.  1.
</event>
<event>
 4    1  0.4475741E+000  0.2160948E+03  0.7818608E-02  0.1136828E+00
         21   -1    0    0  501  502  0.00000000000E+00  0.00000000000E+00  0.59350950978E+03  0.59350950978E+03  0.00000000000E+00 0.  1.
         21   -1    0    0  502  503 -0.00000000000E+00 -0.00000000000E+00 -0.11972480267E+03  0.11972480267E+03  0.00000000000E+00 0.  1.
          6    1    1    2  501    0  0.11066494397E+03  0.69758331496E+02  0.44569816596E+03  0.49532192540E+03  0.17200000000E+03 0.  1.
         -6    1    1    2    0  503 -0.11066494397E+03 -0.69758331496E+02  0.28086541153E+02  0.21791238705E+03  0.17200000000E+03 0.  1.
</event>
<event>
 4    1  0.4475741E+000  0.2327829E+03  0.7818608E-02  0.1124696E+00
         21   -1    0    0  503  502  0.00000000000E+00  0.00000000000E+00  0.60691878302E+02  0.60691878302E+02  0.00000000000E+00 0. -1.
         21   -1    0    0  501  503 -0.00000000000E+00 -0.00000000000E+00 -0.89428976029E+03  0.89428976029E+03  0.00000000000E+00 0. -1.
          6    1    1    2  501    0  0.15372598590E+03 -0.31180383747E+02 -0.43605065063E+03  0.49429552394E+03  0.17200000000E+03 0. -1.
         -6    1    1    2    0  502 -0.15372598590E+03  0.31180383747E+02 -0.39754723135E+03  0.46068611465E+03  0.17200000000E+03 0. -1.
</event>
<event>
 4    1  0.4475741E+000  0.3189489E+03  0.7818608E-02  0.1076134E+00
         21   -1    0    0  503  502  0.00000000000E+00  0.00000000000E+00  0.10435527214E+04  0.10435527214E+04  0.00000000000E+00 0. -1.
         21   -1    0    0  501  503 -0.00000000000E+00 -0.00000000000E+00 -0.13421856986E+03  0.13421856986E+03  0.00000000000E+00 0.  1.
          6    1    1    2  501    0  0.26556129849E+03  0.40268715769E+02  0.14658273426E+03  0.35101975829E+03  0.17200000000E+03 0.  1.
         -6    1    1    2    0  502 -0.26556129849E+03 -0.40268715769E+02  0.76275141729E+03  0.82675153299E+03  0.17200000000E+03 0. -1.
</event>
<event>
 4    1  0.4475741E+000  0.3241675E+03  0.7818608E-02  0.1073747E+00
         21   -1    0    0  503  502  0.00000000000E+00  0.00000000000E+00  0.74438898912E+03  0.74438898912E+03  0.00000000000E+00 0. -1.
         21   -1    0    0  501  503 -0.00000000000E+00 -0.00000000000E+00 -0.14158394682E+03  0.14158394682E+03  0.00000000000E+00 0.  1.
          6    1    1    2  501    0  0.16706189034E+02  0.27426527153E+03  0.27741644014E+03  0.42666663471E+03  0.17200000000E+03 0. -1.
         -6    1    1    2    0  502 -0.16706189034E+02 -0.27426527153E+03  0.32538860216E+03  0.45930630122E+03  0.17200000000E+03 0.  1.
</event>
<event>
 4    1  0.4475741E+000  0.1913369E+03  0.7818608E-02  0.1157261E+00
         21   -1    0    0  503  502  0.00000000000E+00  0.00000000000E+00  0.38841205367E+03  0.38841205367E+03  0.00000000000E+00 0. -1.
         21   -1    0    0  501  503 -0.00000000000E+00 -0.00000000000E+00 -0.32190350473E+03  0.32190350473E+03  0.00000000000E+00 0. -1.
          6    1    1    2  501    0 -0.26431270546E+02  0.79543712788E+02 -0.26541516804E+03  0.32719264315E+03  0.17200000000E+03 0. -1.
         -6    1    1    2    0  502  0.26431270546E+02 -0.79543712788E+02  0.33192371698E+03  0.38312291526E+03  0.17200000000E+03 0. -1.
</event>
<event>
 4    1  0.4475741E+000  0.2639996E+03  0.7818608E-02  0.1104764E+00
         21   -1    0    0  503  502  0.00000000000E+00  0.00000000000E+00  0.15253115500E+03  0.15253115500E+03  0.00000000000E+00 0. -1.
         21   -1    0    0  501  503 -0.00000000000E+00 -0.00000000000E+00 -0.47077410162E+03  0.47077410162E+03  0.00000000000E+00 0. -1.
          6    1    1    2  501    0  0.24246885586E+01  0.20026464736E+03 -0.10567453013E+03  0.28436405261E+03  0.17200000000E+03 0. -1.
         -6    1    1    2    0  502 -0.24246885586E+01 -0.20026464736E+03 -0.21256841648E+03  0.33894120402E+03  0.17200000000E+03 0. -1.
</event>
<event>
 4    1  0.4475741E+000  0.2317862E+03  0.7818608E-02  0.1125389E+00
         21   -1    0    0  503  502  0.00000000000E+00  0.00000000000E+00  0.14742672653E+03  0.14742672653E+03  0.00000000000E+00 0.  1.
         21   -1    0    0  501  503 -0.00000000000E+00 -0.00000000000E+00 -0.64950038805E+03  0.64950038805E+03  0.00000000000E+00 0. -1.
          6    1    1    2  501    0 -0.15198070583E+03 -0.32290729354E+02 -0.51502517310E+03  0.56477938619E+03  0.17200000000E+03 0. -1.
         -6    1    1    2    0  502  0.15198070583E+03  0.32290729354E+02  0.12951511575E+02  0.23214772839E+03  0.17200000000E+03 0.  1.
</event>
<event>
 4    1  0.4475741E+000  0.1835817E+03  0.7818608E-02  0.1164381E+00
         21   -1    0    0  501  502  0.00000000000E+00  0.00000000000E+00  0.52451477275E+03  0.52451477275E+03  0.00000000000E+00 0.  1.
         21   -1    0    0  502  503 -0.00000000000E+00 -0.00000000000E+00 -0.92741154915E+02  0.92741154915E+02  0.00000000000E+00 0.  1.
          6    1    1    2  501    0  0.43833192354E+02  0.46871081547E+02  0.38693657114E+03  0.42827813057E+03  0.17200000000E+03 0.  1.
         -6    1    1    2    0  503 -0.43833192354E+02 -0.46871081547E+02  0.44837046687E+02  0.18897779709E+03  0.17200000000E+03 0.  1.
</event>
<event>
 4    1  0.4475741E+000  0.2223301E+03  0.7818608E-02  0.1132158E+00
         21   -1    0    0  503  502  0.00000000000E+00  0.00000000000E+00  0.30083282047E+03  0.30083282047E+03  0.00000000000E+00 0.  1.
         21   -1    0    0  501  503 -0.00000000000E+00 -0.00000000000E+00 -0.17932933859E+03  0.17932933859E+03  0.00000000000E+00 0. -1.
          6    1    1    2  501    0 -0.19288470002E+02  0.13955156875E+03  0.13022490313E+03  0.25766103860E+03  0.17200000000E+03 0. -1.
         -6    1    1    2    0  502  0.19288470002E+02 -0.13955156875E+03 -0.87214212448E+01  0.22250112046E+03  0.17200000000E+03 0. -1.
</event>
<event>
 4    1  0.4475741E+000  0.1820072E+03  0.7818608E-02  0.1165874E+00
         21   -1    0    0  501  502  0.00000000000E+00  0.00000000000E+00  0.25174315916E+03  0.25174315916E+03  0.00000000000E+00 0. -1.
         21   -1    0    0  502  503 -0.00000000000E+00 -0.00000000000E+00 -0.13164469367E+03  0.13164469367E+03  0.00000000000E+00 0. -1.
          6    1    1    2  501    0 -0.49350449865E+02 -0.33274160336E+02  0.63991222222E+02  0.19292877745E+03  0.17200000000E+03 0. -1.
         -6    1    1    2    0  503  0.49350449865E+02  0.33274160336E+02  0.56107243266E+02  0.19045907538E+03  0.17200000000E+03 0. -1.
</event>
<event>
 4    1  0.4475741E+000  0.1730551E+03  0.7818608E-02  0.1174699E+00
         21   -1    0    0  501  502  0.00000000000E+00  0.00000000000E+00  0.77345114138E+02  0.77345114138E+02  0.00000000000E+00 0. -1.
         21   -1    0    0  502  503 -0.00000000000E+00 -0.00000000000E+00 -0.72342175830E+03  0.72342175830E+03  0.00000000000E+00 0. -1.
          6    1    1    2  501    0 -0.18226877050E+02  0.56442240262E+01 -0.50082209222E+02  0.18015633209E+03  0.17200000000E+03 0. -1.
         -6    1    1    2    0  503  0.18226877050E+02 -0.56442240262E+01 -0.59599443494E+03  0.62061054035E+03  0.17200000000E+03 0. -1.
</event>
<event>
 4    1  0.4475741E+000  0.1800719E+03  0.7818608E-02  0.1167733E+00
         21   -1    0    0  501  502  0.00000000000E+00  0.00000000000E+00  0.78765104997E+02  0.78765104997E+02  0.00000000000E+00 0. -1.
         21   -1    0    0  502  503 -0.00000000000E+00 -0.00000000000E+00 -0.10446464563E+04  0.10446464563E+04  0.00000000000E+00 0. -1.
          6    1    1    2  501    0  0.47740884631E+02  0.23721584915E+02 -0.45705529427E+02  0.18578186423E+03  0.17200000000E+03 0. -1.
         -6    1    1    2    0  503 -0.47740884631E+02 -0.23721584915E+02 -0.92017582184E+03  0.93762969703E+03  0.17200000000E+03 0. -1.
</event>
<event>
 4    1  0.4475741E+000  0.2015212E+03  0.7818608E-02  0.1148462E+00
         21   -1    0    0  503  502  0.00000000000E+00  0.00000000000E+00  0.62757034783E+03  0.62757034783E+03  0.00000000000E+00 0.  1.
         21   -1    0    0  501  503 -0.00000000000E+00 -0.00000000000E+00 -0.68920617296E+02  0.68920617296E+02  0.00000000000E+00 0.  1.
          6    1    1    2  501    0 -0.18848939646E+02 -0.10330305988E+03  0.19326037401E+03  0.27921385508E+03  0.17200000000E+03 0.  1.
         -6    1    1    2    0  502  0.18848939646E+02  0.10330305988E+03  0.36538935652E+03  0.41727711004E+03  0.17200000000E+03 0.  1.
</event>
<event>
 4    1  0.4475741E+000  0.2353095E+03  0.7818608E-02  0.1122958E+00
         21   -1    0    0  503  502  0.00000000000E+00  0.00000000000E+00  0.85374893080E+02  0.85374893080E+02  0.00000000000E+00 0.  1.
         21   -1    0    0  501  503 -0.00000000000E+00 -0.00000000000E+00 -0.71155321459E+03  0.71155321459E+03  0.00000000000E+00 0. -1.
          6    1    1    2  501    0 -0.78636473996E+02  0.14001025324E+03 -0.43164948867E+03  0.49162165038E+03  0.17200000000E+03 0. -1.
         -6    1    1    2    0  502  0.78636473996E+02 -0.14001025324E+03 -0.19452883284E+03  0.30530645729E+03  0.17200000000E+03 0.  1.
</event>
<event>
 4    1  0.4475741E+000  0.1787049E+03  0.7818608E-02  0.1169062E+00
         21   -1    0    0  501  502  0.00000000000E+00  0.00000000000E+00  0.70530881602E+02  0.70530881602E+02  0.00000000000E+00 0. -1.
         21   -1    0    0  502  503 -0.00000000000E+00 -0.00000000000E+00 -0.45545721543E+03  0.45545721543E+03  0.00000000000E+00 0. -1.
          6    1    1    2  501    0  0.45568772962E+02 -0.16580980341E+02 -0.17232484378E+03  0.24825650800E+03  0.17200000000E+03 0.  1.
         -6    1    1    2    0  503 -0.45568772962E+02  0.16580980341E+02 -0.21260149004E+03  0.27773158903E+03  0.17200000000E+03 0.  1.
</event>
<event>
 4    1  0.4475741E+000  0.1797914E+03  0.7818608E-02  0.1168005E+00
         21   -1    0    0  501  502  0.00000000000E+00  0.00000000000E+00  0.44890412819E+03  0.44890412819E+03  0.00000000000E+00 0. -1.
         21   -1    0    0  502  503 -0.00000000000E+00 -0.00000000000E+00 -0.11278910325E+03  0.11278910325E+03  0.00000000000E+00 0. -1.
          6    1    1    2  501    0  0.52068758853E+02  0.54589538326E+01  0.33693118064E+03  0.38189995589E+03  0.17200000000E+03 0. -1.
         -6    1    1    2    0  503 -0.52068758853E+02 -0.54589538326E+01 -0.81615569664E+00  0.17979327556E+03  0.17200000000E+03 0. -1.
</event>
<event>
 4    1  0.4475741E+000  0.1895575E+03  0.7818608E-02  0.1158861E+00
         21   -1    0    0  503  502  0.00000000000E+00  0.00000000000E+00  0.19321006348E+03  0.19321006348E+03  0.00000000000E+00 0.  1.
         21   -1    0    0  501  503 -0.00000000000E+00 -0.00000000000E+00 -0.18606655298E+03  0.18606655298E+03  0.00000000000E+00 0.  1.
          6    1    1    2  501    0 -0.77695451328E+02  0.17648820289E+02  0.77993831233E+01  0.18971793376E+03  0.17200000000E+03 0.  1.
         -6    1    1    2    0  502  0.77695451328E+02 -0.17648820289E+02 -0.65587262390E+00  0.18955868269E+03  0.17200000000E+03 0.  1.
</event>
<event>
 4    1  0.4475741E+000  0.1849296E+03  0.7818608E-02  0.1163116E+00
         21   -1    0    0  503  502  0.00000000000E+00  0.00000000000E+00  0.92627700034E+03  0.92627700034E+03  0.00000000000E+00 0.  1.
         21   -1    0    0  501  503 -0.00000000000E+00 -0.00000000000E+00 -0.97161158534E+02  0.97161158534E+02  0.00000000000E+00 0.  1.
          6    1    1    2  501    0  0.65197011343E+02 -0.19087027107E+02  0.11628720572E+02  0.18529487860E+03  0.17200000000E+03 0.  1.
         -6    1    1    2    0  502 -0.65197011343E+02  0.19087027107E+02  0.81748712124E+03  0.83814328028E+03  0.17200000000E+03 0.  1.
</event>
<event>
 4    1  0.4475741E+000  0.1789892E+03  0.7818608E-02  0.1168785E+00
         21   -1    0    0  503  502  0.00000000000E+00  0.00000000000E+00  0.11964385290E+03  0.11964385290E+03  0.00000000000E+00 0. -1.
         21   -1    0    0  501  503 -0.00000000000E+00 -0.00000000000E+00 -0.29148993312E+03  0.29148993312E+03  0.00000000000E+00 0. -1.
          6    1    1    2  501    0  0.49129765082E+02 -0.62763211361E+01 -0.14456265614E+03  0.23007713397E+03  0.17200000000E+03 0. -1.
         -6    1    1    2    0  502 -0.49129765082E+02  0.62763211361E+01 -0.27283424082E+02  0.18105665206E+03  0.17200000000E+03 0. -1.
</event>
<event>
 4    1  0.4475741E+000  0.2248106E+03  0.7818608E-02  0.1130347E+00
         21   -1    0    0  503  502  0.00000000000E+00  0.00000000000E+00  0.83184657901E+02  0.83184657901E+02  0.00000000000E+00 0.  1.
         21   -1    0    0  501  503 -0.00000000000E+00 -0.00000000000E+00 -0.17760768742E+04  0.17760768742E+04  0.00000000000E+00 0. -1.
          6    1    1    2  501    0 -0.14027281300E+03  0.35767839196E+02 -0.16004903243E+04  0.16162020537E+04  0.17200000000E+03 0. -1.
         -6    1    1    2    0  502  0.14027281300E+03 -0.35767839196E+02 -0.92401892060E+02  0.24305947841E+03  0.17200000000E+03 0.  1.
</event>
<event>
 4    1  0.4475741E+000  0.1778593E+03  0.7818608E-02  0.1169891E+00
         21   -1    0    0  503  502  0.00000000000E+00  0.00000000000E+00  0.51675545531E+03  0.51675545531E+03  0.00000000000E+00 0.  1.
         21   -1    0    0  501  503 -0.00000000000E+00 -0.00000000000E+00 -0.14449404832E+03  0.14449404832E+03  0.00000000000E+00 0.  1.
          6    1    1    2  501    0 -0.31301184919E+02  0.32713381789E+02 -0.64869749275E+02  0.18931987190E+03  0.17200000000E+03 0.  1.
         -6    1    1    2    0  502  0.31301184919E+02 -0.32713381789E+02  0.43713115626E+03  0.47192963172E+03  0.17200000000E+03 0.  1.
</event>
<event>
 4    1  0.4475741E+000  0.1866168E+03  0.7818608E-02  0.1161549E+00
         21   -1    0    0  501  502  0.00000000000E+00  0.00000000000E+00  0.44919034717E+03  0.44919034717E+03  0.00000000000E+00 0.  1.
         21   -1    0    0  502  503 -0.00000000000E+00 -0.00000000000E+00 -0.49232702355E+03  0.49232702355E+03  0.00000000000E+00 0.  1.
          6    1    1    2  501    0  0.70067492914E+02 -0.18231059063E+02  0.41053657673E+03  0.45096131310E+03  0.17200000000E+03 0.  1.
         -6    1    1    2    0  503 -0.70067492914E+02  0.18231059063E+02 -0.45367325312E+03  0.49055605762E+03  0.17200000000E+03 0.  1.
</event>
<event>
 4    1  0.4475741E+000  0.1725808E+03  0.7818608E-02  0.1175183E+00
         21   -1    0    0  503  502  0.00000000000E+00  0.00000000000E+00  0.22016961737E+04  0.22016961737E+04  0.00000000000E+00 0. -1.
         21   -1    0    0  501  503 -0.00000000000E+00 -0.00000000000E+00 -0.14390639306E+02  0.14390639306E+02  0.00000000000E+00 0. -1.
          6    1    1    2  501    0 -0.13708721240E+02  0.34914327046E+01  0.82233381527E+03  0.84024819124E+03  0.17200000000E+03 0. -1.
         -6    1    1    2    0  502  0.13708721240E+02 -0.34914327046E+01  0.13649717191E+04  0.13758386217E+04  0.17200000000E+03 0. -1.
</event>
<event>
 4    1  0.4475741E+000  0.1923063E+03  0.7818608E-02  0.1156398E+00
         21   -1    0    0  503  502  0.00000000000E+00  0.00000000000E+00  0.87860532084E+02  0.87860532084E+02  0.00000000000E+00 0.  1.
         21   -1    0    0  501  503 -0.00000000000E+00 -0.00000000000E+00 -0.51316239312E+03  0.51316239312E+03  0.00000000000E+00 0.  1.
          6    1    1    2  501    0  0.83946980241E+02  0.18724702975E+02 -0.34006386518E+03  0.39067267935E+03  0.17200000000E+03 0.  1.
         -6    1    1    2    0  502 -0.83946980241E+02 -0.18724702975E+02 -0.85237995862E+02  0.21035024586E+03  0.17200000000E+03 0.  1.
</event>
<event>
 4    1  0.4475741E+000  0.1864100E+03  0.7818608E-02  0.1161740E+00
         21   -1    0    0  501  502  0.00000000000E+00  0.00000000000E+00  0.11690808701E+04  0.11690808701E+04  0.00000000000E+00 0.  1.
         21   -1    0    0  502  503 -0.00000000000E+00 -0.00000000000E+00 -0.31104440011E+02  0.31104440011E+02  0.00000000000E+00 0.  1.
          6    1    1    2  501    0  0.65322091669E+02 -0.29962042917E+02  0.69544975912E+03  0.71999935218E+03  0.17200000000E+03 0.  1.
         -6    1    1    2    0  503 -0.65322091669E+02  0.29962042917E+02  0.44252667095E+03  0.48018595791E+03  0.17200000000E+03 0.  1.
</event>
<event>
 4    1  0.4475741E+000  0.2219388E+03  0.7818608E-02  0.1132446E+00
         21   -1    0    0  501  502  0.00000000000E+00  0.00000000000E+00  0.19171782777E+03  0.19171782777E+03  0.00000000000E+00 0. -1.
         21   -1    0    0  502  503 -0.00000000000E+00 -0.00000000000E+00 -0.40718960127E+03  0.40718960127E+03  0.00000000000E+00 0.  1.
          6    1    1    2  501    0  0.10763368017E+03  0.89932348894E+02  0.74176266741E+02  0.23400631408E+03  0.17200000000E+03 0. -1.
         -6    1    1    2    0  503 -0.10763368017E+03 -0.89932348894E+02 -0.28964804024E+03  0.36490111496E+03  0.17200000000E+03 0.  1.
</event>
<event>
 4    1  0.4475741E+000  0.2519399E+03  0.7818608E-02  0.1112085E+00
         21   -1    0    0  501  502  0.00000000000E+00  0.00000000000E+00  0.69059194588E+02  0.69059194588E+02  0.00000000000E+00 0. -1.
         21   -1    0    0  502  503 -0.00000000000E+00 -0.00000000000E+00 -0.92885006029E+03  0.92885006029E+03  0.00000000000E+00 0.  1.
          6    1    1    2  501    0  0.16164977906E+03 -0.88085563304E+02 -0.37882892924E+03  0.45495612444E+03  0.17200000000E+03 0. -1.
         -6    1    1    2    0  503 -0.16164977906E+03  0.88085563304E+02 -0.48096193645E+03  0.54295313044E+03  0.17200000000E+03 0. -1.
</event>
<event>
 4    1  0.4475741E+000  0.2062900E+03  0.7818608E-02  0.1144538E+00
         21   -1    0    0  501  502  0.00000000000E+00  0.00000000000E+00  0.24517552299E+03  0.24517552299E+03  0.00000000000E+00 0.  1.
         21   -1    0    0  502  503 -0.00000000000E+00 -0.00000000000E+00 -0.19593726083E+03  0.19593726083E+03  0.00000000000E+00 0.  1.
          6    1    1    2  501    0  0.81311693111E+02 -0.79749494676E+02  0.99135108868E+02  0.22887407706E+03  0.17200000000E+03 0.  1.
         -6    1    1    2    0  503 -0.81311693111E+02  0.79749494676E+02 -0.49896846711E+02  0.21223870677E+03  0.17200000000E+03 0.  1.
</event>
<event>
 4    1  0.4475741E+000  0.2082440E+03  0.7818608E-02  0.1142964E+00
         21   -1    0    0  503  502  0.00000000000E+00  0.00000000000E+00  0.13482515703E+03  0.13482515703E+03  0.00000000000E+00 0. -1.
         21   -1    0    0  501  503 -0.00000000000E+00 -0.00000000000E+00 -0.40908473430E+03  0.40908473430E+03  0.00000000000E+00 0.  1.
          6    1    1    2  501    0  0.39743744471E+02  0.11046266537E+03 -0.26286292486E+03  0.33535426482E+03  0.17200000000E+03 0.  1.
         -6    1    1    2    0  502 -0.39743744471E+02 -0.11046266537E+03 -0.11396652408E+02  0.20855562651E+03  0.17200000000E+03 0. -1.
</event>
<event>
 4    1  0.4475741E+000  0.1905345E+03  0.7818608E-02  0.1157980E+00
         21   -1    0    0  501  502  0.00000000000E+00  0.00000000000E+00  0.25899426065E+04  0.25899426065E+04  0.00000000000E+00 0.  1.
         21   -1    0    0  502  503 -0.00000000000E+00 -0.00000000000E+00 -0.41919141894E+02  0.41919141894E+02  0.00000000000E+00 0.  1.
          6    1    1    2  501    0 -0.77263472224E+02 -0.27381263469E+02  0.23476183964E+04  0.23553376643E+04  0.17200000000E+03 0.  1.
         -6    1    1    2    0  503  0.77263472224E+02  0.27381263469E+02  0.20040506824E+03  0.27652408413E+03  0.17200000000E+03 0.  1.
</event>
<event>
 4    1  0.4475741E+000  0.1867532E+03  0.7818608E-02  0.1161423E+00
         21   -1    0    0  503  502  0.00000000000E+00  0.00000000000E+00  0.22359522667E+03  0.22359522667E+03  0.00000000000E+00 0.  1.
         21   -1    0    0  501  503 -0.00000000000E+00 -0.00000000000E+00 -0.17830717624E+03  0.17830717624E+03  0.00000000000E+00 0. -1.
          6    1    1    2  501    0 -0.29326839072E+02 -0.66578573031E+02 -0.48461981167E+02  0.19293867807E+03  0.17200000000E+03 0. -1.
         -6    1    1    2    0  502  0.29326839072E+02  0.66578573031E+02  0.93750031599E+02  0.20896372485E+03  0.17200000000E+03 0.  1.
</event>
<event>
 4    1  0.4475741E+000  0.2295405E+03  0.7818608E-02  0.1126964E+00
         21   -1    0    0  503  502  0.00000000000E+00  0.00000000000E+00  0.27623486947E+03  0.27623486947E+03  0.00000000000E+00 0.  1.
         21   -1    0    0  501  503 -0.00000000000E+00 -0.00000000000E+00 -0.19101011677E+03  0.19101011677E+03  0.00000000000E+00 0.  1.
          6    1    1    2  501    0 -0.14592243766E+03 -0.42561519350E+02  0.33815297938E+02  0.23201791982E+03  0.17200000000E+03 0.  1.
         -6    1    1    2    0  502  0.14592243766E+03  0.42561519350E+02  0.51409454766E+02  0.23522706643E+03  0.17200000000E+03 0.  1.
</event>
<event>
 4    1  0.4475741E+000  0.2066604E+03  0.7818608E-02  0.1144238E+00
         21   -1    0    0  501  502  0.00000000000E+00  0.00000000000E+00  0.76279960097E+03  0.76279960097E+03  0.00000000000E+00 0. -1.
         21   -1    0    0  502  503 -0.00000000000E+00 -0.00000000000E+00 -0.62362529755E+02  0.62362529755E+02  0.00000000000E+00 0.  1.
          6    1    1    2  501    0 -0.63187543795E+02 -0.95560701478E+02  0.48211458563E+03  0.52454073916E+03  0.17200000000E+03 0. -1.
         -6    1    1    2    0  503  0.63187543795E+02  0.95560701478E+02  0.21832248559E+03  0.30062139157E+03  0.17200000000E+03 0.  1.
</event>
<event>
 4    1  0.4475741E+000  0.1797014E+03  0.7818608E-02  0.1168092E+00
         21   -1    0    0  501  502  0.00000000000E+00  0.00000000000E+00  0.34130266704E+03  0.34130266704E+03  0.00000000000E+00 0.  1.
         21   -1    0    0  502  503 -0.00000000000E+00 -0.00000000000E+00 -0.14604745215E+03  0.14604745215E+03  0.00000000000E+00 0.  1.
          6    1    1    2  501    0  0.48542011003E+02 -0.18768839229E+02  0.24223139937E+03  0.30161009101E+03  0.17200000000E+03 0.  1.
         -6    1    1    2    0  503 -0.48542011003E+02  0.18768839229E+02 -0.46976184479E+02  0.18574002817E+03  0.17200000000E+03 0.  1.
</event>
<event>
 4    1  0.4475741E+000  0.2477551E+03  0.7818608E-02  0.1114732E+00
         21   -1    0    0  503  502  0.00000000000E+00  0.00000000000E+00  0.11566134657E+03  0.11566134657E+03  0.00000000000E+00 0. -1.
         21   -1    0    0  501  503 -0.00000000000E+00 -0.00000000000E+00 -0.75209044865E+03  0.75209044865E+03  0.00000000000E+00 0.  1.
          6    1    1    2  501    0 -0.98251416194E+02  0.14881276948E+03 -0.55361135495E+03  0.60652132154E+03  0.17200000000E+03 0.  1.
         -6    1    1    2    0  502  0.98251416194E+02 -0.14881276948E+03 -0.82817747132E+02  0.26123047369E+03  0.17200000000E+03 0. -1.
</event>
<event>
 4    1  0.4475741E+000  0.1992471E+03  0.7818608E-02  0.1150376E+00
         21   -1    0    0  501  502  0.00000000000E+00  0.00000000000E+00  0.10155876686E+03  0.10155876686E+03  0.00000000000E+00 0. -1.
         21   -1    0    0  502  503 -0.00000000000E+00 -0.00000000000E+00 -0.40130927236E+03  0.40130927236E+03  0.00000000000E+00 0.  1.
          6    1    1    2  501    0 -0.75495880956E+02 -0.66451347403E+02 -0.10938256327E+03  0.22729706281E+03  0.17200000000E+03 0. -1.
         -6    1    1    2    0  503  0.75495880956E+02  0.66451347403E+02 -0.19036794223E+03  0.27557097641E+03  0.17200000000E+03 0.  1.
</event>
<event>
 4    1  0.4475741E+000  0.1897232E+03  0.7818608E-02  0.1158711E+00
         21   -1    0    0  503  502  0.00000000000E+00  0.00000000000E+00  0.36637612704E+02  0.36637612704E+02  0.00000000000E+00 0.  1.
         21   -1    0    0  501  503 -0.00000000000E+00 -0.00000000000E+00 -0.12636262851E+04  0.12636262851E+04  0.00000000000E+00 0.  1.
          6    1    1    2  501    0  0.53336040166E+02  0.59717464250E+02 -0.92016730423E+03  0.93952263224E+03  0.17200000000E+03 0.  1.
         -6    1    1    2    0  502 -0.53336040166E+02 -0.59717464250E+02 -0.30682136816E+03  0.36074126556E+03  0.17200000000E+03 0.  1.
</event>
<event>
 4    1  0.4475741E+000  0.2417451E+03  0.7818608E-02  0.1118636E+00
         21   -1    0    0  503  502  0.00000000000E+00  0.00000000000E+00  0.62053964084E+03  0.62053964084E+03  0.00000000000E+00 0. -1.
         21   -1    0    0  501  503 -0.00000000000E+00 -0.00000000000E+00 -0.10187516603E+03  0.10187516603E+03  0.00000000000E+00 0.  1.
          6    1    1    2  501    0  0.12847746015E+03 -0.11113155647E+03  0.16004104815E+03  0.28992036442E+03  0.17200000000E+03 0. -1.
         -6    1    1    2    0  502 -0.12847746015E+03  0.11113155647E+03  0.35862342666E+03  0.43249444246E+03  0.17200000000E+03 0.  1.
</event>
<event>
 4    1  0.4475741E+000  0.1795385E+03  0.7818608E-02  0.1168250E+00
         21   -1    0    0  501  502  0.00000000000E+00  0.00000000000E+00  0.63016545826E+02  0.63016545826E+02  0.00000000000E+00 0. -1.
         21   -1    0    0  502  503 -0.00000000000E+00 -0.00000000000E+00 -0.53137064785E+03  0.53137064785E+03  0.00000000000E+00 0. -1.
          6    1    1    2  501    0 -0.51423381204E+02  0.23924848644E+01 -0.17673214629E+03  0.25192923540E+03  0.17200000000E+03 0. -1.
         -6    1    1    2    0  503  0.51423381204E+02 -0.23924848644E+01 -0.29162195573E+03  0.34245795827E+03  0.17200000000E+03 0. -1.
</event>
<event>
 4    1  0.4475741E+000  0.2110422E+03  0.7818608E-02  0.1140743E+00
         21   -1    0    0  503  502  0.00000000000E+00  0.00000000000E+00  0.55479638563E+03  0.55479638563E+03  0.00000000000E+00 0.  1.
         21   -1    0    0  501  503 -0.00000000000E+00 -0.00000000000E+00 -0.84503922018E+02  0.84503922018E+02  0.00000000000E+00 0.  1.
          6    1    1    2  501    0  0.36370453448E+02 -0.11675609074E+03  0.16367710926E+03  0.26707487846E+03  0.17200000000E+03 0.  1.
         -6    1    1    2    0  502 -0.36370453448E+02  0.11675609074E+03  0.30661535435E+03  0.37222542919E+03  0.17200000000E+03 0.  1.
</event>
<event>
 4    1  0.4475741E+000  0.2304993E+03  0.7818608E-02  0.1126289E+00
         21   -1    0    0  501  502  0.00000000000E+00  0.00000000000E+00  0.21356066106E+03  0.21356066106E+03  0.00000000000E+00 0.  1.
         21   -1    0    0  502  503 -0.00000000000E+00 -0.00000000000E+00 -0.28809368498E+03  0.28809368498E+03  0.00000000000E+00 0.  1.
          6    1    1    2  501    0 -0.13986740700E+03  0.63111211527E+02  0.55389147839E+02  0.23706090833E+03  0.17200000000E+03 0.  1.
         -6    1    1    2    0  503  0.13986740700E+03 -0.63111211527E+02 -0.12992217176E+03  0.26459343770E+03  0.17200000000E+03 0.  1.
</event>
<event>
 4    1  0.4475741E+000  0.1759391E+03  0.7818608E-02  0.1171792E+00
         21   -1    0    0  501  502  0.00000000000E+00  0.00000000000E+00  0.13757589407E+04  0.13757589407E+04  0.00000000000E+00 0.  1.
         21   -1    0    0  502  503 -0.00000000000E+00 -0.00000000000E+00 -0.59476602639E+02  0.59476602639E+02  0.00000000000E+00 0.  1.
          6    1    1    2  501    0  0.34433044935E+02 -0.13599432873E+02  0.12239680803E+04  0.12365486003E+04  0.17200000000E+03 0.  1.
         -6    1    1    2    0  503 -0.34433044935E+02  0.13599432873E+02  0.92314257691E+02  0.19868694303E+03  0.17200000000E+03 0.  1.
</event>
<event>
 4    1  0.4475741E+000  0.2193757E+03  0.7818608E-02  0.1134349E+00
         21   -1    0    0  501  502  0.00000000000E+00  0.00000000000E+00  0.35994646916E+03  0.35994646916E+03  0.00000000000E+00 0. -1.
         21   -1    0    0  502  503 -0.00000000000E+00 -0.00000000000E+00 -0.13639450541E+03  0.13639450541E+03  0.00000000000E+00 0.  1.
          6    1    1    2  501    0 -0.13338037491E+03  0.27411469240E+02  0.14664151609E+03  0.26387392311E+03  0.17200000000E+03 0.  1.
         -6    1    1    2    0  503  0.13338037491E+03 -0.27411469240E+02  0.76910447660E+02  0.23246705146E+03  0.17200000000E+03 0. -1.
</event>
<event>
 4    1  0.4475741E+000  0.2300690E+03  0.7818608E-02  0.1126591E+00
         21   -1    0    0  501  502  0.00000000000E+00  0.00000000000E+00  0.82939840179E+03  0.82939840179E+03  0.00000000000E+00 0.  1.
         21   -1    0    0  502  503 -0.00000000000E+00 -0.00000000000E+00 -0.65190354495E+02  0.65190354495E+02  0.00000000000E+00 0.  1.
          6    1    1    2  501    0 -0.13881974367E+03  0.63849891661E+02  0.31723920987E+03  0.39188320477E+03  0.17200000000E+03 0. -1.
         -6    1    1    2    0  503  0.13881974367E+03 -0.63849891661E+02  0.44696883743E+03  0.50270555152E+03  0.17200000000E+03 0. -1.
</event>
<event>
 4    1  0.4475741E+000  0.2665485E+03  0.7818608E-02  0.1103271E+00
         21   -1    0    0  503  502  0.00000000000E+00  0.00000000000E+00  0.31493089336E+02  0.31493089336E+02  0.00000000000E+00 0. -1.
         21   -1    0    0  501  503 -0.00000000000E+00 -0.00000000000E+00 -0.25954683375E+04  0.25954683375E+04  0.00000000000E+00 0.  1.
          6    1    1    2  501    0  0.80217997359E+02  0.18716085433E+03 -0.17570181325E+04  0.17771215013E+04  0.17200000000E+03 0.  1.
         -6    1    1    2    0  502 -0.80217997359E+02 -0.18716085433E+03 -0.80695711569E+03  0.84983992555E+03  0.17200000000E+03 0. -1.
</event>
<event>
 4    1  0.4475741E+000  0.1858987E+03  0.7818608E-02  0.1162213E+00
         21   -1    0    0  501  502  0.00000000000E+00  0.00000000000E+00  0.43780746137E+03  0.43780746137E+03  0.00000000000E+00 0.  1.
         21   -1    0    0  502  503 -0.00000000000E+00 -0.00000000000E+00 -0.13399968328E+03  0.13399968328E+03  0.00000000000E+00 0.  1.
          6    1    1    2  501    0 -0.69194718302E+02  0.13653921029E+02 -0.31371524835E+02  0.18852721599E+03  0.17200000000E+03 0.  1.
         -6    1    1    2    0  503  0.69194718302E+02 -0.13653921029E+02  0.33517930292E+03  0.38327992865E+03  0.17200000000E+03 0.  1.
</event>
<event>
 4    1  0.4475741E+000  0.2169784E+03  0.7818608E-02  0.1136156E+00
         21   -1    0    0  501  502  0.00000000000E+00  0.00000000000E+00  0.59511069920E+03  0.59511069920E+03  0.00000000000E+00 0. -1.
         21   -1    0    0  502  503 -0.00000000000E+00 -0.00000000000E+00 -0.93393799280E+02  0.93393799280E+02  0.00000000000E+00 0. -1.
          6    1    1    2  501    0 -0.96713706489E+01  0.13191702486E+03  0.38548436364E+03  0.44235487051E+03  0.17200000000E+03 0. -1.
         -6    1    1    2    0  503  0.96713706489E+01 -0.13191702486E+03  0.11623253629E+03  0.24614962797E+03  0.17200000000E+03 0. -1.
</event>
<event>
 4    1  0.4475741E+000  0.2483107E+03  0.7818608E-02  0.1114377E+00
         21   -1    0    0  503  502  0.00000000000E+00  0.00000000000E+00  0.39778755670E+03  0.39778755670E+03  0.00000000000E+00 0.  1.
         21   -1    0    0  501  503 -0.00000000000E+00 -0.00000000000E+00 -0.16624675468E+03  0.16624675468E+03  0.00000000000E+00 0. -1.
          6    1    1    2  501    0 -0.48506994369E+02 -0.17239854512E+03  0.42427447074E+02  0.25190925971E+03  0.17200000000E+03 0. -1.
         -6    1    1    2    0  502  0.48506994369E+02  0.17239854512E+03  0.18911335495E+03  0.31212505167E+03  0.17200000000E+03 0.  1.
</event>
<event>
 4    1  0.4475741E+000  0.2063982E+03  0.7818608E-02  0.1144450E+00
         21   -1    0    0  503  502  0.00000000000E+00  0.00000000000E+00  0.90628317614E+02  0.90628317614E+02  0.00000000000E+00 0.  1.
         21   -1    0    0  501  503 -0.00000000000E+00 -0.00000000000E+00 -0.53359431657E+03  0.53359431657E+03  0.00000000000E+00 0.  1.
          6    1    1    2  501    0 -0.38776778987E+02 -0.10729673291E+03 -0.32918597223E+03  0.38854038631E+03  0.17200000000E+03 0.  1.
         -6    1    1    2    0  502  0.38776778987E+02  0.10729673291E+03 -0.11378002673E+03  0.23568224787E+03  0.17200000000E+03 0.  1.
</event>
<event>
 4    1  0.4475741E+000  0.2159327E+03  0.7818608E-02  0.1136952E+00
         21   -1    0    0  503  502  0.00000000000E+00  0.00000000000E+00  0.10533455471E+03  0.10533455471E+03  0.00000000000E+00 0. -1.
         21   -1    0    0  501  503 -0.00000000000E+00 -0.00000000000E+00 -0.49555943070E+03  0.49555943070E+03  0.00000000000E+00 0. -1.
          6    1    1    2  501    0  0.81110912956E+02  0.10229352670E+03 -0.29327885793E+03  0.36419697186E+03  0.17200000000E+03 0. -1.
         -6    1    1    2    0  502 -0.81110912956E+02 -0.10229352670E+03 -0.96946018058E+02  0.23669701355E+03  0.17200000000E+03 0. -1.
</event>
<event>
 4    1  0.4475741E+000  0.1777638E+03  0.7818608E-02  0.1169985E+00
         21   -1    0    0  503  502  0.00000000000E+00  0.00000000000E+00  0.85378625068E+02  0.85378625068E+02  0.00000000000E+00 0.  1.
         21   -1    0    0  501  503 -0.00000000000E+00 -0.00000000000E+00 -0.50313252658E+03  0.50313252658E+03  0.00000000000E+00 0.  1.
          6    1    1    2  501    0 -0.13918579988E+02  0.42687518236E+02 -0.36017633088E+03  0.40165525069E+03  0.17200000000E+03 0.  1.
         -6    1    1    2    0  502  0.13918579988E+02 -0.42687518236E+02 -0.57577570630E+02  0.18685590096E+03  0.17200000000E+03 0.  1.
</event>
<event>
 4    1  0.4475741E+000  0.1969306E+03  0.7818608E-02  0.1152355E+00
         21   -1    0    0  503  502  0.00000000000E+00  0.00000000000E+00  0.25214151348E+03  0.25214151348E+03  0.00000000000E+00 0. -1.
         21   -1    0    0  501  503 -0.00000000000E+00 -0.00000000000E+00 -0.18253333958E+03  0.18253333958E+03  0.00000000000E+00 0. -1.
          6    1    1    2  501    0  0.79999201318E+02  0.52894062873E+02 -0.51411908224E+02  0.20353092739E+03  0.17200000000E+03 0.  1.
         -6    1    1    2    0  502 -0.79999201318E+02 -0.52894062873E+02  0.12102008212E+03  0.23114392567E+03  0.17200000000E+03 0.  1.
</event>
<event>
 4    1  0.4475741E+000  0.1771812E+03  0.7818608E-02  0.1170559E+00
         21   -1    0    0  503  502  0.00000000000E+00  0.00000000000E+00  0.32821057867E+03  0.32821057867E+03  0.00000000000E+00 0.  1.
         21   -1    0    0  501  503 -0.00000000000E+00 -0.00000000000E+00 -0.95979949353E+02  0.95979949353E+02  0.00000000000E+00 0.  1.
          6    1    1    2  501    0  0.18843653297E+02  0.38132801943E+02  0.10367128863E+03  0.20528256122E+03  0.17200000000E+03 0.  1.
         -6    1    1    2    0  502 -0.18843653297E+02 -0.38132801943E+02  0.12855934069E+03  0.21890796681E+03  0.17200000000E+03 0.  1.
</event>
<event>
 4    1  0.4475741E+000  0.1796500E+03  0.7818608E-02  0.1168142E+00
         21   -1    0    0  501  502  0.00000000000E+00  0.00000000000E+00  0.42564690520E+02  0.42564690520E+02  0.00000000000E+00 0. -1.
         21   -1    0    0  502  503 -0.00000000000E+00 -0.00000000000E+00 -0.86076153455E+03  0.86076153455E+03  0.00000000000E+00 0. -1.
          6    1    1    2  501    0  0.35515185147E+02 -0.37799521457E+02 -0.25321976509E+03  0.31047444602E+03  0.17200000000E+03 0. -1.
         -6    1    1    2    0  503 -0.35515185147E+02  0.37799521457E+02 -0.56497707894E+03  0.59285177905E+03  0.17200000000E+03 0. -1.
</event>
<event>
 4    1  0.4475741E+000  0.2507315E+03  0.7818608E-02  0.1112843E+00
         21   -1    0    0  501  502  0.00000000000E+00  0.00000000000E+00  0.10294182321E+04  0.10294182321E+04  0.00000000000E+00 0. -1.
         21   -1    0    0  502  503 -0.00000000000E+00 -0.00000000000E+00 -0.76960040065E+02  0.76960040065E+02  0.00000000000E+00 0. -1.
          6    1    1    2  501    0  0.13000337913E+03  0.12798980925E+03  0.72759565470E+03  0.76958541215E+03  0.17200000000E+03 0. -1.
         -6    1    1    2    0  503 -0.13000337913E+03 -0.12798980925E+03  0.22486253731E+03  0.33679285999E+03  0.17200000000E+03 0. -1.
</event>
<event>
 4    1  0.4475741E+000  0.2267983E+03  0.7818608E-02  0.1128914E+00
         21   -1    0    0  503  502  0.00000000000E+00  0.00000000000E+00  0.18418887855E+03  0.18418887855E+03  0.00000000000E+00 0. -1.
         21   -1    0    0  501  503 -0.00000000000E+00 -0.00000000000E+00 -0.41822616798E+03  0.41822616798E+03  0.00000000000E+00 0. -1.
          6    1    1    2  501    0 -0.13998688818E+03  0.47509385024E+02 -0.29064164326E+03  0.36865978263E+03  0.17200000000E+03 0. -1.
         -6    1    1    2    0  502  0.13998688818E+03 -0.47509385024E+02  0.56604353840E+02  0.23375526390E+03  0.17200000000E+03 0. -1.
</event>
<event>
 4    1  0.4475741E+000  0.1833015E+03  0.7818608E-02  0.1164646E+00
         21   -1    0    0  503  502  0.00000000000E+00  0.00000000000E+00  0.32809914363E+02  0.32809914363E+02  0.00000000000E+00 0.  1.
         21   -1    0    0  501  503 -0.00000000000E+00 -0.00000000000E+00 -0.10447388249E+04  0.10447388249E+04  0.00000000000E+00 0.  1.
          6    1    1    2  501    0  0.26957771842E+02  0.57347401953E+02 -0.58175690684E+03  0.60995126414E+03  0.17200000000E+03 0.  1.
         -6    1    1    2    0  502 -0.26957771842E+02 -0.57347401953E+02 -0.43017200369E+03  0.46759747512E+03  0.17200000000E+03 0.  1.
</event>
<event>
 4    1  0.4475741E+000  0.2685687E+03  0.7818608E-02  0.1102102E+00
         21   -1    0    0  501  502  0.00000000000E+00  0.00000000000E+00  0.11750388936E+03  0.11750388936E+03  0.00000000000E+00 0. -1.
         21   -1    0    0  502  503 -0.00000000000E+00 -0.00000000000E+00 -0.91543901626E+03  0.91543901626E+03  0.00000000000E+00 0.  1.
          6    1    1    2  501    0 -0.12702335379E+03  0.16251214069E+03 -0.10252315791E+03  0.28747195722E+03  0.17200000000E+03 0. -1.
         -6    1    1    2    0  503  0.12702335379E+03 -0.16251214069E+03 -0.69541196899E+03  0.74547094839E+03  0.17200000000E+03 0.  1.
</event>
<event>
 4    1  0.4475741E+000  0.1740975E+03  0.7818608E-02  0.1173641E+00
         21   -1    0    0  501  502  0.00000000000E+00  0.00000000000E+00  0.19565409141E+04  0.19565409141E+04  0.00000000000E+00 0.  1.
         21   -1    0    0  502  503 -0.00000000000E+00 -0.00000000000E+00 -0.17338809448E+02  0.17338809448E+02  0.00000000000E+00 0.  1.
          6    1    1    2  501    0 -0.13370889598E+02 -0.23391606366E+02  0.64746509713E+03  0.67046327263E+03  0.17200000000E+03 0.  1.
         -6    1    1    2    0  503  0.13370889598E+02  0.23391606366E+02  0.12917370075E+04  0.13034164509E+04  0.17200000000E+03 0.  1.
</event>
<event>
 4    1  0.4475741E+000  0.1745996E+03  0.7818608E-02  0.1173134E+00
         21   -1    0    0  503  502  0.00000000000E+00  0.00000000000E+00  0.10490336650E+03  0.10490336650E+03  0.00000000000E+00 0.  1.
         21   -1    0    0  501  503 -0.00000000000E+00 -0.00000000000E+00 -0.95760395637E+03  0.95760395637E+03  0.00000000000E+00 0.  1.
          6    1    1    2  501    0  0.27294722778E+02  0.12491344637E+02 -0.86972693855E+03  0.88707946838E+03  0.17200000000E+03 0.  1.
         -6    1    1    2    0  502 -0.27294722778E+02 -0.12491344637E+02  0.17026348677E+02  0.17542785449E+03  0.17200000000E+03 0.  1.
</event>
<event>
 4    1  0.4475741E+000  0.2757317E+03  0.7818608E-02  0.1098043E+00
         21   -1    0    0  501  502  0.00000000000E+00  0.00000000000E+00  0.68448042176E+02  0.68448042176E+02  0.00000000000E+00 0. -1.
         21   -1    0    0  502  503 -0.00000000000E+00 -0.00000000000E+00 -0.14051321729E+04  0.14051321729E+04  0.00000000000E+00 0.  1.
          6    1    1    2  501    0  0.17151509661E+03 -0.13048570593E+03 -0.33109462974E+03  0.43087306908E+03  0.17200000000E+03 0. -1.
         -6    1    1    2    0  503 -0.17151509661E+03  0.13048570593E+03 -0.10055895010E+04  0.10427071460E+04  0.17200000000E+03 0.  1.
</event>
<event>
 4    1  0.4475741E+000  0.1862854E+03  0.7818608E-02  0.1161855E+00
         21   -1    0    0  503  502  0.00000000000E+00  0.00000000000E+00  0.47865450406E+03  0.47865450406E+03  0.00000000000E+00 0.  1.
         21   -1    0    0  501  503 -0.00000000000E+00 -0.00000000000E+00 -0.75659887624E+02  0.75659887624E+02  0.00000000000E+00 0.  1.
          6    1    1    2  501    0  0.70024487991E+02  0.14657340566E+02  0.14485307667E+03  0.23597601652E+03  0.17200000000E+03 0.  1.
         -6    1    1    2    0  502 -0.70024487991E+02 -0.14657340566E+02  0.25814153976E+03  0.31833837516E+03  0.17200000000E+03 0.  1.
</event>
<event>
 4    1  0.4475741E+000  0.1816548E+03  0.7818608E-02  0.1166211E+00
         21   -1    0    0  503  502  0.00000000000E+00  0.00000000000E+00  0.71843147934E+03  0.71843147934E+03  0.00000000000E+00 0. -1.
         21   -1    0    0  501  503 -0.00000000000E+00 -0.00000000000E+00 -0.85729975550E+02  0.85729975550E+02  0.00000000000E+00 0. -1.
          6    1    1    2  501    0 -0.18643810319E+02  0.55379458759E+02  0.59030707959E+03  0.61762522967E+03  0.17200000000E+03 0. -1.
         -6    1    1    2    0  502  0.18643810319E+02 -0.55379458759E+02  0.42394424204E+02  0.18653622522E+03  0.17200000000E+03 0. -1.
</event>
<event>
 4    1  0.4475741E+000  0.2037487E+03  0.7818608E-02  0.1146614E+00
         21   -1    0    0  503  502  0.00000000000E+00  0.00000000000E+00  0.11728409061E+03  0.11728409061E+03  0.00000000000E+00 0.  1.
         21   -1    0    0  501  503 -0.00000000000E+00 -0.00000000000E+00 -0.45976386487E+03  0.45976386487E+03  0.00000000000E+00 0. -1.
          6    1    1    2  501    0  0.10647966306E+03  0.24323216122E+02 -0.30965107492E+03  0.37067145249E+03  0.17200000000E+03 0.  1.
         -6    1    1    2    0  502 -0.10647966306E+03 -0.24323216122E+02 -0.32828699336E+02  0.20637650299E+03  0.17200000000E+03 0.  1.
</event>
<event>
 4    1  0.4475741E+000  0.3566284E+03  0.7818608E-02  0.1059927E+00
         21   -1    0    0  501  502  0.00000000000E+00  0.00000000000E+00  0.71079300543E+03  0.71079300543E+03  0.00000000000E+00 0.  1.
         21   -1    0    0  502  503 -0.00000000000E+00 -0.00000000000E+00 -0.35061957476E+03  0.35061957476E+03  0.00000000000E+00 0.  1.
          6    1    1    2  501    0  0.74279783074E+02 -0.30345075171E+03  0.55145531315E+03  0.65672430082E+03  0.17200000000E+03 0.  1.
         -6    1    1    2    0  503 -0.74279783074E+02  0.30345075171E+03 -0.19128188248E+03  0.40468827936E+03  0.17200000000E+03 0.  1.
</event>
<event>
 4    1  0.4475741E+000  0.1865965E+03  0.7818608E-02  0.1161567E+00
         21   -1    0    0  501  502  0.00000000000E+00  0.00000000000E+00  0.11522558326E+03  0.11522558326E+03  0.00000000000E+00 0.  1.
         21   -1    0    0  502  503 -0.00000000000E+00 -0.00000000000E+00 -0.35343308569E+03  0.35343308569E+03  0.00000000000E+00 0.  1.
          6    1    1    2  501    0  0.32039762261E+02  0.64866949425E+02 -0.20834283435E+03  0.27968733278E+03  0.17200000000E+03 0.  1.
         -6    1    1    2    0  503 -0.32039762261E+02 -0.64866949425E+02 -0.29864668087E+02  0.18897133617E+03  0.17200000000E+03 0.  1.
</event>
<event>
 4    1  0.4475741E+000  0.1860853E+03  0.7818608E-02  0.1162040E+00
         21   -1    0    0  501  502  0.00000000000E+00  0.00000000000E+00  0.76360512813E+02  0.76360512813E+02  0.00000000000E+00 0.  1.
         21   -1    0    0  502  503 -0.00000000000E+00 -0.00000000000E+00 -0.76535127169E+03  0.76535127169E+03  0.00000000000E+00 0.  1.
          6    1    1    2  501    0  0.69569411708E+02 -0.14277518626E+02 -0.75841787366E+02  0.20094707585E+03  0.17200000000E+03 0.  1.
         -6    1    1    2    0  503 -0.69569411708E+02  0.14277518626E+02 -0.61314897151E+03  0.64076470865E+03  0.17200000000E+03 0.  1.
</event>
<event>
 4    1  0.4475741E+000  0.3766140E+03  0.7818608E-02  0.1052192E+00
         21   -1    0    0  501  502  0.00000000000E+00  0.00000000000E+00  0.11996407571E+03  0.11996407571E+03  0.00000000000E+00 0. -1.
         21   -1    0    0  502  503 -0.00000000000E+00 -0.00000000000E+00 -0.13408310544E+04  0.13408310544E+04  0.00000000000E+00 0.  1.
          6    1    1    2  501    0 -0.16021783785E+03  0.29425224415E+03 -0.35931609619E+03  0.52052492326E+03  0.17200000000E+03 0. -1.
         -6    1    1    2    0  503  0.16021783785E+03 -0.29425224415E+03 -0.86155088246E+03  0.94027020682E+03  0.17200000000E+03 0.  1.
</event>
<event>
 4    1  0.4475741E+000  0.2066334E+03  0.7818608E-02  0.1144260E+00
         21   -1    0    0  503  502  0.00000000000E+00  0.00000000000E+00  0.10765230133E+03  0.10765230133E+03  0.00000000000E+00 0.  1.
         21   -1    0    0  501  503 -0.00000000000E+00 -0.00000000000E+00 -0.45073909588E+03  0.45073909588E+03  0.00000000000E+00 0. -1.
          6    1    1    2  501    0 -0.10890294508E+03  0.35404913234E+02 -0.26828428310E+03  0.33863522540E+03  0.17200000000E+03 0. -1.
         -6    1    1    2    0  502  0.10890294508E+03 -0.35404913234E+02 -0.74802511458E+02  0.21975617181E+03  0.17200000000E+03 0.  1.
</event>
<event>
 4    1  0.4475741E+000  0.2819627E+03  0.7818608E-02  0.1094622E+00
         21   -1    0    0  503  502  0.00000000000E+00  0.00000000000E+00  0.69837555608E+02  0.69837555608E+02  0.00000000000E+00 0. -1.
         21   -1    0    0  501  503 -0.00000000000E+00 -0.00000000000E+00 -0.18662635689E+04  0.18662635689E+04  0.00000000000E+00 0.  1.
          6    1    1    2  501    0 -0.20260601212E+03  0.94179427602E+02 -0.15027696871E+04  0.15289930324E+04  0.17200000000E+03 0.  1.
         -6    1    1    2    0  502  0.20260601212E+03 -0.94179427602E+02 -0.29365632620E+03  0.40710809209E+03  0.17200000000E+03 0. -1.
</event>
<event>
 4    1  0.4475741E+000  0.2797268E+03  0.7818608E-02  0.1095838E+00
         21   -1    0    0  503  502  0.00000000000E+00  0.00000000000E+00  0.65290125058E+03  0.65290125058E+03  0.00000000000E+00 0. -1.
         21   -1    0    0  501  503 -0.00000000000E+00 -0.00000000000E+00 -0.12489770641E+03  0.12489770641E+03  0.00000000000E+00 0.  1.
          6    1    1    2  501    0 -0.21605401004E+03 -0.44539471402E+02  0.18578275983E+03  0.33580103278E+03  0.17200000000E+03 0. -1.
         -6    1    1    2    0  502  0.21605401004E+03  0.44539471402E+02  0.34222078434E+03  0.44199792420E+03  0.17200000000E+03 0.  1.
</event>
<event>
 4    1  0.4475741E+000  0.2344467E+03  0.7818608E-02  0.1123549E+00
         21   -1    0    0  503  502  0.00000000000E+00  0.00000000000E+00  0.19901651820E+03  0.19901651820E+03  0.00000000000E+00 0. -1.
         21   -1    0    0  501  503 -0.00000000000E+00 -0.00000000000E+00 -0.45779874439E+03  0.45779874439E+03  0.00000000000E+00 0. -1.
          6    1    1    2  501    0  0.50868425580E+02  0.15097565043E+03 -0.33623900497E+03  0.40990475993E+03  0.17200000000E+03 0. -1.
         -6    1    1    2    0  502 -0.50868425580E+02 -0.15097565043E+03  0.77456778779E+02  0.24691050266E+03  0.17200000000E+03 0. -1.
</event>
<event>
 4    1  0.4475741E+000  0.1760116E+03  0.7818608E-02  0.1171720E+00
         21   -1    0    0  503  502  0.00000000000E+00  0.00000000000E+00  0.24211252417E+03  0.24211252417E+03  0.00000000000E+00 0.  1.
         21   -1    0    0  501  503 -0.00000000000E+00 -0.00000000000E+00 -0.14583661658E+03  0.14583661658E+03  0.00000000000E+00 0.  1.
          6    1    1    2  501    0 -0.22761754714E+02 -0.29630873519E+02 -0.19780204298E+02  0.17711957155E+03  0.17200000000E+03 0.  1.
         -6    1    1    2    0  502  0.22761754714E+02  0.29630873519E+02  0.11605611189E+03  0.21082956920E+03  0.17200000000E+03 0.  1.
</event>
<event>
 4    1  0.4475741E+000  0.1914663E+03  0.7818608E-02  0.1157145E+00
         21   -1    0    0  501  502  0.00000000000E+00  0.00000000000E+00  0.19278343658E+02  0.19278343658E+02  0.00000000000E+00 0.  1.
         21   -1    0    0  502  503 -0.00000000000E+00 -0.00000000000E+00 -0.22401818993E+04  0.22401818993E+04  0.00000000000E+00 0.  1.
          6    1    1    2  501    0  0.82274527933E+02  0.17499956446E+02 -0.67123730675E+03  0.69801065063E+03  0.17200000000E+03 0.  1.
         -6    1    1    2    0  503 -0.82274527933E+02 -0.17499956446E+02 -0.15496662489E+04  0.15614495923E+04  0.17200000000E+03 0.  1.
</event>
<event>
 4    1  0.4475741E+000  0.2525733E+03  0.7818608E-02  0.1111689E+00
         21   -1    0    0  503  502  0.00000000000E+00  0.00000000000E+00  0.12979746922E+03  0.12979746922E+03  0.00000000000E+00 0.  1.
         21   -1    0    0  501  503 -0.00000000000E+00 -0.00000000000E+00 -0.15619161703E+04  0.15619161703E+04  0.00000000000E+00 0.  1.
          6    1    1    2  501    0 -0.15176451342E+03 -0.10572030923E+03 -0.14163007302E+04  0.14386455469E+04  0.17200000000E+03 0.  1.
         -6    1    1    2    0  502  0.15176451342E+03  0.10572030923E+03 -0.15817970933E+02  0.25306809266E+03  0.17200000000E+03 0.  1.
</event>
<event>
 4    1  0.4475741E+000  0.2604037E+03  0.7818608E-02  0.1106901E+00
         21   -1    0    0  501  502  0.00000000000E+00  0.00000000000E+00  0.43778518589E+03  0.43778518589E+03  0.00000000000E+00 0.  1.
         21   -1    0    0  502  503 -0.00000000000E+00 -0.00000000000E+00 -0.30744998300E+03  0.30744998300E+03  0.00000000000E+00 0. -1.
          6    1    1    2  501    0  0.91139277786E+02 -0.17297323692E+03  0.32764465929E+03  0.41852255782E+03  0.17200000000E+03 0.  1.
         -6    1    1    2    0  503 -0.91139277786E+02  0.17297323692E+03 -0.19730945640E+03  0.32671261107E+03  0.17200000000E+03 0. -1.
</event>
<event>
 4    1  0.4475741E+000  0.1805129E+03  0.7818608E-02  0.1167308E+00
         21   -1    0    0  503  502  0.00000000000E+00  0.00000000000E+00  0.49151046988E+03  0.49151046988E+03  0.00000000000E+00 0.  1.
         21   -1    0    0  501  503 -0.00000000000E+00 -0.00000000000E+00 -0.21511239301E+03  0.21511239301E+03  0.00000000000E+00 0.  1.
          6    1    1    2  501    0  0.32511258927E+02  0.44090052725E+02 -0.15566818017E+03  0.23836421087E+03  0.17200000000E+03 0.  1.
         -6    1    1    2    0  502 -0.32511258927E+02 -0.44090052725E+02  0.43206625705E+03  0.46825865202E+03  0.17200000000E+03 0.  1.
</event>
<event>
 4    1  0.4475741E+000  0.1885725E+03  0.7818608E-02  0.1159755E+00
         21   -1    0    0  503  502  0.00000000000E+00  0.00000000000E+00  0.64982896602E+02  0.64982896602E+02  0.00000000000E+00 0.  1.
         21   -1    0    0  501  503 -0.00000000000E+00 -0.00000000000E+00 -0.67460805942E+03  0.67460805942E+03  0.00000000000E+00 0.  1.
          6    1    1    2  501    0 -0.56419221508E+02 -0.52843753181E+02 -0.46551017448E+03  0.50225423179E+03  0.17200000000E+03 0.  1.
         -6    1    1    2    0  502  0.56419221508E+02  0.52843753181E+02 -0.14411498834E+03  0.23733672423E+03  0.17200000000E+03 0.  1.
</event>
<event>
 4    1  0.4475741E+000  0.1821126E+03  0.7818608E-02  0.1165774E+00
         21   -1    0    0  503  502  0.00000000000E+00  0.00000000000E+00  0.23401697559E+03  0.23401697559E+03  0.00000000000E+00 0.  1.
         21   -1    0    0  501  503 -0.00000000000E+00 -0.00000000000E+00 -0.14190060474E+03  0.14190060474E+03  0.00000000000E+00 0.  1.
          6    1    1    2  501    0 -0.33523202253E+02 -0.49570072119E+02  0.39361464637E+02  0.18631779850E+03  0.17200000000E+03 0.  1.
         -6    1    1    2    0  502  0.33523202253E+02  0.49570072119E+02  0.52754906213E+02  0.18959978183E+03  0.17200000000E+03 0.  1.
</event>
<event>
 4    1  0.4475741E+000  0.2593569E+03  0.7818608E-02  0.1107530E+00
         21   -1    0    0  503  502  0.00000000000E+00  0.00000000000E+00  0.45636218931E+02  0.45636218931E+02  0.00000000000E+00 0.  1.
         21   -1    0    0  501  503 -0.00000000000E+00 -0.00000000000E+00 -0.14846457504E+04  0.14846457504E+04  0.00000000000E+00 0.  1.
          6    1    1    2  501    0 -0.13281228546E+03 -0.14157298178E+03 -0.65459503448E+03  0.70410274215E+03  0.17200000000E+03 0.  1.
         -6    1    1    2    0  502  0.13281228546E+03  0.14157298178E+03 -0.78441449697E+03  0.82617922717E+03  0.17200000000E+03 0.  1.
</event>
<event>
 4    1  0.4475741E+000  0.1941605E+03  0.7818608E-02  0.1154761E+00
         21   -1    0    0  503  502  0.00000000000E+00  0.00000000000E+00  0.44309895739E+02  0.44309895739E+02  0.00000000000E+00 0.  1.
         21   -1    0    0  501  503 -0.00000000000E+00 -0.00000000000E+00 -0.14483414399E+04  0.14483414399E+04  0.00000000000E+00 0. -1.
          6    1    1    2  501    0  0.31430128159E+02 -0.84418228341E+02 -0.11813976160E+04  0.11972462642E+04  0.17200000000E+03 0. -1.
         -6    1    1    2    0  502 -0.31430128159E+02  0.84418228341E+02 -0.22263392826E+03  0.29540507146E+03  0.17200000000E+03 0.  1.
</event>
<event>
 4    1  0.4475741E+000  0.1775424E+03  0.7818608E-02  0.1170203E+00
         21   -1    0    0  503  502  0.00000000000E+00  0.00000000000E+00  0.39497023494E+03  0.39497023494E+03  0.00000000000E+00 0.  1.
         21   -1    0    0  501  503 -0.00000000000E+00 -0.00000000000E+00 -0.29703776914E+03  0.29703776914E+03  0.00000000000E+00 0.  1.
          6    1    1    2  501    0  0.30249963581E+02  0.31972801520E+02 -0.24692774739E+03  0.30412930271E+03  0.17200000000E+03 0.  1.
         -6    1    1    2    0  502 -0.30249963581E+02 -0.31972801520E+02  0.34486021319E+03  0.38787870137E+03  0.17200000000E+03 0.  1.
</event>
<event>
 4    1  0.4475741E+000  0.1902231E+03  0.7818608E-02  0.1158260E+00
         21   -1    0    0  501  502  0.00000000000E+00  0.00000000000E+00  0.31773594676E+03  0.31773594676E+03  0.00000000000E+00 0.  1.
         21   -1    0    0  502  503 -0.00000000000E+00 -0.00000000000E+00 -0.26312451098E+03  0.26312451098E+03  0.00000000000E+00 0.  1.
          6    1    1    2  501    0  0.66011569498E+02 -0.47363444629E+02  0.24603429266E+03  0.31099468864E+03  0.17200000000E+03 0.  1.
         -6    1    1    2    0  503 -0.66011569498E+02  0.47363444629E+02 -0.19142285689E+03  0.26986576910E+03  0.17200000000E+03 0.  1.
</event>
<event>
 4    1  0.4475741E+000  0.1735607E+03  0.7818608E-02  0.1174185E+00
         21   -1    0    0  501  502  0.00000000000E+00  0.00000000000E+00  0.74524657118E+03  0.74524657118E+03  0.00000000000E+00 0.  1.
         21   -1    0    0  502  503 -0.00000000000E+00 -0.00000000000E+00 -0.21757967002E+03  0.21757967002E+03  0.00000000000E+00 0.  1.
          6    1    1    2  501    0  0.12183815695E+02  0.19770662498E+02  0.69823407776E+03  0.71948186343E+03  0.17200000000E+03 0.  1.
         -6    1    1    2    0  503 -0.12183815695E+02 -0.19770662498E+02 -0.17056717660E+03  0.24334437777E+03  0.17200000000E+03 0.  1.
</event>
<event>
 4    1  0.4475741E+000  0.2156499E+03  0.7818608E-02  0.1137168E+00
         21   -1    0    0  503  502  0.00000000000E+00  0.00000000000E+00  0.61342969014E+03  0.61342969014E+03  0.00000000000E+00 0.  1.
         21   -1    0    0  501  503 -0.00000000000E+00 -0.00000000000E+00 -0.80265171711E+02  0.80265171711E+02  0.00000000000E+00 0.  1.
          6    1    1    2  501    0 -0.95446732195E+02  0.88378727102E+02  0.34828670451E+03  0.40964436604E+03  0.17200000000E+03 0.  1.
         -6    1    1    2    0  502  0.95446732195E+02 -0.88378727102E+02  0.18487781392E+03  0.28405049581E+03  0.17200000000E+03 0.  1.
</event>
<event>
 4    1  0.4475741E+000  0.3692697E+03  0.7818608E-02  0.1054973E+00
         21   -1    0    0  503  502  0.00000000000E+00  0.00000000000E+00  0.15243297700E+04  0.15243297700E+04  0.00000000000E+00 0. -1.
         21   -1    0    0  501  503 -0.00000000000E+00 -0.00000000000E+00 -0.13535814490E+03  0.13535814490E+03  0.00000000000E+00 0.  1.
          6    1    1    2  501    0  0.12603380238E+03  0.30148227508E+03  0.21123582271E+03  0.42541821109E+03  0.17200000000E+03 0.  1.
         -6    1    1    2    0  502 -0.12603380238E+03 -0.30148227508E+03  0.11777358024E+04  0.12342697038E+04  0.17200000000E+03 0. -1.
</event>
<event>
 4    1  0.4475741E+000  0.1730043E+03  0.7818608E-02  0.1174751E+00
         21   -1    0    0  503  502  0.00000000000E+00  0.00000000000E+00  0.19085216279E+03  0.19085216279E+03  0.00000000000E+00 0.  1.
         21   -1    0    0  501  503 -0.00000000000E+00 -0.00000000000E+00 -0.59640552562E+03  0.59640552562E+03  0.00000000000E+00 0.  1.
          6    1    1    2  501    0  0.18478490370E+02 -0.22406082673E+01 -0.54071317150E+03  0.56771578168E+03  0.17200000000E+03 0.  1.
         -6    1    1    2    0  502 -0.18478490370E+02  0.22406082673E+01  0.13515980867E+03  0.21954190673E+03  0.17200000000E+03 0.  1.
</event>
<event>
 4    1  0.4475741E+000  0.2131281E+03  0.7818608E-02  0.1139113E+00
         21   -1    0    0  503  502  0.00000000000E+00  0.00000000000E+00  0.85146395746E+02  0.85146395746E+02  0.00000000000E+00 0. -1.
         21   -1    0    0  501  503 -0.00000000000E+00 -0.00000000000E+00 -0.54014171596E+03  0.54014171596E+03  0.00000000000E+00 0. -1.
          6    1    1    2  501    0  0.86118042620E+02  0.91778425231E+02 -0.26222769218E+03  0.33791560951E+03  0.17200000000E+03 0. -1.
         -6    1    1    2    0  502 -0.86118042620E+02 -0.91778425231E+02 -0.19276762804E+03  0.28737250220E+03  0.17200000000E+03 0. -1.
</event>
<event>
 4    1  0.4475741E+000  0.1900441E+03  0.7818608E-02  0.1158422E+00
         21   -1    0    0  501  502  0.00000000000E+00  0.00000000000E+00  0.17352628878E+03  0.17352628878E+03  0.00000000000E+00 0.  1.
         21   -1    0    0  502  503 -0.00000000000E+00 -0.00000000000E+00 -0.31843529987E+03  0.31843529987E+03  0.00000000000E+00 0.  1.
          6    1    1    2  501    0  0.80534749217E+02 -0.68496125505E+01  0.72316113313E+02  0.20333810088E+03  0.17200000000E+03 0.  1.
         -6    1    1    2    0  503 -0.80534749217E+02  0.68496125505E+01 -0.21722512440E+03  0.28862348777E+03  0.17200000000E+03 0.  1.
</event>
<event>
 4    1  0.4475741E+000  0.2145953E+03  0.7818608E-02  0.1137978E+00
         21   -1    0    0  503  502  0.00000000000E+00  0.00000000000E+00  0.13065039370E+04  0.13065039370E+04  0.00000000000E+00 0.  1.
         21   -1    0    0  501  503 -0.00000000000E+00 -0.00000000000E+00 -0.36447232082E+02  0.36447232082E+02  0.00000000000E+00 0.  1.
          6    1    1    2  501    0 -0.10666435708E+03 -0.71343310819E+02  0.51320836912E+03  0.55626790597E+03  0.17200000000E+03 0.  1.
         -6    1    1    2    0  502  0.10666435708E+03  0.71343310819E+02  0.75684833578E+03  0.78668326310E+03  0.17200000000E+03 0.  1.
</event>
<event>
 4    1  0.4475741E+000  0.2178357E+03  0.7818608E-02  0.1135507E+00
         21   -1    0    0  503  502  0.00000000000E+00  0.00000000000E+00  0.15938414170E+03  0.15938414170E+03  0.00000000000E+00 0. -1.
         21   -1    0    0  501  503 -0.00000000000E+00 -0.00000000000E+00 -0.30709373690E+03  0.30709373690E+03  0.00000000000E+00 0. -1.
          6    1    1    2  501    0  0.11086895455E+03 -0.74675755621E+02 -0.33112787168E+02  0.22033803629E+03  0.17200000000E+03 0. -1.
         -6    1    1    2    0  502 -0.11086895455E+03  0.74675755621E+02 -0.11459680804E+03  0.24613984231E+03  0.17200000000E+03 0. -1.
</event>
<event>
 4    1  0.4475741E+000  0.2414031E+03  0.7818608E-02  0.1118862E+00
         21   -1    0    0  503  502  0.00000000000E+00  0.00000000000E+00  0.13886225677E+03  0.13886225677E+03  0.00000000000E+00 0.  1.
         21   -1    0    0  501  503 -0.00000000000E+00 -0.00000000000E+00 -0.42940811637E+03  0.42940811637E+03  0.00000000000E+00 0.  1.
          6    1    1    2  501    0  0.74035170744E+02 -0.15234911847E+03 -0.18807511036E+03  0.30601912938E+03  0.17200000000E+03 0.  1.
         -6    1    1    2    0  502 -0.74035170744E+02  0.15234911847E+03 -0.10247074923E+03  0.26225124376E+03  0.17200000000E+03 0.  1.
</event>
<event>
 4    1  0.4475741E+000  0.2238695E+03  0.7818608E-02  0.1131031E+00
         21   -1    0    0  503  502  0.00000000000E+00  0.00000000000E+00  0.50874293426E+03  0.50874293426E+03  0.00000000000E+00 0. -1.
         21   -1    0    0  501  503 -0.00000000000E+00 -0.00000000000E+00 -0.12885940763E+03  0.12885940763E+03  0.00000000000E+00 0.  1.
          6    1    1    2  501    0 -0.17108892903E+02  0.14227037944E+03  0.35231706090E+02  0.22662490639E+03  0.17200000000E+03 0. -1.
         -6    1    1    2    0  502  0.17108892903E+02 -0.14227037944E+03  0.34465182054E+03  0.41097743550E+03  0.17200000000E+03 0. -1.
</event>
<event>
 4    1  0.4475741E+000  0.2340266E+03  0.7818608E-02  0.1123837E+00
         21   -1    0    0  501  502  0.00000000000E+00  0.00000000000E+00  0.90355502450E+03  0.90355502450E+03  0.00000000000E+00 0. -1.
         21   -1    0    0  502  503 -0.00000000000E+00 -0.00000000000E+00 -0.79878545592E+02  0.79878545592E+02  0.00000000000E+00 0.  1.
          6    1    1    2  501    0  0.11910720827E+03 -0.10487087155E+03  0.65331484981E+03  0.69396593557E+03  0.17200000000E+03 0. -1.
         -6    1    1    2    0  503 -0.11910720827E+03  0.10487087155E+03  0.17036162910E+03  0.28946763452E+03  0.17200000000E+03 0.  1.
</event>
<event>
 4    1  0.4475741E+000  0.1940794E+03  0.7818608E-02  0.1154833E+00
         21   -1    0    0  501  502  0.00000000000E+00  0.00000000000E+00  0.72390311780E+03  0.72390311780E+03  0.00000000000E+00 0.  1.
         21   -1    0    0  502  503 -0.00000000000E+00 -0.00000000000E+00 -0.53617265079E+02  0.53617265079E+02  0.00000000000E+00 0.  1.
          6    1    1    2  501    0 -0.89766715770E+02 -0.49756109179E+01  0.40196950793E+03  0.44637014379E+03  0.17200000000E+03 0.  1.
         -6    1    1    2    0  503  0.89766715770E+02  0.49756109179E+01  0.26831634479E+03  0.33115023908E+03  0.17200000000E+03 0.  1.
</event>
<event>
 4    1  0.4475741E+000  0.2341449E+03  0.7818608E-02  0.1123756E+00
         21   -1    0    0  503  502  0.00000000000E+00  0.00000000000E+00  0.61109903436E+03  0.61109903436E+03  0.00000000000E+00 0.  1.
         21   -1    0    0  501  503 -0.00000000000E+00 -0.00000000000E+00 -0.90722418707E+02  0.90722418707E+02  0.00000000000E+00 0. -1.
          6    1    1    2  501    0  0.20332554133E+02 -0.15756405979E+03  0.22318308477E+03  0.32347261866E+03  0.17200000000E+03 0.  1.
         -6    1    1    2    0  502 -0.20332554133E+02  0.15756405979E+03  0.29719353088E+03  0.37834883440E+03  0.17200000000E+03 0.  1.
</event>
<event>
 4    1  0.4475741E+000  0.2171213E+03  0.7818608E-02  0.1136048E+00
         21   -1    0    0  503  502  0.00000000000E+00  0.00000000000E+00  0.16804376294E+04  0.16804376294E+04  0.00000000000E+00 0.  1.
         21   -1    0    0  501  503 -0.00000000000E+00 -0.00000000000E+00 -0.67123550828E+02  0.67123550828E+02  0.00000000000E+00 0.  1.
          6    1    1    2  501    0 -0.12727838614E+03 -0.36849332443E+02  0.14002134924E+03  0.25835564465E+03  0.17200000000E+03 0.  1.
         -6    1    1    2    0  502  0.12727838614E+03  0.36849332443E+02  0.14732927293E+04  0.14892055355E+04  0.17200000000E+03 0.  1.
</event>
<event>
 4    1  0.4475741E+000  0.1775309E+03  0.7818608E-02  0.1170214E+00
         21   -1    0    0  501  502  0.00000000000E+00  0.00000000000E+00  0.50428075709E+02  0.50428075709E+02  0.00000000000E+00 0. -1.
         21   -1    0    0  502  503 -0.00000000000E+00 -0.00000000000E+00 -0.80204401797E+03  0.80204401797E+03  0.00000000000E+00 0. -1.
          6    1    1    2  501    0 -0.31747097688E+02  0.30419246355E+02 -0.17554533153E+03  0.24966652195E+03  0.17200000000E+03 0. -1.
         -6    1    1    2    0  503  0.31747097688E+02 -0.30419246355E+02 -0.57607061073E+03  0.60280557173E+03  0.17200000000E+03 0. -1.
</event>
<event>
 4    1  0.4475741E+000  0.2300800E+03  0.7818608E-02  0.1126583E+00
         21   -1    0    0  503  502  0.00000000000E+00  0.00000000000E+00  0.12360242697E+03  0.12360242697E+03  0.00000000000E+00 0.  1.
         21   -1    0    0  501  503 -0.00000000000E+00 -0.00000000000E+00 -0.64592988019E+03  0.64592988019E+03  0.00000000000E+00 0.  1.
          6    1    1    2  501    0  0.11888210709E+03 -0.96020052021E+02 -0.48451091919E+03  0.53636520822E+03  0.17200000000E+03 0.  1.
         -6    1    1    2    0  502 -0.11888210709E+03  0.96020052021E+02 -0.37816534031E+02  0.23316709893E+03  0.17200000000E+03 0.  1.
</event>
<event>
 4    1  0.4475741E+000  0.2361395E+03  0.7818608E-02  0.1122392E+00
         21   -1    0    0  501  502  0.00000000000E+00  0.00000000000E+00  0.71022235151E+02  0.71022235151E+02  0.00000000000E+00 0.  1.
         21   -1    0    0  502  503 -0.00000000000E+00 -0.00000000000E+00 -0.87209128951E+03  0.87209128951E+03  0.00000000000E+00 0.  1.
          6    1    1    2  501    0  0.16178806095E+03 -0.15723903269E+01 -0.25162917543E+03  0.34507838386E+03  0.17200000000E+03 0.  1.
         -6    1    1    2    0  503 -0.16178806095E+03  0.15723903269E+01 -0.54943987893E+03  0.59803514080E+03  0.17200000000E+03 0.  1.
</event>
<event>
 4    1  0.4475741E+000  0.2178865E+03  0.7818608E-02  0.1135469E+00
         21   -1    0    0  503  502  0.00000000000E+00  0.00000000000E+00  0.25043388485E+03  0.25043388485E+03  0.00000000000E+00 0.  1.
         21   -1    0    0  501  503 -0.00000000000E+00 -0.00000000000E+00 -0.28707117901E+03  0.28707117901E+03  0.00000000000E+00 0. -1.
          6    1    1    2  501    0 -0.28754303200E+01  0.13372460656E+03 -0.17494491377E+03  0.27942845480E+03  0.17200000000E+03 0. -1.
         -6    1    1    2    0  502  0.28754303200E+01 -0.13372460656E+03  0.13830761961E+03  0.25807660905E+03  0.17200000000E+03 0.  1.
</event>
<event>
 4    1  0.4475741E+000  0.1884804E+03  0.7818608E-02  0.1159839E+00
         21   -1    0    0  501  502  0.00000000000E+00  0.00000000000E+00  0.10973230086E+04  0.10973230086E+04  0.00000000000E+00 0.  1.
         21   -1    0    0  502  503 -0.00000000000E+00 -0.00000000000E+00 -0.33362404618E+02  0.33362404618E+02  0.00000000000E+00 0.  1.
          6    1    1    2  501    0  0.24200274344E+02  0.73179374241E+02  0.62928250435E+03  0.65690284241E+03  0.17200000000E+03 0.  1.
         -6    1    1    2    0  503 -0.24200274344E+02 -0.73179374241E+02  0.43467809959E+03  0.47378257076E+03  0.17200000000E+03 0.  1.
</event>
<event>
 4    1  0.4475741E+000  0.2917894E+03  0.7818608E-02  0.1089419E+00
         21   -1    0    0  501  502  0.00000000000E+00  0.00000000000E+00  0.96510604624E+02  0.96510604624E+02  0.00000000000E+00 0.  1.
         21   -1    0    0  502  503 -0.00000000000E+00 -0.00000000000E+00 -0.11167796429E+04  0.11167796429E+04  0.00000000000E+00 0.  1.
          6    1    1    2  501    0  0.22632667955E+03  0.65827604143E+02 -0.23209787634E+03  0.37284107009E+03  0.17200000000E+03 0. -1.
         -6    1    1    2    0  503 -0.22632667955E+03 -0.65827604143E+02 -0.78817116193E+03  0.84044917743E+03  0.17200000000E+03 0. -1.
</event>
<event>
 4    1  0.4475741E+000  0.1864772E+03  0.7818608E-02  0.1161678E+00
         21   -1    0    0  503  502  0.00000000000E+00  0.00000000000E+00  0.27647799094E+03  0.27647799094E+03  0.00000000000E+00 0. -1.
         21   -1    0    0  501  503 -0.00000000000E+00 -0.00000000000E+00 -0.40839055445E+03  0.40839055445E+03  0.00000000000E+00 0. -1.
          6    1    1    2  501    0  0.22435358985E+02  0.68457200014E+02 -0.35082069923E+03  0.39730202186E+03  0.17200000000E+03 0. -1.
         -6    1    1    2    0  502 -0.22435358985E+02 -0.68457200014E+02  0.21890813572E+03  0.28756652352E+03  0.17200000000E+03 0. -1.
</event>
<event>
 4    1  0.4475741E+000  0.1735793E+03  0.7818608E-02  0.1174166E+00
         21   -1    0    0  501  502  0.00000000000E+00  0.00000000000E+00  0.10899541216E+03  0.10899541216E+03  0.00000000000E+00 0. -1.
         21   -1    0    0  502  503 -0.00000000000E+00 -0.00000000000E+00 -0.31474565208E+03  0.31474565208E+03  0.00000000000E+00 0. -1.
          6    1    1    2  501    0 -0.23178046602E+01  0.23246313404E+02 -0.28953683180E+02  0.17597749593E+03  0.17200000000E+03 0. -1.
         -6    1    1    2    0  503  0.23178046602E+01 -0.23246313404E+02 -0.17679655674E+03  0.24776356831E+03  0.17200000000E+03 0. -1.
</event>
<event>
 4    1  0.4475741E+000  0.2602202E+03  0.7818608E-02  0.1107011E+00
         21   -1    0    0  501  502  0.00000000000E+00  0.00000000000E+00  0.10488730373E+04  0.10488730373E+04  0.00000000000E+00 0. -1.
         21   -1    0    0  502  503 -0.00000000000E+00 -0.00000000000E+00 -0.64813146537E+02  0.64813146537E+02  0.00000000000E+00 0.  1.
          6    1    1    2  501    0 -0.19606314936E+02 -0.19428371546E+03  0.45718518572E+03  0.52605405019E+03  0.17200000000E+03 0.  1.
         -6    1    1    2    0  503  0.19606314936E+02  0.19428371546E+03  0.52687470501E+03  0.58763213362E+03  0.17200000000E+03 0. -1.
</event>
<event>
 4    1  0.4475741E+000  0.2191387E+03  0.7818608E-02  0.1134527E+00
         21   -1    0    0  503  502  0.00000000000E+00  0.00000000000E+00  0.10118998587E+03  0.10118998587E+03  0.00000000000E+00 0. -1.
         21   -1    0    0  501  503 -0.00000000000E+00 -0.00000000000E+00 -0.48647266457E+03  0.48647266457E+03  0.00000000000E+00 0.  1.
          6    1    1    2  501    0 -0.73064762796E+02  0.11445223890E+03 -0.23860167859E+03  0.32396378745E+03  0.17200000000E+03 0.  1.
         -6    1    1    2    0  502  0.73064762796E+02 -0.11445223890E+03 -0.14668100011E+03  0.26369886299E+03  0.17200000000E+03 0. -1.
</event>
<event>
 4    1  0.4475741E+000  0.1975409E+03  0.7818608E-02  0.1151831E+00
         21   -1    0    0  501  502  0.00000000000E+00  0.00000000000E+00  0.23423003337E+03  0.23423003337E+03  0.00000000000E+00 0.  1.
         21   -1    0    0  502  503 -0.00000000000E+00 -0.00000000000E+00 -0.16677552959E+03  0.16677552959E+03  0.00000000000E+00 0.  1.
          6    1    1    2  501    0 -0.61500982418E+02  0.75206506896E+02  0.40258354952E+02  0.20160140044E+03  0.17200000000E+03 0.  1.
         -6    1    1    2    0  503  0.61500982418E+02 -0.75206506896E+02  0.27196148834E+02  0.19940416252E+03  0.17200000000E+03 0.  1.
</event>
<event>
 4    1  0.4475741E+000  0.2696876E+03  0.7818608E-02  0.1101459E+00
         21   -1    0    0  503  502  0.00000000000E+00  0.00000000000E+00  0.12670020496E+03  0.12670020496E+03  0.00000000000E+00 0.  1.
         21   -1    0    0  501  503 -0.00000000000E+00 -0.00000000000E+00 -0.73964019720E+03  0.73964019720E+03  0.00000000000E+00 0.  1.
          6    1    1    2  501    0 -0.82946082805E+02 -0.19043990995E+03 -0.51143245976E+03  0.57818212775E+03  0.17200000000E+03 0.  1.
         -6    1    1    2    0  502  0.82946082805E+02  0.19043990995E+03 -0.10150753248E+03  0.28815827440E+03  0.17200000000E+03 0.  1.
</event>
<event>
 4    1  0.4475741E+000  0.1745444E+03  0.7818608E-02  0.1173190E+00
         21   -1    0    0  501  502  0.00000000000E+00  0.00000000000E+00  0.90358400705E+03  0.90358400705E+03  0.00000000000E+00 0. -1.
         21   -1    0    0  502  503 -0.00000000000E+00 -0.00000000000E+00 -0.11192197292E+03  0.11192197292E+03  0.00000000000E+00 0. -1.
          6    1    1    2  501    0  0.28892479965E+02  0.68525755068E+01  0.82026803255E+03  0.83863304157E+03  0.17200000000E+03 0. -1.
         -6    1    1    2    0  503 -0.28892479965E+02 -0.68525755068E+01 -0.28605998422E+02  0.17687293839E+03  0.17200000000E+03 0. -1.
</event>
<event>
 4    1  0.4475741E+000  0.1919975E+03  0.7818608E-02  0.1156672E+00
         21   -1    0    0  501  502  0.00000000000E+00  0.00000000000E+00  0.12243206651E+03  0.12243206651E+03  0.00000000000E+00 0.  1.
         21   -1    0    0  502  503 -0.00000000000E+00 -0.00000000000E+00 -0.43524500774E+03  0.43524500774E+03  0.00000000000E+00 0.  1.
          6    1    1    2  501    0  0.82837290862E+02  0.20420807127E+02 -0.15997065056E+01  0.19200412803E+03  0.17200000000E+03 0.  1.
         -6    1    1    2    0  503 -0.82837290862E+02 -0.20420807127E+02 -0.31121323473E+03  0.36567294621E+03  0.17200000000E+03 0.  1.
</event>
<event>
 4    1  0.4475741E+000  0.1903280E+03  0.7818608E-02  0.1158166E+00
         21   -1    0    0  503  502  0.00000000000E+00  0.00000000000E+00  0.31083492744E+02  0.31083492744E+02  0.00000000000E+00 0. -1.
         21   -1    0    0  501  503 -0.00000000000E+00 -0.00000000000E+00 -0.12394033990E+04  0.12394033990E+04  0.00000000000E+00 0. -1.
          6    1    1    2  501    0 -0.80825627980E+02 -0.10390119858E+02 -0.44893681882E+03  0.48761563144E+03  0.17200000000E+03 0. -1.
         -6    1    1    2    0  502  0.80825627980E+02  0.10390119858E+02 -0.75938308739E+03  0.78287126026E+03  0.17200000000E+03 0. -1.
</event>
<event>
 4    1  0.4475741E+000  0.1946656E+03  0.7818608E-02  0.1154319E+00
         21   -1    0    0  501  502  0.00000000000E+00  0.00000000000E+00  0.26939292762E+03  0.26939292762E+03  0.00000000000E+00 0. -1.
         21   -1    0    0  502  503 -0.00000000000E+00 -0.00000000000E+00 -0.15383624336E+03  0.15383624336E+03  0.00000000000E+00 0. -1.
          6    1    1    2  501    0  0.85967973246E+02 -0.30335067005E+02  0.11969333597E+03  0.22851959082E+03  0.17200000000E+03 0. -1.
         -6    1    1    2    0  503 -0.85967973246E+02  0.30335067005E+02 -0.41366517156E+01  0.19470958015E+03  0.17200000000E+03 0. -1.
</event>
<event>
 4    1  0.4475741E+000  0.1911771E+03  0.7818608E-02  0.1157404E+00
         21   -1    0    0  503  502  0.00000000000E+00  0.00000000000E+00  0.17757403749E+03  0.17757403749E+03  0.00000000000E+00 0. -1.
         21   -1    0    0  501  503 -0.00000000000E+00 -0.00000000000E+00 -0.41594179819E+03  0.41594179819E+03  0.00000000000E+00 0. -1.
          6    1    1    2  501    0  0.76436407389E+02 -0.33498450413E+02 -0.33010465760E+03  0.38146789580E+03  0.17200000000E+03 0. -1.
         -6    1    1    2    0  502 -0.76436407389E+02  0.33498450413E+02  0.91736896896E+02  0.21204793988E+03  0.17200000000E+03 0. -1.
</event>
<event>
 4    1  0.4475741E+000  0.2000116E+03  0.7818608E-02  0.1149729E+00
         21   -1    0    0  501  502  0.00000000000E+00  0.00000000000E+00  0.76619999704E+03  0.76619999704E+03  0.00000000000E+00 0. -1.
         21   -1    0    0  502  503 -0.00000000000E+00 -0.00000000000E+00 -0.69852925870E+02  0.69852925870E+02  0.00000000000E+00 0.  1.
          6    1    1    2  501    0 -0.10012498916E+03 -0.19890026245E+02  0.55824907937E+03  0.59299802801E+03  0.17200000000E+03 0. -1.
         -6    1    1    2    0  503  0.10012498916E+03  0.19890026245E+02  0.13809799179E+03  0.24305489490E+03  0.17200000000E+03 0. -1.
</event>
<event>
 4    1  0.4475741E+000  0.2515905E+03  0.7818608E-02  0.1112304E+00
         21   -1    0    0  501  502  0.00000000000E+00  0.00000000000E+00  0.10480870834E+04  0.10480870834E+04  0.00000000000E+00 0. -1.
         21   -1    0    0  502  503 -0.00000000000E+00 -0.00000000000E+00 -0.64177222775E+02  0.64177222775E+02  0.00000000000E+00 0.  1.
          6    1    1    2  501    0 -0.18349710107E+03  0.65261232827E+01  0.62698799660E+03  0.67558250737E+03  0.17200000000E+03 0.  1.
         -6    1    1    2    0  503  0.18349710107E+03 -0.65261232827E+01  0.35692186401E+03  0.43668179879E+03  0.17200000000E+03 0. -1.
</event>
<event>
 4    1  0.4475741E+000  0.1763842E+03  0.7818608E-02  0.1171349E+00
         21   -1    0    0  501  502  0.00000000000E+00  0.00000000000E+00  0.13464172429E+02  0.13464172429E+02  0.00000000000E+00 0. -1.
         21   -1    0    0  502  503 -0.00000000000E+00 -0.00000000000E+00 -0.23172363427E+04  0.23172363427E+04  0.00000000000E+00 0. -1.
          6    1    1    2  501    0 -0.10990673995E+02  0.37504556704E+02 -0.10898963197E+04  0.11040767068E+04  0.17200000000E+03 0. -1.
         -6    1    1    2    0  503  0.10990673995E+02 -0.37504556704E+02 -0.12138758505E+04  0.12266238084E+04  0.17200000000E+03 0. -1.
</event>
<event>
 4    1  0.4475741E+000  0.1779996E+03  0.7818608E-02  0.1169753E+00
         21   -1    0    0  501  502  0.00000000000E+00  0.00000000000E+00  0.17514487438E+03  0.17514487438E+03  0.00000000000E+00 0.  1.
         21   -1    0    0  502  503 -0.00000000000E+00 -0.00000000000E+00 -0.27138514094E+03  0.27138514094E+03  0.00000000000E+00 0.  1.
          6    1    1    2  501    0 -0.19935005803E+02  0.41260819407E+02  0.80798051283E+02  0.19547937171E+03  0.17200000000E+03 0.  1.
         -6    1    1    2    0  503  0.19935005803E+02 -0.41260819407E+02 -0.17703831784E+03  0.25105064361E+03  0.17200000000E+03 0.  1.
</event>
<event>
 4    1  0.4475741E+000  0.1967865E+03  0.7818608E-02  0.1152479E+00
         21   -1    0    0  503  502  0.00000000000E+00  0.00000000000E+00  0.69529131485E+02  0.69529131485E+02  0.00000000000E+00 0.  1.
         21   -1    0    0  501  503 -0.00000000000E+00 -0.00000000000E+00 -0.56449981277E+03  0.56449981277E+03  0.00000000000E+00 0.  1.
          6    1    1    2  501    0 -0.12489349705E+02 -0.94788873080E+02 -0.21084662784E+03  0.28841153719E+03  0.17200000000E+03 0.  1.
         -6    1    1    2    0  502  0.12489349705E+02  0.94788873080E+02 -0.28412405344E+03  0.34561740706E+03  0.17200000000E+03 0.  1.
</event>
<event>
 4    1  0.4475741E+000  0.2055517E+03  0.7818608E-02  0.1145138E+00
         21   -1    0    0  501  502  0.00000000000E+00  0.00000000000E+00  0.25000001614E+03  0.25000001614E+03  0.00000000000E+00 0.  1.
         21   -1    0    0  502  503 -0.00000000000E+00 -0.00000000000E+00 -0.18327855406E+03  0.18327855406E+03  0.00000000000E+00 0. -1.
          6    1    1    2  501    0  0.57287312904E+02  0.96879569124E+02 -0.27094402690E+02  0.20732967417E+03  0.17200000000E+03 0.  1.
         -6    1    1    2    0  503 -0.57287312904E+02 -0.96879569124E+02  0.93815864773E+02  0.22594889603E+03  0.17200000000E+03 0.  1.
</event>
<event>
 4    1  0.4475741E+000  0.3185655E+03  0.7818608E-02  0.1076311E+00
         21   -1    0    0  503  502  0.00000000000E+00  0.00000000000E+00  0.35859926422E+03  0.35859926422E+03  0.00000000000E+00 0.  1.
         21   -1    0    0  501  503 -0.00000000000E+00 -0.00000000000E+00 -0.81871309203E+03  0.81871309203E+03  0.00000000000E+00 0. -1.
          6    1    1    2  501    0  0.11028628221E+03 -0.24441132516E+03 -0.70622639036E+03  0.77475136292E+03  0.17200000000E+03 0. -1.
         -6    1    1    2    0  502 -0.11028628221E+03  0.24441132516E+03  0.24611256255E+03  0.40256099333E+03  0.17200000000E+03 0.  1.
</event>
<event>
 4    1  0.4475741E+000  0.2448209E+03  0.7818608E-02  0.1116622E+00
         21   -1    0    0  501  502  0.00000000000E+00  0.00000000000E+00  0.22907368471E+04  0.22907368471E+04  0.00000000000E+00 0.  1.
         21   -1    0    0  502  503 -0.00000000000E+00 -0.00000000000E+00 -0.28689071600E+02  0.28689071600E+02  0.00000000000E+00 0.  1.
          6    1    1    2  501    0 -0.95836316403E+02  0.14549461025E+03  0.78704054971E+03  0.82423910853E+03  0.17200000000E+03 0.  1.
         -6    1    1    2    0  503  0.95836316403E+02 -0.14549461025E+03  0.14750072258E+04  0.14951868102E+04  0.17200000000E+03 0.  1.
</event>
<event>
 4    1  0.4475741E+000  0.1805408E+03  0.7818608E-02  0.1167281E+00
         21   -1    0    0  503  502  0.00000000000E+00  0.00000000000E+00  0.87287608597E+03  0.87287608597E+03  0.00000000000E+00 0. -1.
         21   -1    0    0  501  503 -0.00000000000E+00 -0.00000000000E+00 -0.44178665236E+02  0.44178665236E+02  0.00000000000E+00 0. -1.
          6    1    1    2  501    0  0.30197924911E+02  0.45815560076E+02  0.23397234777E+03  0.29553009954E+03  0.17200000000E+03 0. -1.
         -6    1    1    2    0  502 -0.30197924911E+02 -0.45815560076E+02  0.59472507296E+03  0.62152465166E+03  0.17200000000E+03 0. -1.
</event>
<event>
 4    1  0.4475741E+000  0.1922892E+03  0.7818608E-02  0.1156413E+00
         21   -1    0    0  503  502  0.00000000000E+00  0.00000000000E+00  0.11590846333E+04  0.11590846333E+04  0.00000000000E+00 0. -1.
         21   -1    0    0  501  503 -0.00000000000E+00 -0.00000000000E+00 -0.34461468870E+02  0.34461468870E+02  0.00000000000E+00 0. -1.
          6    1    1    2  501    0 -0.24135983907E+02  0.82514207957E+02  0.39962117298E+03  0.44347742009E+03  0.17200000000E+03 0. -1.
         -6    1    1    2    0  502  0.24135983907E+02 -0.82514207957E+02  0.72500199147E+03  0.75006868210E+03  0.17200000000E+03 0. -1.
</event>
<event>
 4    1  0.4475741E+000  0.2254363E+03  0.7818608E-02  0.1129894E+00
         21   -1    0    0  503  502  0.00000000000E+00  0.00000000000E+00  0.29546032976E+03  0.29546032976E+03  0.00000000000E+00 0. -1.
         21   -1    0    0  501  503 -0.00000000000E+00 -0.00000000000E+00 -0.44663326879E+03  0.44663326879E+03  0.00000000000E+00 0. -1.
          6    1    1    2  501    0 -0.14336806208E+03 -0.26136594716E+02 -0.36653987809E+03  0.43031733062E+03  0.17200000000E+03 0. -1.
         -6    1    1    2    0  502  0.14336806208E+03  0.26136594716E+02  0.21536693905E+03  0.31177626793E+03  0.17200000000E+03 0. -1.
</event>
<event>
 4    1  0.4475741E+000  0.2095975E+03  0.7818608E-02  0.1141885E+00
         21   -1    0    0  501  502  0.00000000000E+00  0.00000000000E+00  0.41146139328E+03  0.41146139328E+03  0.00000000000E+00 0.  1.
         21   -1    0    0  502  503 -0.00000000000E+00 -0.00000000000E+00 -0.23199497969E+03  0.23199497969E+03  0.00000000000E+00 0. -1.
          6    1    1    2  501    0  0.11243784148E+03  0.41289980372E+02  0.32610619235E+03  0.38765497464E+03  0.17200000000E+03 0.  1.
         -6    1    1    2    0  503 -0.11243784148E+03 -0.41289980372E+02 -0.14663977876E+03  0.25580139833E+03  0.17200000000E+03 0. -1.
</event>
<event>
 4    1  0.4475741E+000  0.2858374E+03  0.7818608E-02  0.1092543E+00
         21   -1    0    0  503  502  0.00000000000E+00  0.00000000000E+00  0.16272042962E+03  0.16272042962E+03  0.00000000000E+00 0.  1.
         21   -1    0    0  501  503 -0.00000000000E+00 -0.00000000000E+00 -0.55116863738E+03  0.55116863738E+03  0.00000000000E+00 0.  1.
          6    1    1    2  501    0 -0.56552620395E+02 -0.22118053957E+03 -0.30071941985E+03  0.41489179244E+03  0.17200000000E+03 0.  1.
         -6    1    1    2    0  502  0.56552620395E+02  0.22118053957E+03 -0.87728787908E+02  0.29899727455E+03  0.17200000000E+03 0.  1.
</event>
<event>
 4    1  0.4475741E+000  0.2006631E+03  0.7818608E-02  0.1149181E+00
         21   -1    0    0  503  502  0.00000000000E+00  0.00000000000E+00  0.10631905918E+04  0.10631905918E+04  0.00000000000E+00 0. -1.
         21   -1    0    0  501  503 -0.00000000000E+00 -0.00000000000E+00 -0.46606403519E+02  0.46606403519E+02  0.00000000000E+00 0. -1.
          6    1    1    2  501    0 -0.37318295735E+02 -0.96379526749E+02  0.74850445598E+03  0.77493521600E+03  0.17200000000E+03 0. -1.
         -6    1    1    2    0  502  0.37318295735E+02  0.96379526749E+02  0.26807973225E+03  0.33486177927E+03  0.17200000000E+03 0. -1.
</event>
<event>
 4    1  0.4475741E+000  0.2278940E+03  0.7818608E-02  0.1128131E+00
         21   -1    0    0  501  502  0.00000000000E+00  0.00000000000E+00  0.50274237192E+03  0.50274237192E+03  0.00000000000E+00 0.  1.
         21   -1    0    0  502  503 -0.00000000000E+00 -0.00000000000E+00 -0.10382010512E+03  0.10382010512E+03  0.00000000000E+00 0.  1.
          6    1    1    2  501    0 -0.14855918346E+03 -0.16788143973E+02  0.22082894372E+03  0.31733435861E+03  0.17200000000E+03 0.  1.
         -6    1    1    2    0  503  0.14855918346E+03  0.16788143973E+02  0.17809332308E+03  0.28922811844E+03  0.17200000000E+03 0.  1.
</event>
<event>
 4    1  0.4475741E+000  0.1748650E+03  0.7818608E-02  0.1172867E+00
         21   -1    0    0  501  502  0.00000000000E+00  0.00000000000E+00  0.26594177750E+03  0.26594177750E+03  0.00000000000E+00 0. -1.
         21   -1    0    0  502  503 -0.00000000000E+00 -0.00000000000E+00 -0.13361775598E+03  0.13361775598E+03  0.00000000000E+00 0. -1.
          6    1    1    2  501    0 -0.26379932805E+02  0.17258771485E+02  0.14077695913E+03  0.22449035229E+03  0.17200000000E+03 0. -1.
         -6    1    1    2    0  503  0.26379932805E+02 -0.17258771485E+02 -0.84529376123E+01  0.17506918119E+03  0.17200000000E+03 0. -1.
</event>
<event>
 4    1  0.4475741E+000  0.2125702E+03  0.7818608E-02  0.1139547E+00
         21   -1    0    0  503  502  0.00000000000E+00  0.00000000000E+00  0.15520750066E+04  0.15520750066E+04  0.00000000000E+00 0.  1.
         21   -1    0    0  501  503 -0.00000000000E+00 -0.00000000000E+00 -0.29222225291E+02  0.29222225291E+02  0.00000000000E+00 0.  1.
          6    1    1    2  501    0 -0.11166853756E+03  0.55966272437E+02  0.71316349965E+03  0.74416951238E+03  0.17200000000E+03 0.  1.
         -6    1    1    2    0  502  0.11166853756E+03 -0.55966272437E+02  0.80968928171E+03  0.83712771955E+03  0.17200000000E+03 0.  1.
</event>
<event>
 4    1  0.4475741E+000  0.1824190E+03  0.7818608E-02  0.1165482E+00
         21   -1    0    0  501  502  0.00000000000E+00  0.00000000000E+00  0.11044904371E+03  0.11044904371E+03  0.00000000000E+00 0.  1.
         21   -1    0    0  502  503 -0.00000000000E+00 -0.00000000000E+00 -0.34958539624E+03  0.34958539624E+03  0.00000000000E+00 0.  1.
          6    1    1    2  501    0  0.54818461942E+02 -0.26222336310E+02 -0.34069842821E+02  0.18557324398E+03  0.17200000000E+03 0.  1.
         -6    1    1    2    0  503 -0.54818461942E+02  0.26222336310E+02 -0.20506650970E+03  0.27446119597E+03  0.17200000000E+03 0.  1.
</event>
<event>
 4    1  0.4475741E+000  0.1777962E+03  0.7818608E-02  0.1169953E+00
         21   -1    0    0  501  502  0.00000000000E+00  0.00000000000E+00  0.17085005767E+03  0.17085005767E+03  0.00000000000E+00 0. -1.
         21   -1    0    0  502  503 -0.00000000000E+00 -0.00000000000E+00 -0.26562479454E+03  0.26562479454E+03  0.00000000000E+00 0. -1.
          6    1    1    2  501    0  0.19790066731E+02 -0.40445496813E+02  0.72828731161E+02  0.19213409129E+03  0.17200000000E+03 0. -1.
         -6    1    1    2    0  503 -0.19790066731E+02  0.40445496813E+02 -0.16760346803E+03  0.24434076093E+03  0.17200000000E+03 0. -1.
</event>
<event>
 4    1  0.4475741E+000  0.1808573E+03  0.7818608E-02  0.1166976E+00
         21   -1    0    0  503  502  0.00000000000E+00  0.00000000000E+00  0.21764404873E+03  0.21764404873E+03  0.00000000000E+00 0.  1.
         21   -1    0    0  501  503 -0.00000000000E+00 -0.00000000000E+00 -0.15503456218E+03  0.15503456218E+03  0.00000000000E+00 0.  1.
          6    1    1    2  501    0 -0.28207868868E+01  0.55833653783E+02 -0.12989009820E+01  0.18086193872E+03  0.17200000000E+03 0.  1.
         -6    1    1    2    0  502  0.28207868868E+01 -0.55833653783E+02  0.63908387528E+02  0.19181667219E+03  0.17200000000E+03 0.  1.
</event>
<event>
 4    1  0.4475741E+000  0.3022503E+03  0.7818608E-02  0.1084121E+00
         21   -1    0    0  503  502  0.00000000000E+00  0.00000000000E+00  0.72000712805E+03  0.72000712805E+03  0.00000000000E+00 0.  1.
         21   -1    0    0  501  503 -0.00000000000E+00 -0.00000000000E+00 -0.33896877065E+03  0.33896877065E+03  0.00000000000E+00 0.  1.
          6    1    1    2  501    0  0.12026891142E+03 -0.21750086526E+03 -0.22830720434E+03  0.37878676982E+03  0.17200000000E+03 0.  1.
         -6    1    1    2    0  502 -0.12026891142E+03  0.21750086526E+03  0.60934556173E+03  0.68018912888E+03  0.17200000000E+03 0.  1.
</event>
<event>
 4    1  0.4475741E+000  0.2014023E+03  0.7818608E-02  0.1148561E+00
         21   -1    0    0  501  502  0.00000000000E+00  0.00000000000E+00  0.32521983791E+03  0.32521983791E+03  0.00000000000E+00 0.  1.
         21   -1    0    0  502  503 -0.00000000000E+00 -0.00000000000E+00 -0.12699444928E+03  0.12699444928E+03  0.00000000000E+00 0. -1.
          6    1    1    2  501    0  0.81245328919E+02 -0.66167008275E+02  0.12934223341E+03  0.23935807862E+03  0.17200000000E+03 0. -1.
         -6    1    1    2    0  503 -0.81245328919E+02  0.66167008275E+02  0.68883155223E+02  0.21285620857E+03  0.17200000000E+03 0. -1.
</event>
<event>
 4    1  0.4475741E+000  0.2319142E+03  0.7818608E-02  0.1125300E+00
         21   -1    0    0  503  502  0.00000000000E+00  0.00000000000E+00  0.15267521808E+03  0.15267521808E+03  0.00000000000E+00 0.  1.
         21   -1    0    0  501  503 -0.00000000000E+00 -0.00000000000E+00 -0.62643795081E+03  0.62643795081E+03  0.00000000000E+00 0.  1.
          6    1    1    2  501    0  0.14067580615E+03 -0.66411861874E+02 -0.49459240481E+03  0.54626537940E+03  0.17200000000E+03 0.  1.
         -6    1    1    2    0  502 -0.14067580615E+03  0.66411861874E+02  0.20829672078E+02  0.23284778949E+03  0.17200000000E+03 0.  1.
</event>
<event>
 4    1  0.4475741E+000  0.1745423E+03  0.7818608E-02  0.1173192E+00
         21   -1    0    0  501  502  0.00000000000E+00  0.00000000000E+00  0.32587165512E+03  0.32587165512E+03  0.00000000000E+00 0.  1.
         21   -1    0    0  502  503 -0.00000000000E+00 -0.00000000000E+00 -0.13016763058E+03  0.13016763058E+03  0.00000000000E+00 0.  1.
          6    1    1    2  501    0 -0.20164155922E+02 -0.21781271300E+02  0.21889358330E+03  0.27996324361E+03  0.17200000000E+03 0.  1.
         -6    1    1    2    0  503  0.20164155922E+02  0.21781271300E+02 -0.23189558757E+02  0.17607604209E+03  0.17200000000E+03 0.  1.
</event>
<event>
 4    1  0.4475741E+000  0.1978146E+03  0.7818608E-02  0.1151596E+00
         21   -1    0    0  503  502  0.00000000000E+00  0.00000000000E+00  0.67277333486E+03  0.67277333486E+03  0.00000000000E+00 0. -1.
         21   -1    0    0  501  503 -0.00000000000E+00 -0.00000000000E+00 -0.80492048021E+02  0.80492048021E+02  0.00000000000E+00 0.  1.
          6    1    1    2  501    0  0.79268616130E+02 -0.57123550582E+02  0.97771000587E+02  0.22065761281E+03  0.17200000000E+03 0.  1.
         -6    1    1    2    0  502 -0.79268616130E+02  0.57123550582E+02  0.49451028625E+03  0.53260777008E+03  0.17200000000E+03 0. -1.
</event>
<event>
 4    1  0.4475741E+000  0.2804174E+03  0.7818608E-02  0.1095461E+00
         21   -1    0    0  501  502  0.00000000000E+00  0.00000000000E+00  0.90836333432E+03  0.90836333432E+03  0.00000000000E+00 0. -1.
         21   -1    0    0  502  503 -0.00000000000E+00 -0.00000000000E+00 -0.34902796929E+03  0.34902796929E+03  0.00000000000E+00 0.  1.
          6    1    1    2  501    0  0.29058750573E+02 -0.21955757889E+03  0.82485158244E+03  0.87121413813E+03  0.17200000000E+03 0. -1.
         -6    1    1    2    0  503 -0.29058750573E+02  0.21955757889E+03 -0.26551621740E+03  0.38617716548E+03  0.17200000000E+03 0.  1.
</event>
<event>
 4    1  0.4475741E+000  0.1832636E+03  0.7818608E-02  0.1164681E+00
         21   -1    0    0  503  502  0.00000000000E+00  0.00000000000E+00  0.99093613376E+02  0.99093613376E+02  0.00000000000E+00 0. -1.
         21   -1    0    0  501  503 -0.00000000000E+00 -0.00000000000E+00 -0.34395781705E+03  0.34395781705E+03  0.00000000000E+00 0. -1.
          6    1    1    2  501    0  0.52515539477E+02  0.35265741525E+02 -0.14922178608E+03  0.23633174957E+03  0.17200000000E+03 0. -1.
         -6    1    1    2    0  502 -0.52515539477E+02 -0.35265741525E+02 -0.95642417594E+02  0.20671968086E+03  0.17200000000E+03 0. -1.
</event>
<event>
 4    1  0.4475741E+000  0.1937134E+03  0.7818608E-02  0.1155154E+00
         21   -1    0    0  501  502  0.00000000000E+00  0.00000000000E+00  0.46754119914E+03  0.46754119914E+03  0.00000000000E+00 0.  1.
         21   -1    0    0  502  503 -0.00000000000E+00 -0.00000000000E+00 -0.24574014871E+03  0.24574014871E+03  0.00000000000E+00 0.  1.
          6    1    1    2  501    0 -0.54275692528E+02  0.70675635818E+02  0.40356206511E+03  0.44764632992E+03  0.17200000000E+03 0.  1.
         -6    1    1    2    0  503  0.54275692528E+02 -0.70675635818E+02 -0.18176101467E+03  0.26563501793E+03  0.17200000000E+03 0.  1.
</event>
<event>
 4    1  0.4475741E+000  0.2612669E+03  0.7818608E-02  0.1106384E+00
         21   -1    0    0  501  502  0.00000000000E+00  0.00000000000E+00  0.11543776437E+03  0.11543776437E+03  0.00000000000E+00 0. -1.
         21   -1    0    0  502  503 -0.00000000000E+00 -0.00000000000E+00 -0.73097111014E+03  0.73097111014E+03  0.00000000000E+00 0. -1.
          6    1    1    2  501    0 -0.35025057940E+02  0.19351902490E+03 -0.12278605577E+03  0.28868110983E+03  0.17200000000E+03 0. -1.
         -6    1    1    2    0  503  0.35025057940E+02 -0.19351902490E+03 -0.49274729001E+03  0.55772776468E+03  0.17200000000E+03 0. -1.
</event>
<event>
 4    1  0.4475741E+000  0.2350381E+03  0.7818608E-02  0.1123143E+00
         21   -1    0    0  501  502  0.00000000000E+00  0.00000000000E+00  0.19426120195E+03  0.19426120195E+03  0.00000000000E+00 0.  1.
         21   -1    0    0  502  503 -0.00000000000E+00 -0.00000000000E+00 -0.59059963391E+03  0.59059963391E+03  0.00000000000E+00 0. -1.
          6    1    1    2  501    0  0.16014837450E+03  0.33765296223E+01  0.84407647310E+02  0.24973496698E+03  0.17200000000E+03 0. -1.
         -6    1    1    2    0  503 -0.16014837450E+03 -0.33765296223E+01 -0.48074607927E+03  0.53512586888E+03  0.17200000000E+03 0. -1.
</event>
<event>
 4    1  0.4475741E+000  0.1745233E+03  0.7818608E-02  0.1173211E+00
         21   -1    0    0  501  502  0.00000000000E+00  0.00000000000E+00  0.24422852255E+03  0.24422852255E+03  0.00000000000E+00 0. -1.
         21   -1    0    0  502  503 -0.00000000000E+00 -0.00000000000E+00 -0.12475798949E+03  0.12475798949E+03  0.00000000000E+00 0. -1.
          6    1    1    2  501    0  0.12937575161E+02  0.26589698886E+02  0.56219229047E+02  0.18335483264E+03  0.17200000000E+03 0. -1.
         -6    1    1    2    0  503 -0.12937575161E+02 -0.26589698886E+02  0.63251304014E+02  0.18563167940E+03  0.17200000000E+03 0. -1.
</event>
<event>
 4    1  0.4475741E+000  0.2442913E+03  0.7818608E-02  0.1116967E+00
         21   -1    0    0  503  502  0.00000000000E+00  0.00000000000E+00  0.24206479151E+03  0.24206479151E+03  0.00000000000E+00 0.  1.
         21   -1    0    0  501  503 -0.00000000000E+00 -0.00000000000E+00 -0.28982293087E+03  0.28982293087E+03  0.00000000000E+00 0.  1.
          6    1    1    2  501    0  0.14022428822E+03 -0.10213408767E+03 -0.12665486763E+03  0.27517208864E+03  0.17200000000E+03 0.  1.
         -6    1    1    2    0  502 -0.14022428822E+03  0.10213408767E+03  0.78896728275E+02  0.25671563374E+03  0.17200000000E+03 0.  1.
</event>
<event>
 4    1  0.4475741E+000  0.2682705E+03  0.7818608E-02  0.1102274E+00
         21   -1    0    0  501  502  0.00000000000E+00  0.00000000000E+00  0.12933673989E+04  0.12933673989E+04  0.00000000000E+00 0. -1.
         21   -1    0    0  502  503 -0.00000000000E+00 -0.00000000000E+00 -0.86758183266E+02  0.86758183266E+02  0.00000000000E+00 0.  1.
          6    1    1    2  501    0 -0.16578264205E+03 -0.12207038799E+03  0.10165495800E+04  0.10513525159E+04  0.17200000000E+03 0. -1.
         -6    1    1    2    0  503  0.16578264205E+03  0.12207038799E+03  0.19005963565E+03  0.32877306632E+03  0.17200000000E+03 0.  1.
</event>
<event>
 4    1  0.4475741E+000  0.2592077E+03  0.7818608E-02  0.1107620E+00
         21   -1    0    0  503  502  0.00000000000E+00  0.00000000000E+00  0.81154739572E+02  0.81154739572E+02  0.00000000000E+00 0.  1.
         21   -1    0    0  501  503 -0.00000000000E+00 -0.00000000000E+00 -0.85884698623E+03  0.85884698623E+03  0.00000000000E+00 0.  1.
          6    1    1    2  501    0 -0.13913718208E+03 -0.13507585656E+03 -0.29963990029E+03  0.39619781966E+03  0.17200000000E+03 0.  1.
         -6    1    1    2    0  502  0.13913718208E+03  0.13507585656E+03 -0.47805234637E+03  0.54380390614E+03  0.17200000000E+03 0.  1.
</event>
<event>
 4    1  0.4475741E+000  0.1828062E+03  0.7818608E-02  0.1165115E+00
         21   -1    0    0  501  502  0.00000000000E+00  0.00000000000E+00  0.19446052195E+03  0.19446052195E+03  0.00000000000E+00 0.  1.
         21   -1    0    0  502  503 -0.00000000000E+00 -0.00000000000E+00 -0.18667501597E+03  0.18667501597E+03  0.00000000000E+00 0.  1.
          6    1    1    2  501    0 -0.60690886819E+02  0.12276681238E+02  0.57595860951E+02  0.19166476944E+03  0.17200000000E+03 0.  1.
         -6    1    1    2    0  503  0.60690886819E+02 -0.12276681238E+02 -0.49810354969E+02  0.18947076848E+03  0.17200000000E+03 0.  1.
</event>
<event>
 4    1  0.4475741E+000  0.2300089E+03  0.7818608E-02  0.1126634E+00
         21   -1    0    0  503  502  0.00000000000E+00  0.00000000000E+00  0.24483415942E+02  0.24483415942E+02  0.00000000000E+00 0.  1.
         21   -1    0    0  501  503 -0.00000000000E+00 -0.00000000000E+00 -0.24102188328E+04  0.24102188328E+04  0.00000000000E+00 0.  1.
          6    1    1    2  501    0 -0.46673281313E+02  0.14540178165E+03 -0.15844664501E+04  0.16010740160E+04  0.17200000000E+03 0.  1.
         -6    1    1    2    0  502  0.46673281313E+02 -0.14540178165E+03 -0.80126896678E+03  0.83362823274E+03  0.17200000000E+03 0.  1.
</event>
<event>
 4    1  0.4475741E+000  0.1867731E+03  0.7818608E-02  0.1161404E+00
         21   -1    0    0  503  502  0.00000000000E+00  0.00000000000E+00  0.13595386511E+03  0.13595386511E+03  0.00000000000E+00 0. -1.
         21   -1    0    0  501  503 -0.00000000000E+00 -0.00000000000E+00 -0.26006741015E+03  0.26006741015E+03  0.00000000000E+00 0.  1.
          6    1    1    2  501    0  0.61455407407E+02  0.39031029745E+02 -0.84958683562E+02  0.20518812416E+03  0.17200000000E+03 0.  1.
         -6    1    1    2    0  502 -0.61455407407E+02 -0.39031029745E+02 -0.39154861475E+02  0.19083315110E+03  0.17200000000E+03 0.  1.
</event>
<event>
 4    1  0.4475741E+000  0.1853570E+03  0.7818608E-02  0.1162717E+00
         21   -1    0    0  503  502  0.00000000000E+00  0.00000000000E+00  0.29257485492E+03  0.29257485492E+03  0.00000000000E+00 0.  1.
         21   -1    0    0  501  503 -0.00000000000E+00 -0.00000000000E+00 -0.13457741010E+03  0.13457741010E+03  0.00000000000E+00 0.  1.
          6    1    1    2  501    0  0.68076133408E+02  0.11783712295E+02  0.27628484288E+01  0.18537758534E+03  0.17200000000E+03 0.  1.
         -6    1    1    2    0  502 -0.68076133408E+02 -0.11783712295E+02  0.15523459640E+03  0.24177467968E+03  0.17200000000E+03 0.  1.
</event>
<event>
 4    1  0.4475741E+000  0.1915551E+03  0.7818608E-02  0.1157066E+00
         21   -1    0    0  501  502  0.00000000000E+00  0.00000000000E+00  0.41084849167E+03  0.41084849167E+03  0.00000000000E+00 0. -1.
         21   -1    0    0  502  503 -0.00000000000E+00 -0.00000000000E+00 -0.11361181180E+03  0.11361181180E+03  0.00000000000E+00 0.  1.
          6    1    1    2  501    0  0.66478981644E+02  0.51864327924E+02  0.27340998603E+02  0.19349649536E+03  0.17200000000E+03 0.  1.
         -6    1    1    2    0  503 -0.66478981644E+02 -0.51864327924E+02  0.26989568127E+03  0.33096380811E+03  0.17200000000E+03 0. -1.
</event>
<event>
 4    1  0.4475741E+000  0.2121646E+03  0.7818608E-02  0.1139863E+00
         21   -1    0    0  503  502  0.00000000000E+00  0.00000000000E+00  0.82177896411E+03  0.82177896411E+03  0.00000000000E+00 0.  1.
         21   -1    0    0  501  503 -0.00000000000E+00 -0.00000000000E+00 -0.10606465143E+03  0.10606465143E+03  0.00000000000E+00 0.  1.
          6    1    1    2  501    0 -0.12399000179E+03 -0.75030413654E+01  0.35253097232E+02  0.21507346893E+03  0.17200000000E+03 0.  1.
         -6    1    1    2    0  502  0.12399000179E+03  0.75030413654E+01  0.68046121544E+03  0.71277014661E+03  0.17200000000E+03 0.  1.
</event>
<event>
 4    1  0.4475741E+000  0.1914894E+03  0.7818608E-02  0.1157125E+00
         21   -1    0    0  503  502  0.00000000000E+00  0.00000000000E+00  0.74941855473E+02  0.74941855473E+02  0.00000000000E+00 0.  1.
         21   -1    0    0  501  503 -0.00000000000E+00 -0.00000000000E+00 -0.70996796097E+03  0.70996796097E+03  0.00000000000E+00 0. -1.
          6    1    1    2  501    0 -0.54278281787E+02 -0.64327599144E+02 -0.53631518966E+03  0.56947533269E+03  0.17200000000E+03 0. -1.
         -6    1    1    2    0  502  0.54278281787E+02  0.64327599144E+02 -0.98710915845E+02  0.21543448376E+03  0.17200000000E+03 0.  1.
</event>
<event>
 4    1  0.4475741E+000  0.2038078E+03  0.7818608E-02  0.1146566E+00
         21   -1    0    0  503  502  0.00000000000E+00  0.00000000000E+00  0.56103014720E+02  0.56103014720E+02  0.00000000000E+00 0.  1.
         21   -1    0    0  501  503 -0.00000000000E+00 -0.00000000000E+00 -0.74539068682E+03  0.74539068682E+03  0.00000000000E+00 0. -1.
          6    1    1    2  501    0  0.10506353099E+03 -0.30253305753E+02 -0.31179031303E+03  0.37249269437E+03  0.17200000000E+03 0.  1.
         -6    1    1    2    0  502 -0.10506353099E+03  0.30253305753E+02 -0.37749735906E+03  0.42900100717E+03  0.17200000000E+03 0. -1.
</event>
<event>
 4    1  0.4475741E+000  0.2034252E+03  0.7818608E-02  0.1146881E+00
         21   -1    0    0  501  502  0.00000000000E+00  0.00000000000E+00  0.10714968204E+04  0.10714968204E+04  0.00000000000E+00 0. -1.
         21   -1    0    0  502  503 -0.00000000000E+00 -0.00000000000E+00 -0.40222777456E+02  0.40222777456E+02  0.00000000000E+00 0.  1.
          6    1    1    2  501    0  0.23126769400E+02  0.10612716747E+03  0.40469707379E+03  0.45294761802E+03  0.17200000000E+03 0.  1.
         -6    1    1    2    0  503 -0.23126769400E+02 -0.10612716747E+03  0.62657696919E+03  0.65877197987E+03  0.17200000000E+03 0.  1.
</event>
<event>
 4    1  0.4475741E+000  0.2047141E+03  0.7818608E-02  0.1145822E+00
         21   -1    0    0  503  502  0.00000000000E+00  0.00000000000E+00  0.43741595597E+02  0.43741595597E+02  0.00000000000E+00 0. -1.
         21   -1    0    0  501  503 -0.00000000000E+00 -0.00000000000E+00 -0.98595578202E+03  0.98595578202E+03  0.00000000000E+00 0. -1.
          6    1    1    2  501    0 -0.22897815264E+02 -0.10862573628E+03 -0.55767959800E+03  0.59406598501E+03  0.17200000000E+03 0. -1.
         -6    1    1    2    0  502  0.22897815264E+02  0.10862573628E+03 -0.38453458842E+03  0.43563139260E+03  0.17200000000E+03 0. -1.
</event>
<event>
 4    1  0.4475741E+000  0.1862619E+03  0.7818608E-02  0.1161877E+00
         21   -1    0    0  501  502  0.00000000000E+00  0.00000000000E+00  0.22281977688E+03  0.22281977688E+03  0.00000000000E+00 0.  1.
         21   -1    0    0  502  503 -0.00000000000E+00 -0.00000000000E+00 -0.16989625295E+03  0.16989625295E+03  0.00000000000E+00 0.  1.
          6    1    1    2  501    0 -0.71084661127E+02  0.75133466684E+01  0.83217970876E+02  0.20400664230E+03  0.17200000000E+03 0. -1.
         -6    1    1    2    0  503  0.71084661127E+02 -0.75133466684E+01 -0.30294446955E+02  0.18870938753E+03  0.17200000000E+03 0. -1.
</event>
<event>
 4    1  0.4475741E+000  0.2211303E+03  0.7818608E-02  0.1133043E+00
         21   -1    0    0  503  502  0.00000000000E+00  0.00000000000E+00  0.32365751539E+03  0.32365751539E+03  0.00000000000E+00 0.  1.
         21   -1    0    0  501  503 -0.00000000000E+00 -0.00000000000E+00 -0.19324927386E+03  0.19324927386E+03  0.00000000000E+00 0.  1.
          6    1    1    2  501    0  0.11962909801E+03 -0.70735244301E+02 -0.55525742568E+02  0.22799496478E+03  0.17200000000E+03 0.  1.
         -6    1    1    2    0  502 -0.11962909801E+03  0.70735244301E+02  0.18593398410E+03  0.28891182447E+03  0.17200000000E+03 0.  1.
</event>
<event>
 4    1  0.4475741E+000  0.2669857E+03  0.7818608E-02  0.1103017E+00
         21   -1    0    0  501  502  0.00000000000E+00  0.00000000000E+00  0.55698579803E+02  0.55698579803E+02  0.00000000000E+00 0.  1.
         21   -1    0    0  502  503 -0.00000000000E+00 -0.00000000000E+00 -0.14898349348E+04  0.14898349348E+04  0.00000000000E+00 0. -1.
          6    1    1    2  501    0 -0.18045827355E+03 -0.95562382969E+02 -0.42689558148E+03  0.50350888276E+03  0.17200000000E+03 0.  1.
         -6    1    1    2    0  503  0.18045827355E+03  0.95562382969E+02 -0.10072407735E+04  0.10420246318E+04  0.17200000000E+03 0. -1.
</event>
<event>
 4    1  0.4475741E+000  0.2444263E+03  0.7818608E-02  0.1116879E+00
         21   -1    0    0  501  502  0.00000000000E+00  0.00000000000E+00  0.83969123723E+03  0.83969123723E+03  0.00000000000E+00 0.  1.
         21   -1    0    0  502  503 -0.00000000000E+00 -0.00000000000E+00 -0.96683051085E+02  0.96683051085E+02  0.00000000000E+00 0. -1.
          6    1    1    2  501    0 -0.12652772977E+03  0.11895773581E+03  0.61210312035E+03  0.65910123596E+03  0.17200000000E+03 0.  1.
         -6    1    1    2    0  503  0.12652772977E+03 -0.11895773581E+03  0.13090506580E+03  0.27727305235E+03  0.17200000000E+03 0. -1.
</event>
<event>
 4    1  0.4475741E+000  0.1961446E+03  0.7818608E-02  0.1153033E+00
         21   -1    0    0  501  502  0.00000000000E+00  0.00000000000E+00  0.65210724479E+03  0.65210724479E+03  0.00000000000E+00 0.  1.
         21   -1    0    0  502  503 -0.00000000000E+00 -0.00000000000E+00 -0.86648292432E+02  0.86648292432E+02  0.00000000000E+00 0.  1.
          6    1    1    2  501    0  0.52757355027E+02  0.78136726797E+02  0.49139210174E+03  0.52909251010E+03  0.17200000000E+03 0.  1.
         -6    1    1    2    0  503 -0.52757355027E+02 -0.78136726797E+02  0.74066850616E+02  0.20966302713E+03  0.17200000000E+03 0.  1.
</event>
<event>
 4    1  0.4475741E+000  0.1799127E+03  0.7818608E-02  0.1167888E+00
         21   -1    0    0  501  502  0.00000000000E+00  0.00000000000E+00  0.22676955473E+03  0.22676955473E+03  0.00000000000E+00 0.  1.
         21   -1    0    0  502  503 -0.00000000000E+00 -0.00000000000E+00 -0.14322298824E+03  0.14322298824E+03  0.00000000000E+00 0.  1.
          6    1    1    2  501    0  0.26022791704E+02  0.45906491341E+02  0.52540495647E+02  0.18742757353E+03  0.17200000000E+03 0.  1.
         -6    1    1    2    0  503 -0.26022791704E+02 -0.45906491341E+02  0.31006070844E+02  0.18256496943E+03  0.17200000000E+03 0.  1.
</event>
<event>
 4    1  0.4475741E+000  0.1900765E+03  0.7818608E-02  0.1158392E+00
         21   -1    0    0  503  502  0.00000000000E+00  0.00000000000E+00  0.13263299823E+03  0.13263299823E+03  0.00000000000E+00 0. -1.
         21   -1    0    0  501  503 -0.00000000000E+00 -0.00000000000E+00 -0.28268460603E+03  0.28268460603E+03  0.00000000000E+00 0. -1.
          6    1    1    2  501    0 -0.14497019590E+02 -0.79592130970E+02 -0.35414583934E+02  0.19334752040E+03  0.17200000000E+03 0. -1.
         -6    1    1    2    0  502  0.14497019590E+02  0.79592130970E+02 -0.11463702386E+03  0.22197008386E+03  0.17200000000E+03 0. -1.
</event>
<event>
 4    1  0.4475741E+000  0.1999751E+03  0.7818608E-02  0.1149760E+00
         21   -1    0    0  503  502  0.00000000000E+00  0.00000000000E+00  0.33507059917E+03  0.33507059917E+03  0.00000000000E+00 0.  1.
         21   -1    0    0  501  503 -0.00000000000E+00 -0.00000000000E+00 -0.18730616932E+03  0.18730616932E+03  0.00000000000E+00 0.  1.
          6    1    1    2  501    0  0.10200331705E+03 -0.11747264045E+01 -0.83442940298E+02  0.21668590392E+03  0.17200000000E+03 0.  1.
         -6    1    1    2    0  502 -0.10200331705E+03  0.11747264045E+01  0.23120737015E+03  0.30569086457E+03  0.17200000000E+03 0.  1.
</event>
<event>
 4    1  0.4475741E+000  0.2656918E+03  0.7818608E-02  0.1103771E+00
         21   -1    0    0  503  502  0.00000000000E+00  0.00000000000E+00  0.63475005040E+03  0.63475005040E+03  0.00000000000E+00 0.  1.
         21   -1    0    0  501  503 -0.00000000000E+00 -0.00000000000E+00 -0.13906233437E+03  0.13906233437E+03  0.00000000000E+00 0. -1.
          6    1    1    2  501    0  0.11427338250E+03 -0.16718179054E+03  0.74698033922E+02  0.27599266894E+03  0.17200000000E+03 0. -1.
         -6    1    1    2    0  502 -0.11427338250E+03  0.16718179054E+03  0.42098968210E+03  0.49781971583E+03  0.17200000000E+03 0.  1.
</event>
<event>
 4    1  0.4475741E+000  0.2480829E+03  0.7818608E-02  0.1114522E+00
         21   -1    0    0  503  502  0.00000000000E+00  0.00000000000E+00  0.58802392735E+03  0.58802392735E+03  0.00000000000E+00 0. -1.
         21   -1    0    0  501  503 -0.00000000000E+00 -0.00000000000E+00 -0.10476616010E+03  0.10476616010E+03  0.00000000000E+00 0. -1.
          6    1    1    2  501    0  0.16573818287E+03  0.67022119538E+02  0.23082763481E+03  0.33886060078E+03  0.17200000000E+03 0. -1.
         -6    1    1    2    0  502 -0.16573818287E+03 -0.67022119538E+02  0.25243013244E+03  0.35392948667E+03  0.17200000000E+03 0. -1.
</event>
<event>
 4    1  0.4475741E+000  0.2041062E+03  0.7818608E-02  0.1146320E+00
         21   -1    0    0  503  502  0.00000000000E+00  0.00000000000E+00  0.40949928171E+03  0.40949928171E+03  0.00000000000E+00 0. -1.
         21   -1    0    0  501  503 -0.00000000000E+00 -0.00000000000E+00 -0.10194326458E+03  0.10194326458E+03  0.00000000000E+00 0.  1.
          6    1    1    2  501    0 -0.66433207662E+02 -0.87532566716E+02  0.14214617262E+03  0.24872646764E+03  0.17200000000E+03 0.  1.
         -6    1    1    2    0  502  0.66433207662E+02  0.87532566716E+02  0.16540984452E+03  0.26271607865E+03  0.17200000000E+03 0. -1.
</event>
<event>
 4    1  0.4475741E+000  0.1854957E+03  0.7818608E-02  0.1162588E+00
         21   -1    0    0  503  502  0.00000000000E+00  0.00000000000E+00  0.82301704752E+03  0.82301704752E+03  0.00000000000E+00 0. -1.
         21   -1    0    0  501  503 -0.00000000000E+00 -0.00000000000E+00 -0.47004668560E+02  0.47004668560E+02  0.00000000000E+00 0. -1.
          6    1    1    2  501    0 -0.40878779842E+02  0.56156853996E+02  0.24336445409E+03  0.30599824249E+03  0.17200000000E+03 0. -1.
         -6    1    1    2    0  502  0.40878779842E+02 -0.56156853996E+02  0.53264792488E+03  0.56402347360E+03  0.17200000000E+03 0. -1.
</event>
<event>
 4    1  0.4475741E+000  0.1752916E+03  0.7818608E-02  0.1172439E+00
         21   -1    0    0  501  502  0.00000000000E+00  0.00000000000E+00  0.42951063503E+02  0.42951063503E+02  0.00000000000E+00 0.  1.
         21   -1    0    0  502  503 -0.00000000000E+00 -0.00000000000E+00 -0.72325147331E+03  0.72325147331E+03  0.00000000000E+00 0.  1.
          6    1    1    2  501    0  0.19444723518E+02 -0.27659371482E+02 -0.30023131508E+03  0.34765784999E+03  0.17200000000E+03 0.  1.
         -6    1    1    2    0  503 -0.19444723518E+02  0.27659371482E+02 -0.38006909473E+03  0.41854468683E+03  0.17200000000E+03 0.  1.
</event>
<event>
 4    1  0.4475741E+000  0.3246462E+03  0.7818608E-02  0.1073531E+00
         21   -1    0    0  503  502  0.00000000000E+00  0.00000000000E+00  0.11859571814E+03  0.11859571814E+03  0.00000000000E+00 0. -1.
         21   -1    0    0  501  503 -0.00000000000E+00 -0.00000000000E+00 -0.10648148806E+04  0.10648148806E+04  0.00000000000E+00 0.  1.
          6    1    1    2  501    0  0.99523668433E+02 -0.25672204875E+03 -0.71375367223E+03  0.78411700371E+03  0.17200000000E+03 0.  1.
         -6    1    1    2    0  502 -0.99523668433E+02  0.25672204875E+03 -0.23246549028E+03  0.39929359507E+03  0.17200000000E+03 0. -1.
</event>
<event>
 4    1  0.4475741E+000  0.2230016E+03  0.7818608E-02  0.1131665E+00
         21   -1    0    0  503  502  0.00000000000E+00  0.00000000000E+00  0.26557375813E+03  0.26557375813E+03  0.00000000000E+00 0. -1.
         21   -1    0    0  501  503 -0.00000000000E+00 -0.00000000000E+00 -0.18886503986E+03  0.18886503986E+03  0.00000000000E+00 0. -1.
          6    1    1    2  501    0  0.95624315959E+02  0.10488893105E+03  0.59341272371E+02  0.23076196451E+03  0.17200000000E+03 0. -1.
         -6    1    1    2    0  502 -0.95624315959E+02 -0.10488893105E+03  0.17367445892E+02  0.22367683348E+03  0.17200000000E+03 0. -1.
</event>
<event>
 4    1  0.4475741E+000  0.2865908E+03  0.7818608E-02  0.1092143E+00
         21   -1    0    0  501  502  0.00000000000E+00  0.00000000000E+00  0.12162013916E+04  0.12162013916E+04  0.00000000000E+00 0. -1.
         21   -1    0    0  502  503 -0.00000000000E+00 -0.00000000000E+00 -0.12283436023E+03  0.12283436023E+03  0.00000000000E+00 0. -1.
          6    1    1    2  501    0 -0.13146172395E+03 -0.18779804548E+03  0.99591308489E+03  0.10363286947E+04  0.17200000000E+03 0. -1.
         -6    1    1    2    0  503  0.13146172395E+03  0.18779804548E+03  0.97453946448E+02  0.30270705712E+03  0.17200000000E+03 0. -1.
</event>
<event>
 4    1  0.4475741E+000  0.1832355E+03  0.7818608E-02  0.1164708E+00
         21   -1    0    0  501  502  0.00000000000E+00  0.00000000000E+00  0.12779954719E+03  0.12779954719E+03  0.00000000000E+00 0.  1.
         21   -1    0    0  502  503 -0.00000000000E+00 -0.00000000000E+00 -0.27029053287E+03  0.27029053287E+03  0.00000000000E+00 0. -1.
          6    1    1    2  501    0 -0.39557117902E+02 -0.49259264027E+02 -0.10456178782E+03  0.21097015936E+03  0.17200000000E+03 0. -1.
         -6    1    1    2    0  503  0.39557117902E+02  0.49259264027E+02 -0.37929197859E+02  0.18711992069E+03  0.17200000000E+03 0. -1.
</event>
<event>
 4    1  0.4475741E+000  0.2047490E+03  0.7818608E-02  0.1145793E+00
         21   -1    0    0  501  502  0.00000000000E+00  0.00000000000E+00  0.88233406870E+02  0.88233406870E+02  0.00000000000E+00 0.  1.
         21   -1    0    0  502  503 -0.00000000000E+00 -0.00000000000E+00 -0.71741487911E+03  0.71741487911E+03  0.00000000000E+00 0.  1.
          6    1    1    2  501    0  0.10175687113E+03 -0.44538869763E+02 -0.80494111179E+02  0.22000334924E+03  0.17200000000E+03 0.  1.
         -6    1    1    2    0  503 -0.10175687113E+03  0.44538869763E+02 -0.54868736106E+03  0.58564493674E+03  0.17200000000E+03 0.  1.
</event>
<event>
 4    1  0.4475741E+000  0.2017418E+03  0.7818608E-02  0.1148278E+00
         21   -1    0    0  503  502  0.00000000000E+00  0.00000000000E+00  0.32349914766E+03  0.32349914766E+03  0.00000000000E+00 0. -1.
         21   -1    0    0  501  503 -0.00000000000E+00 -0.00000000000E+00 -0.12807475766E+03  0.12807475766E+03  0.00000000000E+00 0. -1.
          6    1    1    2  501    0 -0.57717164089E+02  0.88229617357E+02  0.12773051915E+03  0.23877776683E+03  0.17200000000E+03 0.  1.
         -6    1    1    2    0  502  0.57717164089E+02 -0.88229617357E+02  0.67693870852E+02  0.21279613850E+03  0.17200000000E+03 0.  1.
</event>
<event>
 4    1  0.4475741E+000  0.2234315E+03  0.7818608E-02  0.1131350E+00
         21   -1    0    0  503  502  0.00000000000E+00  0.00000000000E+00  0.61798282411E+03  0.61798282411E+03  0.00000000000E+00 0. -1.
         21   -1    0    0  501  503 -0.00000000000E+00 -0.00000000000E+00 -0.96407967604E+02  0.96407967604E+02  0.00000000000E+00 0. -1.
          6    1    1    2  501    0 -0.80290147450E+02  0.11786060898E+03  0.11698088726E+03  0.25220261480E+03  0.17200000000E+03 0. -1.
         -6    1    1    2    0  502  0.80290147450E+02 -0.11786060898E+03  0.40459396925E+03  0.46218817692E+03  0.17200000000E+03 0. -1.
</event>
<event>
 4    1  0.4475741E+000  0.1863155E+03  0.7818608E-02  0.1161827E+00
         21   -1    0    0  501  502  0.00000000000E+00  0.00000000000E+00  0.68690943931E+03  0.68690943931E+03  0.00000000000E+00 0. -1.
         21   -1    0    0  502  503 -0.00000000000E+00 -0.00000000000E+00 -0.53216899170E+02  0.53216899170E+02  0.00000000000E+00 0. -1.
          6    1    1    2  501    0  0.62439284737E+02  0.35082515203E+02  0.39991085106E+03  0.44118265599E+03  0.17200000000E+03 0. -1.
         -6    1    1    2    0  503 -0.62439284737E+02 -0.35082515203E+02  0.23378168908E+03  0.29894368249E+03  0.17200000000E+03 0. -1.
</event>
<event>
 4    1  0.4475741E+000  0.2152740E+03  0.7818608E-02  0.1137456E+00
         21   -1    0    0  503  502  0.00000000000E+00  0.00000000000E+00  0.48824439090E+03  0.48824439090E+03  0.00000000000E+00 0.  1.
         21   -1    0    0  501  503 -0.00000000000E+00 -0.00000000000E+00 -0.10932953328E+03  0.10932953328E+03  0.00000000000E+00 0.  1.
          6    1    1    2  501    0  0.71812729070E+02  0.10771176817E+03  0.80975629755E+02  0.22999988190E+03  0.17200000000E+03 0. -1.
         -6    1    1    2    0  502 -0.71812729070E+02 -0.10771176817E+03  0.29793922787E+03  0.36757404229E+03  0.17200000000E+03 0. -1.
</event>
<event>
 4    1  0.4475741E+000  0.1933452E+03  0.7818608E-02  0.1155478E+00
         21   -1    0    0  503  502  0.00000000000E+00  0.00000000000E+00  0.24773349872E+03  0.24773349872E+03  0.00000000000E+00 0.  1.
         21   -1    0    0  501  503 -0.00000000000E+00 -0.00000000000E+00 -0.23861644300E+03  0.23861644300E+03  0.00000000000E+00 0.  1.
          6    1    1    2  501    0  0.42316157014E+02 -0.77509451858E+02 -0.14288147046E+03  0.24041107893E+03  0.17200000000E+03 0.  1.
         -6    1    1    2    0  502 -0.42316157014E+02  0.77509451858E+02  0.15199852617E+03  0.24593886279E+03  0.17200000000E+03 0.  1.
</event>
<event>
 4    1  0.4475741E+000  0.3057389E+03  0.7818608E-02  0.1082406E+00
         21   -1    0    0  503  502  0.00000000000E+00  0.00000000000E+00  0.25730744314E+03  0.25730744314E+03  0.00000000000E+00 0. -1.
         21   -1    0    0  501  503 -0.00000000000E+00 -0.00000000000E+00 -0.46464152995E+03  0.46464152995E+03  0.00000000000E+00 0.  1.
          6    1    1    2  501    0 -0.23136385884E+03 -0.10179912203E+03 -0.27226035761E+03  0.40939223093E+03  0.17200000000E+03 0.  1.
         -6    1    1    2    0  502  0.23136385884E+03  0.10179912203E+03  0.64926270796E+02  0.31255674215E+03  0.17200000000E+03 0. -1.
</event>
<event>
 4    1  0.4475741E+000  0.1893194E+03  0.7818608E-02  0.1159077E+00
         21   -1    0    0  503  502  0.00000000000E+00  0.00000000000E+00  0.10235937751E+04  0.10235937751E+04  0.00000000000E+00 0. -1.
         21   -1    0    0  501  503 -0.00000000000E+00 -0.00000000000E+00 -0.43754000041E+02  0.43754000041E+02  0.00000000000E+00 0.  1.
          6    1    1    2  501    0  0.50847761282E+02  0.60599879098E+02  0.72841574990E+03  0.75261633312E+03  0.17200000000E+03 0. -1.
         -6    1    1    2    0  502 -0.50847761282E+02 -0.60599879098E+02  0.25142402518E+03  0.31473144205E+03  0.17200000000E+03 0.  1.
</event>
<event>
 4    1  0.4475741E+000  0.1767776E+03  0.7818608E-02  0.1170959E+00
         21   -1    0    0  503  502  0.00000000000E+00  0.00000000000E+00  0.32978336679E+03  0.32978336679E+03  0.00000000000E+00 0.  1.
         21   -1    0    0  501  503 -0.00000000000E+00 -0.00000000000E+00 -0.10464933964E+03  0.10464933964E+03  0.00000000000E+00 0.  1.
          6    1    1    2  501    0 -0.35027726539E+02  0.20961729598E+02  0.45793586912E+02  0.18261267299E+03  0.17200000000E+03 0. -1.
         -6    1    1    2    0  502  0.35027726539E+02 -0.20961729598E+02  0.17934044024E+03  0.25182003344E+03  0.17200000000E+03 0. -1.
</event>
<event>
 4    1  0.4475741E+000  0.3127622E+03  0.7818608E-02  0.1079029E+00
         21   -1    0    0  501  502  0.00000000000E+00  0.00000000000E+00  0.38591895636E+03  0.38591895636E+03  0.00000000000E+00 0.  1.
         21   -1    0    0  502  503 -0.00000000000E+00 -0.00000000000E+00 -0.36977725454E+03  0.36977725454E+03  0.00000000000E+00 0.  1.
          6    1    1    2  501    0  0.23884190069E+03 -0.10578630362E+03  0.21997730260E+03  0.38237443588E+03  0.17200000000E+03 0.  1.
         -6    1    1    2    0  503 -0.23884190069E+03  0.10578630362E+03 -0.20383560078E+03  0.37332177502E+03  0.17200000000E+03 0.  1.
</event>
<event>
 4    1  0.4475741E+000  0.1866050E+03  0.7818608E-02  0.1161560E+00
         21   -1    0    0  501  502  0.00000000000E+00  0.00000000000E+00  0.18975769274E+03  0.18975769274E+03  0.00000000000E+00 0. -1.
         21   -1    0    0  502  503 -0.00000000000E+00 -0.00000000000E+00 -0.19196139659E+03  0.19196139659E+03  0.00000000000E+00 0. -1.
          6    1    1    2  501    0 -0.67792412302E+02 -0.25330163306E+02  0.38957814309E+02  0.19062827606E+03  0.17200000000E+03 0. -1.
         -6    1    1    2    0  503  0.67792412302E+02  0.25330163306E+02 -0.41161518161E+02  0.19109081327E+03  0.17200000000E+03 0. -1.
</event>
<event>
 4    1  0.4475741E+000  0.1771970E+03  0.7818608E-02  0.1170544E+00
         21   -1    0    0  503  502  0.00000000000E+00  0.00000000000E+00  0.38038686306E+03  0.38038686306E+03  0.00000000000E+00 0.  1.
         21   -1    0    0  501  503 -0.00000000000E+00 -0.00000000000E+00 -0.82651322390E+02  0.82651322390E+02  0.00000000000E+00 0.  1.
          6    1    1    2  501    0  0.41752184588E+02  0.84569037460E+01  0.14053640248E+03  0.22616198744E+03  0.17200000000E+03 0.  1.
         -6    1    1    2    0  502 -0.41752184588E+02 -0.84569037460E+01  0.15719913819E+03  0.23687619802E+03  0.17200000000E+03 0.  1.
</event>
<event>
 4    1  0.4475741E+000  0.1927148E+03  0.7818608E-02  0.1156035E+00
         21   -1    0    0  503  502  0.00000000000E+00  0.00000000000E+00  0.13863178516E+03  0.13863178516E+03  0.00000000000E+00 0. -1.
         21   -1    0    0  501  503 -0.00000000000E+00 -0.00000000000E+00 -0.27960984788E+03  0.27960984788E+03  0.00000000000E+00 0.  1.
          6    1    1    2  501    0 -0.12087793343E+02  0.86074904851E+02 -0.27687726027E+02  0.19469364182E+03  0.17200000000E+03 0. -1.
         -6    1    1    2    0  502  0.12087793343E+02 -0.86074904851E+02 -0.11329033669E+03  0.22354799122E+03  0.17200000000E+03 0.  1.
</event>
<event>
 4    1  0.4475741E+000  0.2120763E+03  0.7818608E-02  0.1139932E+00
         21   -1    0    0  501  502  0.00000000000E+00  0.00000000000E+00  0.15196497120E+04  0.15196497120E+04  0.00000000000E+00 0. -1.
         21   -1    0    0  502  503 -0.00000000000E+00 -0.00000000000E+00 -0.32126081369E+02  0.32126081369E+02  0.00000000000E+00 0. -1.
          6    1    1    2  501    0  0.12397896023E+03 -0.46469083983E+01  0.96147805855E+03  0.98458947456E+03  0.17200000000E+03 0. -1.
         -6    1    1    2    0  503 -0.12397896023E+03  0.46469083983E+01  0.52604557205E+03  0.56718631878E+03  0.17200000000E+03 0. -1.
</event>
<event>
 4    1  0.4475741E+000  0.2345631E+03  0.7818608E-02  0.1123469E+00
         21   -1    0    0  501  502  0.00000000000E+00  0.00000000000E+00  0.22312292837E+03  0.22312292837E+03  0.00000000000E+00 0. -1.
         21   -1    0    0  502  503 -0.00000000000E+00 -0.00000000000E+00 -0.24667803627E+03  0.24667803627E+03  0.00000000000E+00 0.  1.
          6    1    1    2  501    0 -0.15940647296E+03  0.50409034808E+01 -0.16220651047E+02  0.23512325247E+03  0.17200000000E+03 0. -1.
         -6    1    1    2    0  503  0.15940647296E+03 -0.50409034808E+01 -0.73344568559E+01  0.23467771217E+03  0.17200000000E+03 0.  1.
</event>
<event>
 4    1  0.4475741E+000  0.1796129E+03  0.7818608E-02  0.1168178E+00
         21   -1    0    0  503  502  0.00000000000E+00  0.00000000000E+00  0.79813724602E+02  0.79813724602E+02  0.00000000000E+00 0.  1.
         21   -1    0    0  501  503 -0.00000000000E+00 -0.00000000000E+00 -0.41468536054E+03  0.41468536054E+03  0.00000000000E+00 0. -1.
          6    1    1    2  501    0 -0.47737962602E+02 -0.19946890537E+02 -0.12812192744E+03  0.22062642590E+03  0.17200000000E+03 0. -1.
         -6    1    1    2    0  502  0.47737962602E+02  0.19946890537E+02 -0.20674970850E+03  0.27387265925E+03  0.17200000000E+03 0.  1.
</event>
<event>
 4    1  0.4475741E+000  0.1967119E+03  0.7818608E-02  0.1152543E+00
         21   -1    0    0  503  502  0.00000000000E+00  0.00000000000E+00  0.74497678498E+03  0.74497678498E+03  0.00000000000E+00 0.  1.
         21   -1    0    0  501  503 -0.00000000000E+00 -0.00000000000E+00 -0.73565585887E+02  0.73565585887E+02  0.00000000000E+00 0. -1.
          6    1    1    2  501    0  0.18028770749E+02 -0.93736493529E+02  0.11381550648E+03  0.22726534340E+03  0.17200000000E+03 0. -1.
         -6    1    1    2    0  502 -0.18028770749E+02  0.93736493529E+02  0.55759569261E+03  0.59127702747E+03  0.17200000000E+03 0.  1.
</event>
<event>
 4    1  0.4475741E+000  0.1768280E+03  0.7818608E-02  0.1170909E+00
         21   -1    0    0  501  502  0.00000000000E+00  0.00000000000E+00  0.17414551348E+03  0.17414551348E+03  0.00000000000E+00 0. -1.
         21   -1    0    0  502  503 -0.00000000000E+00 -0.00000000000E+00 -0.53114283513E+03  0.53114283513E+03  0.00000000000E+00 0. -1.
          6    1    1    2  501    0 -0.36701132278E+02 -0.18362079271E+02  0.10841415726E+03  0.20741689555E+03  0.17200000000E+03 0. -1.
         -6    1    1    2    0  503  0.36701132278E+02  0.18362079271E+02 -0.46541147892E+03  0.49787145306E+03  0.17200000000E+03 0. -1.
</event>
<event>
 4    1  0.4475741E+000  0.2447745E+03  0.7818608E-02  0.1116652E+00
         21   -1    0    0  503  502  0.00000000000E+00  0.00000000000E+00  0.58985020571E+03  0.58985020571E+03  0.00000000000E+00 0. -1.
         21   -1    0    0  501  503 -0.00000000000E+00 -0.00000000000E+00 -0.12613331529E+03  0.12613331529E+03  0.00000000000E+00 0. -1.
          6    1    1    2  501    0  0.17374105831E+03  0.12025885888E+02  0.73897662669E+02  0.25568621751E+03  0.17200000000E+03 0. -1.
         -6    1    1    2    0  502 -0.17374105831E+03 -0.12025885888E+02  0.38981922775E+03  0.46029730349E+03  0.17200000000E+03 0. -1.
</event>
<event>
 4    1  0.4475741E+000  0.1768979E+03  0.7818608E-02  0.1170839E+00
         21   -1    0    0  501  502  0.00000000000E+00  0.00000000000E+00  0.13325205628E+03  0.13325205628E+03  0.00000000000E+00 0.  1.
         21   -1    0    0  502  503 -0.00000000000E+00 -0.00000000000E+00 -0.78964233489E+03  0.78964233489E+03  0.00000000000E+00 0.  1.
          6    1    1    2  501    0  0.16935795209E+02 -0.37710135620E+02  0.58595583437E+02  0.18634998762E+03  0.17200000000E+03 0.  1.
         -6    1    1    2    0  503 -0.16935795209E+02  0.37710135620E+02 -0.71498586204E+03  0.73654440355E+03  0.17200000000E+03 0.  1.
</event>
<event>
 4    1  0.4475741E+000  0.2733303E+03  0.7818608E-02  0.1099389E+00
         21   -1    0    0  503  502  0.00000000000E+00  0.00000000000E+00  0.23112104429E+03  0.23112104429E+03  0.00000000000E+00 0.  1.
         21   -1    0    0  501  503 -0.00000000000E+00 -0.00000000000E+00 -0.33353584250E+03  0.33353584250E+03  0.00000000000E+00 0.  1.
          6    1    1    2  501    0 -0.19974015557E+03  0.72314162123E+02 -0.16234926043E+01  0.27333514871E+03  0.17200000000E+03 0.  1.
         -6    1    1    2    0  502  0.19974015557E+03 -0.72314162123E+02 -0.10079130561E+03  0.29132173808E+03  0.17200000000E+03 0.  1.
</event>
<event>
 4    1  0.4475741E+000  0.1828964E+03  0.7818608E-02  0.1165029E+00
         21   -1    0    0  503  502  0.00000000000E+00  0.00000000000E+00  0.50050951505E+03  0.50050951505E+03  0.00000000000E+00 0. -1.
         21   -1    0    0  501  503 -0.00000000000E+00 -0.00000000000E+00 -0.87801017128E+02  0.87801017128E+02  0.00000000000E+00 0.  1.
          6    1    1    2  501    0 -0.33075631126E+02 -0.52660244828E+02  0.62608757893E+02  0.19331568825E+03  0.17200000000E+03 0.  1.
         -6    1    1    2    0  502  0.33075631126E+02  0.52660244828E+02  0.35009974003E+03  0.39499484393E+03  0.17200000000E+03 0. -1.
</event>
<event>
 4    1  0.4475741E+000  0.1902772E+03  0.7818608E-02  0.1158212E+00
         21   -1    0    0  501  502  0.00000000000E+00  0.00000000000E+00  0.77439337247E+02  0.77439337247E+02  0.00000000000E+00 0.  1.
         21   -1    0    0  502  503 -0.00000000000E+00 -0.00000000000E+00 -0.12184011619E+04  0.12184011619E+04  0.00000000000E+00 0.  1.
          6    1    1    2  501    0 -0.28287530958E+02 -0.76296990271E+02 -0.61843431092E+02  0.20007504867E+03  0.17200000000E+03 0.  1.
         -6    1    1    2    0  503  0.28287530958E+02  0.76296990271E+02 -0.10791183936E+04  0.10957654505E+04  0.17200000000E+03 0.  1.
</event>
<event>
 4    1  0.4475741E+000  0.2045981E+03  0.7818608E-02  0.1145917E+00
         21   -1    0    0  503  502  0.00000000000E+00  0.00000000000E+00  0.16540349774E+03  0.16540349774E+03  0.00000000000E+00 0. -1.
         21   -1    0    0  501  503 -0.00000000000E+00 -0.00000000000E+00 -0.27223358464E+03  0.27223358464E+03  0.00000000000E+00 0. -1.
          6    1    1    2  501    0  0.56027016334E+02 -0.95589414143E+02 -0.11145608335E+03  0.23298674033E+03  0.17200000000E+03 0. -1.
         -6    1    1    2    0  502 -0.56027016334E+02  0.95589414143E+02  0.46259964520E+01  0.20465034204E+03  0.17200000000E+03 0. -1.
</event>
<event>
 4    1  0.4475741E+000  0.2609606E+03  0.7818608E-02  0.1106567E+00
         21   -1    0    0  501  502  0.00000000000E+00  0.00000000000E+00  0.94630569166E+03  0.94630569166E+03  0.00000000000E+00 0.  1.
         21   -1    0    0  502  503 -0.00000000000E+00 -0.00000000000E+00 -0.74173673579E+02  0.74173673579E+02  0.00000000000E+00 0. -1.
          6    1    1    2  501    0 -0.16596400736E+03 -0.10474923302E+03  0.34800972569E+03  0.43498416377E+03  0.17200000000E+03 0. -1.
         -6    1    1    2    0  503  0.16596400736E+03  0.10474923302E+03  0.52412229239E+03  0.58549520147E+03  0.17200000000E+03 0. -1.
</event>
<event>
 4    1  0.4475741E+000  0.3166411E+03  0.7818608E-02  0.1077206E+00
         21   -1    0    0  501  502  0.00000000000E+00  0.00000000000E+00  0.16683468301E+03  0.16683468301E+03  0.00000000000E+00 0.  1.
         21   -1    0    0  502  503 -0.00000000000E+00 -0.00000000000E+00 -0.95177814135E+03  0.95177814135E+03  0.00000000000E+00 0.  1.
          6    1    1    2  501    0 -0.23081417682E+03  0.13191811408E+03 -0.52908446465E+02  0.32103095918E+03  0.17200000000E+03 0.  1.
         -6    1    1    2    0  503  0.23081417682E+03 -0.13191811408E+03 -0.73203501188E+03  0.79758186518E+03  0.17200000000E+03 0.  1.
</event>
<event>
 4    1  0.4475741E+000  0.2182183E+03  0.7818608E-02  0.1135218E+00
         21   -1    0    0  503  502  0.00000000000E+00  0.00000000000E+00  0.66765627944E+02  0.66765627944E+02  0.00000000000E+00 0. -1.
         21   -1    0    0  501  503 -0.00000000000E+00 -0.00000000000E+00 -0.71705204492E+03  0.71705204492E+03  0.00000000000E+00 0. -1.
          6    1    1    2  501    0 -0.78141690869E+02 -0.10922046037E+03 -0.35375672458E+03  0.41564775111E+03  0.17200000000E+03 0. -1.
         -6    1    1    2    0  502  0.78141690869E+02  0.10922046037E+03 -0.29652969240E+03  0.36816992176E+03  0.17200000000E+03 0. -1.
</event>
<event>
 4    1  0.4475741E+000  0.2076563E+03  0.7818608E-02  0.1143436E+00
         21   -1    0    0  503  502  0.00000000000E+00  0.00000000000E+00  0.71897084859E+03  0.71897084859E+03  0.00000000000E+00 0.  1.
         21   -1    0    0  501  503 -0.00000000000E+00 -0.00000000000E+00 -0.71785243979E+02  0.71785243979E+02  0.00000000000E+00 0.  1.
          6    1    1    2  501    0  0.11560908483E+03  0.13101825552E+02  0.16323028322E+03  0.26413111079E+03  0.17200000000E+03 0.  1.
         -6    1    1    2    0  502 -0.11560908483E+03 -0.13101825552E+02  0.48395532139E+03  0.52662498177E+03  0.17200000000E+03 0.  1.
</event>
<event>
 4    1  0.4475741E+000  0.1839486E+03  0.7818608E-02  0.1164035E+00
         21   -1    0    0  501  502  0.00000000000E+00  0.00000000000E+00  0.11657991283E+03  0.11657991283E+03  0.00000000000E+00 0. -1.
         21   -1    0    0  502  503 -0.00000000000E+00 -0.00000000000E+00 -0.30125351740E+03  0.30125351740E+03  0.00000000000E+00 0. -1.
          6    1    1    2  501    0  0.46510925139E+02  0.45714733649E+02 -0.13226774530E+03  0.22656535366E+03  0.17200000000E+03 0. -1.
         -6    1    1    2    0  503 -0.46510925139E+02 -0.45714733649E+02 -0.52405859271E+02  0.19126807657E+03  0.17200000000E+03 0. -1.
</event>
<event>
 4    1  0.4475741E+000  0.2133519E+03  0.7818608E-02  0.1138939E+00
         21   -1    0    0  501  502  0.00000000000E+00  0.00000000000E+00  0.11443209006E+04  0.11443209006E+04  0.00000000000E+00 0. -1.
         21   -1    0    0  502  503 -0.00000000000E+00 -0.00000000000E+00 -0.68426887619E+02  0.68426887619E+02  0.00000000000E+00 0.  1.
          6    1    1    2  501    0 -0.12593471254E+03  0.86886782453E+01  0.93030214100E+03  0.95445330871E+03  0.17200000000E+03 0. -1.
         -6    1    1    2    0  503  0.12593471254E+03 -0.86886782453E+01  0.14559187195E+03  0.25829447948E+03  0.17200000000E+03 0.  1.
</event>
<event>
 4    1  0.4475741E+000  0.2426385E+03  0.7818608E-02  0.1118048E+00
         21   -1    0    0  503  502  0.00000000000E+00  0.00000000000E+00  0.23590473907E+03  0.23590473907E+03  0.00000000000E+00 0. -1.
         21   -1    0    0  501  503 -0.00000000000E+00 -0.00000000000E+00 -0.34801762856E+03  0.34801762856E+03  0.00000000000E+00 0. -1.
          6    1    1    2  501    0 -0.15520711433E+03 -0.72112256239E+02 -0.21134500538E+03  0.32177653292E+03  0.17200000000E+03 0. -1.
         -6    1    1    2    0  502  0.15520711433E+03  0.72112256239E+02  0.99232115886E+02  0.26214583472E+03  0.17200000000E+03 0. -1.
</event>
<event>
 4    1  0.4475741E+000  0.1916634E+03  0.7818608E-02  0.1156970E+00
         21   -1    0    0  501  502  0.00000000000E+00  0.00000000000E+00  0.62680514580E+02  0.62680514580E+02  0.00000000000E+00 0.  1.
         21   -1    0    0  502  503 -0.00000000000E+00 -0.00000000000E+00 -0.93620887461E+03  0.93620887461E+03  0.00000000000E+00 0.  1.
          6    1    1    2  501    0 -0.84212717369E+02 -0.76857525217E+01 -0.13132529492E+03  0.23233851520E+03  0.17200000000E+03 0.  1.
         -6    1    1    2    0  503  0.84212717369E+02  0.76857525217E+01 -0.74220306511E+03  0.76655087399E+03  0.17200000000E+03 0.  1.
</event>
<event>
 4    1  0.4475741E+000  0.2154188E+03  0.7818608E-02  0.1137345E+00
         21   -1    0    0  501  502  0.00000000000E+00  0.00000000000E+00  0.20045757083E+03  0.20045757083E+03  0.00000000000E+00 0.  1.
         21   -1    0    0  502  503 -0.00000000000E+00 -0.00000000000E+00 -0.26156071329E+03  0.26156071329E+03  0.00000000000E+00 0.  1.
          6    1    1    2  501    0  0.12204198574E+03  0.43897846575E+02 -0.10887042976E+03  0.24136701865E+03  0.17200000000E+03 0.  1.
         -6    1    1    2    0  503 -0.12204198574E+03 -0.43897846575E+02  0.47767287304E+02  0.22065126547E+03  0.17200000000E+03 0.  1.
</event>
<event>
 4    1  0.4475741E+000  0.2059575E+03  0.7818608E-02  0.1144808E+00
         21   -1    0    0  501  502  0.00000000000E+00  0.00000000000E+00  0.12128326510E+03  0.12128326510E+03  0.00000000000E+00 0. -1.
         21   -1    0    0  502  503 -0.00000000000E+00 -0.00000000000E+00 -0.35752571690E+03  0.35752571690E+03  0.00000000000E+00 0. -1.
          6    1    1    2  501    0 -0.42523409837E+02 -0.10500590130E+03 -0.15343366105E+03  0.25682750638E+03  0.17200000000E+03 0.  1.
         -6    1    1    2    0  503  0.42523409837E+02  0.10500590130E+03 -0.82808790753E+02  0.22198147562E+03  0.17200000000E+03 0.  1.
</event>
<event>
 4    1  0.4475741E+000  0.2422369E+03  0.7818608E-02  0.1118312E+00
         21   -1    0    0  501  502  0.00000000000E+00  0.00000000000E+00  0.22265198769E+03  0.22265198769E+03  0.00000000000E+00 0. -1.
         21   -1    0    0  502  503 -0.00000000000E+00 -0.00000000000E+00 -0.97504684849E+03  0.97504684849E+03  0.00000000000E+00 0.  1.
          6    1    1    2  501    0  0.12307484279E+03 -0.11809876712E+03  0.13535837742E+03  0.27748986659E+03  0.17200000000E+03 0. -1.
         -6    1    1    2    0  503 -0.12307484279E+03  0.11809876712E+03 -0.88775323822E+03  0.92020896958E+03  0.17200000000E+03 0.  1.
</event>
<event>
 4    1  0.4475741E+000  0.1791683E+03  0.7818608E-02  0.1168610E+00
         21   -1    0    0  503  502  0.00000000000E+00  0.00000000000E+00  0.49834019681E+03  0.49834019681E+03  0.00000000000E+00 0.  1.
         21   -1    0    0  501  503 -0.00000000000E+00 -0.00000000000E+00 -0.65554572451E+02  0.65554572451E+02  0.00000000000E+00 0.  1.
          6    1    1    2  501    0  0.45549511297E+02 -0.21036253094E+02  0.17924181882E+03  0.25343423514E+03  0.17200000000E+03 0.  1.
         -6    1    1    2    0  502 -0.45549511297E+02  0.21036253094E+02  0.25354380554E+03  0.31046053413E+03  0.17200000000E+03 0.  1.
</event>
<event>
 4    1  0.4475741E+000  0.1968546E+03  0.7818608E-02  0.1152420E+00
         21   -1    0    0  503  502  0.00000000000E+00  0.00000000000E+00  0.22991468943E+03  0.22991468943E+03  0.00000000000E+00 0.  1.
         21   -1    0    0  501  503 -0.00000000000E+00 -0.00000000000E+00 -0.33447101346E+03  0.33447101346E+03  0.00000000000E+00 0.  1.
          6    1    1    2  501    0 -0.92694146272E+02 -0.23990001713E+02 -0.25103391800E+03  0.31901371902E+03  0.17200000000E+03 0.  1.
         -6    1    1    2    0  502  0.92694146272E+02  0.23990001713E+02  0.14647759397E+03  0.24537198387E+03  0.17200000000E+03 0.  1.
</event>
<event>
 4    1  0.4475741E+000  0.1782977E+03  0.7818608E-02  0.1169461E+00
         21   -1    0    0  503  502  0.00000000000E+00  0.00000000000E+00  0.48110760174E+02  0.48110760174E+02  0.00000000000E+00 0.  1.
         21   -1    0    0  501  503 -0.00000000000E+00 -0.00000000000E+00 -0.10205788582E+04  0.10205788582E+04  0.00000000000E+00 0. -1.
          6    1    1    2  501    0  0.43180330469E+02  0.18480797160E+02 -0.80350847500E+03  0.82305282346E+03  0.17200000000E+03 0. -1.
         -6    1    1    2    0  502 -0.43180330469E+02 -0.18480797160E+02 -0.16895962302E+03  0.24563679491E+03  0.17200000000E+03 0.  1.
</event>
<event>
 4    1  0.4475741E+000  0.2018472E+03  0.7818608E-02  0.1148190E+00
         21   -1    0    0  501  502  0.00000000000E+00  0.00000000000E+00  0.19929480467E+03  0.19929480467E+03  0.00000000000E+00 0. -1.
         21   -1    0    0  502  503 -0.00000000000E+00 -0.00000000000E+00 -0.42850459268E+03  0.42850459268E+03  0.00000000000E+00 0. -1.
          6    1    1    2  501    0 -0.84146966995E+02 -0.63855867400E+02  0.11238540287E+03  0.23102545884E+03  0.17200000000E+03 0.  1.
         -6    1    1    2    0  503  0.84146966995E+02  0.63855867400E+02 -0.34159519088E+03  0.39677393852E+03  0.17200000000E+03 0.  1.
</event>
<event>
 4    1  0.4475741E+000  0.1896151E+03  0.7818608E-02  0.1158809E+00
         21   -1    0    0  501  502  0.00000000000E+00  0.00000000000E+00  0.28112726247E+03  0.28112726247E+03  0.00000000000E+00 0. -1.
         21   -1    0    0  502  503 -0.00000000000E+00 -0.00000000000E+00 -0.14277374654E+03  0.14277374654E+03  0.00000000000E+00 0. -1.
          6    1    1    2  501    0 -0.76938366283E+02 -0.21222227526E+02  0.13760555825E+03  0.23428441009E+03  0.17200000000E+03 0.  1.
         -6    1    1    2    0  503  0.76938366283E+02  0.21222227526E+02  0.74795768624E+00  0.18961659893E+03  0.17200000000E+03 0.  1.
</event>
<event>
 4    1  0.4475741E+000  0.4241384E+03  0.7818608E-02  0.1035728E+00
         21   -1    0    0  501  502  0.00000000000E+00  0.00000000000E+00  0.30775415607E+03  0.30775415607E+03  0.00000000000E+00 0. -1.
         21   -1    0    0  502  503 -0.00000000000E+00 -0.00000000000E+00 -0.84986907113E+03  0.84986907113E+03  0.00000000000E+00 0. -1.
          6    1    1    2  501    0  0.25541815342E+03  0.29166928178E+03  0.52355088909E+02  0.42735752990E+03  0.17200000000E+03 0. -1.
         -6    1    1    2    0  503 -0.25541815342E+03 -0.29166928178E+03 -0.59447000397E+03  0.73026569730E+03  0.17200000000E+03 0. -1.
</event>
<event>
 4    1  0.4475741E+000  0.1755820E+03  0.7818608E-02  0.1172149E+00
         21   -1    0    0  503  502  0.00000000000E+00  0.00000000000E+00  0.78305994343E+02  0.78305994343E+02  0.00000000000E+00 0.  1.
         21   -1    0    0  501  503 -0.00000000000E+00 -0.00000000000E+00 -0.99486834630E+03  0.99486834630E+03  0.00000000000E+00 0.  1.
          6    1    1    2  501    0 -0.70203664865E+01 -0.34579447748E+02 -0.87539611446E+03  0.89283110439E+03  0.17200000000E+03 0.  1.
         -6    1    1    2    0  502  0.70203664865E+01  0.34579447748E+02 -0.41166237495E+02  0.18034323625E+03  0.17200000000E+03 0.  1.
</event>
<event>
 4    1  0.4475741E+000  0.2544806E+03  0.7818608E-02  0.1110506E+00
         21   -1    0    0  503  502  0.00000000000E+00  0.00000000000E+00  0.38529473799E+03  0.38529473799E+03  0.00000000000E+00 0. -1.
         21   -1    0    0  501  503 -0.00000000000E+00 -0.00000000000E+00 -0.17279295942E+03  0.17279295942E+03  0.00000000000E+00 0. -1.
          6    1    1    2  501    0  0.10576524766E+03  0.15488725856E+03  0.15233539959E+03  0.29659134249E+03  0.17200000000E+03 0. -1.
         -6    1    1    2    0  502 -0.10576524766E+03 -0.15488725856E+03  0.60166378975E+02  0.26149635492E+03  0.17200000000E+03 0. -1.
</event>
<event>
 4    1  0.4475741E+000  0.1849523E+03  0.7818608E-02  0.1163094E+00
         21   -1    0    0  501  502  0.00000000000E+00  0.00000000000E+00  0.28279855653E+03  0.28279855653E+03  0.00000000000E+00 0. -1.
         21   -1    0    0  502  503 -0.00000000000E+00 -0.00000000000E+00 -0.14908452078E+03  0.14908452078E+03  0.00000000000E+00 0. -1.
          6    1    1    2  501    0 -0.55928473851E+02 -0.38669839129E+02  0.16064808202E+03  0.24497991122E+03  0.17200000000E+03 0. -1.
         -6    1    1    2    0  503  0.55928473851E+02  0.38669839129E+02 -0.26934046273E+02  0.18690316609E+03  0.17200000000E+03 0. -1.
</event>
<event>
 4    1  0.4475741E+000  0.1814223E+03  0.7818608E-02  0.1166434E+00
         21   -1    0    0  503  502  0.00000000000E+00  0.00000000000E+00  0.21206832341E+03  0.21206832341E+03  0.00000000000E+00 0.  1.
         21   -1    0    0  501  503 -0.00000000000E+00 -0.00000000000E+00 -0.15831789009E+03  0.15831789009E+03  0.00000000000E+00 0.  1.
          6    1    1    2  501    0 -0.48361826366E+02  0.31483254898E+02  0.90697455045E+00  0.18142459643E+03  0.17200000000E+03 0.  1.
         -6    1    1    2    0  502  0.48361826366E+02 -0.31483254898E+02  0.52843458767E+02  0.18896161706E+03  0.17200000000E+03 0.  1.
</event>
<event>
 4    1  0.4475741E+000  0.2061131E+03  0.7818608E-02  0.1144681E+00
         21   -1    0    0  503  502  0.00000000000E+00  0.00000000000E+00  0.17467517411E+04  0.17467517411E+04  0.00000000000E+00 0. -1.
         21   -1    0    0  501  503 -0.00000000000E+00 -0.00000000000E+00 -0.48418887703E+02  0.48418887703E+02  0.00000000000E+00 0. -1.
          6    1    1    2  501    0 -0.13951113899E+02  0.11271193764E+03  0.21594074998E+03  0.29851804295E+03  0.17200000000E+03 0. -1.
         -6    1    1    2    0  502  0.13951113899E+02 -0.11271193764E+03  0.14823921035E+04  0.14966525859E+04  0.17200000000E+03 0. -1.
</event>
<event>
 4    1  0.4475741E+000  0.1919433E+03  0.7818608E-02  0.1156720E+00
         21   -1    0    0  501  502  0.00000000000E+00  0.00000000000E+00  0.11529655473E+04  0.11529655473E+04  0.00000000000E+00 0.  1.
         21   -1    0    0  502  503 -0.00000000000E+00 -0.00000000000E+00 -0.45127894207E+02  0.45127894207E+02  0.00000000000E+00 0.  1.
          6    1    1    2  501    0 -0.60477992704E+02 -0.60005203314E+02  0.23025793241E+03  0.29976812283E+03  0.17200000000E+03 0.  1.
         -6    1    1    2    0  503  0.60477992704E+02  0.60005203314E+02  0.87757972070E+03  0.89832531869E+03  0.17200000000E+03 0.  1.
</event>
<event>
 4    1  0.4475741E+000  0.2289819E+03  0.7818608E-02  0.1127358E+00
         21   -1    0    0  501  502  0.00000000000E+00  0.00000000000E+00  0.41380093158E+02  0.41380093158E+02  0.00000000000E+00 0. -1.
         21   -1    0    0  502  503 -0.00000000000E+00 -0.00000000000E+00 -0.15521187535E+04  0.15521187535E+04  0.00000000000E+00 0. -1.
          6    1    1    2  501    0  0.95390609802E+02 -0.11725754597E+03 -0.10967950931E+04  0.11204428485E+04  0.17200000000E+03 0. -1.
         -6    1    1    2    0  503 -0.95390609802E+02  0.11725754597E+03 -0.41394356726E+03  0.47305599817E+03  0.17200000000E+03 0. -1.
</event>
<event>
 4    1  0.4475741E+000  0.1819011E+03  0.7818608E-02  0.1165976E+00
         21   -1    0    0  503  502  0.00000000000E+00  0.00000000000E+00  0.18464350491E+03  0.18464350491E+03  0.00000000000E+00 0.  1.
         21   -1    0    0  501  503 -0.00000000000E+00 -0.00000000000E+00 -0.27813299735E+03  0.27813299735E+03  0.00000000000E+00 0.  1.
          6    1    1    2  501    0  0.63607334769E+01  0.58851797297E+02 -0.18474729022E+03  0.25926734121E+03  0.17200000000E+03 0.  1.
         -6    1    1    2    0  502 -0.63607334769E+01 -0.58851797297E+02  0.91257797775E+02  0.20350916105E+03  0.17200000000E+03 0.  1.
</event>
<event>
 4    1  0.4475741E+000  0.1885792E+03  0.7818608E-02  0.1159749E+00
         21   -1    0    0  501  502  0.00000000000E+00  0.00000000000E+00  0.32954006540E+02  0.32954006540E+02  0.00000000000E+00 0.  1.
         21   -1    0    0  502  503 -0.00000000000E+00 -0.00000000000E+00 -0.11459378966E+04  0.11459378966E+04  0.00000000000E+00 0.  1.
          6    1    1    2  501    0  0.77317033489E+02  0.42992663760E+00 -0.41418279731E+03  0.45509284557E+03  0.17200000000E+03 0.  1.
         -6    1    1    2    0  503 -0.77317033489E+02 -0.42992663760E+00 -0.69880109275E+03  0.72379905757E+03  0.17200000000E+03 0.  1.
</event>
<event>
 4    1  0.4475741E+000  0.2333542E+03  0.7818608E-02  0.1124301E+00
         21   -1    0    0  503  502  0.00000000000E+00  0.00000000000E+00  0.26606194547E+03  0.26606194547E+03  0.00000000000E+00 0.  1.
         21   -1    0    0  501  503 -0.00000000000E+00 -0.00000000000E+00 -0.20644249220E+03  0.20644249220E+03  0.00000000000E+00 0. -1.
          6    1    1    2  501    0  0.15442115183E+03  0.32004834201E+02  0.79024122631E+01  0.23348800754E+03  0.17200000000E+03 0.  1.
         -6    1    1    2    0  502 -0.15442115183E+03 -0.32004834201E+02  0.51717041005E+02  0.23901643013E+03  0.17200000000E+03 0. -1.
</event>
<event>
 4    1  0.4475741E+000  0.2001203E+03  0.7818608E-02  0.1149638E+00
         21   -1    0    0  503  502  0.00000000000E+00  0.00000000000E+00  0.86863993660E+03  0.86863993660E+03  0.00000000000E+00 0. -1.
         21   -1    0    0  501  503 -0.00000000000E+00 -0.00000000000E+00 -0.49095234170E+02  0.49095234170E+02  0.00000000000E+00 0. -1.
          6    1    1    2  501    0  0.86382182158E+02  0.54792650101E+02  0.29651550076E+03  0.35772833000E+03  0.17200000000E+03 0. -1.
         -6    1    1    2    0  502 -0.86382182158E+02 -0.54792650101E+02  0.52302920167E+03  0.56000684076E+03  0.17200000000E+03 0. -1.
</event>
<event>
 4    1  0.4475741E+000  0.2666758E+03  0.7818608E-02  0.1103197E+00
         21   -1    0    0  501  502  0.00000000000E+00  0.00000000000E+00  0.59224816484E+03  0.59224816484E+03  0.00000000000E+00 0.  1.
         21   -1    0    0  502  503 -0.00000000000E+00 -0.00000000000E+00 -0.12590703382E+03  0.12590703382E+03  0.00000000000E+00 0. -1.
          6    1    1    2  501    0 -0.60009162792E+02 -0.19475848822E+03  0.31043186899E+03  0.40924798550E+03  0.17200000000E+03 0.  1.
         -6    1    1    2    0  503  0.60009162792E+02  0.19475848822E+03  0.15590926203E+03  0.30890721316E+03  0.17200000000E+03 0.  1.
</event>
<event>
 4    1  0.4475741E+000  0.1727397E+03  0.7818608E-02  0.1175020E+00
         21   -1    0    0  503  502  0.00000000000E+00  0.00000000000E+00  0.21371241510E+03  0.21371241510E+03  0.00000000000E+00 0. -1.
         21   -1    0    0  501  503 -0.00000000000E+00 -0.00000000000E+00 -0.14193907281E+03  0.14193907281E+03  0.00000000000E+00 0. -1.
          6    1    1    2  501    0  0.14192657129E+02 -0.73203988333E+01  0.13167890642E+02  0.17324091058E+03  0.17200000000E+03 0. -1.
         -6    1    1    2    0  502 -0.14192657129E+02  0.73203988333E+01  0.58605451649E+02  0.18241057732E+03  0.17200000000E+03 0. -1.
</event>
<event>
 4    1  0.4475741E+000  0.2138355E+03  0.7818608E-02  0.1138564E+00
         21   -1    0    0  503  502  0.00000000000E+00  0.00000000000E+00  0.77844947216E+03  0.77844947216E+03  0.00000000000E+00 0.  1.
         21   -1    0    0  501  503 -0.00000000000E+00 -0.00000000000E+00 -0.65512480757E+02  0.65512480757E+02  0.00000000000E+00 0.  1.
          6    1    1    2  501    0  0.17108934715E+02  0.12589235129E+03  0.22078524215E+03  0.30736252685E+03  0.17200000000E+03 0.  1.
         -6    1    1    2    0  502 -0.17108934715E+02 -0.12589235129E+03  0.49215174925E+03  0.53659942606E+03  0.17200000000E+03 0.  1.
</event>
<event>
 4    1  0.4475741E+000  0.2738666E+03  0.7818608E-02  0.1099087E+00
         21   -1    0    0  501  502  0.00000000000E+00  0.00000000000E+00  0.22590221398E+04  0.22590221398E+04  0.00000000000E+00 0. -1.
         21   -1    0    0  502  503 -0.00000000000E+00 -0.00000000000E+00 -0.37145597764E+02  0.37145597764E+02  0.00000000000E+00 0. -1.
          6    1    1    2  501    0 -0.21286196058E+03 -0.10424919096E+02  0.14850441345E+04  0.15100857507E+04  0.17200000000E+03 0. -1.
         -6    1    1    2    0  503  0.21286196058E+03  0.10424919096E+02  0.73683240755E+03  0.78608198682E+03  0.17200000000E+03 0. -1.
</event>
<event>
 4    1  0.4475741E+000  0.2064923E+03  0.7818608E-02  0.1144374E+00
         21   -1    0    0  501  502  0.00000000000E+00  0.00000000000E+00  0.11450646587E+03  0.11450646587E+03  0.00000000000E+00 0. -1.
         21   -1    0    0  502  503 -0.00000000000E+00 -0.00000000000E+00 -0.37483042168E+03  0.37483042168E+03  0.00000000000E+00 0. -1.
          6    1    1    2  501    0  0.49001700354E+02 -0.10321770147E+03 -0.11034929211E+03  0.23412822727E+03  0.17200000000E+03 0. -1.
         -6    1    1    2    0  503 -0.49001700354E+02  0.10321770147E+03 -0.14997466369E+03  0.25520866028E+03  0.17200000000E+03 0. -1.
</event>
<event>
 4    1  0.4475741E+000  0.2336306E+03  0.7818608E-02  0.1124110E+00
         21   -1    0    0  501  502  0.00000000000E+00  0.00000000000E+00  0.47023465638E+03  0.47023465638E+03  0.00000000000E+00 0. -1.
         21   -1    0    0  502  503 -0.00000000000E+00 -0.00000000000E+00 -0.13016006036E+03  0.13016006036E+03  0.00000000000E+00 0.  1.
          6    1    1    2  501    0 -0.15623212804E+03  0.24305602135E+02  0.71290577049E+02  0.24426540177E+03  0.17200000000E+03 0.  1.
         -6    1    1    2    0  503  0.15623212804E+03 -0.24305602135E+02  0.26878401897E+03  0.35612931497E+03  0.17200000000E+03 0. -1.
</event>
<event>
 4    1  0.4475741E+000  0.1742292E+03  0.7818608E-02  0.1173508E+00
         21   -1    0    0  503  502  0.00000000000E+00  0.00000000000E+00  0.51607724928E+03  0.51607724928E+03  0.00000000000E+00 0.  1.
         21   -1    0    0  501  503 -0.00000000000E+00 -0.00000000000E+00 -0.87805466410E+02  0.87805466410E+02  0.00000000000E+00 0.  1.
          6    1    1    2  501    0  0.26072385603E+02  0.95935604100E+01  0.40655691706E+02  0.17890972852E+03  0.17200000000E+03 0.  1.
         -6    1    1    2    0  502 -0.26072385603E+02 -0.95935604100E+01  0.38761609117E+03  0.42497298717E+03  0.17200000000E+03 0.  1.
</event>
<event>
 4    1  0.4475741E+000  0.1927122E+03  0.7818608E-02  0.1156038E+00
         21   -1    0    0  503  502  0.00000000000E+00  0.00000000000E+00  0.32193973550E+03  0.32193973550E+03  0.00000000000E+00 0.  1.
         21   -1    0    0  501  503 -0.00000000000E+00 -0.00000000000E+00 -0.17193697163E+03  0.17193697163E+03  0.00000000000E+00 0.  1.
          6    1    1    2  501    0 -0.15828662248E+02 -0.85460226959E+02 -0.66654735873E+02  0.20391383169E+03  0.17200000000E+03 0.  1.
         -6    1    1    2    0  502  0.15828662248E+02  0.85460226959E+02  0.21665749974E+03  0.28996287544E+03  0.17200000000E+03 0.  1.
</event>
<event>
 4    1  0.4475741E+000  0.1731525E+03  0.7818608E-02  0.1174600E+00
         21   -1    0    0  501  502  0.00000000000E+00  0.00000000000E+00  0.88549032028E+03  0.88549032028E+03  0.00000000000E+00 0.  1.
         21   -1    0    0  502  503 -0.00000000000E+00 -0.00000000000E+00 -0.56537118265E+02  0.56537118265E+02  0.00000000000E+00 0.  1.
          6    1    1    2  501    0  0.12666823283E+02 -0.15406133767E+02  0.71278840632E+03  0.73351830894E+03  0.17200000000E+03 0.  1.
         -6    1    1    2    0  503 -0.12666823283E+02  0.15406133767E+02  0.11616479570E+03  0.20850912961E+03  0.17200000000E+03 0.  1.
</event>
<event>
 4    1  0.4475741E+000  0.1786348E+03  0.7818608E-02  0.1169131E+00
         21   -1    0    0  501  502  0.00000000000E+00  0.00000000000E+00  0.84361759138E+02  0.84361759138E+02  0.00000000000E+00 0. -1.
         21   -1    0    0  502  503 -0.00000000000E+00 -0.00000000000E+00 -0.43725336143E+03  0.43725336143E+03  0.00000000000E+00 0. -1.
          6    1    1    2  501    0 -0.28819633278E+02  0.38675629844E+02 -0.80645161817E+02  0.19599494313E+03  0.17200000000E+03 0. -1.
         -6    1    1    2    0  503  0.28819633278E+02 -0.38675629844E+02 -0.27224644047E+03  0.32562017744E+03  0.17200000000E+03 0. -1.
</event>
<event>
 4    1  0.4475741E+000  0.2538616E+03  0.7818608E-02  0.1110888E+00
         21   -1    0    0  503  502  0.00000000000E+00  0.00000000000E+00  0.36276186699E+03  0.36276186699E+03  0.00000000000E+00 0. -1.
         21   -1    0    0  501  503 -0.00000000000E+00 -0.00000000000E+00 -0.19254670484E+03  0.19254670484E+03  0.00000000000E+00 0.  1.
          6    1    1    2  501    0 -0.41435732282E+02 -0.18205706718E+03  0.16232926159E+03  0.30132455059E+03  0.17200000000E+03 0. -1.
         -6    1    1    2    0  502  0.41435732282E+02  0.18205706718E+03  0.78859005633E+01  0.25398402124E+03  0.17200000000E+03 0.  1.
</event>
<event>
 4    1  0.4475741E+000  0.2222289E+03  0.7818608E-02  0.1132232E+00
         21   -1    0    0  501  502  0.00000000000E+00  0.00000000000E+00  0.91449684015E+02  0.91449684015E+02  0.00000000000E+00 0. -1.
         21   -1    0    0  502  503 -0.00000000000E+00 -0.00000000000E+00 -0.64899449428E+03  0.64899449428E+03  0.00000000000E+00 0. -1.
          6    1    1    2  501    0  0.41382458760E+01  0.14065760570E+03 -0.12707371361E+03  0.25599495271E+03  0.17200000000E+03 0. -1.
         -6    1    1    2    0  503 -0.41382458760E+01 -0.14065760570E+03 -0.43047109665E+03  0.48444922559E+03  0.17200000000E+03 0. -1.
</event>
<event>
 4    1  0.4475741E+000  0.2600138E+03  0.7818608E-02  0.1107135E+00
         21   -1    0    0  501  502  0.00000000000E+00  0.00000000000E+00  0.75578351762E+03  0.75578351762E+03  0.00000000000E+00 0.  1.
         21   -1    0    0  502  503 -0.00000000000E+00 -0.00000000000E+00 -0.97245285630E+02  0.97245285630E+02  0.00000000000E+00 0.  1.
          6    1    1    2  501    0  0.12150512045E+03  0.15251130423E+03  0.45000283100E+03  0.51972082902E+03  0.17200000000E+03 0.  1.
         -6    1    1    2    0  503 -0.12150512045E+03 -0.15251130423E+03  0.20853540099E+03  0.33330797422E+03  0.17200000000E+03 0.  1.
</event>
<event>
 4    1  0.4475741E+000  0.1951382E+03  0.7818608E-02  0.1153907E+00
         21   -1    0    0  501  502  0.00000000000E+00  0.00000000000E+00  0.48736002821E+03  0.48736002821E+03  0.00000000000E+00 0. -1.
         21   -1    0    0  502  503 -0.00000000000E+00 -0.00000000000E+00 -0.10112246494E+03  0.10112246494E+03  0.00000000000E+00 0. -1.
          6    1    1    2  501    0  0.62682543406E+02  0.67570725283E+02  0.33341439762E+03  0.38632119370E+03  0.17200000000E+03 0. -1.
         -6    1    1    2    0  503 -0.62682543406E+02 -0.67570725283E+02  0.52823165652E+02  0.20216129944E+03  0.17200000000E+03 0. -1.
</event>
<event>
 4    1  0.4475741E+000  0.1808017E+03  0.7818608E-02  0.1167029E+00
         21   -1    0    0  503  502  0.00000000000E+00  0.00000000000E+00  0.43674211607E+03  0.43674211607E+03  0.00000000000E+00 0.  1.
         21   -1    0    0  501  503 -0.00000000000E+00 -0.00000000000E+00 -0.10283650838E+03  0.10283650838E+03  0.00000000000E+00 0.  1.
          6    1    1    2  501    0  0.16917805338E+02  0.53094628887E+02  0.26205089778E+02  0.18269088232E+03  0.17200000000E+03 0.  1.
         -6    1    1    2    0  502 -0.16917805338E+02 -0.53094628887E+02  0.30770051791E+03  0.35688774212E+03  0.17200000000E+03 0.  1.
</event>
<event>
 4    1  0.4475741E+000  0.2256379E+03  0.7818608E-02  0.1129748E+00
         21   -1    0    0  503  502  0.00000000000E+00  0.00000000000E+00  0.32769762998E+03  0.32769762998E+03  0.00000000000E+00 0. -1.
         21   -1    0    0  501  503 -0.00000000000E+00 -0.00000000000E+00 -0.20020560879E+03  0.20020560879E+03  0.00000000000E+00 0. -1.
          6    1    1    2  501    0  0.12539017991E+03  0.74871748355E+02 -0.61172241019E+02  0.23378305968E+03  0.17200000000E+03 0. -1.
         -6    1    1    2    0  502 -0.12539017991E+03 -0.74871748355E+02  0.18866426220E+03  0.29412017910E+03  0.17200000000E+03 0. -1.
</event>
<event>
 4    1  0.4475741E+000  0.4998775E+03  0.7818608E-02  0.1013811E+00
         21   -1    0    0  501  502  0.00000000000E+00  0.00000000000E+00  0.42266663449E+03  0.42266663449E+03  0.00000000000E+00 0.  1.
         21   -1    0    0  502  503 -0.00000000000E+00 -0.00000000000E+00 -0.87459880257E+03  0.87459880257E+03  0.00000000000E+00 0. -1.
          6    1    1    2  501    0  0.32910678883E+03  0.33463748157E+03  0.14326549834E+03  0.52000242840E+03  0.17200000000E+03 0. -1.
         -6    1    1    2    0  503 -0.32910678883E+03 -0.33463748157E+03 -0.59519766642E+03  0.77726300866E+03  0.17200000000E+03 0.  1.
</event>
<event>
 4    1  0.4475741E+000  0.3005704E+03  0.7818608E-02  0.1084956E+00
         21   -1    0    0  501  502  0.00000000000E+00  0.00000000000E+00  0.28311910569E+03  0.28311910569E+03  0.00000000000E+00 0.  1.
         21   -1    0    0  502  503 -0.00000000000E+00 -0.00000000000E+00 -0.68821190844E+03  0.68821190844E+03  0.00000000000E+00 0. -1.
          6    1    1    2  501    0  0.24184215565E+03  0.47654370058E+02  0.15313137753E+03  0.33733038111E+03  0.17200000000E+03 0.  1.
         -6    1    1    2    0  503 -0.24184215565E+03 -0.47654370058E+02 -0.55822418028E+03  0.63400063303E+03  0.17200000000E+03 0. -1.
</event>
<event>
 4    1  0.4475741E+000  0.1901484E+03  0.7818608E-02  0.1158328E+00
         21   -1    0    0  501  502  0.00000000000E+00  0.00000000000E+00  0.88363445611E+02  0.88363445611E+02  0.00000000000E+00 0. -1.
         21   -1    0    0  502  503 -0.00000000000E+00 -0.00000000000E+00 -0.90077249498E+03  0.90077249498E+03  0.00000000000E+00 0. -1.
          6    1    1    2  501    0  0.90381644678E+00 -0.81065342521E+02 -0.40843858523E+02  0.19448554553E+03  0.17200000000E+03 0. -1.
         -6    1    1    2    0  503 -0.90381644678E+00  0.81065342521E+02 -0.77156519085E+03  0.79465039506E+03  0.17200000000E+03 0. -1.
</event>
<event>
 4    1  0.4475741E+000  0.2043876E+03  0.7818608E-02  0.1146089E+00
         21   -1    0    0  501  502  0.00000000000E+00  0.00000000000E+00  0.90515867841E+03  0.90515867841E+03  0.00000000000E+00 0.  1.
         21   -1    0    0  502  503 -0.00000000000E+00 -0.00000000000E+00 -0.76090399379E+02  0.76090399379E+02  0.00000000000E+00 0. -1.
          6    1    1    2  501    0 -0.10970138632E+03  0.12486239994E+02  0.72228784754E+03  0.75064907584E+03  0.17200000000E+03 0.  1.
         -6    1    1    2    0  503  0.10970138632E+03 -0.12486239994E+02  0.10678043148E+03  0.23060000194E+03  0.17200000000E+03 0. -1.
</event>
<event>
 4    1  0.4475741E+000  0.2473735E+03  0.7818608E-02  0.1114976E+00
         21   -1    0    0  503  502  0.00000000000E+00  0.00000000000E+00  0.37653230289E+03  0.37653230289E+03  0.00000000000E+00 0. -1.
         21   -1    0    0  501  503 -0.00000000000E+00 -0.00000000000E+00 -0.16253027151E+03  0.16253027151E+03  0.00000000000E+00 0.  1.
          6    1    1    2  501    0  0.19840178761E+02  0.17668054185E+03  0.10475465561E+03  0.26863950646E+03  0.17200000000E+03 0. -1.
         -6    1    1    2    0  502 -0.19840178761E+02 -0.17668054185E+03  0.10924737577E+03  0.27042306794E+03  0.17200000000E+03 0. -1.
</event>
<event>
 4    1  0.4475741E+000  0.2050433E+03  0.7818608E-02  0.1145552E+00
         21   -1    0    0  503  502  0.00000000000E+00  0.00000000000E+00  0.10004438349E+03  0.10004438349E+03  0.00000000000E+00 0.  1.
         21   -1    0    0  501  503 -0.00000000000E+00 -0.00000000000E+00 -0.43469173532E+03  0.43469173532E+03  0.00000000000E+00 0.  1.
          6    1    1    2  501    0  0.14475477022E+02 -0.11067609008E+03 -0.11857462999E+03  0.23686004143E+03  0.17200000000E+03 0.  1.
         -6    1    1    2    0  502 -0.14475477022E+02  0.11067609008E+03 -0.21607272185E+03  0.29787607738E+03  0.17200000000E+03 0.  1.
</event>
<event>
 4    1  0.4475741E+000  0.1781740E+03  0.7818608E-02  0.1169582E+00
         21   -1    0    0  501  502  0.00000000000E+00  0.00000000000E+00  0.74989099299E+03  0.74989099299E+03  0.00000000000E+00 0.  1.
         21   -1    0    0  502  503 -0.00000000000E+00 -0.00000000000E+00 -0.78052156435E+02  0.78052156435E+02  0.00000000000E+00 0.  1.
          6    1    1    2  501    0 -0.15981372432E+02 -0.43664172870E+02  0.61596062836E+03  0.64121249204E+03  0.17200000000E+03 0. -1.
         -6    1    1    2    0  503  0.15981372432E+02  0.43664172870E+02  0.55878208198E+02  0.18673065739E+03  0.17200000000E+03 0. -1.
</event>
<event>
 4    1  0.4475741E+000  0.1772286E+03  0.7818608E-02  0.1170512E+00
         21   -1    0    0  503  502  0.00000000000E+00  0.00000000000E+00  0.37760919422E+03  0.37760919422E+03  0.00000000000E+00 0.  1.
         21   -1    0    0  501  503 -0.00000000000E+00 -0.00000000000E+00 -0.11156589841E+03  0.11156589841E+03  0.00000000000E+00 0.  1.
          6    1    1    2  501    0 -0.25139303629E+02 -0.34554372405E+02  0.96513307308E+01  0.17749123196E+03  0.17200000000E+03 0. -1.
         -6    1    1    2    0  502  0.25139303629E+02  0.34554372405E+02  0.25639196508E+03  0.31168386066E+03  0.17200000000E+03 0. -1.
</event>
<event>
 4    1  0.4475741E+000  0.2048915E+03  0.7818608E-02  0.1145676E+00
         21   -1    0    0  501  502  0.00000000000E+00  0.00000000000E+00  0.30362733128E+02  0.30362733128E+02  0.00000000000E+00 0. -1.
         21   -1    0    0  502  503 -0.00000000000E+00 -0.00000000000E+00 -0.15168672591E+04  0.15168672591E+04  0.00000000000E+00 0. -1.
          6    1    1    2  501    0  0.81924609333E+02  0.75398080803E+02 -0.51311707886E+03  0.55251212550E+03  0.17200000000E+03 0. -1.
         -6    1    1    2    0  503 -0.81924609333E+02 -0.75398080803E+02 -0.97338744716E+03  0.99471786678E+03  0.17200000000E+03 0. -1.
</event>
<event>
 4    1  0.4475741E+000  0.1791309E+03  0.7818608E-02  0.1168647E+00
         21   -1    0    0  503  502  0.00000000000E+00  0.00000000000E+00  0.75271586554E+02  0.75271586554E+02  0.00000000000E+00 0. -1.
         21   -1    0    0  501  503 -0.00000000000E+00 -0.00000000000E+00 -0.55944804280E+03  0.55944804280E+03  0.00000000000E+00 0. -1.
          6    1    1    2  501    0  0.76190747391E+01  0.49455318637E+02 -0.39691572123E+03  0.43546523237E+03  0.17200000000E+03 0. -1.
         -6    1    1    2    0  502 -0.76190747391E+01 -0.49455318637E+02 -0.87260735011E+02  0.19925439698E+03  0.17200000000E+03 0. -1.
</event>
<event>
 4    1  0.4475741E+000  0.1803210E+03  0.7818608E-02  0.1167493E+00
         21   -1    0    0  503  502  0.00000000000E+00  0.00000000000E+00  0.80798493395E+02  0.80798493395E+02  0.00000000000E+00 0.  1.
         21   -1    0    0  501  503 -0.00000000000E+00 -0.00000000000E+00 -0.53885059426E+03  0.53885059426E+03  0.00000000000E+00 0.  1.
          6    1    1    2  501    0  0.47801172957E+02  0.25430359349E+02 -0.73134266332E+02  0.19458745135E+03  0.17200000000E+03 0.  1.
         -6    1    1    2    0  502 -0.47801172957E+02 -0.25430359349E+02 -0.38491783453E+03  0.42506163630E+03  0.17200000000E+03 0.  1.
</event>
<event>
 4    1  0.4475741E+000  0.2142769E+03  0.7818608E-02  0.1138223E+00
         21   -1    0    0  503  502  0.00000000000E+00  0.00000000000E+00  0.43562281695E+03  0.43562281695E+03  0.00000000000E+00 0.  1.
         21   -1    0    0  501  503 -0.00000000000E+00 -0.00000000000E+00 -0.30932122312E+03  0.30932122312E+03  0.00000000000E+00 0.  1.
          6    1    1    2  501    0  0.12702055104E+03 -0.14013030133E+02 -0.23927591940E+03  0.32119705946E+03  0.17200000000E+03 0.  1.
         -6    1    1    2    0  502 -0.12702055104E+03  0.14013030133E+02  0.36557751323E+03  0.42374698061E+03  0.17200000000E+03 0.  1.
</event>
<event>
 4    1  0.4475741E+000  0.2492248E+03  0.7818608E-02  0.1113796E+00
         21   -1    0    0  503  502  0.00000000000E+00  0.00000000000E+00  0.34995086235E+04  0.34995086235E+04  0.00000000000E+00 0.  1.
         21   -1    0    0  501  503 -0.00000000000E+00 -0.00000000000E+00 -0.21334274962E+02  0.21334274962E+02  0.00000000000E+00 0.  1.
          6    1    1    2  501    0 -0.10216572506E+03  0.14863096073E+03  0.24607513483E+04  0.24733398869E+04  0.17200000000E+03 0.  1.
         -6    1    1    2    0  502  0.10216572506E+03 -0.14863096073E+03  0.10174230003E+04  0.10475030116E+04  0.17200000000E+03 0.  1.
</event>
<event>
 4    1  0.4475741E+000  0.2846365E+03  0.7818608E-02  0.1093183E+00
         21   -1    0    0  503  502  0.00000000000E+00  0.00000000000E+00  0.20934777117E+03  0.20934777117E+03  0.00000000000E+00 0.  1.
         21   -1    0    0  501  503 -0.00000000000E+00 -0.00000000000E+00 -0.40228671801E+03  0.40228671801E+03  0.00000000000E+00 0. -1.
          6    1    1    2  501    0 -0.15942225738E+03  0.16130240176E+03 -0.15608077707E+03  0.32462151797E+03  0.17200000000E+03 0.  1.
         -6    1    1    2    0  502  0.15942225738E+03 -0.16130240176E+03 -0.36858169775E+02  0.28701297121E+03  0.17200000000E+03 0. -1.
</event>
<event>
 4    1  0.4475741E+000  0.1756525E+03  0.7818608E-02  0.1172078E+00
         21   -1    0    0  501  502  0.00000000000E+00  0.00000000000E+00  0.58098645564E+03  0.58098645564E+03  0.00000000000E+00 0.  1.
         21   -1    0    0  502  503 -0.00000000000E+00 -0.00000000000E+00 -0.12978319347E+03  0.12978319347E+03  0.00000000000E+00 0.  1.
          6    1    1    2  501    0 -0.30655171710E+02 -0.18167632583E+02  0.49876538249E+03  0.52879174463E+03  0.17200000000E+03 0.  1.
         -6    1    1    2    0  503  0.30655171710E+02  0.18167632583E+02 -0.47562120316E+02  0.18197790447E+03  0.17200000000E+03 0.  1.
</event>
<event>
 4    1  0.4475741E+000  0.3732866E+03  0.7818608E-02  0.1053443E+00
         21   -1    0    0  501  502  0.00000000000E+00  0.00000000000E+00  0.39196479884E+03  0.39196479884E+03  0.00000000000E+00 0.  1.
         21   -1    0    0  502  503 -0.00000000000E+00 -0.00000000000E+00 -0.42465678080E+03  0.42465678080E+03  0.00000000000E+00 0. -1.
          6    1    1    2  501    0 -0.57209385248E+02 -0.32632190387E+03  0.14842999308E+03  0.40171427850E+03  0.17200000000E+03 0.  1.
         -6    1    1    2    0  503  0.57209385248E+02  0.32632190387E+03 -0.18112197504E+03  0.41490730115E+03  0.17200000000E+03 0. -1.
</event>
<event>
 4    1  0.4475741E+000  0.2123641E+03  0.7818608E-02  0.1139707E+00
         21   -1    0    0  503  502  0.00000000000E+00  0.00000000000E+00  0.46944333827E+03  0.46944333827E+03  0.00000000000E+00 0. -1.
         21   -1    0    0  501  503 -0.00000000000E+00 -0.00000000000E+00 -0.41411367847E+03  0.41411367847E+03  0.00000000000E+00 0. -1.
          6    1    1    2  501    0 -0.26191729270E+02  0.12177239146E+03 -0.35949428539E+03  0.41753402643E+03  0.17200000000E+03 0. -1.
         -6    1    1    2    0  502  0.26191729270E+02 -0.12177239146E+03  0.41482394518E+03  0.46602299031E+03  0.17200000000E+03 0. -1.
</event>
<event>
 4    1  0.4475741E+000  0.2607639E+03  0.7818608E-02  0.1106685E+00
         21   -1    0    0  503  502  0.00000000000E+00  0.00000000000E+00  0.16778697300E+03  0.16778697300E+03  0.00000000000E+00 0. -1.
         21   -1    0    0  501  503 -0.00000000000E+00 -0.00000000000E+00 -0.82174601606E+03  0.82174601606E+03  0.00000000000E+00 0.  1.
          6    1    1    2  501    0 -0.18036696595E+03  0.76691415016E+02 -0.67921268181E+03  0.72754909297E+03  0.17200000000E+03 0.  1.
         -6    1    1    2    0  502  0.18036696595E+03 -0.76691415016E+02  0.25253638758E+02  0.26198389610E+03  0.17200000000E+03 0. -1.
</event>
<event>
 4    1  0.4475741E+000  0.2160325E+03  0.7818608E-02  0.1136876E+00
         21   -1    0    0  503  502  0.00000000000E+00  0.00000000000E+00  0.53280249756E+03  0.53280249756E+03  0.00000000000E+00 0. -1.
         21   -1    0    0  501  503 -0.00000000000E+00 -0.00000000000E+00 -0.88258839094E+02  0.88258839094E+02  0.00000000000E+00 0. -1.
          6    1    1    2  501    0  0.54542003799E+02  0.11879053713E+03  0.19530963124E+03  0.29123164997E+03  0.17200000000E+03 0. -1.
         -6    1    1    2    0  502 -0.54542003799E+02 -0.11879053713E+03  0.24923402723E+03  0.32982968668E+03  0.17200000000E+03 0. -1.
</event>
<event>
 4    1  0.4475741E+000  0.2108719E+03  0.7818608E-02  0.1140877E+00
         21   -1    0    0  503  502  0.00000000000E+00  0.00000000000E+00  0.11699220326E+03  0.11699220326E+03  0.00000000000E+00 0.  1.
         21   -1    0    0  501  503 -0.00000000000E+00 -0.00000000000E+00 -0.69119141629E+03  0.69119141629E+03  0.00000000000E+00 0.  1.
          6    1    1    2  501    0 -0.64900497013E+02  0.10329991179E+03 -0.55820338757E+03  0.59670593108E+03  0.17200000000E+03 0.  1.
         -6    1    1    2    0  502  0.64900497013E+02 -0.10329991179E+03 -0.15995825461E+02  0.21147768847E+03  0.17200000000E+03 0.  1.
</event>
<event>
 4    1  0.4475741E+000  0.1844522E+03  0.7818608E-02  0.1163562E+00
         21   -1    0    0  501  502  0.00000000000E+00  0.00000000000E+00  0.49369717646E+03  0.49369717646E+03  0.00000000000E+00 0.  1.
         21   -1    0    0  502  503 -0.00000000000E+00 -0.00000000000E+00 -0.86984432863E+02  0.86984432863E+02  0.00000000000E+00 0.  1.
          6    1    1    2  501    0  0.66214024732E+02 -0.73693453036E+01  0.33569073445E+03  0.38302855444E+03  0.17200000000E+03 0.  1.
         -6    1    1    2    0  503 -0.66214024732E+02  0.73693453036E+01  0.71022009148E+02  0.19765305488E+03  0.17200000000E+03 0.  1.
</event>
<event>
 4    1  0.4475741E+000  0.3069664E+03  0.7818608E-02  0.1081809E+00
         21   -1    0    0  503  502  0.00000000000E+00  0.00000000000E+00  0.60275088239E+03  0.60275088239E+03  0.00000000000E+00 0.  1.
         21   -1    0    0  501  503 -0.00000000000E+00 -0.00000000000E+00 -0.45457267351E+03  0.45457267351E+03  0.00000000000E+00 0.  1.
          6    1    1    2  501    0  0.11813114078E+03  0.22514303516E+03 -0.35412480547E+03  0.46864990190E+03  0.17200000000E+03 0.  1.
         -6    1    1    2    0  502 -0.11813114078E+03 -0.22514303516E+03  0.50230301435E+03  0.58867365401E+03  0.17200000000E+03 0.  1.
</event>
<event>
 4    1  0.4475741E+000  0.1757339E+03  0.7818608E-02  0.1171997E+00
         21   -1    0    0  501  502  0.00000000000E+00  0.00000000000E+00  0.28712978244E+03  0.28712978244E+03  0.00000000000E+00 0. -1.
         21   -1    0    0  502  503 -0.00000000000E+00 -0.00000000000E+00 -0.22904620753E+03  0.22904620753E+03  0.00000000000E+00 0. -1.
          6    1    1    2  501    0 -0.25795627706E+02 -0.25158980047E+02  0.21700712684E+03  0.27923911221E+03  0.17200000000E+03 0. -1.
         -6    1    1    2    0  503  0.25795627706E+02  0.25158980047E+02 -0.15892355193E+03  0.23693687777E+03  0.17200000000E+03 0. -1.
</event>
<event>
 4    1  0.4475741E+000  0.1732398E+03  0.7818608E-02  0.1174511E+00
         21   -1    0    0  501  502  0.00000000000E+00  0.00000000000E+00  0.22505871578E+03  0.22505871578E+03  0.00000000000E+00 0. -1.
         21   -1    0    0  502  503 -0.00000000000E+00 -0.00000000000E+00 -0.62556352877E+03  0.62556352877E+03  0.00000000000E+00 0. -1.
          6    1    1    2  501    0  0.19225399842E+02  0.76424650971E+01  0.17701295589E+03  0.24768045911E+03  0.17200000000E+03 0. -1.
         -6    1    1    2    0  503 -0.19225399842E+02 -0.76424650971E+01 -0.57751776888E+03  0.60294178545E+03  0.17200000000E+03 0. -1.
</event>
<event>
 4    1  0.4475741E+000  0.1802976E+03  0.7818608E-02  0.1167515E+00
         21   -1    0    0  501  502  0.00000000000E+00  0.00000000000E+00  0.23124372707E+03  0.23124372707E+03  0.00000000000E+00 0.  1.
         21   -1    0    0  502  503 -0.00000000000E+00 -0.00000000000E+00 -0.23630370352E+03  0.23630370352E+03  0.00000000000E+00 0. -1.
          6    1    1    2  501    0  0.32535549010E+02  0.43181832214E+02 -0.15132215723E+03  0.23538400084E+03  0.17200000000E+03 0. -1.
         -6    1    1    2    0  503 -0.32535549010E+02 -0.43181832214E+02  0.14626218079E+03  0.23216342975E+03  0.17200000000E+03 0. -1.
</event>
<event>
 4    1  0.4475741E+000  0.2086260E+03  0.7818608E-02  0.1142659E+00
         21   -1    0    0  501  502  0.00000000000E+00  0.00000000000E+00  0.17713437611E+03  0.17713437611E+03  0.00000000000E+00 0. -1.
         21   -1    0    0  502  503 -0.00000000000E+00 -0.00000000000E+00 -0.24571646669E+03  0.24571646669E+03  0.00000000000E+00 0. -1.
          6    1    1    2  501    0  0.90925057426E+02  0.75322183749E+02 -0.34099844756E+02  0.21139441063E+03  0.17200000000E+03 0. -1.
         -6    1    1    2    0  503 -0.90925057426E+02 -0.75322183749E+02 -0.34482245825E+02  0.21145643218E+03  0.17200000000E+03 0. -1.
</event>
<event>
 4    1  0.4475741E+000  0.2455557E+03  0.7818608E-02  0.1116146E+00
         21   -1    0    0  501  502  0.00000000000E+00  0.00000000000E+00  0.36788972846E+03  0.36788972846E+03  0.00000000000E+00 0. -1.
         21   -1    0    0  502  503 -0.00000000000E+00 -0.00000000000E+00 -0.19867066256E+03  0.19867066256E+03  0.00000000000E+00 0. -1.
          6    1    1    2  501    0  0.17524625628E+03  0.15356103588E+01  0.20311752649E+03  0.31867591376E+03  0.17200000000E+03 0. -1.
         -6    1    1    2    0  503 -0.17524625628E+03 -0.15356103588E+01 -0.33898460596E+02  0.24788447727E+03  0.17200000000E+03 0. -1.
</event>
<event>
 4    1  0.4475741E+000  0.2030148E+03  0.7818608E-02  0.1147220E+00
         21   -1    0    0  501  502  0.00000000000E+00  0.00000000000E+00  0.42567898847E+03  0.42567898847E+03  0.00000000000E+00 0.  1.
         21   -1    0    0  502  503 -0.00000000000E+00 -0.00000000000E+00 -0.14941562117E+03  0.14941562117E+03  0.00000000000E+00 0.  1.
          6    1    1    2  501    0  0.80503112006E+02 -0.71765423473E+02  0.30873145957E+03  0.36949985274E+03  0.17200000000E+03 0.  1.
         -6    1    1    2    0  503 -0.80503112006E+02  0.71765423473E+02 -0.32468092271E+02  0.20559475690E+03  0.17200000000E+03 0.  1.
</event>
<event>
 4    1  0.4475741E+000  0.1801822E+03  0.7818608E-02  0.1167627E+00
         21   -1    0    0  501  502  0.00000000000E+00  0.00000000000E+00  0.67725849649E+03  0.67725849649E+03  0.00000000000E+00 0.  1.
         21   -1    0    0  502  503 -0.00000000000E+00 -0.00000000000E+00 -0.25764140152E+03  0.25764140152E+03  0.00000000000E+00 0.  1.
          6    1    1    2  501    0 -0.52362915916E+02 -0.11821306247E+02  0.63153539576E+03  0.65673630503E+03  0.17200000000E+03 0.  1.
         -6    1    1    2    0  503  0.52362915916E+02  0.11821306247E+02 -0.21191830079E+03  0.27816359297E+03  0.17200000000E+03 0.  1.
</event>
<event>
 4    1  0.4475741E+000  0.3990731E+03  0.7818608E-02  0.1044101E+00
         21   -1    0    0  503  502  0.00000000000E+00  0.00000000000E+00  0.11699321946E+04  0.11699321946E+04  0.00000000000E+00 0.  1.
         21   -1    0    0  501  503 -0.00000000000E+00 -0.00000000000E+00 -0.15473310585E+03  0.15473310585E+03  0.00000000000E+00 0.  1.
          6    1    1    2  501    0  0.27567316134E+03 -0.23168873215E+03  0.27792530839E+03  0.48631454588E+03  0.17200000000E+03 0.  1.
         -6    1    1    2    0  502 -0.27567316134E+03  0.23168873215E+03  0.73727378031E+03  0.83835075453E+03  0.17200000000E+03 0.  1.
</event>
<event>
 4    1  0.4475741E+000  0.2052321E+03  0.7818608E-02  0.1145398E+00
         21   -1    0    0  503  502  0.00000000000E+00  0.00000000000E+00  0.24270359295E+03  0.24270359295E+03  0.00000000000E+00 0.  1.
         21   -1    0    0  501  503 -0.00000000000E+00 -0.00000000000E+00 -0.27467100279E+03  0.27467100279E+03  0.00000000000E+00 0.  1.
          6    1    1    2  501    0 -0.26647105605E+02 -0.10874809297E+03 -0.17294702050E+03  0.26838570726E+03  0.17200000000E+03 0.  1.
         -6    1    1    2    0  502  0.26647105605E+02  0.10874809297E+03  0.14097961066E+03  0.24898888847E+03  0.17200000000E+03 0.  1.
</event>
<event>
 4    1  0.4475741E+000  0.1902532E+03  0.7818608E-02  0.1158233E+00
         21   -1    0    0  503  502  0.00000000000E+00  0.00000000000E+00  0.82093227688E+03  0.82093227688E+03  0.00000000000E+00 0. -1.
         21   -1    0    0  501  503 -0.00000000000E+00 -0.00000000000E+00 -0.44125897407E+02  0.44125897407E+02  0.00000000000E+00 0. -1.
          6    1    1    2  501    0  0.51151892652E+02  0.63212015280E+02  0.37635682795E+03  0.42171167513E+03  0.17200000000E+03 0.  1.
         -6    1    1    2    0  502 -0.51151892652E+02 -0.63212015280E+02  0.40044955152E+03  0.44334649915E+03  0.17200000000E+03 0.  1.
</event>
<event>
 4    1  0.4475741E+000  0.1747156E+03  0.7818608E-02  0.1173018E+00
         21   -1    0    0  503  502  0.00000000000E+00  0.00000000000E+00  0.85560929218E+02  0.85560929218E+02  0.00000000000E+00 0. -1.
         21   -1    0    0  501  503 -0.00000000000E+00 -0.00000000000E+00 -0.43592280793E+03  0.43592280793E+03  0.00000000000E+00 0. -1.
          6    1    1    2  501    0  0.22641237706E+02 -0.20710615180E+02 -0.28628749927E+03  0.33538945640E+03  0.17200000000E+03 0. -1.
         -6    1    1    2    0  502 -0.22641237706E+02  0.20710615180E+02 -0.64074379440E+02  0.18609428075E+03  0.17200000000E+03 0. -1.
</event>
<event>
 4    1  0.4475741E+000  0.1757302E+03  0.7818608E-02  0.1172001E+00
         21   -1    0    0  503  502  0.00000000000E+00  0.00000000000E+00  0.12521214830E+03  0.12521214830E+03  0.00000000000E+00 0. -1.
         21   -1    0    0  501  503 -0.00000000000E+00 -0.00000000000E+00 -0.29502258224E+03  0.29502258224E+03  0.00000000000E+00 0. -1.
          6    1    1    2  501    0  0.35953430996E+02  0.21095238768E+01 -0.17000388090E+03  0.24450443516E+03  0.17200000000E+03 0.  1.
         -6    1    1    2    0  502 -0.35953430996E+02 -0.21095238768E+01  0.19344696505E+00  0.17573029538E+03  0.17200000000E+03 0.  1.
</event>
<event>
 4    1  0.4475741E+000  0.1850528E+03  0.7818608E-02  0.1163001E+00
         21   -1    0    0  503  502  0.00000000000E+00  0.00000000000E+00  0.51238317210E+03  0.51238317210E+03  0.00000000000E+00 0.  1.
         21   -1    0    0  501  503 -0.00000000000E+00 -0.00000000000E+00 -0.73321181208E+02  0.73321181208E+02  0.00000000000E+00 0.  1.
          6    1    1    2  501    0 -0.16819471547E+02 -0.66163867280E+02  0.13242140161E+03  0.22755214690E+03  0.17200000000E+03 0.  1.
         -6    1    1    2    0  502  0.16819471547E+02  0.66163867280E+02  0.30664058929E+03  0.35815220641E+03  0.17200000000E+03 0.  1.
</event>
<event>
 4    1  0.4475741E+000  0.2044591E+03  0.7818608E-02  0.1146030E+00
         21   -1    0    0  501  502  0.00000000000E+00  0.00000000000E+00  0.27798913059E+03  0.27798913059E+03  0.00000000000E+00 0. -1.
         21   -1    0    0  502  503 -0.00000000000E+00 -0.00000000000E+00 -0.19985817540E+03  0.19985817540E+03  0.00000000000E+00 0. -1.
          6    1    1    2  501    0  0.90127073017E+02  0.64004898541E+02  0.15794655900E+03  0.25836143642E+03  0.17200000000E+03 0. -1.
         -6    1    1    2    0  503 -0.90127073017E+02 -0.64004898541E+02 -0.79815603808E+02  0.21948586957E+03  0.17200000000E+03 0. -1.
</event>
<event>
 4    1  0.4475741E+000  0.1868116E+03  0.7818608E-02  0.1161369E+00
         21   -1    0    0  501  502  0.00000000000E+00  0.00000000000E+00  0.73333633784E+02  0.73333633784E+02  0.00000000000E+00 0. -1.
         21   -1    0    0  502  503 -0.00000000000E+00 -0.00000000000E+00 -0.47852585840E+03  0.47852585840E+03  0.00000000000E+00 0. -1.
          6    1    1    2  501    0  0.49329208667E+02  0.53676687038E+02 -0.22308484302E+03  0.29097320280E+03  0.17200000000E+03 0. -1.
         -6    1    1    2    0  503 -0.49329208667E+02 -0.53676687038E+02 -0.18210738159E+03  0.26088628938E+03  0.17200000000E+03 0. -1.
</event>
<event>
 4    1  0.4475741E+000  0.1722426E+03  0.7818608E-02  0.1175529E+00
         21   -1    0    0  501  502  0.00000000000E+00  0.00000000000E+00  0.47839129266E+03  0.47839129266E+03  0.00000000000E+00 0. -1.
         21   -1    0    0  502  503 -0.00000000000E+00 -0.00000000000E+00 -0.18943552563E+03  0.18943552563E+03  0.00000000000E+00 0. -1.
          6    1    1    2  501    0  0.65865540868E+01  0.63353161462E+01  0.41833406402E+03  0.45240568967E+03  0.17200000000E+03 0. -1.
         -6    1    1    2    0  503 -0.65865540868E+01 -0.63353161462E+01 -0.12937829699E+03  0.21542112862E+03  0.17200000000E+03 0. -1.
</event>
<event>
 4    1  0.4475741E+000  0.2398993E+03  0.7818608E-02  0.1119860E+00
         21   -1    0    0  503  502  0.00000000000E+00  0.00000000000E+00  0.32054313989E+03  0.32054313989E+03  0.00000000000E+00 0.  1.
         21   -1    0    0  501  503 -0.00000000000E+00 -0.00000000000E+00 -0.18396825211E+03  0.18396825211E+03  0.00000000000E+00 0.  1.
          6    1    1    2  501    0  0.51834126099E+02 -0.15899970126E+03  0.29169448355E+02  0.24166617129E+03  0.17200000000E+03 0.  1.
         -6    1    1    2    0  502 -0.51834126099E+02  0.15899970126E+03  0.10740543942E+03  0.26284522071E+03  0.17200000000E+03 0.  1.
</event>
<event>
 4    1  0.4475741E+000  0.1737015E+03  0.7818608E-02  0.1174042E+00
         21   -1    0    0  503  502  0.00000000000E+00  0.00000000000E+00  0.70490176748E+03  0.70490176748E+03  0.00000000000E+00 0. -1.
         21   -1    0    0  501  503 -0.00000000000E+00 -0.00000000000E+00 -0.57820859640E+02  0.57820859640E+02  0.00000000000E+00 0. -1.
          6    1    1    2  501    0  0.18802463124E+02 -0.15318750193E+02  0.12918688996E+03  0.21647505460E+03  0.17200000000E+03 0. -1.
         -6    1    1    2    0  502 -0.18802463124E+02  0.15318750193E+02  0.51789401788E+03  0.54624757252E+03  0.17200000000E+03 0. -1.
</event>
<event>
 4    1  0.4475741E+000  0.2171532E+03  0.7818608E-02  0.1136023E+00
         21   -1    0    0  503  502  0.00000000000E+00  0.00000000000E+00  0.13055816536E+03  0.13055816536E+03  0.00000000000E+00 0. -1.
         21   -1    0    0  501  503 -0.00000000000E+00 -0.00000000000E+00 -0.53024135163E+03  0.53024135163E+03  0.00000000000E+00 0. -1.
          6    1    1    2  501    0 -0.77478953407E+02 -0.10755698404E+03 -0.38640231956E+03  0.44324061817E+03  0.17200000000E+03 0. -1.
         -6    1    1    2    0  502  0.77478953407E+02  0.10755698404E+03 -0.13280866708E+02  0.21755889882E+03  0.17200000000E+03 0. -1.
</event>
<event>
 4    1  0.4475741E+000  0.1826144E+03  0.7818608E-02  0.1165297E+00
         21   -1    0    0  503  502  0.00000000000E+00  0.00000000000E+00  0.12006697809E+03  0.12006697809E+03  0.00000000000E+00 0. -1.
         21   -1    0    0  501  503 -0.00000000000E+00 -0.00000000000E+00 -0.47564259257E+03  0.47564259257E+03  0.00000000000E+00 0. -1.
          6    1    1    2  501    0  0.45126190244E+02 -0.41565114562E+02 -0.36991295028E+03  0.41253317755E+03  0.17200000000E+03 0. -1.
         -6    1    1    2    0  502 -0.45126190244E+02  0.41565114562E+02  0.14337335804E+02  0.18317639311E+03  0.17200000000E+03 0. -1.
</event>
<event>
 4    1  0.4475741E+000  0.2007267E+03  0.7818608E-02  0.1149127E+00
         21   -1    0    0  501  502  0.00000000000E+00  0.00000000000E+00  0.48227460085E+03  0.48227460085E+03  0.00000000000E+00 0.  1.
         21   -1    0    0  502  503 -0.00000000000E+00 -0.00000000000E+00 -0.14275206475E+03  0.14275206475E+03  0.00000000000E+00 0. -1.
          6    1    1    2  501    0  0.92475780907E+02 -0.46426572103E+02  0.37102588164E+03  0.42184286352E+03  0.17200000000E+03 0.  1.
         -6    1    1    2    0  503 -0.92475780907E+02  0.46426572103E+02 -0.31503345542E+02  0.20318380209E+03  0.17200000000E+03 0. -1.
</event>
<event>
 4    1  0.4475741E+000  0.1952846E+03  0.7818608E-02  0.1153779E+00
         21   -1    0    0  501  502  0.00000000000E+00  0.00000000000E+00  0.78254010767E+02  0.78254010767E+02  0.00000000000E+00 0.  1.
         21   -1    0    0  502  503 -0.00000000000E+00 -0.00000000000E+00 -0.61322101944E+03  0.61322101944E+03  0.00000000000E+00 0.  1.
          6    1    1    2  501    0  0.87548596816E+02  0.29788003625E+02 -0.11083612501E+03  0.22454560466E+03  0.17200000000E+03 0.  1.
         -6    1    1    2    0  503 -0.87548596816E+02 -0.29788003625E+02 -0.42413088367E+03  0.46692942555E+03  0.17200000000E+03 0.  1.
</event>
<event>
 4    1  0.4475741E+000  0.1862256E+03  0.7818608E-02  0.1161910E+00
         21   -1    0    0  503  502  0.00000000000E+00  0.00000000000E+00  0.55325970190E+03  0.55325970190E+03  0.00000000000E+00 0.  1.
         21   -1    0    0  501  503 -0.00000000000E+00 -0.00000000000E+00 -0.16141712751E+03  0.16141712751E+03  0.00000000000E+00 0.  1.
          6    1    1    2  501    0 -0.68232794793E+02 -0.20982354741E+02 -0.83550880148E+02  0.20410958593E+03  0.17200000000E+03 0.  1.
         -6    1    1    2    0  502  0.68232794793E+02  0.20982354741E+02  0.47539345453E+03  0.51056724347E+03  0.17200000000E+03 0.  1.
</event>
<event>
 4    1  0.4475741E+000  0.2132837E+03  0.7818608E-02  0.1138992E+00
         21   -1    0    0  501  502  0.00000000000E+00  0.00000000000E+00  0.91249794673E+02  0.91249794673E+02  0.00000000000E+00 0. -1.
         21   -1    0    0  502  503 -0.00000000000E+00 -0.00000000000E+00 -0.64399407594E+03  0.64399407594E+03  0.00000000000E+00 0. -1.
          6    1    1    2  501    0 -0.10863833785E+03 -0.64059613651E+02 -0.10164834361E+03  0.23626745081E+03  0.17200000000E+03 0. -1.
         -6    1    1    2    0  503  0.10863833785E+03  0.64059613651E+02 -0.45109593765E+03  0.49897641980E+03  0.17200000000E+03 0. -1.
</event>
<event>
 4    1  0.4475741E+000  0.2215420E+03  0.7818608E-02  0.1132739E+00
         21   -1    0    0  501  502  0.00000000000E+00  0.00000000000E+00  0.40043001398E+03  0.40043001398E+03  0.00000000000E+00 0.  1.
         21   -1    0    0  502  503 -0.00000000000E+00 -0.00000000000E+00 -0.20149544107E+03  0.20149544107E+03  0.00000000000E+00 0.  1.
          6    1    1    2  501    0 -0.74716381609E+02  0.11795891326E+03  0.28782685008E+03  0.36321500317E+03  0.17200000000E+03 0.  1.
         -6    1    1    2    0  503  0.74716381609E+02 -0.11795891326E+03 -0.88892277179E+02  0.23871045189E+03  0.17200000000E+03 0.  1.
</event>
<event>
 4    1  0.4475741E+000  0.2846252E+03  0.7818608E-02  0.1093189E+00
         21   -1    0    0  501  502  0.00000000000E+00  0.00000000000E+00  0.35933598084E+03  0.35933598084E+03  0.00000000000E+00 0.  1.
         21   -1    0    0  502  503 -0.00000000000E+00 -0.00000000000E+00 -0.34763224684E+03  0.34763224684E+03  0.00000000000E+00 0.  1.
          6    1    1    2  501    0  0.21679207224E+03  0.66548642276E+02  0.21541638232E+03  0.35695341733E+03  0.17200000000E+03 0.  1.
         -6    1    1    2    0  503 -0.21679207224E+03 -0.66548642276E+02 -0.20371264833E+03  0.35001481035E+03  0.17200000000E+03 0.  1.
</event>
<event>
 4    1  0.4475741E+000  0.2538435E+03  0.7818608E-02  0.1110900E+00
         21   -1    0    0  503  502  0.00000000000E+00  0.00000000000E+00  0.11903630172E+04  0.11903630172E+04  0.00000000000E+00 0. -1.
         21   -1    0    0  501  503 -0.00000000000E+00 -0.00000000000E+00 -0.13834136505E+03  0.13834136505E+03  0.00000000000E+00 0. -1.
          6    1    1    2  501    0 -0.52434984681E+02 -0.17917336284E+03  0.76848274506E+01  0.25395979631E+03  0.17200000000E+03 0. -1.
         -6    1    1    2    0  502  0.52434984681E+02  0.17917336284E+03  0.10443368247E+04  0.10747445859E+04  0.17200000000E+03 0. -1.
</event>
<event>
 4    1  0.4475741E+000  0.1759565E+03  0.7818608E-02  0.1171775E+00
         21   -1    0    0  503  502  0.00000000000E+00  0.00000000000E+00  0.13691525504E+03  0.13691525504E+03  0.00000000000E+00 0. -1.
         21   -1    0    0  501  503 -0.00000000000E+00 -0.00000000000E+00 -0.26599722269E+03  0.26599722269E+03  0.00000000000E+00 0. -1.
          6    1    1    2  501    0 -0.26259300574E+02 -0.26213249438E+02 -0.14253272609E+03  0.22644262700E+03  0.17200000000E+03 0. -1.
         -6    1    1    2    0  502  0.26259300574E+02  0.26213249438E+02  0.13450758446E+02  0.17646985073E+03  0.17200000000E+03 0. -1.
</event>
<event>
 4    1  0.4475741E+000  0.2950741E+03  0.7818608E-02  0.1087729E+00
         21   -1    0    0  501  502  0.00000000000E+00  0.00000000000E+00  0.76070944609E+02  0.76070944609E+02  0.00000000000E+00 0. -1.
         21   -1    0    0  502  503 -0.00000000000E+00 -0.00000000000E+00 -0.12135031668E+04  0.12135031668E+04  0.00000000000E+00 0. -1.
          6    1    1    2  501    0  0.22268648035E+03  0.88856486934E+02 -0.72239023471E+03  0.78033095223E+03  0.17200000000E+03 0. -1.
         -6    1    1    2    0  503 -0.22268648035E+03 -0.88856486934E+02 -0.41504198748E+03  0.50924315918E+03  0.17200000000E+03 0. -1.
</event>
<event>
 4    1  0.4475741E+000  0.1922616E+03  0.7818608E-02  0.1156437E+00
         21   -1    0    0  501  502  0.00000000000E+00  0.00000000000E+00  0.60312360294E+03  0.60312360294E+03  0.00000000000E+00 0. -1.
         21   -1    0    0  502  503 -0.00000000000E+00 -0.00000000000E+00 -0.67727736553E+02  0.67727736553E+02  0.00000000000E+00 0. -1.
          6    1    1    2  501    0  0.19028644497E+02 -0.83776114687E+02  0.16427163031E+03  0.25288276973E+03  0.17200000000E+03 0. -1.
         -6    1    1    2    0  503 -0.19028644497E+02  0.83776114687E+02  0.37112423607E+03  0.41796856976E+03  0.17200000000E+03 0. -1.
</event>
<event>
 4    1  0.4475741E+000  0.1948773E+03  0.7818608E-02  0.1154134E+00
         21   -1    0    0  501  502  0.00000000000E+00  0.00000000000E+00  0.35296089938E+03  0.35296089938E+03  0.00000000000E+00 0.  1.
         21   -1    0    0  502  503 -0.00000000000E+00 -0.00000000000E+00 -0.21894489941E+03  0.21894489941E+03  0.00000000000E+00 0. -1.
          6    1    1    2  501    0 -0.88275109297E+02 -0.24508519544E+02  0.27093285150E+03  0.33373907843E+03  0.17200000000E+03 0.  1.
         -6    1    1    2    0  503  0.88275109297E+02  0.24508519544E+02 -0.13691685153E+03  0.23816672035E+03  0.17200000000E+03 0. -1.
</event>
<event>
 4    1  0.4475741E+000  0.2130612E+03  0.7818608E-02  0.1139165E+00
         21   -1    0    0  501  502  0.00000000000E+00  0.00000000000E+00  0.13666675519E+04  0.13666675519E+04  0.00000000000E+00 0.  1.
         21   -1    0    0  502  503 -0.00000000000E+00 -0.00000000000E+00 -0.53552353580E+02  0.53552353580E+02  0.00000000000E+00 0.  1.
          6    1    1    2  501    0 -0.12327787415E+03 -0.24771479947E+02  0.10941544424E+04  0.11147057927E+04  0.17200000000E+03 0.  1.
         -6    1    1    2    0  503  0.12327787415E+03  0.24771479947E+02  0.21896075595E+03  0.30551411280E+03  0.17200000000E+03 0.  1.
</event>
<event>
 4    1  0.4475741E+000  0.2286009E+03  0.7818608E-02  0.1127628E+00
         21   -1    0    0  501  502  0.00000000000E+00  0.00000000000E+00  0.58472024774E+03  0.58472024774E+03  0.00000000000E+00 0.  1.
         21   -1    0    0  502  503 -0.00000000000E+00 -0.00000000000E+00 -0.89499691298E+02  0.89499691298E+02  0.00000000000E+00 0.  1.
          6    1    1    2  501    0 -0.11816385936E+02  0.15011577688E+03  0.26027901013E+03  0.34641526606E+03  0.17200000000E+03 0.  1.
         -6    1    1    2    0  503  0.11816385936E+02 -0.15011577688E+03  0.23494154631E+03  0.32780467298E+03  0.17200000000E+03 0.  1.
</event>
<event>
 4    1  0.4475741E+000  0.2496414E+03  0.7818608E-02  0.1113532E+00
         21   -1    0    0  503  502  0.00000000000E+00  0.00000000000E+00  0.51494289182E+02  0.51494289182E+02  0.00000000000E+00 0.  1.
         21   -1    0    0  501  503 -0.00000000000E+00 -0.00000000000E+00 -0.15153956220E+04  0.15153956220E+04  0.00000000000E+00 0.  1.
          6    1    1    2  501    0  0.17988257513E+03 -0.19469955220E+02 -0.10835119400E+04  0.11118988012E+04  0.17200000000E+03 0.  1.
         -6    1    1    2    0  502 -0.17988257513E+03  0.19469955220E+02 -0.38038939281E+03  0.45499110997E+03  0.17200000000E+03 0.  1.
</event>
<event>
 4    1  0.4475741E+000  0.1936426E+03  0.7818608E-02  0.1155216E+00
         21   -1    0    0  501  502  0.00000000000E+00  0.00000000000E+00  0.10042773666E+04  0.10042773666E+04  0.00000000000E+00 0.  1.
         21   -1    0    0  502  503 -0.00000000000E+00 -0.00000000000E+00 -0.67218947408E+02  0.67218947408E+02  0.00000000000E+00 0.  1.
          6    1    1    2  501    0  0.22371346974E+02  0.86098697072E+02  0.82573113411E+03  0.84813287205E+03  0.17200000000E+03 0.  1.
         -6    1    1    2    0  503 -0.22371346974E+02 -0.86098697072E+02  0.11132728508E+03  0.22336344197E+03  0.17200000000E+03 0.  1.
</event>
<event>
 4    1  0.4475741E+000  0.2435365E+03  0.7818608E-02  0.1117459E+00
         21   -1    0    0  501  502  0.00000000000E+00  0.00000000000E+00  0.65235003826E+02  0.65235003826E+02  0.00000000000E+00 0. -1.
         21   -1    0    0  502  503 -0.00000000000E+00 -0.00000000000E+00 -0.97500463329E+03  0.97500463329E+03  0.00000000000E+00 0.  1.
          6    1    1    2  501    0  0.15932221031E+03 -0.65897259668E+02 -0.59003347503E+03  0.63831772432E+03  0.17200000000E+03 0.  1.
         -6    1    1    2    0  503 -0.15932221031E+03  0.65897259668E+02 -0.31973615443E+03  0.40192191279E+03  0.17200000000E+03 0. -1.
</event>
<event>
 4    1  0.4475741E+000  0.1726394E+03  0.7818608E-02  0.1175123E+00
         21   -1    0    0  503  502  0.00000000000E+00  0.00000000000E+00  0.26125494757E+03  0.26125494757E+03  0.00000000000E+00 0. -1.
         21   -1    0    0  501  503 -0.00000000000E+00 -0.00000000000E+00 -0.21493656529E+03  0.21493656529E+03  0.00000000000E+00 0. -1.
          6    1    1    2  501    0  0.68082350953E+00 -0.14829426969E+02 -0.13993751966E+03  0.22223160179E+03  0.17200000000E+03 0. -1.
         -6    1    1    2    0  502 -0.68082350953E+00  0.14829426969E+02  0.18625590194E+03  0.25395991108E+03  0.17200000000E+03 0. -1.
</event>
<event>
 4    1  0.4475741E+000  0.1888684E+03  0.7818608E-02  0.1159486E+00
         21   -1    0    0  501  502  0.00000000000E+00  0.00000000000E+00  0.10132102782E+03  0.10132102782E+03  0.00000000000E+00 0. -1.
         21   -1    0    0  502  503 -0.00000000000E+00 -0.00000000000E+00 -0.55656615795E+03  0.55656615795E+03  0.00000000000E+00 0. -1.
          6    1    1    2  501    0 -0.76414137740E+02  0.15753161712E+02 -0.28227632394E+02  0.19096617968E+03  0.17200000000E+03 0. -1.
         -6    1    1    2    0  503  0.76414137740E+02 -0.15753161712E+02 -0.42701749774E+03  0.46692100608E+03  0.17200000000E+03 0. -1.
</event>
<event>
 4    1  0.4475741E+000  0.2226414E+03  0.7818608E-02  0.1131929E+00
         21   -1    0    0  501  502  0.00000000000E+00  0.00000000000E+00  0.37705426670E+03  0.37705426670E+03  0.00000000000E+00 0. -1.
         21   -1    0    0  502  503 -0.00000000000E+00 -0.00000000000E+00 -0.27945319844E+03  0.27945319844E+03  0.00000000000E+00 0. -1.
          6    1    1    2  501    0  0.12683968013E+03 -0.62425140879E+02  0.28767492511E+03  0.36376649819E+03  0.17200000000E+03 0. -1.
         -6    1    1    2    0  503 -0.12683968013E+03  0.62425140879E+02 -0.19007385686E+03  0.29274096695E+03  0.17200000000E+03 0. -1.
</event>
<event>
 4    1  0.4475741E+000  0.1883463E+03  0.7818608E-02  0.1159961E+00
         21   -1    0    0  501  502  0.00000000000E+00  0.00000000000E+00  0.11630811559E+03  0.11630811559E+03  0.00000000000E+00 0. -1.
         21   -1    0    0  502  503 -0.00000000000E+00 -0.00000000000E+00 -0.31174601417E+03  0.31174601417E+03  0.00000000000E+00 0. -1.
          6    1    1    2  501    0  0.22298293732E+02 -0.73437944417E+02 -0.66242237986E+02  0.19965565275E+03  0.17200000000E+03 0. -1.
         -6    1    1    2    0  503 -0.22298293732E+02  0.73437944417E+02 -0.12919566059E+03  0.22839847700E+03  0.17200000000E+03 0. -1.
</event>
<event>
 4    1  0.4475741E+000  0.1782083E+03  0.7818608E-02  0.1169548E+00
         21   -1    0    0  501  502  0.00000000000E+00  0.00000000000E+00  0.67355438228E+03  0.67355438228E+03  0.00000000000E+00 0. -1.
         21   -1    0    0  502  503 -0.00000000000E+00 -0.00000000000E+00 -0.86874086093E+02  0.86874086093E+02  0.00000000000E+00 0. -1.
          6    1    1    2  501    0 -0.46432227665E+02  0.42712418185E+01  0.55044444975E+03  0.57857349363E+03  0.17200000000E+03 0. -1.
         -6    1    1    2    0  503  0.46432227665E+02 -0.42712418185E+01  0.36235846442E+02  0.18185497475E+03  0.17200000000E+03 0. -1.
</event>
<event>
 4    1  0.4475741E+000  0.2229942E+03  0.7818608E-02  0.1131670E+00
         21   -1    0    0  501  502  0.00000000000E+00  0.00000000000E+00  0.43579470464E+03  0.43579470464E+03  0.00000000000E+00 0. -1.
         21   -1    0    0  502  503 -0.00000000000E+00 -0.00000000000E+00 -0.19794990736E+03  0.19794990736E+03  0.00000000000E+00 0. -1.
          6    1    1    2  501    0 -0.59030742940E+02  0.12906511732E+03  0.32514891802E+03  0.39426926334E+03  0.17200000000E+03 0. -1.
         -6    1    1    2    0  503  0.59030742940E+02 -0.12906511732E+03 -0.87304120746E+02  0.23947534867E+03  0.17200000000E+03 0. -1.
</event>
<event>
 4    1  0.4475741E+000  0.1749566E+03  0.7818608E-02  0.1172775E+00
         21   -1    0    0  503  502  0.00000000000E+00  0.00000000000E+00  0.36603965285E+02  0.36603965285E+02  0.00000000000E+00 0. -1.
         21   -1    0    0  501  503 -0.00000000000E+00 -0.00000000000E+00 -0.13176690005E+04  0.13176690005E+04  0.00000000000E+00 0. -1.
          6    1    1    2  501    0  0.40140302202E+01  0.31775882387E+02 -0.10498287095E+04  0.10643073515E+04  0.17200000000E+03 0. -1.
         -6    1    1    2    0  502 -0.40140302202E+01 -0.31775882387E+02 -0.23123632568E+03  0.28996561426E+03  0.17200000000E+03 0. -1.
</event>
<event>
 4    1  0.4475741E+000  0.2317650E+03  0.7818608E-02  0.1125404E+00
         21   -1    0    0  503  502  0.00000000000E+00  0.00000000000E+00  0.19548432254E+03  0.19548432254E+03  0.00000000000E+00 0. -1.
         21   -1    0    0  501  503 -0.00000000000E+00 -0.00000000000E+00 -0.31531542955E+03  0.31531542955E+03  0.00000000000E+00 0. -1.
          6    1    1    2  501    0 -0.15255344878E+03  0.29299157726E+02  0.31658107802E+02  0.23391714595E+03  0.17200000000E+03 0. -1.
         -6    1    1    2    0  502  0.15255344878E+03 -0.29299157726E+02 -0.15148921482E+03  0.27688260614E+03  0.17200000000E+03 0. -1.
</event>
<event>
 4    1  0.4475741E+000  0.1810823E+03  0.7818608E-02  0.1166760E+00
         21   -1    0    0  503  502  0.00000000000E+00  0.00000000000E+00  0.74112430115E+03  0.74112430115E+03  0.00000000000E+00 0. -1.
         21   -1    0    0  501  503 -0.00000000000E+00 -0.00000000000E+00 -0.21511842391E+03  0.21511842391E+03  0.00000000000E+00 0. -1.
          6    1    1    2  501    0  0.30354167357E+02  0.47806259151E+02 -0.16312204886E+03  0.24372036582E+03  0.17200000000E+03 0. -1.
         -6    1    1    2    0  502 -0.30354167357E+02 -0.47806259151E+02  0.68912792610E+03  0.71252235925E+03  0.17200000000E+03 0. -1.
</event>
<event>
 4    1  0.4475741E+000  0.2259571E+03  0.7818608E-02  0.1129518E+00
         21   -1    0    0  501  502  0.00000000000E+00  0.00000000000E+00  0.16518699216E+03  0.16518699216E+03  0.00000000000E+00 0.  1.
         21   -1    0    0  502  503 -0.00000000000E+00 -0.00000000000E+00 -0.53246819844E+03  0.53246819844E+03  0.00000000000E+00 0.  1.
          6    1    1    2  501    0 -0.14603756313E+03  0.12068268250E+02  0.42298019204E+02  0.22988200315E+03  0.17200000000E+03 0.  1.
         -6    1    1    2    0  503  0.14603756313E+03 -0.12068268250E+02 -0.40957922549E+03  0.46777318745E+03  0.17200000000E+03 0.  1.
</event>
<event>
 4    1  0.4475741E+000  0.2290708E+03  0.7818608E-02  0.1127296E+00
         21   -1    0    0  503  502  0.00000000000E+00  0.00000000000E+00  0.28306848810E+03  0.28306848810E+03  0.00000000000E+00 0.  1.
         21   -1    0    0  501  503 -0.00000000000E+00 -0.00000000000E+00 -0.21999229547E+03  0.21999229547E+03  0.00000000000E+00 0.  1.
          6    1    1    2  501    0 -0.42295976045E+02 -0.14525998191E+03  0.13131783526E+03  0.26404125775E+03  0.17200000000E+03 0.  1.
         -6    1    1    2    0  502  0.42295976045E+02  0.14525998191E+03 -0.68241642640E+02  0.23901952582E+03  0.17200000000E+03 0.  1.
</event>
<event>
 4    1  0.4475741E+000  0.1977982E+03  0.7818608E-02  0.1151610E+00
         21   -1    0    0  503  502  0.00000000000E+00  0.00000000000E+00  0.10771153417E+03  0.10771153417E+03  0.00000000000E+00 0. -1.
         21   -1    0    0  501  503 -0.00000000000E+00 -0.00000000000E+00 -0.37963184474E+03  0.37963184474E+03  0.00000000000E+00 0. -1.
          6    1    1    2  501    0  0.90557468213E+02  0.36598759500E+02 -0.18660815250E+03  0.27193147450E+03  0.17200000000E+03 0. -1.
         -6    1    1    2    0  502 -0.90557468213E+02 -0.36598759500E+02 -0.85312158064E+02  0.21541190441E+03  0.17200000000E+03 0. -1.
</event>
<event>
 4    1  0.4475741E+000  0.1846154E+03  0.7818608E-02  0.1163410E+00
         21   -1    0    0  501  502  0.00000000000E+00  0.00000000000E+00  0.30452868595E+02  0.30452868595E+02  0.00000000000E+00 0.  1.
         21   -1    0    0  502  503 -0.00000000000E+00 -0.00000000000E+00 -0.11194756711E+04  0.11194756711E+04  0.00000000000E+00 0.  1.
          6    1    1    2  501    0 -0.67067370038E+02  0.90353894172E+00 -0.55353503619E+03  0.58350996975E+03  0.17200000000E+03 0.  1.
         -6    1    1    2    0  503  0.67067370038E+02 -0.90353894172E+00 -0.53548776632E+03  0.56641856995E+03  0.17200000000E+03 0.  1.
</event>
<event>
 4    1  0.4475741E+000  0.2549084E+03  0.7818608E-02  0.1110242E+00
         21   -1    0    0  501  502  0.00000000000E+00  0.00000000000E+00  0.44610590342E+03  0.44610590342E+03  0.00000000000E+00 0.  1.
         21   -1    0    0  502  503 -0.00000000000E+00 -0.00000000000E+00 -0.14566616748E+03  0.14566616748E+03  0.00000000000E+00 0.  1.
          6    1    1    2  501    0  0.12762229908E+03  0.13822755306E+03  0.14783274125E+03  0.29467410309E+03  0.17200000000E+03 0.  1.
         -6    1    1    2    0  503 -0.12762229908E+03 -0.13822755306E+03  0.15260699469E+03  0.29709796781E+03  0.17200000000E+03 0.  1.
</event>
<event>
 4    1  0.4475741E+000  0.1929017E+03  0.7818608E-02  0.1155870E+00
         21   -1    0    0  501  502  0.00000000000E+00  0.00000000000E+00  0.27008476524E+03  0.27008476524E+03  0.00000000000E+00 0.  1.
         21   -1    0    0  502  503 -0.00000000000E+00 -0.00000000000E+00 -0.11885161950E+04  0.11885161950E+04  0.00000000000E+00 0.  1.
          6    1    1    2  501    0  0.45725033273E+02  0.74406246387E+02  0.22651202807E+03  0.29752103628E+03  0.17200000000E+03 0.  1.
         -6    1    1    2    0  503 -0.45725033273E+02 -0.74406246387E+02 -0.11449434579E+04  0.11610799240E+04  0.17200000000E+03 0.  1.
</event>
<event>
 4    1  0.4475741E+000  0.2591855E+03  0.7818608E-02  0.1107634E+00
         21   -1    0    0  501  502  0.00000000000E+00  0.00000000000E+00  0.98079748751E+03  0.98079748751E+03  0.00000000000E+00 0.  1.
         21   -1    0    0  502  503 -0.00000000000E+00 -0.00000000000E+00 -0.70479253678E+02  0.70479253678E+02  0.00000000000E+00 0. -1.
          6    1    1    2  501    0 -0.87395854386E+02 -0.17307537608E+03  0.54341531660E+03  0.60206090015E+03  0.17200000000E+03 0. -1.
         -6    1    1    2    0  503  0.87395854386E+02  0.17307537608E+03  0.36690291723E+03  0.44921584104E+03  0.17200000000E+03 0. -1.
</event>
<event>
 4    1  0.4475741E+000  0.1943908E+03  0.7818608E-02  0.1154560E+00
         21   -1    0    0  501  502  0.00000000000E+00  0.00000000000E+00  0.82852956280E+03  0.82852956280E+03  0.00000000000E+00 0. -1.
         21   -1    0    0  502  503 -0.00000000000E+00 -0.00000000000E+00 -0.15969253651E+03  0.15969253651E+03  0.00000000000E+00 0. -1.
          6    1    1    2  501    0  0.79092893809E+02 -0.44137094076E+02  0.75205189509E+03  0.77676883423E+03  0.17200000000E+03 0. -1.
         -6    1    1    2    0  503 -0.79092893809E+02  0.44137094076E+02 -0.83214868800E+02  0.21145326508E+03  0.17200000000E+03 0. -1.
</event>
<event>
 4    1  0.4475741E+000  0.2700921E+03  0.7818608E-02  0.1101227E+00
         21   -1    0    0  503  502  0.00000000000E+00  0.00000000000E+00  0.10489779364E+03  0.10489779364E+03  0.00000000000E+00 0.  1.
         21   -1    0    0  501  503 -0.00000000000E+00 -0.00000000000E+00 -0.71196549489E+03  0.71196549489E+03  0.00000000000E+00 0. -1.
          6    1    1    2  501    0  0.16159489790E+03 -0.13134993436E+03 -0.24130125514E+03  0.36218229114E+03  0.17200000000E+03 0. -1.
         -6    1    1    2    0  502 -0.16159489790E+03  0.13134993436E+03 -0.36576644611E+03  0.45468099738E+03  0.17200000000E+03 0.  1.
</event>
<event>
 4    1  0.4475741E+000  0.2651396E+03  0.7818608E-02  0.1104094E+00
         21   -1    0    0  503  502  0.00000000000E+00  0.00000000000E+00  0.32130614311E+03  0.32130614311E+03  0.00000000000E+00 0. -1.
         21   -1    0    0  501  503 -0.00000000000E+00 -0.00000000000E+00 -0.23612276571E+03  0.23612276571E+03  0.00000000000E+00 0.  1.
          6    1    1    2  501    0  0.44747411515E+02 -0.19675541183E+03  0.11810210683E+03  0.29025356253E+03  0.17200000000E+03 0. -1.
         -6    1    1    2    0  502 -0.44747411515E+02  0.19675541183E+03 -0.32918729431E+02  0.26717534630E+03  0.17200000000E+03 0. -1.
</event>
<event>
 4    1  0.4475741E+000  0.1832304E+03  0.7818608E-02  0.1164713E+00
         21   -1    0    0  503  502  0.00000000000E+00  0.00000000000E+00  0.26371903483E+03  0.26371903483E+03  0.00000000000E+00 0.  1.
         21   -1    0    0  501  503 -0.00000000000E+00 -0.00000000000E+00 -0.14269952791E+03  0.14269952791E+03  0.00000000000E+00 0. -1.
          6    1    1    2  501    0 -0.61642967693E+02  0.13766601982E+02  0.12724912782E+03  0.22308230617E+03  0.17200000000E+03 0.  1.
         -6    1    1    2    0  502  0.61642967693E+02 -0.13766601982E+02 -0.62296209089E+01  0.18333625657E+03  0.17200000000E+03 0. -1.
</event>
<event>
 4    1  0.4475741E+000  0.1860356E+03  0.7818608E-02  0.1162086E+00
         21   -1    0    0  501  502  0.00000000000E+00  0.00000000000E+00  0.53724412768E+02  0.53724412768E+02  0.00000000000E+00 0.  1.
         21   -1    0    0  502  503 -0.00000000000E+00 -0.00000000000E+00 -0.71288288254E+03  0.71288288254E+03  0.00000000000E+00 0. -1.
          6    1    1    2  501    0  0.37371006151E+02  0.60238165285E+02 -0.21060296341E+03  0.28100326841E+03  0.17200000000E+03 0.  1.
         -6    1    1    2    0  503 -0.37371006151E+02 -0.60238165285E+02 -0.44855550636E+03  0.48560402690E+03  0.17200000000E+03 0. -1.
</event>
<event>
 4    1  0.4475741E+000  0.1870157E+03  0.7818608E-02  0.1161181E+00
         21   -1    0    0  501  502  0.00000000000E+00  0.00000000000E+00  0.15590556231E+03  0.15590556231E+03  0.00000000000E+00 0.  1.
         21   -1    0    0  502  503 -0.00000000000E+00 -0.00000000000E+00 -0.23788847027E+03  0.23788847027E+03  0.00000000000E+00 0.  1.
          6    1    1    2  501    0 -0.51938385219E+02 -0.51896627309E+02 -0.87991701852E+02  0.20668186998E+03  0.17200000000E+03 0.  1.
         -6    1    1    2    0  503  0.51938385219E+02  0.51896627309E+02  0.60087938889E+01  0.18711216259E+03  0.17200000000E+03 0.  1.
</event>
<event>
 4    1  0.4475741E+000  0.2466761E+03  0.7818608E-02  0.1115424E+00
         21   -1    0    0  501  502  0.00000000000E+00  0.00000000000E+00  0.64166141497E+03  0.64166141497E+03  0.00000000000E+00 0.  1.
         21   -1    0    0  502  503 -0.00000000000E+00 -0.00000000000E+00 -0.18720305944E+03  0.18720305944E+03  0.00000000000E+00 0.  1.
          6    1    1    2  501    0  0.15702469140E+03 -0.81291594791E+02  0.51834682461E+03  0.57404922060E+03  0.17200000000E+03 0.  1.
         -6    1    1    2    0  503 -0.15702469140E+03  0.81291594791E+02 -0.63888469073E+02  0.25481525381E+03  0.17200000000E+03 0.  1.
</event>
<event>
 4    1  0.4475741E+000  0.1768678E+03  0.7818608E-02  0.1170869E+00
         21   -1    0    0  503  502  0.00000000000E+00  0.00000000000E+00  0.35551635928E+02  0.35551635928E+02  0.00000000000E+00 0.  1.
         21   -1    0    0  501  503 -0.00000000000E+00 -0.00000000000E+00 -0.11341070142E+04  0.11341070142E+04  0.00000000000E+00 0.  1.
          6    1    1    2  501    0 -0.24572963676E+02  0.33081290309E+02 -0.82615556236E+03  0.84487585806E+03  0.17200000000E+03 0.  1.
         -6    1    1    2    0  502  0.24572963676E+02 -0.33081290309E+02 -0.27239981589E+03  0.32478279204E+03  0.17200000000E+03 0.  1.
</event>
<event>
 4    1  0.4475741E+000  0.1740817E+03  0.7818608E-02  0.1173657E+00
         21   -1    0    0  503  502  0.00000000000E+00  0.00000000000E+00  0.20472946790E+03  0.20472946790E+03  0.00000000000E+00 0.  1.
         21   -1    0    0  501  503 -0.00000000000E+00 -0.00000000000E+00 -0.14883221567E+03  0.14883221567E+03  0.00000000000E+00 0.  1.
          6    1    1    2  501    0 -0.15322951778E+02  0.22037127512E+02  0.14903866697E+02  0.17471849668E+03  0.17200000000E+03 0.  1.
         -6    1    1    2    0  502  0.15322951778E+02 -0.22037127512E+02  0.40993385528E+02  0.17884318689E+03  0.17200000000E+03 0.  1.
</event>
<event>
 4    1  0.4475741E+000  0.2737999E+03  0.7818608E-02  0.1099124E+00
         21   -1    0    0  503  502  0.00000000000E+00  0.00000000000E+00  0.61755851301E+03  0.61755851301E+03  0.00000000000E+00 0.  1.
         21   -1    0    0  501  503 -0.00000000000E+00 -0.00000000000E+00 -0.14148798270E+03  0.14148798270E+03  0.00000000000E+00 0. -1.
          6    1    1    2  501    0  0.55698664236E+02 -0.20562108067E+03  0.95001570344E+02  0.28981316116E+03  0.17200000000E+03 0.  1.
         -6    1    1    2    0  502 -0.55698664236E+02  0.20562108067E+03  0.38106895996E+03  0.46923333455E+03  0.17200000000E+03 0. -1.
</event>
<event>
 4    1  0.4475741E+000  0.1734178E+03  0.7818608E-02  0.1174330E+00
         21   -1    0    0  501  502  0.00000000000E+00  0.00000000000E+00  0.49194992362E+03  0.49194992362E+03  0.00000000000E+00 0.  1.
         21   -1    0    0  502  503 -0.00000000000E+00 -0.00000000000E+00 -0.10096913024E+03  0.10096913024E+03  0.00000000000E+00 0.  1.
          6    1    1    2  501    0  0.13964980396E+01 -0.22085858243E+02  0.92744970659E+01  0.17366563171E+03  0.17200000000E+03 0.  1.
         -6    1    1    2    0  503 -0.13964980396E+01  0.22085858243E+02  0.38170629631E+03  0.41925342215E+03  0.17200000000E+03 0.  1.
</event>
<event>
 4    1  0.4475741E+000  0.1913217E+03  0.7818608E-02  0.1157275E+00
         21   -1    0    0  503  502  0.00000000000E+00  0.00000000000E+00  0.13103073993E+03  0.13103073993E+03  0.00000000000E+00 0.  1.
         21   -1    0    0  501  503 -0.00000000000E+00 -0.00000000000E+00 -0.65645080582E+03  0.65645080582E+03  0.00000000000E+00 0.  1.
          6    1    1    2  501    0  0.83547102163E+02  0.63148349880E+01 -0.56113528790E+03  0.59285479398E+03  0.17200000000E+03 0.  1.
         -6    1    1    2    0  502 -0.83547102163E+02 -0.63148349880E+01  0.35715222011E+02  0.19462675177E+03  0.17200000000E+03 0.  1.
</event>
<event>
 4    1  0.4475741E+000  0.1971906E+03  0.7818608E-02  0.1152131E+00
         21   -1    0    0  503  502  0.00000000000E+00  0.00000000000E+00  0.18524771478E+03  0.18524771478E+03  0.00000000000E+00 0. -1.
         21   -1    0    0  501  503 -0.00000000000E+00 -0.00000000000E+00 -0.25324335104E+03  0.25324335104E+03  0.00000000000E+00 0.  1.
          6    1    1    2  501    0  0.55050168669E+02 -0.79180970304E+02 -0.12469741191E+03  0.23331007622E+03  0.17200000000E+03 0. -1.
         -6    1    1    2    0  502 -0.55050168669E+02  0.79180970304E+02  0.56701775648E+02  0.20518098959E+03  0.17200000000E+03 0. -1.
</event>
<event>
 4    1  0.4475741E+000  0.2096718E+03  0.7818608E-02  0.1141826E+00
         21   -1    0    0  501  502  0.00000000000E+00  0.00000000000E+00  0.28077418481E+03  0.28077418481E+03  0.00000000000E+00 0. -1.
         21   -1    0    0  502  503 -0.00000000000E+00 -0.00000000000E+00 -0.15683980275E+03  0.15683980275E+03  0.00000000000E+00 0. -1.
          6    1    1    2  501    0 -0.75609042462E+02 -0.93067382529E+02  0.52979317191E+02  0.21626158476E+03  0.17200000000E+03 0. -1.
         -6    1    1    2    0  503  0.75609042462E+02  0.93067382529E+02  0.70955064870E+02  0.22135240280E+03  0.17200000000E+03 0. -1.
</event>
<event>
 4    1  0.4475741E+000  0.2710374E+03  0.7818608E-02  0.1100687E+00
         21   -1    0    0  501  502  0.00000000000E+00  0.00000000000E+00  0.38286196758E+03  0.38286196758E+03  0.00000000000E+00 0. -1.
         21   -1    0    0  502  503 -0.00000000000E+00 -0.00000000000E+00 -0.19354519092E+03  0.19354519092E+03  0.00000000000E+00 0. -1.
          6    1    1    2  501    0 -0.18030762521E+03 -0.10661341607E+03  0.12143898102E+03  0.29699947189E+03  0.17200000000E+03 0. -1.
         -6    1    1    2    0  503  0.18030762521E+03  0.10661341607E+03  0.67877795647E+02  0.27940768661E+03  0.17200000000E+03 0. -1.
</event>
<event>
 4    1  0.4475741E+000  0.3005228E+03  0.7818608E-02  0.1084980E+00
         21   -1    0    0  503  502  0.00000000000E+00  0.00000000000E+00  0.21668394494E+04  0.21668394494E+04  0.00000000000E+00 0.  1.
         21   -1    0    0  501  503 -0.00000000000E+00 -0.00000000000E+00 -0.88332965188E+02  0.88332965188E+02  0.00000000000E+00 0. -1.
          6    1    1    2  501    0  0.98290354212E+02 -0.22598436795E+03  0.21979307609E+03  0.37232099670E+03  0.17200000000E+03 0. -1.
         -6    1    1    2    0  502 -0.98290354212E+02  0.22598436795E+03  0.18587134082E+04  0.18828514179E+04  0.17200000000E+03 0.  1.
</event>
<event>
 4    1  0.4475741E+000  0.2147771E+03  0.7818608E-02  0.1137838E+00
         21   -1    0    0  503  502  0.00000000000E+00  0.00000000000E+00  0.96363978633E+02  0.96363978633E+02  0.00000000000E+00 0.  1.
         21   -1    0    0  501  503 -0.00000000000E+00 -0.00000000000E+00 -0.50644561370E+03  0.50644561370E+03  0.00000000000E+00 0. -1.
          6    1    1    2  501    0  0.10852211530E+03  0.69051767881E+02 -0.27559137412E+03  0.34939920098E+03  0.17200000000E+03 0. -1.
         -6    1    1    2    0  502 -0.10852211530E+03 -0.69051767881E+02 -0.13449026095E+03  0.25341039136E+03  0.17200000000E+03 0.  1.
</event>
<event>
 4    1  0.4475741E+000  0.1841480E+03  0.7818608E-02  0.1163848E+00
         21   -1    0    0  503  502  0.00000000000E+00  0.00000000000E+00  0.48673514428E+03  0.48673514428E+03  0.00000000000E+00 0. -1.
         21   -1    0    0  501  503 -0.00000000000E+00 -0.00000000000E+00 -0.12171884340E+03  0.12171884340E+03  0.00000000000E+00 0. -1.
          6    1    1    2  501    0  0.52374496552E+02  0.39791975632E+02 -0.16434254907E+02  0.18487989060E+03  0.17200000000E+03 0. -1.
         -6    1    1    2    0  502 -0.52374496552E+02 -0.39791975632E+02  0.38145055578E+03  0.42357409708E+03  0.17200000000E+03 0. -1.
</event>
<event>
 4    1  0.4475741E+000  0.1725840E+03  0.7818608E-02  0.1175180E+00
         21   -1    0    0  503  502  0.00000000000E+00  0.00000000000E+00  0.59646107885E+03  0.59646107885E+03  0.00000000000E+00 0. -1.
         21   -1    0    0  501  503 -0.00000000000E+00 -0.00000000000E+00 -0.60330887709E+02  0.60330887709E+02  0.00000000000E+00 0. -1.
          6    1    1    2  501    0  0.14073310034E+02  0.17827594528E+01  0.13175581789E+03  0.21712860667E+03  0.17200000000E+03 0. -1.
         -6    1    1    2    0  502 -0.14073310034E+02 -0.17827594528E+01  0.40437437325E+03  0.43966335989E+03  0.17200000000E+03 0. -1.
</event>
<event>
 4    1  0.4475741E+000  0.3612079E+03  0.7818608E-02  0.1058107E+00
         21   -1    0    0  501  502  0.00000000000E+00  0.00000000000E+00  0.35552131586E+03  0.35552131586E+03  0.00000000000E+00 0.  1.
         21   -1    0    0  502  503 -0.00000000000E+00 -0.00000000000E+00 -0.38834557507E+03  0.38834557507E+03  0.00000000000E+00 0. -1.
          6    1    1    2  501    0  0.31728040732E+03 -0.14842761107E+02 -0.10364045566E+03  0.37578252817E+03  0.17200000000E+03 0. -1.
         -6    1    1    2    0  503 -0.31728040732E+03  0.14842761107E+02  0.70816196446E+02  0.36808436276E+03  0.17200000000E+03 0.  1.
</event>
<event>
 4    1  0.4475741E+000  0.1736479E+03  0.7818608E-02  0.1174096E+00
         21   -1    0    0  501  502  0.00000000000E+00  0.00000000000E+00  0.33134586255E+03  0.33134586255E+03  0.00000000000E+00 0.  1.
         21   -1    0    0  502  503 -0.00000000000E+00 -0.00000000000E+00 -0.13713862864E+03  0.13713862864E+03  0.00000000000E+00 0. -1.
          6    1    1    2  501    0 -0.88602558221E+01 -0.22160893043E+02  0.23296671985E+03  0.29056342143E+03  0.17200000000E+03 0.  1.
         -6    1    1    2    0  503  0.88602558221E+01  0.22160893043E+02 -0.38759485943E+02  0.17792106976E+03  0.17200000000E+03 0. -1.
</event>
<event>
 4    1  0.4475741E+000  0.2711139E+03  0.7818608E-02  0.1100644E+00
         21   -1    0    0  503  502  0.00000000000E+00  0.00000000000E+00  0.16685685824E+03  0.16685685824E+03  0.00000000000E+00 0.  1.
         21   -1    0    0  501  503 -0.00000000000E+00 -0.00000000000E+00 -0.11586480552E+04  0.11586480552E+04  0.00000000000E+00 0. -1.
          6    1    1    2  501    0 -0.17226857589E+03 -0.11934115145E+03 -0.10176646985E+04  0.10531591576E+04  0.17200000000E+03 0. -1.
         -6    1    1    2    0  502  0.17226857589E+03  0.11934115145E+03  0.25873501494E+02  0.27234575588E+03  0.17200000000E+03 0.  1.
</event>
<event>
 4    1  0.4475741E+000  0.1725992E+03  0.7818608E-02  0.1175164E+00
         21   -1    0    0  501  502  0.00000000000E+00  0.00000000000E+00  0.69209525512E+02  0.69209525512E+02  0.00000000000E+00 0. -1.
         21   -1    0    0  502  503 -0.00000000000E+00 -0.00000000000E+00 -0.46301314180E+03  0.46301314180E+03  0.00000000000E+00 0. -1.
          6    1    1    2  501    0  0.12974053341E+02  0.61766313622E+01 -0.12631827272E+03  0.21388497576E+03  0.17200000000E+03 0. -1.
         -6    1    1    2    0  503 -0.12974053341E+02 -0.61766313622E+01 -0.26748534358E+03  0.31833769155E+03  0.17200000000E+03 0. -1.
</event>
<event>
 4    1  0.4475741E+000  0.3537527E+03  0.7818608E-02  0.1061085E+00
         21   -1    0    0  503  502  0.00000000000E+00  0.00000000000E+00  0.47593964046E+03  0.47593964046E+03  0.00000000000E+00 0. -1.
         21   -1    0    0  501  503 -0.00000000000E+00 -0.00000000000E+00 -0.38900262716E+03  0.38900262716E+03  0.00000000000E+00 0. -1.
          6    1    1    2  501    0 -0.17112932453E+03  0.25743294714E+03 -0.20272888540E+03  0.40772535973E+03  0.17200000000E+03 0. -1.
         -6    1    1    2    0  502  0.17112932453E+03 -0.25743294714E+03  0.28966589870E+03  0.45721690789E+03  0.17200000000E+03 0. -1.
</event>
<event>
 4    1  0.4475741E+000  0.2033219E+03  0.7818608E-02  0.1146966E+00
         21   -1    0    0  501  502  0.00000000000E+00  0.00000000000E+00  0.34696341892E+03  0.34696341892E+03  0.00000000000E+00 0. -1.
         21   -1    0    0  502  503 -0.00000000000E+00 -0.00000000000E+00 -0.11926164370E+03  0.11926164370E+03  0.00000000000E+00 0.  1.
          6    1    1    2  501    0 -0.82751091242E+02  0.70057568304E+02  0.10663749219E+03  0.22958954837E+03  0.17200000000E+03 0.  1.
         -6    1    1    2    0  503  0.82751091242E+02 -0.70057568304E+02  0.12106428303E+03  0.23663551425E+03  0.17200000000E+03 0. -1.
</event>
<event>
 4    1  0.4475741E+000  0.1804006E+03  0.7818608E-02  0.1167416E+00
         21   -1    0    0  501  502  0.00000000000E+00  0.00000000000E+00  0.23997152200E+04  0.23997152200E+04  0.00000000000E+00 0. -1.
         21   -1    0    0  502  503 -0.00000000000E+00 -0.00000000000E+00 -0.14181748697E+02  0.14181748697E+02  0.00000000000E+00 0. -1.
          6    1    1    2  501    0 -0.50715768167E+02 -0.19704644693E+02  0.94040954396E+03  0.95755651141E+03  0.17200000000E+03 0. -1.
         -6    1    1    2    0  503  0.50715768167E+02  0.19704644693E+02  0.14451239273E+04  0.14563404573E+04  0.17200000000E+03 0. -1.
</event>
<event>
 4    1  0.4475741E+000  0.2404581E+03  0.7818608E-02  0.1119488E+00
         21   -1    0    0  503  502  0.00000000000E+00  0.00000000000E+00  0.64303218829E+02  0.64303218829E+02  0.00000000000E+00 0.  1.
         21   -1    0    0  501  503 -0.00000000000E+00 -0.00000000000E+00 -0.10818560972E+04  0.10818560972E+04  0.00000000000E+00 0.  1.
          6    1    1    2  501    0 -0.15261841033E+03 -0.70311545845E+02 -0.74426645856E+03  0.78214618454E+03  0.17200000000E+03 0.  1.
         -6    1    1    2    0  502  0.15261841033E+03  0.70311545845E+02 -0.27328641985E+03  0.36401313153E+03  0.17200000000E+03 0.  1.
</event>
<event>
 4    1  0.4475741E+000  0.1927149E+03  0.7818608E-02  0.1156035E+00
         21   -1    0    0  501  502  0.00000000000E+00  0.00000000000E+00  0.22892175667E+03  0.22892175667E+03  0.00000000000E+00 0. -1.
         21   -1    0    0  502  503 -0.00000000000E+00 -0.00000000000E+00 -0.35983745409E+03  0.35983745409E+03  0.00000000000E+00 0. -1.
          6    1    1    2  501    0  0.35684098481E+02 -0.79257119450E+02  0.15269006538E+03  0.24587253188E+03  0.17200000000E+03 0. -1.
         -6    1    1    2    0  503 -0.35684098481E+02  0.79257119450E+02 -0.28360576280E+03  0.34288667889E+03  0.17200000000E+03 0. -1.
</event>
<event>
 4    1  0.4475741E+000  0.2486865E+03  0.7818608E-02  0.1114138E+00
         21   -1    0    0  503  502  0.00000000000E+00  0.00000000000E+00  0.48882003232E+03  0.48882003232E+03  0.00000000000E+00 0.  1.
         21   -1    0    0  501  503 -0.00000000000E+00 -0.00000000000E+00 -0.14804012443E+03  0.14804012443E+03  0.00000000000E+00 0. -1.
          6    1    1    2  501    0  0.59117599601E+02 -0.16960569334E+03  0.48979057633E+02  0.25346386307E+03  0.17200000000E+03 0. -1.
         -6    1    1    2    0  502 -0.59117599601E+02  0.16960569334E+03  0.29180085026E+03  0.38339629368E+03  0.17200000000E+03 0.  1.
</event>
<event>
 4    1  0.4475741E+000  0.2138527E+03  0.7818608E-02  0.1138551E+00
         21   -1    0    0  503  502  0.00000000000E+00  0.00000000000E+00  0.15675089457E+03  0.15675089457E+03  0.00000000000E+00 0. -1.
         21   -1    0    0  501  503 -0.00000000000E+00 -0.00000000000E+00 -0.70541896592E+03  0.70541896592E+03  0.00000000000E+00 0. -1.
          6    1    1    2  501    0 -0.41165424899E+02  0.12022645732E+03 -0.60444706459E+03  0.64116241869E+03  0.17200000000E+03 0. -1.
         -6    1    1    2    0  502  0.41165424899E+02 -0.12022645732E+03  0.55778993243E+02  0.22100744181E+03  0.17200000000E+03 0. -1.
</event>
<event>
 4    1  0.4475741E+000  0.1755177E+03  0.7818608E-02  0.1172213E+00
         21   -1    0    0  503  502  0.00000000000E+00  0.00000000000E+00  0.57277169263E+03  0.57277169263E+03  0.00000000000E+00 0.  1.
         21   -1    0    0  501  503 -0.00000000000E+00 -0.00000000000E+00 -0.53862701633E+02  0.53862701633E+02  0.00000000000E+00 0.  1.
          6    1    1    2  501    0 -0.34960010052E+02  0.52276966789E+00  0.24754759956E+03  0.30345722868E+03  0.17200000000E+03 0. -1.
         -6    1    1    2    0  502  0.34960010052E+02 -0.52276966789E+00  0.27136139144E+03  0.32317716558E+03  0.17200000000E+03 0. -1.
</event>
<event>
 4    1  0.4475741E+000  0.1906097E+03  0.7818608E-02  0.1157913E+00
         21   -1    0    0  501  502  0.00000000000E+00  0.00000000000E+00  0.78172117399E+03  0.78172117399E+03  0.00000000000E+00 0. -1.
         21   -1    0    0  502  503 -0.00000000000E+00 -0.00000000000E+00 -0.69627961161E+02  0.69627961161E+02  0.00000000000E+00 0. -1.
          6    1    1    2  501    0 -0.44876398959E+02 -0.68805200533E+02  0.60150081101E+03  0.63097961334E+03  0.17200000000E+03 0.  1.
         -6    1    1    2    0  503  0.44876398959E+02  0.68805200533E+02  0.11059240182E+03  0.22036952181E+03  0.17200000000E+03 0.  1.
</event>
<event>
 4    1  0.4475741E+000  0.2120743E+03  0.7818608E-02  0.1139934E+00
         21   -1    0    0  503  502  0.00000000000E+00  0.00000000000E+00  0.42916890599E+03  0.42916890599E+03  0.00000000000E+00 0.  1.
         21   -1    0    0  501  503 -0.00000000000E+00 -0.00000000000E+00 -0.53540949046E+03  0.53540949046E+03  0.00000000000E+00 0. -1.
          6    1    1    2  501    0 -0.16483761727E+02 -0.12296254320E+03 -0.48564203697E+03  0.52992800407E+03  0.17200000000E+03 0. -1.
         -6    1    1    2    0  502  0.16483761727E+02  0.12296254320E+03  0.37940145250E+03  0.43465039238E+03  0.17200000000E+03 0.  1.
</event>
<event>
 4    1  0.4475741E+000  0.1929762E+03  0.7818608E-02  0.1155804E+00
         21   -1    0    0  503  502  0.00000000000E+00  0.00000000000E+00  0.17713453017E+03  0.17713453017E+03  0.00000000000E+00 0.  1.
         21   -1    0    0  501  503 -0.00000000000E+00 -0.00000000000E+00 -0.37490715648E+03  0.37490715648E+03  0.00000000000E+00 0.  1.
          6    1    1    2  501    0  0.64680740062E+02 -0.58925384715E+02 -0.28181873607E+03  0.34155760729E+03  0.17200000000E+03 0.  1.
         -6    1    1    2    0  502 -0.64680740062E+02  0.58925384715E+02  0.84046109756E+02  0.21048407936E+03  0.17200000000E+03 0.  1.
</event>
<event>
 4    1  0.4475741E+000  0.1739730E+03  0.7818608E-02  0.1173767E+00
         21   -1    0    0  503  502  0.00000000000E+00  0.00000000000E+00  0.50170412974E+02  0.50170412974E+02  0.00000000000E+00 0.  1.
         21   -1    0    0  501  503 -0.00000000000E+00 -0.00000000000E+00 -0.60355466663E+03  0.60355466663E+03  0.00000000000E+00 0.  1.
          6    1    1    2  501    0 -0.17573522682E+02  0.19333726353E+02 -0.26967261956E+03  0.32092046275E+03  0.17200000000E+03 0.  1.
         -6    1    1    2    0  502  0.17573522682E+02 -0.19333726353E+02 -0.28371163410E+03  0.33280461685E+03  0.17200000000E+03 0.  1.
</event>
<event>
 4    1  0.4475741E+000  0.2993079E+03  0.7818608E-02  0.1085587E+00
         21   -1    0    0  503  502  0.00000000000E+00  0.00000000000E+00  0.37089913945E+03  0.37089913945E+03  0.00000000000E+00 0. -1.
         21   -1    0    0  501  503 -0.00000000000E+00 -0.00000000000E+00 -0.31258394542E+03  0.31258394542E+03  0.00000000000E+00 0. -1.
          6    1    1    2  501    0 -0.82612159654E+02  0.23060021135E+03 -0.13376915969E+03  0.32784053209E+03  0.17200000000E+03 0. -1.
         -6    1    1    2    0  502  0.82612159654E+02 -0.23060021135E+03  0.19208435373E+03  0.35564255277E+03  0.17200000000E+03 0. -1.
</event>
<event>
 4    1  0.4475741E+000  0.1985583E+03  0.7818608E-02  0.1150961E+00
         21   -1    0    0  501  502  0.00000000000E+00  0.00000000000E+00  0.63791195448E+02  0.63791195448E+02  0.00000000000E+00 0. -1.
         21   -1    0    0  502  503 -0.00000000000E+00 -0.00000000000E+00 -0.87132323980E+03  0.87132323980E+03  0.00000000000E+00 0.  1.
          6    1    1    2  501    0 -0.60334568951E+02  0.78747425266E+02 -0.15167951774E+03  0.24986414968E+03  0.17200000000E+03 0. -1.
         -6    1    1    2    0  503  0.60334568951E+02 -0.78747425266E+02 -0.65585252661E+03  0.68525028556E+03  0.17200000000E+03 0.  1.
</event>
<event>
 4    1  0.4475741E+000  0.2861657E+03  0.7818608E-02  0.1092368E+00
         21   -1    0    0  503  502  0.00000000000E+00  0.00000000000E+00  0.22621326799E+03  0.22621326799E+03  0.00000000000E+00 0. -1.
         21   -1    0    0  501  503 -0.00000000000E+00 -0.00000000000E+00 -0.41225174446E+03  0.41225174446E+03  0.00000000000E+00 0.  1.
          6    1    1    2  501    0  0.84106769766E+01 -0.22855216864E+03 -0.20446672616E+03  0.35170651883E+03  0.17200000000E+03 0.  1.
         -6    1    1    2    0  502 -0.84106769766E+01  0.22855216864E+03  0.18428249693E+02  0.28675849363E+03  0.17200000000E+03 0. -1.
</event>
<event>
 4    1  0.4475741E+000  0.1920608E+03  0.7818608E-02  0.1156616E+00
         21   -1    0    0  501  502  0.00000000000E+00  0.00000000000E+00  0.90830034569E+03  0.90830034569E+03  0.00000000000E+00 0.  1.
         21   -1    0    0  502  503 -0.00000000000E+00 -0.00000000000E+00 -0.49883635133E+02  0.49883635133E+02  0.00000000000E+00 0.  1.
          6    1    1    2  501    0 -0.56828178205E+02 -0.63827042400E+02  0.63576181825E+03  0.66413885802E+03  0.17200000000E+03 0. -1.
         -6    1    1    2    0  503  0.56828178205E+02  0.63827042400E+02  0.22265489231E+03  0.29404512281E+03  0.17200000000E+03 0. -1.
</event>
<event>
 4    1  0.4475741E+000  0.2722792E+03  0.7818608E-02  0.1099982E+00
         21   -1    0    0  503  502  0.00000000000E+00  0.00000000000E+00  0.11176057086E+03  0.11176057086E+03  0.00000000000E+00 0.  1.
         21   -1    0    0  501  503 -0.00000000000E+00 -0.00000000000E+00 -0.11710537323E+04  0.11710537323E+04  0.00000000000E+00 0. -1.
          6    1    1    2  501    0  0.67042863355E+02  0.20014294919E+03 -0.95197684735E+03  0.99014941475E+03  0.17200000000E+03 0.  1.
         -6    1    1    2    0  502 -0.67042863355E+02 -0.20014294919E+03 -0.10731631407E+03  0.29266488840E+03  0.17200000000E+03 0.  1.
</event>
<event>
 4    1  0.4475741E+000  0.2205765E+03  0.7818608E-02  0.1133454E+00
         21   -1    0    0  503  502  0.00000000000E+00  0.00000000000E+00  0.11585488981E+03  0.11585488981E+03  0.00000000000E+00 0.  1.
         21   -1    0    0  501  503 -0.00000000000E+00 -0.00000000000E+00 -0.43294256032E+03  0.43294256032E+03  0.00000000000E+00 0.  1.
          6    1    1    2  501    0 -0.12123130235E+03 -0.66128281751E+02 -0.11102007332E+03  0.24694014456E+03  0.17200000000E+03 0.  1.
         -6    1    1    2    0  502  0.12123130235E+03  0.66128281751E+02 -0.20606759718E+03  0.30185730557E+03  0.17200000000E+03 0.  1.
</event>
<event>
 4    1  0.4475741E+000  0.1872559E+03  0.7818608E-02  0.1160960E+00
         21   -1    0    0  501  502  0.00000000000E+00  0.00000000000E+00  0.33301605917E+02  0.33301605917E+02  0.00000000000E+00 0.  1.
         21   -1    0    0  502  503 -0.00000000000E+00 -0.00000000000E+00 -0.11012335781E+04  0.11012335781E+04  0.00000000000E+00 0.  1.
          6    1    1    2  501    0  0.25029516601E+02 -0.69672794042E+02 -0.65275283665E+03  0.67908102660E+03  0.17200000000E+03 0.  1.
         -6    1    1    2    0  503 -0.25029516601E+02  0.69672794042E+02 -0.41517913557E+03  0.45545415746E+03  0.17200000000E+03 0.  1.
</event>
<event>
 4    1  0.4475741E+000  0.2845978E+03  0.7818608E-02  0.1093204E+00
         21   -1    0    0  503  502  0.00000000000E+00  0.00000000000E+00  0.34980229576E+02  0.34980229576E+02  0.00000000000E+00 0. -1.
         21   -1    0    0  501  503 -0.00000000000E+00 -0.00000000000E+00 -0.29975728674E+04  0.29975728674E+04  0.00000000000E+00 0.  1.
          6    1    1    2  501    0 -0.17251964013E+03  0.14713553749E+03 -0.22045930041E+04  0.22228869082E+04  0.17200000000E+03 0. -1.
         -6    1    1    2    0  502  0.17251964013E+03 -0.14713553749E+03 -0.75799963367E+03  0.80966618879E+03  0.17200000000E+03 0. -1.
</event>
<event>
 4    1  0.4475741E+000  0.1754449E+03  0.7818608E-02  0.1172286E+00
         21   -1    0    0  503  502  0.00000000000E+00  0.00000000000E+00  0.34432708415E+03  0.34432708415E+03  0.00000000000E+00 0.  1.
         21   -1    0    0  501  503 -0.00000000000E+00 -0.00000000000E+00 -0.10702041495E+03  0.10702041495E+03  0.00000000000E+00 0.  1.
          6    1    1    2  501    0 -0.33599774444E+02  0.82446837212E+01  0.27068289889E+02  0.17752073673E+03  0.17200000000E+03 0.  1.
         -6    1    1    2    0  502  0.33599774444E+02 -0.82446837212E+01  0.21023837931E+03  0.27382676236E+03  0.17200000000E+03 0.  1.
</event>
<event>
 4    1  0.4475741E+000  0.2023030E+03  0.7818608E-02  0.1147810E+00
         21   -1    0    0  503  502  0.00000000000E+00  0.00000000000E+00  0.94090767914E+02  0.94090767914E+02  0.00000000000E+00 0.  1.
         21   -1    0    0  501  503 -0.00000000000E+00 -0.00000000000E+00 -0.44904433871E+03  0.44904433871E+03  0.00000000000E+00 0.  1.
          6    1    1    2  501    0 -0.62415025488E+02  0.86295348921E+02 -0.22555739915E+03  0.30298954267E+03  0.17200000000E+03 0.  1.
         -6    1    1    2    0  502  0.62415025488E+02 -0.86295348921E+02 -0.12939617164E+03  0.24014556395E+03  0.17200000000E+03 0.  1.
</event>
<event>
 4    1  0.4475741E+000  0.2031411E+03  0.7818608E-02  0.1147116E+00
         21   -1    0    0  501  502  0.00000000000E+00  0.00000000000E+00  0.22120598237E+02  0.22120598237E+02  0.00000000000E+00 0. -1.
         21   -1    0    0  502  503 -0.00000000000E+00 -0.00000000000E+00 -0.21006764879E+04  0.21006764879E+04  0.00000000000E+00 0. -1.
          6    1    1    2  501    0 -0.49593961264E+02 -0.96035103533E+02 -0.68415213415E+03  0.71367390647E+03  0.17200000000E+03 0. -1.
         -6    1    1    2    0  503  0.49593961264E+02  0.96035103533E+02 -0.13944037555E+04  0.14091231797E+04  0.17200000000E+03 0. -1.
</event>
<event>
 4    1  0.4475741E+000  0.2368706E+03  0.7818608E-02  0.1121895E+00
         21   -1    0    0  501  502  0.00000000000E+00  0.00000000000E+00  0.25448125302E+03  0.25448125302E+03  0.00000000000E+00 0. -1.
         21   -1    0    0  502  503 -0.00000000000E+00 -0.00000000000E+00 -0.53468048700E+03  0.53468048700E+03  0.00000000000E+00 0.  1.
          6    1    1    2  501    0  0.55692023925E+01  0.16276563747E+03  0.16237801019E+03  0.28718336817E+03  0.17200000000E+03 0. -1.
         -6    1    1    2    0  503 -0.55692023925E+01 -0.16276563747E+03 -0.44257724417E+03  0.50197837186E+03  0.17200000000E+03 0.  1.
</event>
<event>
 4    1  0.4475741E+000  0.2103643E+03  0.7818608E-02  0.1141278E+00
         21   -1    0    0  503  502  0.00000000000E+00  0.00000000000E+00  0.52926427054E+02  0.52926427054E+02  0.00000000000E+00 0.  1.
         21   -1    0    0  501  503 -0.00000000000E+00 -0.00000000000E+00 -0.10318202375E+04  0.10318202375E+04  0.00000000000E+00 0.  1.
          6    1    1    2  501    0  0.11862760723E+03 -0.24426249835E+02 -0.72564998367E+03  0.75552700129E+03  0.17200000000E+03 0.  1.
         -6    1    1    2    0  502 -0.11862760723E+03  0.24426249835E+02 -0.25324382676E+03  0.32921966325E+03  0.17200000000E+03 0.  1.
</event>
<event>
 4    1  0.4475741E+000  0.2176860E+03  0.7818608E-02  0.1135620E+00
         21   -1    0    0  501  502  0.00000000000E+00  0.00000000000E+00  0.89671213118E+02  0.89671213118E+02  0.00000000000E+00 0.  1.
         21   -1    0    0  502  503 -0.00000000000E+00 -0.00000000000E+00 -0.53094056270E+03  0.53094056270E+03  0.00000000000E+00 0.  1.
          6    1    1    2  501    0 -0.13053698759E+03  0.27627709204E+02 -0.19940297483E+03  0.29520965739E+03  0.17200000000E+03 0.  1.
         -6    1    1    2    0  503  0.13053698759E+03 -0.27627709204E+02 -0.24186637476E+03  0.32540211843E+03  0.17200000000E+03 0.  1.
</event>
<event>
 4    1  0.4475741E+000  0.2163714E+03  0.7818608E-02  0.1136618E+00
         21   -1    0    0  501  502  0.00000000000E+00  0.00000000000E+00  0.49988404433E+03  0.49988404433E+03  0.00000000000E+00 0.  1.
         21   -1    0    0  502  503 -0.00000000000E+00 -0.00000000000E+00 -0.10065312698E+03  0.10065312698E+03  0.00000000000E+00 0.  1.
          6    1    1    2  501    0 -0.67843116334E+02  0.11238271505E+03  0.27879116700E+03  0.35290377991E+03  0.17200000000E+03 0.  1.
         -6    1    1    2    0  503  0.67843116334E+02 -0.11238271505E+03  0.12043975035E+03  0.24763339141E+03  0.17200000000E+03 0.  1.
</event>
<event>
 4    1  0.4475741E+000  0.1742988E+03  0.7818608E-02  0.1173438E+00
         21   -1    0    0  503  502  0.00000000000E+00  0.00000000000E+00  0.59741961206E+03  0.59741961206E+03  0.00000000000E+00 0. -1.
         21   -1    0    0  501  503 -0.00000000000E+00 -0.00000000000E+00 -0.64061468795E+02  0.64061468795E+02  0.00000000000E+00 0. -1.
          6    1    1    2  501    0  0.12063337471E+01  0.28188742091E+02  0.11649305193E+03  0.20964420233E+03  0.17200000000E+03 0. -1.
         -6    1    1    2    0  502 -0.12063337471E+01 -0.28188742091E+02  0.41686509134E+03  0.45183687853E+03  0.17200000000E+03 0. -1.
</event>
<event>
 4    1  0.4475741E+000  0.2108331E+03  0.7818608E-02  0.1140908E+00
         21   -1    0    0  503  502  0.00000000000E+00  0.00000000000E+00  0.13185458551E+04  0.13185458551E+04  0.00000000000E+00 0. -1.
         21   -1    0    0  501  503 -0.00000000000E+00 -0.00000000000E+00 -0.81192835563E+02  0.81192835563E+02  0.00000000000E+00 0.  1.
          6    1    1    2  501    0 -0.12181324822E+03  0.53023300497E+01  0.83474037072E+02  0.22675647071E+03  0.17200000000E+03 0.  1.
         -6    1    1    2    0  502  0.12181324822E+03 -0.53023300497E+01  0.11538789824E+04  0.11729822199E+04  0.17200000000E+03 0. -1.
</event>
<event>
 4    1  0.4475741E+000  0.2971121E+03  0.7818608E-02  0.1086693E+00
         21   -1    0    0  501  502  0.00000000000E+00  0.00000000000E+00  0.12215608830E+03  0.12215608830E+03  0.00000000000E+00 0.  1.
         21   -1    0    0  502  503 -0.00000000000E+00 -0.00000000000E+00 -0.85420775405E+03  0.85420775405E+03  0.00000000000E+00 0.  1.
          6    1    1    2  501    0  0.91867735333E+02  0.22416935215E+03 -0.17443921908E+03  0.34453536885E+03  0.17200000000E+03 0.  1.
         -6    1    1    2    0  503 -0.91867735333E+02 -0.22416935215E+03 -0.55761244667E+03  0.63182847350E+03  0.17200000000E+03 0.  1.
</event>
<event>
 4    1  0.4475741E+000  0.1826802E+03  0.7818608E-02  0.1165234E+00
         21   -1    0    0  501  502  0.00000000000E+00  0.00000000000E+00  0.18499926178E+03  0.18499926178E+03  0.00000000000E+00 0. -1.
         21   -1    0    0  502  503 -0.00000000000E+00 -0.00000000000E+00 -0.18205762426E+03  0.18205762426E+03  0.00000000000E+00 0. -1.
          6    1    1    2  501    0  0.28914042194E+02 -0.54332456749E+02 -0.16093583036E+02  0.18338767981E+03  0.17200000000E+03 0. -1.
         -6    1    1    2    0  503 -0.28914042194E+02  0.54332456749E+02  0.19035220552E+02  0.18366920622E+03  0.17200000000E+03 0. -1.
</event>
<event>
 4    1  0.4475741E+000  0.1856648E+03  0.7818608E-02  0.1162431E+00
         21   -1    0    0  503  502  0.00000000000E+00  0.00000000000E+00  0.38259807600E+02  0.38259807600E+02  0.00000000000E+00 0. -1.
         21   -1    0    0  501  503 -0.00000000000E+00 -0.00000000000E+00 -0.93615508281E+03  0.93615508281E+03  0.00000000000E+00 0. -1.
          6    1    1    2  501    0  0.66447667686E+02 -0.21728122954E+02 -0.54338509424E+03  0.57422884333E+03  0.17200000000E+03 0. -1.
         -6    1    1    2    0  502 -0.66447667686E+02  0.21728122954E+02 -0.35451018097E+03  0.40018604708E+03  0.17200000000E+03 0. -1.
</event>
<event>
 4    1  0.4475741E+000  0.2234519E+03  0.7818608E-02  0.1131335E+00
         21   -1    0    0  503  502  0.00000000000E+00  0.00000000000E+00  0.13413026937E+03  0.13413026937E+03  0.00000000000E+00 0. -1.
         21   -1    0    0  501  503 -0.00000000000E+00 -0.00000000000E+00 -0.85412228852E+03  0.85412228852E+03  0.00000000000E+00 0.  1.
          6    1    1    2  501    0  0.14177972610E+03  0.15660700234E+02 -0.73113908447E+03  0.76452279829E+03  0.17200000000E+03 0.  1.
         -6    1    1    2    0  502 -0.14177972610E+03 -0.15660700234E+02  0.11147065323E+02  0.22372975960E+03  0.17200000000E+03 0. -1.
</event>
<event>
 4    1  0.4475741E+000  0.2397620E+03  0.7818608E-02  0.1119951E+00
         21   -1    0    0  503  502  0.00000000000E+00  0.00000000000E+00  0.11327493181E+03  0.11327493181E+03  0.00000000000E+00 0. -1.
         21   -1    0    0  501  503 -0.00000000000E+00 -0.00000000000E+00 -0.85974901348E+03  0.85974901348E+03  0.00000000000E+00 0. -1.
          6    1    1    2  501    0 -0.16458377765E+03 -0.28530690627E+02 -0.68465177338E+03  0.72541978948E+03  0.17200000000E+03 0. -1.
         -6    1    1    2    0  502  0.16458377765E+03  0.28530690627E+02 -0.61822308299E+02  0.24760415581E+03  0.17200000000E+03 0. -1.
</event>
<event>
 4    1  0.4475741E+000  0.1980671E+03  0.7818608E-02  0.1151380E+00
         21   -1    0    0  501  502  0.00000000000E+00  0.00000000000E+00  0.52000209934E+02  0.52000209934E+02  0.00000000000E+00 0.  1.
         21   -1    0    0  502  503 -0.00000000000E+00 -0.00000000000E+00 -0.76420041626E+03  0.76420041626E+03  0.00000000000E+00 0.  1.
          6    1    1    2  501    0  0.69444394658E+02 -0.69455495700E+02 -0.30995886059E+03  0.36783839535E+03  0.17200000000E+03 0.  1.
         -6    1    1    2    0  503 -0.69444394658E+02  0.69455495700E+02 -0.40224134573E+03  0.44836223084E+03  0.17200000000E+03 0.  1.
</event>
<event>
 4    1  0.4475741E+000  0.1758576E+03  0.7818608E-02  0.1171873E+00
         21   -1    0    0  501  502  0.00000000000E+00  0.00000000000E+00  0.33025438293E+02  0.33025438293E+02  0.00000000000E+00 0.  1.
         21   -1    0    0  502  503 -0.00000000000E+00 -0.00000000000E+00 -0.10415667631E+04  0.10415667631E+04  0.00000000000E+00 0.  1.
          6    1    1    2  501    0  0.12094167859E+02  0.34577603995E+02 -0.33356195947E+03  0.37708017768E+03  0.17200000000E+03 0.  1.
         -6    1    1    2    0  503 -0.12094167859E+02 -0.34577603995E+02 -0.67497936538E+03  0.69751202376E+03  0.17200000000E+03 0.  1.
</event>
<event>
 4    1  0.4475741E+000  0.2502630E+03  0.7818608E-02  0.1113139E+00
         21   -1    0    0  501  502  0.00000000000E+00  0.00000000000E+00  0.98044690564E+02  0.98044690564E+02  0.00000000000E+00 0. -1.
         21   -1    0    0  502  503 -0.00000000000E+00 -0.00000000000E+00 -0.64195456270E+03  0.64195456270E+03  0.00000000000E+00 0. -1.
          6    1    1    2  501    0 -0.17839511553E+03  0.34968015289E+02 -0.29786540362E+03  0.38904418517E+03  0.17200000000E+03 0. -1.
         -6    1    1    2    0  503  0.17839511553E+03 -0.34968015289E+02 -0.24604446852E+03  0.35095506810E+03  0.17200000000E+03 0. -1.
</event>
<event>
 4    1  0.4475741E+000  0.2025787E+03  0.7818608E-02  0.1147581E+00
         21   -1    0    0  503  502  0.00000000000E+00  0.00000000000E+00  0.22603681259E+03  0.22603681259E+03  0.00000000000E+00 0. -1.
         21   -1    0    0  501  503 -0.00000000000E+00 -0.00000000000E+00 -0.18983383670E+03  0.18983383670E+03  0.00000000000E+00 0.  1.
          6    1    1    2  501    0 -0.10265930129E+03 -0.30252476950E+02  0.61524757838E+02  0.21171547022E+03  0.17200000000E+03 0.  1.
         -6    1    1    2    0  502  0.10265930129E+03  0.30252476950E+02 -0.25321781946E+02  0.20415517908E+03  0.17200000000E+03 0.  1.
</event>
<event>
 4    1  0.4475741E+000  0.1976380E+03  0.7818608E-02  0.1151747E+00
         21   -1    0    0  503  502  0.00000000000E+00  0.00000000000E+00  0.85174599939E+02  0.85174599939E+02  0.00000000000E+00 0. -1.
         21   -1    0    0  501  503 -0.00000000000E+00 -0.00000000000E+00 -0.52561177718E+03  0.52561177718E+03  0.00000000000E+00 0. -1.
          6    1    1    2  501    0 -0.96973657602E+02  0.85365898754E+01 -0.32926567945E+03  0.38402688877E+03  0.17200000000E+03 0. -1.
         -6    1    1    2    0  502  0.96973657602E+02 -0.85365898754E+01 -0.11117149779E+03  0.22675948835E+03  0.17200000000E+03 0. -1.
</event>
<event>
 4    1  0.4475741E+000  0.1771169E+03  0.7818608E-02  0.1170623E+00
         21   -1    0    0  501  502  0.00000000000E+00  0.00000000000E+00  0.60201780972E+02  0.60201780972E+02  0.00000000000E+00 0.  1.
         21   -1    0    0  502  503 -0.00000000000E+00 -0.00000000000E+00 -0.53973557090E+03  0.53973557090E+03  0.00000000000E+00 0.  1.
          6    1    1    2  501    0 -0.14751641154E+02  0.39608037988E+02 -0.18400981631E+03  0.25540168380E+03  0.17200000000E+03 0.  1.
         -6    1    1    2    0  503  0.14751641154E+02 -0.39608037988E+02 -0.29552397362E+03  0.34453566807E+03  0.17200000000E+03 0.  1.
</event>
<event>
 4    1  0.4475741E+000  0.1738162E+03  0.7818608E-02  0.1173926E+00
         21   -1    0    0  501  502  0.00000000000E+00  0.00000000000E+00  0.29590510070E+03  0.29590510070E+03  0.00000000000E+00 0.  1.
         21   -1    0    0  502  503 -0.00000000000E+00 -0.00000000000E+00 -0.17091190421E+03  0.17091190421E+03  0.00000000000E+00 0.  1.
          6    1    1    2  501    0 -0.60244950240E+01 -0.24326786797E+02  0.21059842778E+03  0.27306370114E+03  0.17200000000E+03 0.  1.
         -6    1    1    2    0  503  0.60244950240E+01  0.24326786797E+02 -0.85605231291E+02  0.19375330377E+03  0.17200000000E+03 0.  1.
</event>
<event>
 4    1  0.4475741E+000  0.2374383E+03  0.7818608E-02  0.1121511E+00
         21   -1    0    0  501  502  0.00000000000E+00  0.00000000000E+00  0.77166013186E+02  0.77166013186E+02  0.00000000000E+00 0.  1.
         21   -1    0    0  502  503 -0.00000000000E+00 -0.00000000000E+00 -0.94660019783E+03  0.94660019783E+03  0.00000000000E+00 0.  1.
          6    1    1    2  501    0 -0.15998490434E+03  0.34608868223E+02 -0.19019298262E+03  0.30422083100E+03  0.17200000000E+03 0.  1.
         -6    1    1    2    0  503  0.15998490434E+03 -0.34608868223E+02 -0.67924120203E+03  0.71954538002E+03  0.17200000000E+03 0.  1.
</event>
<event>
 4    1  0.4475741E+000  0.1981583E+03  0.7818608E-02  0.1151302E+00
         21   -1    0    0  501  502  0.00000000000E+00  0.00000000000E+00  0.53736696356E+02  0.53736696356E+02  0.00000000000E+00 0.  1.
         21   -1    0    0  502  503 -0.00000000000E+00 -0.00000000000E+00 -0.73073325203E+03  0.73073325203E+03  0.00000000000E+00 0.  1.
          6    1    1    2  501    0  0.48907730328E+02  0.85385919326E+02 -0.33714188789E+03  0.39106441141E+03  0.17200000000E+03 0.  1.
         -6    1    1    2    0  503 -0.48907730328E+02 -0.85385919326E+02 -0.33985466778E+03  0.39340553697E+03  0.17200000000E+03 0.  1.
</event>
<event>
 4    1  0.4475741E+000  0.2171240E+03  0.7818608E-02  0.1136046E+00
         21   -1    0    0  501  502  0.00000000000E+00  0.00000000000E+00  0.30084196926E+03  0.30084196926E+03  0.00000000000E+00 0.  1.
         21   -1    0    0  502  503 -0.00000000000E+00 -0.00000000000E+00 -0.23300274891E+03  0.23300274891E+03  0.00000000000E+00 0.  1.
          6    1    1    2  501    0 -0.13121880735E+03 -0.18451183296E+02  0.18666431110E+03  0.28633265026E+03  0.17200000000E+03 0.  1.
         -6    1    1    2    0  503  0.13121880735E+03  0.18451183296E+02 -0.11882509075E+03  0.24751206790E+03  0.17200000000E+03 0.  1.
</event>
<event>
 4    1  0.4475741E+000  0.3363143E+03  0.7818608E-02  0.1068377E+00
         21   -1    0    0  503  502  0.00000000000E+00  0.00000000000E+00  0.70849613487E+03  0.70849613487E+03  0.00000000000E+00 0. -1.
         21   -1    0    0  501  503 -0.00000000000E+00 -0.00000000000E+00 -0.16338542233E+03  0.16338542233E+03  0.00000000000E+00 0.  1.
          6    1    1    2  501    0 -0.85253514859E+02 -0.27614337029E+03  0.33852218821E+03  0.47718402600E+03  0.17200000000E+03 0.  1.
         -6    1    1    2    0  502  0.85253514859E+02  0.27614337029E+03  0.20658852433E+03  0.39469753120E+03  0.17200000000E+03 0.  1.
</event>
<event>
 4    1  0.4475741E+000  0.1740586E+03  0.7818608E-02  0.1173680E+00
         21   -1    0    0  501  502  0.00000000000E+00  0.00000000000E+00  0.35022134324E+03  0.35022134324E+03  0.00000000000E+00 0. -1.
         21   -1    0    0  502  503 -0.00000000000E+00 -0.00000000000E+00 -0.10448673803E+03  0.10448673803E+03  0.00000000000E+00 0. -1.
          6    1    1    2  501    0 -0.23733065182E+02  0.12212370833E+02  0.21718008924E+03  0.27832281894E+03  0.17200000000E+03 0. -1.
         -6    1    1    2    0  503  0.23733065182E+02 -0.12212370833E+02  0.28554515970E+02  0.17638526233E+03  0.17200000000E+03 0. -1.
</event>
<event>
 4    1  0.4475741E+000  0.1934001E+03  0.7818608E-02  0.1155430E+00
         21   -1    0    0  501  502  0.00000000000E+00  0.00000000000E+00  0.32392173818E+03  0.32392173818E+03  0.00000000000E+00 0. -1.
         21   -1    0    0  502  503 -0.00000000000E+00 -0.00000000000E+00 -0.13664234233E+03  0.13664234233E+03  0.00000000000E+00 0. -1.
          6    1    1    2  501    0  0.55376983337E+02 -0.68941909540E+02  0.18428403191E+03  0.26714078983E+03  0.17200000000E+03 0. -1.
         -6    1    1    2    0  503 -0.55376983337E+02  0.68941909540E+02  0.29953639400E+01  0.19342329069E+03  0.17200000000E+03 0. -1.
</event>
<event>
 4    1  0.4475741E+000  0.1853974E+03  0.7818608E-02  0.1162679E+00
         21   -1    0    0  501  502  0.00000000000E+00  0.00000000000E+00  0.70203389991E+03  0.70203389991E+03  0.00000000000E+00 0. -1.
         21   -1    0    0  502  503 -0.00000000000E+00 -0.00000000000E+00 -0.51164829954E+02  0.51164829954E+02  0.00000000000E+00 0.  1.
          6    1    1    2  501    0 -0.51246805453E+02  0.46496784258E+02  0.40359664879E+03  0.44414236561E+03  0.17200000000E+03 0.  1.
         -6    1    1    2    0  503  0.51246805453E+02 -0.46496784258E+02  0.24727242116E+03  0.30905636425E+03  0.17200000000E+03 0. -1.
</event>
<event>
 4    1  0.4475741E+000  0.1899842E+03  0.7818608E-02  0.1158476E+00
         21   -1    0    0  501  502  0.00000000000E+00  0.00000000000E+00  0.24893785513E+02  0.24893785513E+02  0.00000000000E+00 0.  1.
         21   -1    0    0  502  503 -0.00000000000E+00 -0.00000000000E+00 -0.14697203024E+04  0.14697203024E+04  0.00000000000E+00 0.  1.
          6    1    1    2  501    0 -0.39535802404E+02 -0.70334266187E+02 -0.63567283737E+03  0.66345606097E+03  0.17200000000E+03 0.  1.
         -6    1    1    2    0  503  0.39535802404E+02  0.70334266187E+02 -0.80915367951E+03  0.83115802693E+03  0.17200000000E+03 0.  1.
</event>
<event>
 4    1  0.4475741E+000  0.1721889E+03  0.7818608E-02  0.1175584E+00
         21   -1    0    0  503  502  0.00000000000E+00  0.00000000000E+00  0.14562440829E+04  0.14562440829E+04  0.00000000000E+00 0.  1.
         21   -1    0    0  501  503 -0.00000000000E+00 -0.00000000000E+00 -0.21492003781E+02  0.21492003781E+02  0.00000000000E+00 0.  1.
          6    1    1    2  501    0  0.80263852936E+01 -0.75985542330E+00  0.54779808294E+03  0.57422272675E+03  0.17200000000E+03 0. -1.
         -6    1    1    2    0  502 -0.80263852936E+01  0.75985542330E+00  0.88695399622E+03  0.90351335997E+03  0.17200000000E+03 0. -1.
</event>
<event>
 4    1  0.4475741E+000  0.2096650E+03  0.7818608E-02  0.1141832E+00
         21   -1    0    0  503  502  0.00000000000E+00  0.00000000000E+00  0.45381521126E+03  0.45381521126E+03  0.00000000000E+00 0. -1.
         21   -1    0    0  501  503 -0.00000000000E+00 -0.00000000000E+00 -0.10461583268E+03  0.10461583268E+03  0.00000000000E+00 0.  1.
          6    1    1    2  501    0  0.10544956291E+03  0.57059736129E+02  0.98606064319E+02  0.23169501446E+03  0.17200000000E+03 0.  1.
         -6    1    1    2    0  502 -0.10544956291E+03 -0.57059736129E+02  0.25059331426E+03  0.32673602948E+03  0.17200000000E+03 0. -1.
</event>
<event>
 4    1  0.4475741E+000  0.5616890E+03  0.7818608E-02  0.9988240E-01
         21   -1    0    0  503  502  0.00000000000E+00  0.00000000000E+00  0.12993230015E+04  0.12993230015E+04  0.00000000000E+00 0.  1.
         21   -1    0    0  501  503 -0.00000000000E+00 -0.00000000000E+00 -0.73606808705E+03  0.73606808705E+03  0.00000000000E+00 0. -1.
          6    1    1    2  501    0  0.21378338213E+03  0.49010939267E+03 -0.55146648300E+03  0.78715299220E+03  0.17200000000E+03 0. -1.
         -6    1    1    2    0  502 -0.21378338213E+03 -0.49010939267E+03  0.11147213975E+04  0.12482380964E+04  0.17200000000E+03 0.  1.
</event>
<event>
 4    1  0.4475741E+000  0.2320551E+03  0.7818608E-02  0.1125202E+00
         21   -1    0    0  503  502  0.00000000000E+00  0.00000000000E+00  0.50999277251E+03  0.50999277251E+03  0.00000000000E+00 0.  1.
         21   -1    0    0  501  503 -0.00000000000E+00 -0.00000000000E+00 -0.10980611834E+03  0.10980611834E+03  0.00000000000E+00 0.  1.
          6    1    1    2  501    0 -0.15508073453E+03  0.14681382307E+02  0.13936092815E+03  0.27068624920E+03  0.17200000000E+03 0.  1.
         -6    1    1    2    0  502  0.15508073453E+03 -0.14681382307E+02  0.26082572601E+03  0.34911264165E+03  0.17200000000E+03 0.  1.
</event>
<event>
 4    1  0.4475741E+000  0.1934927E+03  0.7818608E-02  0.1155348E+00
         21   -1    0    0  501  502  0.00000000000E+00  0.00000000000E+00  0.82142402870E+02  0.82142402870E+02  0.00000000000E+00 0.  1.
         21   -1    0    0  502  503 -0.00000000000E+00 -0.00000000000E+00 -0.45834373977E+03  0.45834373977E+03  0.00000000000E+00 0.  1.
          6    1    1    2  501    0  0.78469832861E+02 -0.41205752976E+02 -0.20828494411E+03  0.28429218542E+03  0.17200000000E+03 0. -1.
         -6    1    1    2    0  503 -0.78469832861E+02  0.41205752976E+02 -0.16791639279E+03  0.25619395722E+03  0.17200000000E+03 0. -1.
</event>
<event>
 4    1  0.4475741E+000  0.2103386E+03  0.7818608E-02  0.1141298E+00
         21   -1    0    0  501  502  0.00000000000E+00  0.00000000000E+00  0.81249372093E+02  0.81249372093E+02  0.00000000000E+00 0.  1.
         21   -1    0    0  502  503 -0.00000000000E+00 -0.00000000000E+00 -0.55097355476E+03  0.55097355476E+03  0.00000000000E+00 0.  1.
          6    1    1    2  501    0  0.12094268836E+03  0.55841372765E+01 -0.26906044402E+03  0.34151989546E+03  0.17200000000E+03 0. -1.
         -6    1    1    2    0  503 -0.12094268836E+03 -0.55841372765E+01 -0.20066373865E+03  0.29070303140E+03  0.17200000000E+03 0. -1.
</event>
<event>
 4    1  0.4475741E+000  0.1771816E+03  0.7818608E-02  0.1170559E+00
         21   -1    0    0  503  502  0.00000000000E+00  0.00000000000E+00  0.43819198624E+02  0.43819198624E+02  0.00000000000E+00 0. -1.
         21   -1    0    0  501  503 -0.00000000000E+00 -0.00000000000E+00 -0.75135464928E+03  0.75135464928E+03  0.00000000000E+00 0. -1.
          6    1    1    2  501    0  0.36558900531E+02 -0.21742990838E+02 -0.43948860963E+03  0.47386026300E+03  0.17200000000E+03 0. -1.
         -6    1    1    2    0  502 -0.36558900531E+02  0.21742990838E+02 -0.26804684103E+03  0.32131358490E+03  0.17200000000E+03 0. -1.
</event>
<event>
 4    1  0.4475741E+000  0.1738519E+03  0.7818608E-02  0.1173889E+00
         21   -1    0    0  503  502  0.00000000000E+00  0.00000000000E+00  0.57914258073E+03  0.57914258073E+03  0.00000000000E+00 0.  1.
         21   -1    0    0  501  503 -0.00000000000E+00 -0.00000000000E+00 -0.22682322425E+03  0.22682322425E+03  0.00000000000E+00 0.  1.
          6    1    1    2  501    0 -0.14161416406E+02  0.20974603000E+02 -0.17743716818E+03  0.24841181199E+03  0.17200000000E+03 0.  1.
         -6    1    1    2    0  502  0.14161416406E+02 -0.20974603000E+02  0.52975652466E+03  0.55755399300E+03  0.17200000000E+03 0.  1.
</event>
<event>
 4    1  0.4475741E+000  0.2326854E+03  0.7818608E-02  0.1124764E+00
         21   -1    0    0  503  502  0.00000000000E+00  0.00000000000E+00  0.37566646215E+02  0.37566646215E+02  0.00000000000E+00 0.  1.
         21   -1    0    0  501  503 -0.00000000000E+00 -0.00000000000E+00 -0.17700119123E+04  0.17700119123E+04  0.00000000000E+00 0. -1.
          6    1    1    2  501    0  0.10903660596E+03 -0.11255893240E+03 -0.12557405805E+04  0.12771166353E+04  0.17200000000E+03 0. -1.
         -6    1    1    2    0  502 -0.10903660596E+03  0.11255893240E+03 -0.47670468561E+03  0.53046192321E+03  0.17200000000E+03 0.  1.
</event>
<event>
 4    1  0.4475741E+000  0.2544906E+03  0.7818608E-02  0.1110499E+00
         21   -1    0    0  503  502  0.00000000000E+00  0.00000000000E+00  0.11952148305E+03  0.11952148305E+03  0.00000000000E+00 0. -1.
         21   -1    0    0  501  503 -0.00000000000E+00 -0.00000000000E+00 -0.62780369805E+03  0.62780369805E+03  0.00000000000E+00 0.  1.
          6    1    1    2  501    0  0.89547466208E+02 -0.16481117369E+03 -0.39238364776E+03  0.46768621821E+03  0.17200000000E+03 0.  1.
         -6    1    1    2    0  502 -0.89547466208E+02  0.16481117369E+03 -0.11589856724E+03  0.27963896289E+03  0.17200000000E+03 0. -1.
</event>
<event>
 4    1  0.4475741E+000  0.2073368E+03  0.7818608E-02  0.1143693E+00
         21   -1    0    0  503  502  0.00000000000E+00  0.00000000000E+00  0.12809837316E+04  0.12809837316E+04  0.00000000000E+00 0.  1.
         21   -1    0    0  501  503 -0.00000000000E+00 -0.00000000000E+00 -0.33603653275E+02  0.33603653275E+02  0.00000000000E+00 0.  1.
          6    1    1    2  501    0  0.11252268095E+03  0.27261307751E+02  0.64765046151E+03  0.68002915594E+03  0.17200000000E+03 0.  1.
         -6    1    1    2    0  502 -0.11252268095E+03 -0.27261307751E+02  0.59972961680E+03  0.63455822893E+03  0.17200000000E+03 0.  1.
</event>
<event>
 4    1  0.4475741E+000  0.2873362E+03  0.7818608E-02  0.1091748E+00
         21   -1    0    0  503  502  0.00000000000E+00  0.00000000000E+00  0.31457371141E+03  0.31457371141E+03  0.00000000000E+00 0.  1.
         21   -1    0    0  501  503 -0.00000000000E+00 -0.00000000000E+00 -0.26644009674E+03  0.26644009674E+03  0.00000000000E+00 0.  1.
          6    1    1    2  501    0 -0.27052881330E+02 -0.22857440145E+03 -0.11452106356E+02  0.28756436867E+03  0.17200000000E+03 0.  1.
         -6    1    1    2    0  502  0.27052881330E+02  0.22857440145E+03  0.59585721025E+02  0.29344943949E+03  0.17200000000E+03 0.  1.
</event>
<event>
 4    1  0.4475741E+000  0.1963908E+03  0.7818608E-02  0.1152820E+00
         21   -1    0    0  501  502  0.00000000000E+00  0.00000000000E+00  0.11569857101E+03  0.11569857101E+03  0.00000000000E+00 0. -1.
         21   -1    0    0  502  503 -0.00000000000E+00 -0.00000000000E+00 -0.69640969799E+03  0.69640969799E+03  0.00000000000E+00 0. -1.
          6    1    1    2  501    0 -0.84665042208E+02  0.42628455024E+02  0.28243171259E+01  0.19641112829E+03  0.17200000000E+03 0. -1.
         -6    1    1    2    0  503  0.84665042208E+02 -0.42628455024E+02 -0.58353544410E+03  0.61569714070E+03  0.17200000000E+03 0. -1.
</event>
<event>
 4    1  0.4475741E+000  0.1788579E+03  0.7818608E-02  0.1168913E+00
         21   -1    0    0  503  502  0.00000000000E+00  0.00000000000E+00  0.13318039076E+03  0.13318039076E+03  0.00000000000E+00 0. -1.
         21   -1    0    0  501  503 -0.00000000000E+00 -0.00000000000E+00 -0.29511904540E+03  0.29511904540E+03  0.00000000000E+00 0. -1.
          6    1    1    2  501    0 -0.25233975308E+02  0.42064356191E+02 -0.17334836620E+03  0.24907793888E+03  0.17200000000E+03 0. -1.
         -6    1    1    2    0  502  0.25233975308E+02 -0.42064356191E+02  0.11409711548E+02  0.17922149729E+03  0.17200000000E+03 0. -1.
</event>
<event>
 4    1  0.4475741E+000  0.1869134E+03  0.7818608E-02  0.1161275E+00
         21   -1    0    0  503  502  0.00000000000E+00  0.00000000000E+00  0.10806686722E+04  0.10806686722E+04  0.00000000000E+00 0. -1.
         21   -1    0    0  501  503 -0.00000000000E+00 -0.00000000000E+00 -0.32907964803E+02  0.32907964803E+02  0.00000000000E+00 0.  1.
          6    1    1    2  501    0  0.71693126520E+02  0.14584946880E+02  0.45000933414E+03  0.48728331172E+03  0.17200000000E+03 0.  1.
         -6    1    1    2    0  502 -0.71693126520E+02 -0.14584946880E+02  0.59775137324E+03  0.62629332527E+03  0.17200000000E+03 0. -1.
</event>
<event>
 4    1  0.4475741E+000  0.2281180E+03  0.7818608E-02  0.1127971E+00
         21   -1    0    0  501  502  0.00000000000E+00  0.00000000000E+00  0.86159134538E+02  0.86159134538E+02  0.00000000000E+00 0. -1.
         21   -1    0    0  502  503 -0.00000000000E+00 -0.00000000000E+00 -0.73136716287E+03  0.73136716287E+03  0.00000000000E+00 0. -1.
          6    1    1    2  501    0 -0.13298751363E+03 -0.69051774465E+02 -0.15200438923E+03  0.27412252859E+03  0.17200000000E+03 0. -1.
         -6    1    1    2    0  503  0.13298751363E+03  0.69051774465E+02 -0.49320363910E+03  0.54340376882E+03  0.17200000000E+03 0. -1.
</event>
<event>
 4    1  0.4475741E+000  0.3032538E+03  0.7818608E-02  0.1083625E+00
         21   -1    0    0  501  502  0.00000000000E+00  0.00000000000E+00  0.40571339951E+03  0.40571339951E+03  0.00000000000E+00 0. -1.
         21   -1    0    0  502  503 -0.00000000000E+00 -0.00000000000E+00 -0.23037445948E+03  0.23037445948E+03  0.00000000000E+00 0.  1.
          6    1    1    2  501    0  0.24784592586E+03 -0.30842110732E+02  0.12800277349E+03  0.32916188841E+03  0.17200000000E+03 0. -1.
         -6    1    1    2    0  503 -0.24784592586E+03  0.30842110732E+02  0.47336166539E+02  0.30692597059E+03  0.17200000000E+03 0.  1.
</event>
<event>
 4    1  0.4475741E+000  0.1728024E+03  0.7818608E-02  0.1174957E+00
         21   -1    0    0  501  502  0.00000000000E+00  0.00000000000E+00  0.10231377296E+03  0.10231377296E+03  0.00000000000E+00 0. -1.
         21   -1    0    0  502  503 -0.00000000000E+00 -0.00000000000E+00 -0.39374655068E+03  0.39374655068E+03  0.00000000000E+00 0. -1.
          6    1    1    2  501    0  0.15054174149E+02  0.70739186249E+01 -0.27188974450E+03  0.32215633107E+03  0.17200000000E+03 0. -1.
         -6    1    1    2    0  503 -0.15054174149E+02 -0.70739186249E+01 -0.19543033218E+02  0.17390399257E+03  0.17200000000E+03 0. -1.
</event>
<event>
 4    1  0.4475741E+000  0.1775661E+03  0.7818608E-02  0.1170180E+00
         21   -1    0    0  501  502  0.00000000000E+00  0.00000000000E+00  0.34867818988E+03  0.34867818988E+03  0.00000000000E+00 0. -1.
         21   -1    0    0  502  503 -0.00000000000E+00 -0.00000000000E+00 -0.17310754364E+03  0.17310754364E+03  0.00000000000E+00 0.  1.
          6    1    1    2  501    0  0.42473871996E+02 -0.11902968546E+02  0.26809019773E+03  0.32156191408E+03  0.17200000000E+03 0. -1.
         -6    1    1    2    0  503 -0.42473871996E+02  0.11902968546E+02 -0.92519551492E+02  0.20022381944E+03  0.17200000000E+03 0.  1.
</event>
<event>
 4    1  0.4475741E+000  0.1947689E+03  0.7818608E-02  0.1154229E+00
         21   -1    0    0  501  502  0.00000000000E+00  0.00000000000E+00  0.63007974040E+03  0.63007974040E+03  0.00000000000E+00 0.  1.
         21   -1    0    0  502  503 -0.00000000000E+00 -0.00000000000E+00 -0.62012995912E+02  0.62012995912E+02  0.00000000000E+00 0.  1.
          6    1    1    2  501    0  0.87235966908E+02 -0.27217672560E+02  0.22497143793E+03  0.29756858622E+03  0.17200000000E+03 0.  1.
         -6    1    1    2    0  503 -0.87235966908E+02  0.27217672560E+02  0.34309530656E+03  0.39452415009E+03  0.17200000000E+03 0.  1.
</event>
<event>
 4    1  0.4475741E+000  0.5756308E+03  0.7818608E-02  0.9957295E-01
         21   -1    0    0  501  502  0.00000000000E+00  0.00000000000E+00  0.51852400177E+03  0.51852400177E+03  0.00000000000E+00 0.  1.
         21   -1    0    0  502  503 -0.00000000000E+00 -0.00000000000E+00 -0.64078343481E+03  0.64078343481E+03  0.00000000000E+00 0. -1.
          6    1    1    2  501    0 -0.39942614061E+03 -0.37712802759E+03 -0.30781020199E+02  0.57645317434E+03  0.17200000000E+03 0.  1.
         -6    1    1    2    0  503  0.39942614061E+03  0.37712802759E+03 -0.91478412850E+02  0.58285426224E+03  0.17200000000E+03 0. -1.
</event>
<event>
 4    1  0.4475741E+000  0.1844835E+03  0.7818608E-02  0.1163533E+00
         21   -1    0    0  503  502  0.00000000000E+00  0.00000000000E+00  0.81106184060E+02  0.81106184060E+02  0.00000000000E+00 0. -1.
         21   -1    0    0  501  503 -0.00000000000E+00 -0.00000000000E+00 -0.42216714545E+03  0.42216714545E+03  0.00000000000E+00 0.  1.
          6    1    1    2  501    0 -0.73851702506E+01  0.66299453394E+02 -0.15100249649E+03  0.23840283598E+03  0.17200000000E+03 0. -1.
         -6    1    1    2    0  502  0.73851702506E+01 -0.66299453394E+02 -0.19005846490E+03  0.26487049353E+03  0.17200000000E+03 0.  1.
</event>
<event>
 4    1  0.4475741E+000  0.2001763E+03  0.7818608E-02  0.1149590E+00
         21   -1    0    0  503  502  0.00000000000E+00  0.00000000000E+00  0.22116872321E+03  0.22116872321E+03  0.00000000000E+00 0. -1.
         21   -1    0    0  501  503 -0.00000000000E+00 -0.00000000000E+00 -0.27718764340E+03  0.27718764340E+03  0.00000000000E+00 0. -1.
          6    1    1    2  501    0  0.54682465941E+02  0.86581623842E+02 -0.17466016804E+03  0.26566280125E+03  0.17200000000E+03 0. -1.
         -6    1    1    2    0  502 -0.54682465941E+02 -0.86581623842E+02  0.11864124785E+03  0.23269356536E+03  0.17200000000E+03 0. -1.
</event>
<event>
 4    1  0.4475741E+000  0.2038085E+03  0.7818608E-02  0.1146565E+00
         21   -1    0    0  503  502  0.00000000000E+00  0.00000000000E+00  0.14116523016E+03  0.14116523016E+03  0.00000000000E+00 0. -1.
         21   -1    0    0  501  503 -0.00000000000E+00 -0.00000000000E+00 -0.31296628775E+03  0.31296628775E+03  0.00000000000E+00 0. -1.
          6    1    1    2  501    0  0.85350489234E+02  0.68331620736E+02 -0.14142811919E+03  0.24807222598E+03  0.17200000000E+03 0. -1.
         -6    1    1    2    0  502 -0.85350489234E+02 -0.68331620736E+02 -0.30372938398E+02  0.20605929193E+03  0.17200000000E+03 0. -1.
</event>
<event>
 4    1  0.4475741E+000  0.1758708E+03  0.7818608E-02  0.1171860E+00
         21   -1    0    0  501  502  0.00000000000E+00  0.00000000000E+00  0.19321434371E+03  0.19321434371E+03  0.00000000000E+00 0. -1.
         21   -1    0    0  502  503 -0.00000000000E+00 -0.00000000000E+00 -0.10505514196E+04  0.10505514196E+04  0.00000000000E+00 0. -1.
          6    1    1    2  501    0 -0.12218603625E+02 -0.34601394936E+02  0.14387554380E+03  0.22722394880E+03  0.17200000000E+03 0. -1.
         -6    1    1    2    0  503  0.12218603625E+02  0.34601394936E+02 -0.10012126197E+04  0.10165418145E+04  0.17200000000E+03 0. -1.
</event>
<event>
 4    1  0.4475741E+000  0.1814960E+03  0.7818608E-02  0.1166363E+00
         21   -1    0    0  503  502  0.00000000000E+00  0.00000000000E+00  0.14286848560E+03  0.14286848560E+03  0.00000000000E+00 0.  1.
         21   -1    0    0  501  503 -0.00000000000E+00 -0.00000000000E+00 -0.36109553156E+03  0.36109553156E+03  0.00000000000E+00 0.  1.
          6    1    1    2  501    0  0.47034349516E+02  0.33831716655E+02 -0.26061279260E+03  0.31758438683E+03  0.17200000000E+03 0.  1.
         -6    1    1    2    0  502 -0.47034349516E+02 -0.33831716655E+02  0.42385746647E+02  0.18637963034E+03  0.17200000000E+03 0.  1.
</event>
<event>
 4    1  0.4475741E+000  0.1753481E+03  0.7818608E-02  0.1172383E+00
         21   -1    0    0  501  502  0.00000000000E+00  0.00000000000E+00  0.45571106122E+03  0.45571106122E+03  0.00000000000E+00 0. -1.
         21   -1    0    0  502  503 -0.00000000000E+00 -0.00000000000E+00 -0.22092465222E+03  0.22092465222E+03  0.00000000000E+00 0. -1.
          6    1    1    2  501    0  0.13672957012E+02  0.31241176385E+02  0.39935641024E+03  0.43615651234E+03  0.17200000000E+03 0. -1.
         -6    1    1    2    0  503 -0.13672957012E+02 -0.31241176385E+02 -0.16457000123E+03  0.24047920110E+03  0.17200000000E+03 0. -1.
</event>
<event>
 4    1  0.4475741E+000  0.1993735E+03  0.7818608E-02  0.1150269E+00
         21   -1    0    0  503  502  0.00000000000E+00  0.00000000000E+00  0.29874847966E+03  0.29874847966E+03  0.00000000000E+00 0. -1.
         21   -1    0    0  501  503 -0.00000000000E+00 -0.00000000000E+00 -0.24957768467E+03  0.24957768467E+03  0.00000000000E+00 0.  1.
          6    1    1    2  501    0 -0.97792189504E+02  0.24545141598E+02 -0.16274687579E+03  0.25736418143E+03  0.17200000000E+03 0.  1.
         -6    1    1    2    0  502  0.97792189504E+02 -0.24545141598E+02  0.21191767078E+03  0.29096198290E+03  0.17200000000E+03 0. -1.
</event>
<event>
 4    1  0.4475741E+000  0.2319626E+03  0.7818608E-02  0.1125266E+00
         21   -1    0    0  501  502  0.00000000000E+00  0.00000000000E+00  0.61185407711E+02  0.61185407711E+02  0.00000000000E+00 0. -1.
         21   -1    0    0  502  503 -0.00000000000E+00 -0.00000000000E+00 -0.10505594434E+04  0.10505594434E+04  0.00000000000E+00 0.  1.
          6    1    1    2  501    0 -0.14645267403E+03 -0.52671162860E+02 -0.27031881089E+03  0.35620064100E+03  0.17200000000E+03 0. -1.
         -6    1    1    2    0  503  0.14645267403E+03  0.52671162860E+02 -0.71905522483E+03  0.75554421014E+03  0.17200000000E+03 0.  1.
</event>
<event>
 4    1  0.4475741E+000  0.3071550E+03  0.7818608E-02  0.1081718E+00
         21   -1    0    0  501  502  0.00000000000E+00  0.00000000000E+00  0.25294694028E+03  0.25294694028E+03  0.00000000000E+00 0.  1.
         21   -1    0    0  502  503 -0.00000000000E+00 -0.00000000000E+00 -0.42973861695E+03  0.42973861695E+03  0.00000000000E+00 0. -1.
          6    1    1    2  501    0  0.35869641763E+01  0.25445500945E+03  0.35656054930E+02  0.30921767802E+03  0.17200000000E+03 0.  1.
         -6    1    1    2    0  503 -0.35869641763E+01 -0.25445500945E+03 -0.21244773160E+03  0.37346787922E+03  0.17200000000E+03 0. -1.
</event>
<event>
 4    1  0.4475741E+000  0.2536277E+03  0.7818608E-02  0.1111033E+00
         21   -1    0    0  501  502  0.00000000000E+00  0.00000000000E+00  0.90460178301E+02  0.90460178301E+02  0.00000000000E+00 0.  1.
         21   -1    0    0  502  503 -0.00000000000E+00 -0.00000000000E+00 -0.81817916634E+03  0.81817916634E+03  0.00000000000E+00 0. -1.
          6    1    1    2  501    0 -0.14907686325E+03 -0.11188878655E+03 -0.19950848968E+03  0.32269280929E+03  0.17200000000E+03 0.  1.
         -6    1    1    2    0  503  0.14907686325E+03  0.11188878655E+03 -0.52821049836E+03  0.58594653535E+03  0.17200000000E+03 0. -1.
</event>
<event>
 4    1  0.4475741E+000  0.2973132E+03  0.7818608E-02  0.1086591E+00
         21   -1    0    0  503  502  0.00000000000E+00  0.00000000000E+00  0.10248825096E+03  0.10248825096E+03  0.00000000000E+00 0.  1.
         21   -1    0    0  501  503 -0.00000000000E+00 -0.00000000000E+00 -0.87697200370E+03  0.87697200370E+03  0.00000000000E+00 0. -1.
          6    1    1    2  501    0 -0.74056660035E+02 -0.23092588229E+03 -0.32431017961E+03  0.43996845865E+03  0.17200000000E+03 0.  1.
         -6    1    1    2    0  502  0.74056660035E+02  0.23092588229E+03 -0.45017357313E+03  0.53949179600E+03  0.17200000000E+03 0. -1.
</event>
<event>
 4    1  0.4475741E+000  0.2197812E+03  0.7818608E-02  0.1134046E+00
         21   -1    0    0  503  502  0.00000000000E+00  0.00000000000E+00  0.46866393910E+02  0.46866393910E+02  0.00000000000E+00 0.  1.
         21   -1    0    0  501  503 -0.00000000000E+00 -0.00000000000E+00 -0.17253839493E+04  0.17253839493E+04  0.00000000000E+00 0.  1.
          6    1    1    2  501    0  0.12452902231E+03 -0.56676982142E+02 -0.14015423514E+04  0.14186700534E+04  0.17200000000E+03 0.  1.
         -6    1    1    2    0  502 -0.12452902231E+03  0.56676982142E+02 -0.27697520400E+03  0.35358028979E+03  0.17200000000E+03 0.  1.
</event>
<event>
 4    1  0.4475741E+000  0.1824855E+03  0.7818608E-02  0.1165419E+00
         21   -1    0    0  501  502  0.00000000000E+00  0.00000000000E+00  0.17353131997E+03  0.17353131997E+03  0.00000000000E+00 0. -1.
         21   -1    0    0  502  503 -0.00000000000E+00 -0.00000000000E+00 -0.21841692234E+03  0.21841692234E+03  0.00000000000E+00 0.  1.
          6    1    1    2  501    0  0.37060924244E+02 -0.48409289666E+02  0.45838605489E+02  0.18815458853E+03  0.17200000000E+03 0.  1.
         -6    1    1    2    0  503 -0.37060924244E+02  0.48409289666E+02 -0.90724207854E+02  0.20379365378E+03  0.17200000000E+03 0. -1.
</event>
<event>
 4    1  0.4475741E+000  0.2246431E+03  0.7818608E-02  0.1130468E+00
         21   -1    0    0  503  502  0.00000000000E+00  0.00000000000E+00  0.19847527464E+03  0.19847527464E+03  0.00000000000E+00 0.  1.
         21   -1    0    0  501  503 -0.00000000000E+00 -0.00000000000E+00 -0.29198917671E+03  0.29198917671E+03  0.00000000000E+00 0.  1.
          6    1    1    2  501    0  0.11446534881E+03  0.88194129374E+02  0.41394021595E+02  0.22842501080E+03  0.17200000000E+03 0.  1.
         -6    1    1    2    0  502 -0.11446534881E+03 -0.88194129374E+02 -0.13490792366E+03  0.26203944055E+03  0.17200000000E+03 0.  1.
</event>
<event>
 4    1  0.4475741E+000  0.1823911E+03  0.7818608E-02  0.1165509E+00
         21   -1    0    0  501  502  0.00000000000E+00  0.00000000000E+00  0.17897300838E+03  0.17897300838E+03  0.00000000000E+00 0. -1.
         21   -1    0    0  502  503 -0.00000000000E+00 -0.00000000000E+00 -0.20548004334E+03  0.20548004334E+03  0.00000000000E+00 0. -1.
          6    1    1    2  501    0 -0.59982119929E+02  0.92010404337E+01  0.46123477978E+02  0.18813263693E+03  0.17200000000E+03 0. -1.
         -6    1    1    2    0  503  0.59982119929E+02 -0.92010404337E+01 -0.72630512938E+02  0.19632041480E+03  0.17200000000E+03 0. -1.
</event>
<event>
 4    1  0.4475741E+000  0.2907392E+03  0.7818608E-02  0.1089964E+00
         21   -1    0    0  503  502  0.00000000000E+00  0.00000000000E+00  0.10739530529E+04  0.10739530529E+04  0.00000000000E+00 0.  1.
         21   -1    0    0  501  503 -0.00000000000E+00 -0.00000000000E+00 -0.95099819881E+02  0.95099819881E+02  0.00000000000E+00 0.  1.
          6    1    1    2  501    0 -0.10234958584E+03 -0.21087875248E+03  0.24675407936E+03  0.38133562861E+03  0.17200000000E+03 0.  1.
         -6    1    1    2    0  502  0.10234958584E+03  0.21087875248E+03  0.73209915369E+03  0.78771724420E+03  0.17200000000E+03 0.  1.
</event>
<event>
 4    1  0.4475741E+000  0.2010579E+03  0.7818608E-02  0.1148850E+00
         21   -1    0    0  501  502  0.00000000000E+00  0.00000000000E+00  0.19186522103E+03  0.19186522103E+03  0.00000000000E+00 0.  1.
         21   -1    0    0  502  503 -0.00000000000E+00 -0.00000000000E+00 -0.27676663057E+03  0.27676663057E+03  0.00000000000E+00 0. -1.
          6    1    1    2  501    0  0.94374300815E+02 -0.43974497725E+02  0.72038826318E+02  0.21357400966E+03  0.17200000000E+03 0.  1.
         -6    1    1    2    0  503 -0.94374300815E+02  0.43974497725E+02 -0.15694023586E+03  0.25505784194E+03  0.17200000000E+03 0.  1.
</event>
<event>
 4    1  0.4475741E+000  0.2378337E+03  0.7818608E-02  0.1121244E+00
         21   -1    0    0  503  502  0.00000000000E+00  0.00000000000E+00  0.10511236074E+03  0.10511236074E+03  0.00000000000E+00 0.  1.
         21   -1    0    0  501  503 -0.00000000000E+00 -0.00000000000E+00 -0.56446829508E+03  0.56446829508E+03  0.00000000000E+00 0.  1.
          6    1    1    2  501    0  0.97431689905E+01  0.16396929395E+03 -0.15736959403E+03  0.28518423489E+03  0.17200000000E+03 0.  1.
         -6    1    1    2    0  502 -0.97431689905E+01 -0.16396929395E+03 -0.30198634031E+03  0.38439642094E+03  0.17200000000E+03 0.  1.
</event>
<event>
 4    1  0.4475741E+000  0.4501914E+03  0.7818608E-02  0.1027665E+00
         21   -1    0    0  501  502  0.00000000000E+00  0.00000000000E+00  0.81021039284E+03  0.81021039284E+03  0.00000000000E+00 0. -1.
         21   -1    0    0  502  503 -0.00000000000E+00 -0.00000000000E+00 -0.11321450540E+04  0.11321450540E+04  0.00000000000E+00 0. -1.
          6    1    1    2  501    0  0.28572046660E+03 -0.30241054208E+03  0.69623096697E+03  0.82910185162E+03  0.17200000000E+03 0. -1.
         -6    1    1    2    0  503 -0.28572046660E+03  0.30241054208E+03 -0.10181656282E+04  0.11132535953E+04  0.17200000000E+03 0. -1.
</event>
<event>
 4    1  0.4475741E+000  0.3320014E+03  0.7818608E-02  0.1070255E+00
         21   -1    0    0  503  502  0.00000000000E+00  0.00000000000E+00  0.13183172827E+03  0.13183172827E+03  0.00000000000E+00 0.  1.
         21   -1    0    0  501  503 -0.00000000000E+00 -0.00000000000E+00 -0.12464982884E+04  0.12464982884E+04  0.00000000000E+00 0. -1.
          6    1    1    2  501    0  0.17346327776E+03  0.22483641579E+03 -0.95277135359E+03  0.10089589560E+04  0.17200000000E+03 0. -1.
         -6    1    1    2    0  502 -0.17346327776E+03 -0.22483641579E+03 -0.16189520656E+03  0.36937106073E+03  0.17200000000E+03 0.  1.
</event>
<event>
 4    1  0.4475741E+000  0.2552670E+03  0.7818608E-02  0.1110021E+00
         21   -1    0    0  501  502  0.00000000000E+00  0.00000000000E+00  0.25966886984E+03  0.25966886984E+03  0.00000000000E+00 0. -1.
         21   -1    0    0  502  503 -0.00000000000E+00 -0.00000000000E+00 -0.25981932217E+03  0.25981932217E+03  0.00000000000E+00 0.  1.
          6    1    1    2  501    0  0.16917373109E+03 -0.83411518712E+02  0.47943074493E+02  0.25973018911E+03  0.17200000000E+03 0. -1.
         -6    1    1    2    0  503 -0.16917373109E+03  0.83411518712E+02 -0.48093526819E+02  0.25975800289E+03  0.17200000000E+03 0.  1.
</event>
<event>
 4    1  0.4475741E+000  0.1932756E+03  0.7818608E-02  0.1155540E+00
         21   -1    0    0  501  502  0.00000000000E+00  0.00000000000E+00  0.97860290848E+03  0.97860290848E+03  0.00000000000E+00 0.  1.
         21   -1    0    0  502  503 -0.00000000000E+00 -0.00000000000E+00 -0.45418896135E+02  0.45418896135E+02  0.00000000000E+00 0. -1.
          6    1    1    2  501    0 -0.83732211390E+02 -0.27574913547E+02  0.67110925030E+03  0.69838605722E+03  0.17200000000E+03 0.  1.
         -6    1    1    2    0  503  0.83732211390E+02  0.27574913547E+02  0.26207476205E+03  0.32563574740E+03  0.17200000000E+03 0. -1.
</event>
<event>
 4    1  0.4475741E+000  0.1954454E+03  0.7818608E-02  0.1153640E+00
         21   -1    0    0  503  502  0.00000000000E+00  0.00000000000E+00  0.43040043666E+03  0.43040043666E+03  0.00000000000E+00 0.  1.
         21   -1    0    0  501  503 -0.00000000000E+00 -0.00000000000E+00 -0.22417304773E+03  0.22417304773E+03  0.00000000000E+00 0. -1.
          6    1    1    2  501    0 -0.18036621784E+02 -0.91047165829E+02 -0.15126443841E+03  0.24714335204E+03  0.17200000000E+03 0. -1.
         -6    1    1    2    0  502  0.18036621784E+02  0.91047165829E+02  0.35749182734E+03  0.40743013235E+03  0.17200000000E+03 0.  1.
</event>
<event>
 4    1  0.4475741E+000  0.2905902E+03  0.7818608E-02  0.1090041E+00
         21   -1    0    0  503  502  0.00000000000E+00  0.00000000000E+00  0.94559535471E+03  0.94559535471E+03  0.00000000000E+00 0. -1.
         21   -1    0    0  501  503 -0.00000000000E+00 -0.00000000000E+00 -0.12804139640E+03  0.12804139640E+03  0.00000000000E+00 0. -1.
          6    1    1    2  501    0  0.93646042238E+02  0.21468370485E+03  0.11349711947E+03  0.31196838058E+03  0.17200000000E+03 0. -1.
         -6    1    1    2    0  502 -0.93646042238E+02 -0.21468370485E+03  0.70405683885E+03  0.76166837054E+03  0.17200000000E+03 0. -1.
</event>
<event>
 4    1  0.4475741E+000  0.4100122E+03  0.7818608E-02  0.1040367E+00
         21   -1    0    0  503  502  0.00000000000E+00  0.00000000000E+00  0.14125987624E+04  0.14125987624E+04  0.00000000000E+00 0.  1.
         21   -1    0    0  501  503 -0.00000000000E+00 -0.00000000000E+00 -0.17346145802E+03  0.17346145802E+03  0.00000000000E+00 0. -1.
          6    1    1    2  501    0  0.34518095524E+03  0.13919811532E+03  0.17524190687E+03  0.44589206440E+03  0.17200000000E+03 0. -1.
         -6    1    1    2    0  502 -0.34518095524E+03 -0.13919811532E+03  0.10638953975E+04  0.11401681561E+04  0.17200000000E+03 0.  1.
</event>
<event>
 4    1  0.4475741E+000  0.2210475E+03  0.7818608E-02  0.1133104E+00
         21   -1    0    0  501  502  0.00000000000E+00  0.00000000000E+00  0.10742801888E+04  0.10742801888E+04  0.00000000000E+00 0. -1.
         21   -1    0    0  502  503 -0.00000000000E+00 -0.00000000000E+00 -0.57045226705E+02  0.57045226705E+02  0.00000000000E+00 0. -1.
          6    1    1    2  501    0 -0.12470818956E+03  0.61040028266E+02  0.76327666110E+03  0.79464034567E+03  0.17200000000E+03 0.  1.
         -6    1    1    2    0  503  0.12470818956E+03 -0.61040028266E+02  0.25395830095E+03  0.33668506979E+03  0.17200000000E+03 0.  1.
</event>
<event>
 4    1  0.4475741E+000  0.1823510E+03  0.7818608E-02  0.1165547E+00
         21   -1    0    0  501  502  0.00000000000E+00  0.00000000000E+00  0.13434930507E+03  0.13434930507E+03  0.00000000000E+00 0.  1.
         21   -1    0    0  502  503 -0.00000000000E+00 -0.00000000000E+00 -0.40208125247E+03  0.40208125247E+03  0.00000000000E+00 0.  1.
          6    1    1    2  501    0  0.14572484858E+02  0.58783740877E+02  0.32437181980E+02  0.18521354238E+03  0.17200000000E+03 0.  1.
         -6    1    1    2    0  503 -0.14572484858E+02 -0.58783740877E+02 -0.30016912938E+03  0.35121701516E+03  0.17200000000E+03 0.  1.
</event>
<event>
 4    1  0.4475741E+000  0.2068260E+03  0.7818608E-02  0.1144104E+00
         21   -1    0    0  501  502  0.00000000000E+00  0.00000000000E+00  0.27105220438E+03  0.27105220438E+03  0.00000000000E+00 0.  1.
         21   -1    0    0  502  503 -0.00000000000E+00 -0.00000000000E+00 -0.15781947563E+03  0.15781947563E+03  0.00000000000E+00 0. -1.
          6    1    1    2  501    0 -0.11067586764E+02 -0.11432629007E+03  0.56025588944E+02  0.21427986068E+03  0.17200000000E+03 0. -1.
         -6    1    1    2    0  503  0.11067586764E+02  0.11432629007E+03  0.57207139799E+02  0.21459181933E+03  0.17200000000E+03 0.  1.
</event>
<event>
 4    1  0.4475741E+000  0.2210722E+03  0.7818608E-02  0.1133086E+00
         21   -1    0    0  503  502  0.00000000000E+00  0.00000000000E+00  0.17243739333E+03  0.17243739333E+03  0.00000000000E+00 0. -1.
         21   -1    0    0  501  503 -0.00000000000E+00 -0.00000000000E+00 -0.40683510837E+03  0.40683510837E+03  0.00000000000E+00 0.  1.
          6    1    1    2  501    0  0.34576913551E+02 -0.13451159692E+03 -0.27672080951E+03  0.35418545858E+03  0.17200000000E+03 0. -1.
         -6    1    1    2    0  502 -0.34576913551E+02  0.13451159692E+03  0.42323094466E+02  0.22508704312E+03  0.17200000000E+03 0.  1.
</event>
<event>
 4    1  0.4475741E+000  0.2174918E+03  0.7818608E-02  0.1135767E+00
         21   -1    0    0  501  502  0.00000000000E+00  0.00000000000E+00  0.60834449376E+03  0.60834449376E+03  0.00000000000E+00 0. -1.
         21   -1    0    0  502  503 -0.00000000000E+00 -0.00000000000E+00 -0.84878139224E+02  0.84878139224E+02  0.00000000000E+00 0. -1.
          6    1    1    2  501    0  0.17834905058E+02 -0.13191130992E+03  0.16133221851E+03  0.27079653294E+03  0.17200000000E+03 0. -1.
         -6    1    1    2    0  503 -0.17834905058E+02  0.13191130992E+03  0.36213413602E+03  0.42242610004E+03  0.17200000000E+03 0. -1.
</event>
<event>
 4    1  0.4475741E+000  0.2503883E+03  0.7818608E-02  0.1113060E+00
         21   -1    0    0  501  502  0.00000000000E+00  0.00000000000E+00  0.12820391515E+03  0.12820391515E+03  0.00000000000E+00 0.  1.
         21   -1    0    0  502  503 -0.00000000000E+00 -0.00000000000E+00 -0.53734031648E+03  0.53734031648E+03  0.00000000000E+00 0.  1.
          6    1    1    2  501    0  0.55275582195E+01  0.18187836339E+03 -0.30435810251E+03  0.39411692115E+03  0.17200000000E+03 0.  1.
         -6    1    1    2    0  503 -0.55275582195E+01 -0.18187836339E+03 -0.10477829882E+03  0.27142731048E+03  0.17200000000E+03 0.  1.
</event>
<event>
 4    1  0.4475741E+000  0.2055453E+03  0.7818608E-02  0.1145143E+00
         21   -1    0    0  503  502  0.00000000000E+00  0.00000000000E+00  0.10819963554E+04  0.10819963554E+04  0.00000000000E+00 0.  1.
         21   -1    0    0  501  503 -0.00000000000E+00 -0.00000000000E+00 -0.43567374297E+02  0.43567374297E+02  0.00000000000E+00 0.  1.
          6    1    1    2  501    0 -0.10972204492E+03 -0.25018587940E+02  0.33793855595E+03  0.39553928311E+03  0.17200000000E+03 0.  1.
         -6    1    1    2    0  502  0.10972204492E+03  0.25018587940E+02  0.70049042516E+03  0.73002444660E+03  0.17200000000E+03 0.  1.
</event>
<event>
 4    1  0.4475741E+000  0.2182363E+03  0.7818608E-02  0.1135205E+00
         21   -1    0    0  501  502  0.00000000000E+00  0.00000000000E+00  0.15960917815E+03  0.15960917815E+03  0.00000000000E+00 0.  1.
         21   -1    0    0  502  503 -0.00000000000E+00 -0.00000000000E+00 -0.33770344554E+03  0.33770344554E+03  0.00000000000E+00 0.  1.
          6    1    1    2  501    0  0.94361502451E+01 -0.13399261211E+03 -0.42154567778E+01  0.21827695963E+03  0.17200000000E+03 0.  1.
         -6    1    1    2    0  503 -0.94361502451E+01  0.13399261211E+03 -0.17387881061E+03  0.27903566405E+03  0.17200000000E+03 0.  1.
</event>
<event>
 4    1  0.4475741E+000  0.2669210E+03  0.7818608E-02  0.1103055E+00
         21   -1    0    0  501  502  0.00000000000E+00  0.00000000000E+00  0.42048312275E+03  0.42048312275E+03  0.00000000000E+00 0. -1.
         21   -1    0    0  502  503 -0.00000000000E+00 -0.00000000000E+00 -0.18407542837E+03  0.18407542837E+03  0.00000000000E+00 0.  1.
          6    1    1    2  501    0  0.34118834179E+02  0.20124295490E+03  0.20343679052E+03  0.33560892342E+03  0.17200000000E+03 0. -1.
         -6    1    1    2    0  503 -0.34118834179E+02 -0.20124295490E+03  0.32970903862E+02  0.26894962771E+03  0.17200000000E+03 0.  1.
</event>
<event>
 4    1  0.4475741E+000  0.1868331E+03  0.7818608E-02  0.1161349E+00
         21   -1    0    0  503  502  0.00000000000E+00  0.00000000000E+00  0.14191703155E+03  0.14191703155E+03  0.00000000000E+00 0.  1.
         21   -1    0    0  501  503 -0.00000000000E+00 -0.00000000000E+00 -0.27440159344E+03  0.27440159344E+03  0.00000000000E+00 0. -1.
          6    1    1    2  501    0 -0.46945655657E+02 -0.55845476993E+02 -0.13325263226E+03  0.22948393384E+03  0.17200000000E+03 0. -1.
         -6    1    1    2    0  502  0.46945655657E+02  0.55845476993E+02  0.76807036865E+00  0.18683469115E+03  0.17200000000E+03 0.  1.
</event>
<event>
 4    1  0.4475741E+000  0.1982839E+03  0.7818608E-02  0.1151195E+00
         21   -1    0    0  503  502  0.00000000000E+00  0.00000000000E+00  0.31651942249E+03  0.31651942249E+03  0.00000000000E+00 0.  1.
         21   -1    0    0  501  503 -0.00000000000E+00 -0.00000000000E+00 -0.21864320036E+03  0.21864320036E+03  0.00000000000E+00 0.  1.
          6    1    1    2  501    0 -0.71510559701E+02  0.67961318744E+02 -0.12691025978E+03  0.23542029444E+03  0.17200000000E+03 0.  1.
         -6    1    1    2    0  502  0.71510559701E+02 -0.67961318744E+02  0.22478648191E+03  0.29974232842E+03  0.17200000000E+03 0.  1.
</event>
<event>
 4    1  0.4475741E+000  0.1917095E+03  0.7818608E-02  0.1156928E+00
         21   -1    0    0  503  502  0.00000000000E+00  0.00000000000E+00  0.12375807346E+03  0.12375807346E+03  0.00000000000E+00 0. -1.
         21   -1    0    0  501  503 -0.00000000000E+00 -0.00000000000E+00 -0.60718991803E+03  0.60718991803E+03  0.00000000000E+00 0. -1.
          6    1    1    2  501    0 -0.72093610642E+02  0.44396274906E+02 -0.50294924616E+03  0.53824758442E+03  0.17200000000E+03 0. -1.
         -6    1    1    2    0  502  0.72093610642E+02 -0.44396274906E+02  0.19517401591E+02  0.19270040707E+03  0.17200000000E+03 0. -1.
</event>
<event>
 4    1  0.4475741E+000  0.4766610E+03  0.7818608E-02  0.1020057E+00
         21   -1    0    0  503  502  0.00000000000E+00  0.00000000000E+00  0.14970291048E+04  0.14970291048E+04  0.00000000000E+00 0.  1.
         21   -1    0    0  501  503 -0.00000000000E+00 -0.00000000000E+00 -0.16988902955E+03  0.16988902955E+03  0.00000000000E+00 0. -1.
          6    1    1    2  501    0  0.55121573133E+02  0.44111596740E+03  0.39138988890E+03  0.61675905316E+03  0.17200000000E+03 0. -1.
         -6    1    1    2    0  502 -0.55121573133E+02 -0.44111596740E+03  0.93575018632E+03  0.10501590812E+04  0.17200000000E+03 0.  1.
</event>
<event>
 4    1  0.4475741E+000  0.1803787E+03  0.7818608E-02  0.1167437E+00
         21   -1    0    0  503  502  0.00000000000E+00  0.00000000000E+00  0.26713402992E+03  0.26713402992E+03  0.00000000000E+00 0. -1.
         21   -1    0    0  501  503 -0.00000000000E+00 -0.00000000000E+00 -0.17127451171E+03  0.17127451171E+03  0.00000000000E+00 0. -1.
          6    1    1    2  501    0 -0.30322685195E+01 -0.54252155075E+02 -0.69885224987E+02  0.19344362397E+03  0.17200000000E+03 0. -1.
         -6    1    1    2    0  502  0.30322685195E+01  0.54252155075E+02  0.16574474320E+03  0.24496491765E+03  0.17200000000E+03 0. -1.
</event>
<event>
 4    1  0.4475741E+000  0.2035483E+03  0.7818608E-02  0.1146779E+00
         21   -1    0    0  503  502  0.00000000000E+00  0.00000000000E+00  0.14374936771E+04  0.14374936771E+04  0.00000000000E+00 0. -1.
         21   -1    0    0  501  503 -0.00000000000E+00 -0.00000000000E+00 -0.32849464614E+02  0.32849464614E+02  0.00000000000E+00 0.  1.
          6    1    1    2  501    0 -0.10884795718E+03 -0.12270584536E+00  0.44491321651E+03  0.48926441018E+03  0.17200000000E+03 0.  1.
         -6    1    1    2    0  502  0.10884795718E+03  0.12270584536E+00  0.95973099597E+03  0.98107873153E+03  0.17200000000E+03 0. -1.
</event>
<event>
 4    1  0.4475741E+000  0.1737404E+03  0.7818608E-02  0.1174002E+00
         21   -1    0    0  503  502  0.00000000000E+00  0.00000000000E+00  0.77032254275E+02  0.77032254275E+02  0.00000000000E+00 0.  1.
         21   -1    0    0  501  503 -0.00000000000E+00 -0.00000000000E+00 -0.52097994991E+03  0.52097994991E+03  0.00000000000E+00 0.  1.
          6    1    1    2  501    0 -0.22579506593E+02 -0.95853854346E+01 -0.37083089370E+03  0.40951344967E+03  0.17200000000E+03 0.  1.
         -6    1    1    2    0  502  0.22579506593E+02  0.95853854346E+01 -0.73116801936E+02  0.18849875452E+03  0.17200000000E+03 0.  1.
</event>
<event>
 4    1  0.4475741E+000  0.1764133E+03  0.7818608E-02  0.1171320E+00
         21   -1    0    0  501  502  0.00000000000E+00  0.00000000000E+00  0.10307450137E+03  0.10307450137E+03  0.00000000000E+00 0. -1.
         21   -1    0    0  502  503 -0.00000000000E+00 -0.00000000000E+00 -0.50909447398E+03  0.50909447398E+03  0.00000000000E+00 0. -1.
          6    1    1    2  501    0 -0.34211359506E+02 -0.19163103900E+02 -0.77576971752E+01  0.17658375785E+03  0.17200000000E+03 0. -1.
         -6    1    1    2    0  503  0.34211359506E+02  0.19163103900E+02 -0.39826227543E+03  0.43558521750E+03  0.17200000000E+03 0. -1.
</event>
<event>
 4    1  0.4475741E+000  0.2057424E+03  0.7818608E-02  0.1144983E+00
         21   -1    0    0  501  502  0.00000000000E+00  0.00000000000E+00  0.96231783534E+03  0.96231783534E+03  0.00000000000E+00 0.  1.
         21   -1    0    0  502  503 -0.00000000000E+00 -0.00000000000E+00 -0.21781132309E+03  0.21781132309E+03  0.00000000000E+00 0.  1.
          6    1    1    2  501    0 -0.72006722461E+02  0.86953750661E+02  0.89937873711E+03  0.92261153017E+03  0.17200000000E+03 0.  1.
         -6    1    1    2    0  503  0.72006722461E+02 -0.86953750661E+02 -0.15487222486E+03  0.25751762826E+03  0.17200000000E+03 0.  1.
</event>
<event>
 4    1  0.4475741E+000  0.1805350E+03  0.7818608E-02  0.1167286E+00
         21   -1    0    0  501  502  0.00000000000E+00  0.00000000000E+00  0.49450764249E+03  0.49450764249E+03  0.00000000000E+00 0. -1.
         21   -1    0    0  502  503 -0.00000000000E+00 -0.00000000000E+00 -0.13831454047E+03  0.13831454047E+03  0.00000000000E+00 0. -1.
          6    1    1    2  501    0 -0.52746636546E+02  0.15055759970E+02  0.40702585022E+03  0.44526725269E+03  0.17200000000E+03 0. -1.
         -6    1    1    2    0  503  0.52746636546E+02 -0.15055759970E+02 -0.50832748197E+02  0.18755493026E+03  0.17200000000E+03 0. -1.
</event>
<event>
 4    1  0.4475741E+000  0.2628434E+03  0.7818608E-02  0.1105447E+00
         21   -1    0    0  503  502  0.00000000000E+00  0.00000000000E+00  0.73449889667E+03  0.73449889667E+03  0.00000000000E+00 0. -1.
         21   -1    0    0  501  503 -0.00000000000E+00 -0.00000000000E+00 -0.17079128416E+03  0.17079128416E+03  0.00000000000E+00 0.  1.
          6    1    1    2  501    0 -0.39811953060E+01 -0.19871292655E+03 -0.21543911411E+02  0.26372488926E+03  0.17200000000E+03 0.  1.
         -6    1    1    2    0  502  0.39811953060E+01  0.19871292655E+03  0.58525152393E+03  0.64156529158E+03  0.17200000000E+03 0. -1.
</event>
<event>
 4    1  0.4475741E+000  0.1890149E+03  0.7818608E-02  0.1159353E+00
         21   -1    0    0  503  502  0.00000000000E+00  0.00000000000E+00  0.24435754808E+03  0.24435754808E+03  0.00000000000E+00 0.  1.
         21   -1    0    0  501  503 -0.00000000000E+00 -0.00000000000E+00 -0.14822316614E+03  0.14822316614E+03  0.00000000000E+00 0.  1.
          6    1    1    2  501    0  0.61067566058E+02 -0.49126246393E+02  0.25170672766E+02  0.19068350342E+03  0.17200000000E+03 0.  1.
         -6    1    1    2    0  502 -0.61067566058E+02  0.49126246393E+02  0.70963709172E+02  0.20189721080E+03  0.17200000000E+03 0.  1.
</event>
<event>
 4    1  0.4475741E+000  0.1836380E+03  0.7818608E-02  0.1164328E+00
         21   -1    0    0  503  502  0.00000000000E+00  0.00000000000E+00  0.83658012099E+03  0.83658012099E+03  0.00000000000E+00 0. -1.
         21   -1    0    0  501  503 -0.00000000000E+00 -0.00000000000E+00 -0.40319285581E+02  0.40319285581E+02  0.00000000000E+00 0. -1.
          6    1    1    2  501    0 -0.59397737101E+02 -0.24714970214E+02  0.40462105260E+03  0.44434346753E+03  0.17200000000E+03 0. -1.
         -6    1    1    2    0  502  0.59397737101E+02  0.24714970214E+02  0.39163978281E+03  0.43255593904E+03  0.17200000000E+03 0. -1.
</event>
<event>
 4    1  0.4475741E+000  0.1981060E+03  0.7818608E-02  0.1151347E+00
         21   -1    0    0  501  502  0.00000000000E+00  0.00000000000E+00  0.31820406621E+02  0.31820406621E+02  0.00000000000E+00 0.  1.
         21   -1    0    0  502  503 -0.00000000000E+00 -0.00000000000E+00 -0.17565222317E+04  0.17565222317E+04  0.00000000000E+00 0.  1.
          6    1    1    2  501    0 -0.27803903788E+02 -0.94281213183E+02 -0.37435940410E+03  0.42354570906E+03  0.17200000000E+03 0. -1.
         -6    1    1    2    0  503  0.27803903788E+02  0.94281213183E+02 -0.13503424209E+04  0.13647969292E+04  0.17200000000E+03 0. -1.
</event>
<event>
 4    1  0.4475741E+000  0.1760414E+03  0.7818608E-02  0.1171690E+00
         21   -1    0    0  501  502  0.00000000000E+00  0.00000000000E+00  0.51704694532E+03  0.51704694532E+03  0.00000000000E+00 0. -1.
         21   -1    0    0  502  503 -0.00000000000E+00 -0.00000000000E+00 -0.60040024367E+02  0.60040024367E+02  0.00000000000E+00 0. -1.
          6    1    1    2  501    0  0.26425654790E+02 -0.26613266312E+02  0.21658893123E+03  0.27910812655E+03  0.17200000000E+03 0. -1.
         -6    1    1    2    0  503 -0.26425654790E+02  0.26613266312E+02  0.24041798972E+03  0.29797884314E+03  0.17200000000E+03 0. -1.
</event>
<event>
 4    1  0.4475741E+000  0.3108135E+03  0.7818608E-02  0.1079957E+00
         21   -1    0    0  501  502  0.00000000000E+00  0.00000000000E+00  0.76573357977E+03  0.76573357977E+03  0.00000000000E+00 0.  1.
         21   -1    0    0  502  503 -0.00000000000E+00 -0.00000000000E+00 -0.14728488269E+03  0.14728488269E+03  0.00000000000E+00 0. -1.
          6    1    1    2  501    0  0.17996183549E+03  0.18610423657E+03  0.48211291720E+03  0.57361826508E+03  0.17200000000E+03 0.  1.
         -6    1    1    2    0  503 -0.17996183549E+03 -0.18610423657E+03  0.13633577988E+03  0.33940019737E+03  0.17200000000E+03 0. -1.
</event>
<event>
 4    1  0.4475741E+000  0.1926273E+03  0.7818608E-02  0.1156113E+00
         21   -1    0    0  503  502  0.00000000000E+00  0.00000000000E+00  0.68023527800E+02  0.68023527800E+02  0.00000000000E+00 0.  1.
         21   -1    0    0  501  503 -0.00000000000E+00 -0.00000000000E+00 -0.92876980433E+03  0.92876980433E+03  0.00000000000E+00 0. -1.
          6    1    1    2  501    0 -0.72320124815E+02  0.47865296257E+02 -0.75054729543E+03  0.77487194408E+03  0.17200000000E+03 0. -1.
         -6    1    1    2    0  502  0.72320124815E+02 -0.47865296257E+02 -0.11019898109E+03  0.22192138805E+03  0.17200000000E+03 0.  1.
</event>
<event>
 4    1  0.4475741E+000  0.3593373E+03  0.7818608E-02  0.1058847E+00
         21   -1    0    0  501  502  0.00000000000E+00  0.00000000000E+00  0.54800822094E+03  0.54800822094E+03  0.00000000000E+00 0. -1.
         21   -1    0    0  502  503 -0.00000000000E+00 -0.00000000000E+00 -0.26736973633E+03  0.26736973633E+03  0.00000000000E+00 0.  1.
          6    1    1    2  501    0  0.11236189230E+03  0.29481199324E+03  0.28080193551E+03  0.45604060476E+03  0.17200000000E+03 0. -1.
         -6    1    1    2    0  503 -0.11236189230E+03 -0.29481199324E+03 -0.16345090314E+00  0.35933735252E+03  0.17200000000E+03 0.  1.
</event>
<event>
 4    1  0.4475741E+000  0.2238590E+03  0.7818608E-02  0.1131038E+00
         21   -1    0    0  503  502  0.00000000000E+00  0.00000000000E+00  0.35250489340E+03  0.35250489340E+03  0.00000000000E+00 0.  1.
         21   -1    0    0  501  503 -0.00000000000E+00 -0.00000000000E+00 -0.21899236640E+03  0.21899236640E+03  0.00000000000E+00 0.  1.
          6    1    1    2  501    0 -0.41100197963E+02  0.13725747821E+03 -0.10249650933E+03  0.24620799341E+03  0.17200000000E+03 0.  1.
         -6    1    1    2    0  502  0.41100197963E+02 -0.13725747821E+03  0.23600903633E+03  0.32528926638E+03  0.17200000000E+03 0.  1.
</event>
<event>
 4    1  0.4475741E+000  0.1735637E+03  0.7818608E-02  0.1174182E+00
         21   -1    0    0  503  502  0.00000000000E+00  0.00000000000E+00  0.37856398001E+03  0.37856398001E+03  0.00000000000E+00 0. -1.
         21   -1    0    0  501  503 -0.00000000000E+00 -0.00000000000E+00 -0.97957801154E+02  0.97957801154E+02  0.00000000000E+00 0. -1.
          6    1    1    2  501    0  0.20929435234E+02  0.10114680854E+02  0.37089859654E+02  0.17748240960E+03  0.17200000000E+03 0. -1.
         -6    1    1    2    0  502 -0.20929435234E+02 -0.10114680854E+02  0.24351631920E+03  0.29903937157E+03  0.17200000000E+03 0. -1.
</event>
<event>
 4    1  0.4475741E+000  0.2192470E+03  0.7818608E-02  0.1134446E+00
         21   -1    0    0  501  502  0.00000000000E+00  0.00000000000E+00  0.35755356826E+03  0.35755356826E+03  0.00000000000E+00 0. -1.
         21   -1    0    0  502  503 -0.00000000000E+00 -0.00000000000E+00 -0.14386954766E+03  0.14386954766E+03  0.00000000000E+00 0. -1.
          6    1    1    2  501    0  0.13549169480E+03  0.11279745952E+02  0.17102984348E+03  0.27806553074E+03  0.17200000000E+03 0. -1.
         -6    1    1    2    0  503 -0.13549169480E+03 -0.11279745952E+02  0.42654177123E+02  0.22335758517E+03  0.17200000000E+03 0. -1.
</event>
<event>
 4    1  0.4475741E+000  0.1841009E+03  0.7818608E-02  0.1163892E+00
         21   -1    0    0  503  502  0.00000000000E+00  0.00000000000E+00  0.22326015010E+03  0.22326015010E+03  0.00000000000E+00 0. -1.
         21   -1    0    0  501  503 -0.00000000000E+00 -0.00000000000E+00 -0.55506179846E+03  0.55506179846E+03  0.00000000000E+00 0. -1.
          6    1    1    2  501    0 -0.62226186649E+02 -0.20905523728E+02 -0.49760178616E+03  0.53056637362E+03  0.17200000000E+03 0. -1.
         -6    1    1    2    0  502  0.62226186649E+02  0.20905523728E+02  0.16580013779E+03  0.24775557495E+03  0.17200000000E+03 0. -1.
</event>
<event>
 4    1  0.4475741E+000  0.1987989E+03  0.7818608E-02  0.1150756E+00
         21   -1    0    0  503  502  0.00000000000E+00  0.00000000000E+00  0.10697036472E+03  0.10697036472E+03  0.00000000000E+00 0.  1.
         21   -1    0    0  501  503 -0.00000000000E+00 -0.00000000000E+00 -0.37466190317E+03  0.37466190317E+03  0.00000000000E+00 0.  1.
          6    1    1    2  501    0 -0.35336781899E+02 -0.93211197553E+02 -0.16222800512E+03  0.25659099974E+03  0.17200000000E+03 0.  1.
         -6    1    1    2    0  502  0.35336781899E+02  0.93211197553E+02 -0.10546353334E+03  0.22504126814E+03  0.17200000000E+03 0.  1.
</event>
<event>
 4    1  0.4475741E+000  0.1727519E+03  0.7818608E-02  0.1175008E+00
         21   -1    0    0  503  502  0.00000000000E+00  0.00000000000E+00  0.38585421763E+03  0.38585421763E+03  0.00000000000E+00 0. -1.
         21   -1    0    0  501  503 -0.00000000000E+00 -0.00000000000E+00 -0.10015982680E+03  0.10015982680E+03  0.00000000000E+00 0. -1.
          6    1    1    2  501    0  0.15627076076E+02 -0.38754117162E+01  0.26863442036E+02  0.17482811227E+03  0.17200000000E+03 0. -1.
         -6    1    1    2    0  502 -0.15627076076E+02  0.38754117162E+01  0.25883094879E+03  0.31118593216E+03  0.17200000000E+03 0. -1.
</event>
<event>
 4    1  0.4475741E+000  0.2115977E+03  0.7818608E-02  0.1140307E+00
         21   -1    0    0  501  502  0.00000000000E+00  0.00000000000E+00  0.21080754396E+03  0.21080754396E+03  0.00000000000E+00 0. -1.
         21   -1    0    0  502  503 -0.00000000000E+00 -0.00000000000E+00 -0.21276639351E+03  0.21276639351E+03  0.00000000000E+00 0. -1.
          6    1    1    2  501    0 -0.18800051932E+02 -0.12180372419E+03  0.79185168996E+01  0.21174581953E+03  0.17200000000E+03 0. -1.
         -6    1    1    2    0  503  0.18800051932E+02  0.12180372419E+03 -0.98773664538E+01  0.21182811793E+03  0.17200000000E+03 0. -1.
</event>
<event>
 4    1  0.4475741E+000  0.1951467E+03  0.7818608E-02  0.1153900E+00
         21   -1    0    0  501  502  0.00000000000E+00  0.00000000000E+00  0.39092098788E+03  0.39092098788E+03  0.00000000000E+00 0. -1.
         21   -1    0    0  502  503 -0.00000000000E+00 -0.00000000000E+00 -0.99778284350E+02  0.99778284350E+02  0.00000000000E+00 0. -1.
          6    1    1    2  501    0  0.91062824739E+02  0.14346099681E+02  0.10782583602E+03  0.22295438892E+03  0.17200000000E+03 0. -1.
         -6    1    1    2    0  503 -0.91062824739E+02 -0.14346099681E+02  0.18331686751E+03  0.26774488331E+03  0.17200000000E+03 0. -1.
</event>
<event>
 4    1  0.4475741E+000  0.1877692E+03  0.7818608E-02  0.1160489E+00
         21   -1    0    0  503  502  0.00000000000E+00  0.00000000000E+00  0.88513036713E+03  0.88513036713E+03  0.00000000000E+00 0.  1.
         21   -1    0    0  501  503 -0.00000000000E+00 -0.00000000000E+00 -0.40133380061E+02  0.40133380061E+02  0.00000000000E+00 0.  1.
          6    1    1    2  501    0  0.74596697823E+02  0.10420999918E+02  0.46253232110E+03  0.49919276100E+03  0.17200000000E+03 0. -1.
         -6    1    1    2    0  502 -0.74596697823E+02 -0.10420999918E+02  0.38246466597E+03  0.42607098620E+03  0.17200000000E+03 0. -1.
</event>
<event>
 4    1  0.4475741E+000  0.3608221E+03  0.7818608E-02  0.1058259E+00
         21   -1    0    0  503  502  0.00000000000E+00  0.00000000000E+00  0.24640983262E+03  0.24640983262E+03  0.00000000000E+00 0. -1.
         21   -1    0    0  501  503 -0.00000000000E+00 -0.00000000000E+00 -0.55037061102E+03  0.55037061102E+03  0.00000000000E+00 0. -1.
          6    1    1    2  501    0 -0.91449137393E+02 -0.30371966011E+03 -0.23165464590E+03  0.42878485472E+03  0.17200000000E+03 0. -1.
         -6    1    1    2    0  502  0.91449137393E+02  0.30371966011E+03 -0.72306132494E+02  0.36799558892E+03  0.17200000000E+03 0. -1.
</event>
<event>
 4    1  0.4475741E+000  0.2657201E+03  0.7818608E-02  0.1103754E+00
         21   -1    0    0  501  502  0.00000000000E+00  0.00000000000E+00  0.29237824460E+03  0.29237824460E+03  0.00000000000E+00 0.  1.
         21   -1    0    0  502  503 -0.00000000000E+00 -0.00000000000E+00 -0.28809789816E+03  0.28809789816E+03  0.00000000000E+00 0. -1.
          6    1    1    2  501    0  0.10359806517E+03 -0.17404194575E+03 -0.11459517151E+03  0.28937728197E+03  0.17200000000E+03 0. -1.
         -6    1    1    2    0  503 -0.10359806517E+03  0.17404194575E+03  0.11887551795E+03  0.29109886079E+03  0.17200000000E+03 0.  1.
</event>
<event>
 4    1  0.4475741E+000  0.1804179E+03  0.7818608E-02  0.1167399E+00
         21   -1    0    0  503  502  0.00000000000E+00  0.00000000000E+00  0.66951927570E+02  0.66951927570E+02  0.00000000000E+00 0. -1.
         21   -1    0    0  501  503 -0.00000000000E+00 -0.00000000000E+00 -0.59114401581E+03  0.59114401581E+03  0.00000000000E+00 0. -1.
          6    1    1    2  501    0 -0.25909351357E+02  0.47909577025E+02 -0.40075081910E+03  0.43949043342E+03  0.17200000000E+03 0.  1.
         -6    1    1    2    0  502  0.25909351357E+02 -0.47909577025E+02 -0.12344126914E+03  0.21860550996E+03  0.17200000000E+03 0.  1.
</event>
<event>
 4    1  0.4475741E+000  0.1792327E+03  0.7818608E-02  0.1168548E+00
         21   -1    0    0  501  502  0.00000000000E+00  0.00000000000E+00  0.23824867464E+03  0.23824867464E+03  0.00000000000E+00 0.  1.
         21   -1    0    0  502  503 -0.00000000000E+00 -0.00000000000E+00 -0.14232748783E+03  0.14232748783E+03  0.00000000000E+00 0.  1.
          6    1    1    2  501    0  0.47190828229E+02  0.17702430600E+02  0.91619136258E+02  0.20129186880E+03  0.17200000000E+03 0.  1.
         -6    1    1    2    0  503 -0.47190828229E+02 -0.17702430600E+02  0.43020505506E+01  0.17928429367E+03  0.17200000000E+03 0.  1.
</event>
<event>
 4    1  0.4475741E+000  0.2024058E+03  0.7818608E-02  0.1147725E+00
         21   -1    0    0  503  502  0.00000000000E+00  0.00000000000E+00  0.12632708022E+03  0.12632708022E+03  0.00000000000E+00 0. -1.
         21   -1    0    0  501  503 -0.00000000000E+00 -0.00000000000E+00 -0.33352088440E+03  0.33352088440E+03  0.00000000000E+00 0. -1.
          6    1    1    2  501    0  0.10537422510E+03  0.16744362128E+02 -0.65370240077E+02  0.21270018633E+03  0.17200000000E+03 0. -1.
         -6    1    1    2    0  502 -0.10537422510E+03 -0.16744362128E+02 -0.14182356411E+03  0.24714777829E+03  0.17200000000E+03 0. -1.
</event>
<event>
 4    1  0.4475741E+000  0.1871630E+03  0.7818608E-02  0.1161045E+00
         21   -1    0    0  503  502  0.00000000000E+00  0.00000000000E+00  0.23330985194E+03  0.23330985194E+03  0.00000000000E+00 0.  1.
         21   -1    0    0  501  503 -0.00000000000E+00 -0.00000000000E+00 -0.15584505557E+03  0.15584505557E+03  0.00000000000E+00 0.  1.
          6    1    1    2  501    0 -0.73620389249E+02  0.51010838192E+01  0.75949161380E+02  0.20198578634E+03  0.17200000000E+03 0.  1.
         -6    1    1    2    0  502  0.73620389249E+02 -0.51010838192E+01  0.15156349850E+01  0.18716912117E+03  0.17200000000E+03 0.  1.
</event>
<event>
 4    1  0.4475741E+000  0.4058855E+03  0.7818608E-02  0.1041761E+00
         21   -1    0    0  503  502  0.00000000000E+00  0.00000000000E+00  0.39166173931E+03  0.39166173931E+03  0.00000000000E+00 0. -1.
         21   -1    0    0  501  503 -0.00000000000E+00 -0.00000000000E+00 -0.58861183177E+03  0.58861183177E+03  0.00000000000E+00 0.  1.
          6    1    1    2  501    0  0.25093127599E+03  0.26868663879E+03 -0.36031712913E+03  0.54274436771E+03  0.17200000000E+03 0.  1.
         -6    1    1    2    0  502 -0.25093127599E+03 -0.26868663879E+03  0.16336703667E+03  0.43752920337E+03  0.17200000000E+03 0. -1.
</event>
<event>
 4    1  0.4475741E+000  0.1991990E+03  0.7818608E-02  0.1150417E+00
         21   -1    0    0  501  502  0.00000000000E+00  0.00000000000E+00  0.11912930436E+03  0.11912930436E+03  0.00000000000E+00 0. -1.
         21   -1    0    0  502  503 -0.00000000000E+00 -0.00000000000E+00 -0.42598042252E+03  0.42598042252E+03  0.00000000000E+00 0.  1.
          6    1    1    2  501    0 -0.53120501009E+01 -0.10033954847E+03 -0.26147036691E+02  0.20090771611E+03  0.17200000000E+03 0. -1.
         -6    1    1    2    0  503  0.53120501009E+01  0.10033954847E+03 -0.28070408147E+03  0.34420201077E+03  0.17200000000E+03 0.  1.
</event>
<event>
 4    1  0.4475741E+000  0.2746628E+03  0.7818608E-02  0.1098640E+00
         21   -1    0    0  501  502  0.00000000000E+00  0.00000000000E+00  0.12737421681E+04  0.12737421681E+04  0.00000000000E+00 0. -1.
         21   -1    0    0  502  503 -0.00000000000E+00 -0.00000000000E+00 -0.64057749798E+02  0.64057749798E+02  0.00000000000E+00 0.  1.
          6    1    1    2  501    0 -0.70113491061E+02  0.20233579284E+03  0.78853474924E+03  0.83500103320E+03  0.17200000000E+03 0.  1.
         -6    1    1    2    0  503  0.70113491061E+02 -0.20233579284E+03  0.42114966902E+03  0.50279888465E+03  0.17200000000E+03 0. -1.
</event>
<event>
 4    1  0.4475741E+000  0.4168082E+03  0.7818608E-02  0.1038110E+00
         21   -1    0    0  503  502  0.00000000000E+00  0.00000000000E+00  0.55758027214E+03  0.55758027214E+03  0.00000000000E+00 0.  1.
         21   -1    0    0  501  503 -0.00000000000E+00 -0.00000000000E+00 -0.37370000525E+03  0.37370000525E+03  0.00000000000E+00 0.  1.
          6    1    1    2  501    0  0.14174355347E+03 -0.35221275711E+03 -0.97912175805E+02  0.42815400896E+03  0.17200000000E+03 0.  1.
         -6    1    1    2    0  502 -0.14174355347E+03  0.35221275711E+03  0.28179244269E+03  0.50312626842E+03  0.17200000000E+03 0.  1.
</event>
<event>
 4    1  0.4475741E+000  0.2092347E+03  0.7818608E-02  0.1142173E+00
         21   -1    0    0  501  502  0.00000000000E+00  0.00000000000E+00  0.31808050027E+03  0.31808050027E+03  0.00000000000E+00 0. -1.
         21   -1    0    0  502  503 -0.00000000000E+00 -0.00000000000E+00 -0.14365070278E+03  0.14365070278E+03  0.00000000000E+00 0. -1.
          6    1    1    2  501    0 -0.10161457398E+03  0.62206256587E+02  0.39972303890E+02  0.21301860267E+03  0.17200000000E+03 0. -1.
         -6    1    1    2    0  503  0.10161457398E+03 -0.62206256587E+02  0.13445749360E+03  0.24871260039E+03  0.17200000000E+03 0. -1.
</event>
<event>
 4    1  0.4475741E+000  0.3395112E+03  0.7818608E-02  0.1067004E+00
         21   -1    0    0  503  502  0.00000000000E+00  0.00000000000E+00  0.70468996852E+03  0.70468996852E+03  0.00000000000E+00 0.  1.
         21   -1    0    0  501  503 -0.00000000000E+00 -0.00000000000E+00 -0.18928520542E+03  0.18928520542E+03  0.00000000000E+00 0. -1.
          6    1    1    2  501    0  0.84209099215E+02 -0.28034387005E+03  0.42244710667E+03  0.54196809481E+03  0.17200000000E+03 0.  1.
         -6    1    1    2    0  502 -0.84209099215E+02  0.28034387005E+03  0.92957656435E+02  0.35200707912E+03  0.17200000000E+03 0. -1.
</event>
<event>
 4    1  0.4475741E+000  0.2024688E+03  0.7818608E-02  0.1147673E+00
         21   -1    0    0  501  502  0.00000000000E+00  0.00000000000E+00  0.47188420875E+03  0.47188420875E+03  0.00000000000E+00 0. -1.
         21   -1    0    0  502  503 -0.00000000000E+00 -0.00000000000E+00 -0.49531948833E+03  0.49531948833E+03  0.00000000000E+00 0. -1.
          6    1    1    2  501    0 -0.83835435114E+02  0.66191037492E+02  0.42743271397E+03  0.47296126543E+03  0.17200000000E+03 0. -1.
         -6    1    1    2    0  503  0.83835435114E+02 -0.66191037492E+02 -0.45086799355E+03  0.49424243164E+03  0.17200000000E+03 0. -1.
</event>
<event>
 4    1  0.4475741E+000  0.1818674E+03  0.7818608E-02  0.1166008E+00
         21   -1    0    0  503  502  0.00000000000E+00  0.00000000000E+00  0.13918450375E+04  0.13918450375E+04  0.00000000000E+00 0. -1.
         21   -1    0    0  501  503 -0.00000000000E+00 -0.00000000000E+00 -0.23999262692E+02  0.23999262692E+02  0.00000000000E+00 0. -1.
          6    1    1    2  501    0  0.30650956605E+02 -0.50520014475E+02  0.61382613889E+03  0.64020175085E+03  0.17200000000E+03 0.  1.
         -6    1    1    2    0  502 -0.30650956605E+02  0.50520014475E+02  0.75401963590E+03  0.77564254933E+03  0.17200000000E+03 0.  1.
</event>
<event>
 4    1  0.4475741E+000  0.2869240E+03  0.7818608E-02  0.1091966E+00
         21   -1    0    0  501  502  0.00000000000E+00  0.00000000000E+00  0.18711103002E+03  0.18711103002E+03  0.00000000000E+00 0.  1.
         21   -1    0    0  502  503 -0.00000000000E+00 -0.00000000000E+00 -0.53325118034E+03  0.53325118034E+03  0.00000000000E+00 0. -1.
          6    1    1    2  501    0  0.12126084910E+03  0.19503130098E+03 -0.22435339216E+02  0.28779983727E+03  0.17200000000E+03 0.  1.
         -6    1    1    2    0  503 -0.12126084910E+03 -0.19503130098E+03 -0.32370481110E+03  0.43256237309E+03  0.17200000000E+03 0. -1.
</event>
<event>
 4    1  0.4475741E+000  0.1769597E+03  0.7818608E-02  0.1170778E+00
         21   -1    0    0  503  502  0.00000000000E+00  0.00000000000E+00  0.41354848353E+03  0.41354848353E+03  0.00000000000E+00 0.  1.
         21   -1    0    0  501  503 -0.00000000000E+00 -0.00000000000E+00 -0.79450862246E+02  0.79450862246E+02  0.00000000000E+00 0.  1.
          6    1    1    2  501    0  0.28979827680E+02 -0.29847899170E+02  0.11364725479E+03  0.21031030887E+03  0.17200000000E+03 0. -1.
         -6    1    1    2    0  502 -0.28979827680E+02  0.29847899170E+02  0.22045036649E+03  0.28268903690E+03  0.17200000000E+03 0. -1.
</event>
<event>
 4    1  0.4475741E+000  0.1752131E+03  0.7818608E-02  0.1172518E+00
         21   -1    0    0  501  502  0.00000000000E+00  0.00000000000E+00  0.62901788728E+03  0.62901788728E+03  0.00000000000E+00 0. -1.
         21   -1    0    0  502  503 -0.00000000000E+00 -0.00000000000E+00 -0.58543684170E+02  0.58543684170E+02  0.00000000000E+00 0. -1.
          6    1    1    2  501    0  0.25501818270E+02  0.21570636006E+02  0.14502776613E+03  0.22744820954E+03  0.17200000000E+03 0. -1.
         -6    1    1    2    0  503 -0.25501818270E+02 -0.21570636006E+02  0.42544643698E+03  0.46011336192E+03  0.17200000000E+03 0. -1.
</event>
<event>
 4    1  0.4475741E+000  0.2026087E+03  0.7818608E-02  0.1147557E+00
         21   -1    0    0  501  502  0.00000000000E+00  0.00000000000E+00  0.93427374530E+03  0.93427374530E+03  0.00000000000E+00 0. -1.
         21   -1    0    0  502  503 -0.00000000000E+00 -0.00000000000E+00 -0.57270205325E+02  0.57270205325E+02  0.00000000000E+00 0. -1.
          6    1    1    2  501    0 -0.20229349863E+02 -0.10515253795E+03  0.67770429427E+03  0.70734248657E+03  0.17200000000E+03 0. -1.
         -6    1    1    2    0  503  0.20229349863E+02  0.10515253795E+03  0.19929924571E+03  0.28420146406E+03  0.17200000000E+03 0. -1.
</event>
<event>
 4    1  0.4475741E+000  0.2137285E+03  0.7818608E-02  0.1138647E+00
         21   -1    0    0  501  502  0.00000000000E+00  0.00000000000E+00  0.30097272135E+03  0.30097272135E+03  0.00000000000E+00 0.  1.
         21   -1    0    0  502  503 -0.00000000000E+00 -0.00000000000E+00 -0.16635307759E+03  0.16635307759E+03  0.00000000000E+00 0. -1.
          6    1    1    2  501    0 -0.65661948294E+02 -0.10855597923E+03  0.13648280120E+03  0.25358913049E+03  0.17200000000E+03 0.  1.
         -6    1    1    2    0  503  0.65661948294E+02  0.10855597923E+03 -0.18631574385E+01  0.21373666844E+03  0.17200000000E+03 0. -1.
</event>
<event>
 4    1  0.4475741E+000  0.1898264E+03  0.7818608E-02  0.1158618E+00
         21   -1    0    0  503  502  0.00000000000E+00  0.00000000000E+00  0.93358758876E+03  0.93358758876E+03  0.00000000000E+00 0.  1.
         21   -1    0    0  501  503 -0.00000000000E+00 -0.00000000000E+00 -0.21951502747E+03  0.21951502747E+03  0.00000000000E+00 0. -1.
          6    1    1    2  501    0 -0.44376049098E+02  0.66939097796E+02 -0.16637881770E+03  0.25242025974E+03  0.17200000000E+03 0. -1.
         -6    1    1    2    0  502  0.44376049098E+02 -0.66939097796E+02  0.88045137898E+03  0.90068235649E+03  0.17200000000E+03 0.  1.
</event>
<event>
 4    1  0.4475741E+000  0.2241666E+03  0.7818608E-02  0.1130814E+00
         21   -1    0    0  503  502  0.00000000000E+00  0.00000000000E+00  0.28752818896E+03  0.28752818896E+03  0.00000000000E+00 0.  1.
         21   -1    0    0  501  503 -0.00000000000E+00 -0.00000000000E+00 -0.22212488830E+03  0.22212488830E+03  0.00000000000E+00 0.  1.
          6    1    1    2  501    0  0.17225620456E+02  0.14272323682E+03  0.15036438393E+03  0.26992608670E+03  0.17200000000E+03 0.  1.
         -6    1    1    2    0  502 -0.17225620456E+02 -0.14272323682E+03 -0.84961083270E+02  0.23972699055E+03  0.17200000000E+03 0.  1.
</event>
<event>
 4    1  0.4475741E+000  0.2081263E+03  0.7818608E-02  0.1143058E+00
         21   -1    0    0  501  502  0.00000000000E+00  0.00000000000E+00  0.12421485102E+03  0.12421485102E+03  0.00000000000E+00 0.  1.
         21   -1    0    0  502  503 -0.00000000000E+00 -0.00000000000E+00 -0.38124747008E+03  0.38124747008E+03  0.00000000000E+00 0. -1.
          6    1    1    2  501    0  0.38892673361E+02 -0.11054381332E+03 -0.54698617332E+02  0.21519412967E+03  0.17200000000E+03 0.  1.
         -6    1    1    2    0  503 -0.38892673361E+02  0.11054381332E+03 -0.20233400173E+03  0.29026819144E+03  0.17200000000E+03 0. -1.
</event>
<event>
 4    1  0.4475741E+000  0.2457945E+03  0.7818608E-02  0.1115992E+00
         21   -1    0    0  503  502  0.00000000000E+00  0.00000000000E+00  0.30374106193E+03  0.30374106193E+03  0.00000000000E+00 0. -1.
         21   -1    0    0  501  503 -0.00000000000E+00 -0.00000000000E+00 -0.23056853145E+03  0.23056853145E+03  0.00000000000E+00 0. -1.
          6    1    1    2  501    0  0.51051617876E+02 -0.16800204607E+03 -0.62418831572E+02  0.25359626517E+03  0.17200000000E+03 0. -1.
         -6    1    1    2    0  502 -0.51051617876E+02  0.16800204607E+03  0.13559136206E+03  0.28071332821E+03  0.17200000000E+03 0. -1.
</event>
<event>
 4    1  0.4475741E+000  0.2906095E+03  0.7818608E-02  0.1090031E+00
         21   -1    0    0  501  502  0.00000000000E+00  0.00000000000E+00  0.88399205865E+03  0.88399205865E+03  0.00000000000E+00 0. -1.
         21   -1    0    0  502  503 -0.00000000000E+00 -0.00000000000E+00 -0.12887390076E+03  0.12887390076E+03  0.00000000000E+00 0.  1.
          6    1    1    2  501    0 -0.19247866567E+03  0.13349839781E+03  0.11998463570E+03  0.31440447160E+03  0.17200000000E+03 0.  1.
         -6    1    1    2    0  503  0.19247866567E+03 -0.13349839781E+03  0.63513352219E+03  0.69846148782E+03  0.17200000000E+03 0. -1.
</event>
<event>
 4    1  0.4475741E+000  0.1726799E+03  0.7818608E-02  0.1175082E+00
         21   -1    0    0  501  502  0.00000000000E+00  0.00000000000E+00  0.93207233891E+02  0.93207233891E+02  0.00000000000E+00 0. -1.
         21   -1    0    0  502  503 -0.00000000000E+00 -0.00000000000E+00 -0.62796271638E+03  0.62796271638E+03  0.00000000000E+00 0. -1.
          6    1    1    2  501    0  0.11174676749E+02  0.10463740323E+02 -0.14826264237E+02  0.17331526584E+03  0.17200000000E+03 0. -1.
         -6    1    1    2    0  503 -0.11174676749E+02 -0.10463740323E+02 -0.51992921825E+03  0.54785468443E+03  0.17200000000E+03 0. -1.
</event>
<event>
 4    1  0.4475741E+000  0.1725790E+03  0.7818608E-02  0.1175185E+00
         21   -1    0    0  501  502  0.00000000000E+00  0.00000000000E+00  0.51519600091E+02  0.51519600091E+02  0.00000000000E+00 0.  1.
         21   -1    0    0  502  503 -0.00000000000E+00 -0.00000000000E+00 -0.74378654136E+03  0.74378654136E+03  0.00000000000E+00 0.  1.
          6    1    1    2  501    0  0.14121557017E+02  0.27665313572E+00 -0.15845111738E+03  0.23428668658E+03  0.17200000000E+03 0.  1.
         -6    1    1    2    0  503 -0.14121557017E+02 -0.27665313572E+00 -0.53381582389E+03  0.56101945487E+03  0.17200000000E+03 0.  1.
</event>
<event>
 4    1  0.4475741E+000  0.2297085E+03  0.7818608E-02  0.1126845E+00
         21   -1    0    0  503  502  0.00000000000E+00  0.00000000000E+00  0.22381097522E+03  0.22381097522E+03  0.00000000000E+00 0. -1.
         21   -1    0    0  501  503 -0.00000000000E+00 -0.00000000000E+00 -0.23584426095E+03  0.23584426095E+03  0.00000000000E+00 0.  1.
          6    1    1    2  501    0  0.16207255642E+02  0.15139135571E+03 -0.17121079453E+01  0.22971492993E+03  0.17200000000E+03 0. -1.
         -6    1    1    2    0  502 -0.16207255642E+02 -0.15139135571E+03 -0.10321177782E+02  0.22994030623E+03  0.17200000000E+03 0. -1.
</event>
<event>
 4    1  0.4475741E+000  0.2881772E+03  0.7818608E-02  0.1091305E+00
         21   -1    0    0  501  502  0.00000000000E+00  0.00000000000E+00  0.91931991585E+02  0.91931991585E+02  0.00000000000E+00 0.  1.
         21   -1    0    0  502  503 -0.00000000000E+00 -0.00000000000E+00 -0.93373402675E+03  0.93373402675E+03  0.00000000000E+00 0. -1.
          6    1    1    2  501    0  0.78593345444E+02 -0.21745154219E+03 -0.32838014885E+03  0.43689771035E+03  0.17200000000E+03 0. -1.
         -6    1    1    2    0  503 -0.78593345444E+02  0.21745154219E+03 -0.51342188631E+03  0.58876830799E+03  0.17200000000E+03 0.  1.
</event>
<event>
 4    1  0.4475741E+000  0.2312145E+03  0.7818608E-02  0.1125788E+00
         21   -1    0    0  503  502  0.00000000000E+00  0.00000000000E+00  0.56108486313E+03  0.56108486313E+03  0.00000000000E+00 0.  1.
         21   -1    0    0  501  503 -0.00000000000E+00 -0.00000000000E+00 -0.19206091577E+03  0.19206091577E+03  0.00000000000E+00 0.  1.
          6    1    1    2  501    0 -0.15450377110E+03 -0.21714113093E+01 -0.82803782881E+02  0.24559437447E+03  0.17200000000E+03 0.  1.
         -6    1    1    2    0  502  0.15450377110E+03  0.21714113093E+01  0.45182773024E+03  0.50755140442E+03  0.17200000000E+03 0.  1.
</event>
<event>
 4    1  0.4475741E+000  0.1824059E+03  0.7818608E-02  0.1165495E+00
         21   -1    0    0  503  502  0.00000000000E+00  0.00000000000E+00  0.34511237014E+03  0.34511237014E+03  0.00000000000E+00 0. -1.
         21   -1    0    0  501  503 -0.00000000000E+00 -0.00000000000E+00 -0.96604733475E+02  0.96604733475E+02  0.00000000000E+00 0. -1.
          6    1    1    2  501    0 -0.30555424299E+02  0.52481254561E+02  0.13419687129E+03  0.22645245924E+03  0.17200000000E+03 0. -1.
         -6    1    1    2    0  502  0.30555424299E+02 -0.52481254561E+02  0.11431076538E+03  0.21526464437E+03  0.17200000000E+03 0. -1.
</event>
<event>
 4    1  0.4475741E+000  0.2041771E+03  0.7818608E-02  0.1146262E+00
         21   -1    0    0  503  502  0.00000000000E+00  0.00000000000E+00  0.93113592509E+02  0.93113592509E+02  0.00000000000E+00 0.  1.
         21   -1    0    0  501  503 -0.00000000000E+00 -0.00000000000E+00 -0.64414497548E+03  0.64414497548E+03  0.00000000000E+00 0.  1.
          6    1    1    2  501    0 -0.45622861501E+02  0.10011421927E+03 -0.47908040201E+03  0.52077474399E+03  0.17200000000E+03 0.  1.
         -6    1    1    2    0  502  0.45622861501E+02 -0.10011421927E+03 -0.71950980964E+02  0.21648382400E+03  0.17200000000E+03 0.  1.
</event>
<event>
 4    1  0.4475741E+000  0.1799276E+03  0.7818608E-02  0.1167873E+00
         21   -1    0    0  503  502  0.00000000000E+00  0.00000000000E+00  0.86709878627E+02  0.86709878627E+02  0.00000000000E+00 0. -1.
         21   -1    0    0  501  503 -0.00000000000E+00 -0.00000000000E+00 -0.54063666691E+03  0.54063666691E+03  0.00000000000E+00 0.  1.
          6    1    1    2  501    0 -0.30366603384E+02  0.43218370717E+02 -0.40144236078E+03  0.43992036460E+03  0.17200000000E+03 0.  1.
         -6    1    1    2    0  502  0.30366603384E+02 -0.43218370717E+02 -0.52484427508E+02  0.18742618093E+03  0.17200000000E+03 0. -1.
</event>
<event>
 4    1  0.4475741E+000  0.1786684E+03  0.7818608E-02  0.1169098E+00
         21   -1    0    0  501  502  0.00000000000E+00  0.00000000000E+00  0.95300179314E+02  0.95300179314E+02  0.00000000000E+00 0. -1.
         21   -1    0    0  502  503 -0.00000000000E+00 -0.00000000000E+00 -0.37256421059E+03  0.37256421059E+03  0.00000000000E+00 0. -1.
          6    1    1    2  501    0 -0.47298029226E+02 -0.10064905156E+02 -0.64318500590E+02  0.18989279977E+03  0.17200000000E+03 0. -1.
         -6    1    1    2    0  503  0.47298029226E+02  0.10064905156E+02 -0.21294553068E+03  0.27797159014E+03  0.17200000000E+03 0. -1.
</event>
<event>
 4    1  0.4475741E+000  0.2314958E+03  0.7818608E-02  0.1125591E+00
         21   -1    0    0  501  502  0.00000000000E+00  0.00000000000E+00  0.16536341126E+03  0.16536341126E+03  0.00000000000E+00 0. -1.
         21   -1    0    0  502  503 -0.00000000000E+00 -0.00000000000E+00 -0.50978735630E+03  0.50978735630E+03  0.00000000000E+00 0. -1.
          6    1    1    2  501    0  0.13620610941E+03 -0.73852586633E+02 -0.37596097904E+03  0.44151666623E+03  0.17200000000E+03 0. -1.
         -6    1    1    2    0  503 -0.13620610941E+03  0.73852586633E+02  0.31537034006E+02  0.23363410133E+03  0.17200000000E+03 0. -1.
</event>
<event>
 4    1  0.4475741E+000  0.1910950E+03  0.7818608E-02  0.1157477E+00
         21   -1    0    0  501  502  0.00000000000E+00  0.00000000000E+00  0.13918582536E+03  0.13918582536E+03  0.00000000000E+00 0.  1.
         21   -1    0    0  502  503 -0.00000000000E+00 -0.00000000000E+00 -0.29364060441E+03  0.29364060441E+03  0.00000000000E+00 0. -1.
          6    1    1    2  501    0  0.82719463444E+02 -0.95284512843E+01 -0.14785718655E+03  0.24161756689E+03  0.17200000000E+03 0. -1.
         -6    1    1    2    0  503 -0.82719463444E+02  0.95284512843E+01 -0.65975925095E+01  0.19120886288E+03  0.17200000000E+03 0.  1.
</event>
