<event>
 4    1  0.5818436E+000  0.1896845E+03  0.7818608E-02  0.1158746E+00
         21   -1    0    0  501  502  0.00000000000E+00  0.00000000000E+00  0.29675371448E+03  0.29675371448E+03  0.00000000000E+00 0. -1.
         21   -1    0    0  502  503 -0.00000000000E+00 -0.00000000000E+00 -0.22581605239E+03  0.22581605239E+03  0.00000000000E+00 0. -1.
          6    1    1    2  501    0  0.11683383185E+02 -0.79118422962E+02  0.21327235485E+03  0.28542130901E+03  0.17200000000E+03 0. -1.
         -6    1    1    2    0  503 -0.11683383185E+02  0.79118422962E+02 -0.14233469276E+03  0.23714845785E+03  0.17200000000E+03 0. -1.
</event>
<event>
 4    1  0.5818436E+000  0.1922785E+03  0.7818608E-02  0.1156422E+00
         21   -1    0    0  503  502  0.00000000000E+00  0.00000000000E+00  0.28858224940E+03  0.28858224940E+03  0.00000000000E+00 0. -1.
         21   -1    0    0  501  503 -0.00000000000E+00 -0.00000000000E+00 -0.30182731856E+03  0.30182731856E+03  0.00000000000E+00 0.  1.
          6    1    1    2  501    0  0.20328156653E+02  0.83509304961E+02  0.21733328853E+03  0.29018062697E+03  0.17200000000E+03 0. -1.
         -6    1    1    2    0  502 -0.20328156653E+02 -0.83509304961E+02 -0.23057835769E+03  0.30022894098E+03  0.17200000000E+03 0.  1.
</event>
<event>
 4    1  0.5818436E+000  0.1944253E+03  0.7818608E-02  0.1154530E+00
         21   -1    0    0  503  502  0.00000000000E+00  0.00000000000E+00  0.12298987156E+04  0.12298987156E+04  0.00000000000E+00 0. -1.
         21   -1    0    0  501  503 -0.00000000000E+00 -0.00000000000E+00 -0.14726276624E+03  0.14726276624E+03  0.00000000000E+00 0.  1.
          6    1    1    2  501    0 -0.70271873693E+02 -0.57262982274E+02 -0.71205488002E+02  0.20705411586E+03  0.17200000000E+03 0.  1.
         -6    1    1    2    0  502  0.70271873693E+02  0.57262982274E+02  0.11538414373E+04  0.11701073659E+04  0.17200000000E+03 0. -1.
</event>
<event>
 4    1  0.5818436E+000  0.1894305E+03  0.7818608E-02  0.1158976E+00
         21   -1    0    0  501  502  0.00000000000E+00  0.00000000000E+00  0.10436907176E+03  0.10436907176E+03  0.00000000000E+00 0. -1.
         21   -1    0    0  502  503 -0.00000000000E+00 -0.00000000000E+00 -0.38255711019E+03  0.38255711019E+03  0.00000000000E+00 0. -1.
          6    1    1    2  501    0 -0.79174301045E+02 -0.55979881008E+01 -0.61618778690E+02  0.19920035468E+03  0.17200000000E+03 0. -1.
         -6    1    1    2    0  503  0.79174301045E+02  0.55979881008E+01 -0.21656925974E+03  0.28772582727E+03  0.17200000000E+03 0. -1.
</event>
<event>
 4    1  0.5818436E+000  0.2303801E+03  0.7818608E-02  0.1126373E+00
         21   -1    0    0  503  502  0.00000000000E+00  0.00000000000E+00  0.17602312972E+04  0.17602312972E+04  0.00000000000E+00 0.  1.
         21   -1    0    0  501  503 -0.00000000000E+00 -0.00000000000E+00 -0.31015708534E+02  0.31015708534E+02  0.00000000000E+00 0. -1.
          6    1    1    2  501    0 -0.10629434742E+03 -0.11041958876E+03  0.71517370094E+03  0.75136435661E+03  0.17200000000E+03 0. -1.
         -6    1    1    2    0  502  0.10629434742E+03  0.11041958876E+03  0.10140418877E+04  0.10398826491E+04  0.17200000000E+03 0.  1.
</event>
<event>
 4    1  0.5818436E+000  0.1753181E+03  0.7818608E-02  0.1172413E+00
         21   -1    0    0  501  502  0.00000000000E+00  0.00000000000E+00  0.67763627202E+03  0.67763627202E+03  0.00000000000E+00 0.  1.
         21   -1    0    0  502  503 -0.00000000000E+00 -0.00000000000E+00 -0.60369149522E+03  0.60369149522E+03  0.00000000000E+00 0.  1.
          6    1    1    2  501    0  0.14990615434E+02 -0.30458468276E+02  0.65309824299E+03  0.67622019479E+03  0.17200000000E+03 0.  1.
         -6    1    1    2    0  503 -0.14990615434E+02  0.30458468276E+02 -0.57915346619E+03  0.60510757245E+03  0.17200000000E+03 0.  1.
</event>
<event>
 4    1  0.5818436E+000  0.2074034E+03  0.7818608E-02  0.1143639E+00
         21   -1    0    0  503  502  0.00000000000E+00  0.00000000000E+00  0.50118268431E+03  0.50118268431E+03  0.00000000000E+00 0.  1.
         21   -1    0    0  501  503 -0.00000000000E+00 -0.00000000000E+00 -0.86758829772E+02  0.86758829772E+02  0.00000000000E+00 0.  1.
          6    1    1    2  501    0 -0.11479273969E+03  0.15962102817E+02  0.17678363257E+03  0.27252268632E+03  0.17200000000E+03 0.  1.
         -6    1    1    2    0  502  0.11479273969E+03 -0.15962102817E+02  0.23764022196E+03  0.31541882776E+03  0.17200000000E+03 0.  1.
</event>
<event>
 4    1  0.5818436E+000  0.1973247E+03  0.7818608E-02  0.1152016E+00
         21   -1    0    0  501  502  0.00000000000E+00  0.00000000000E+00  0.16745096851E+03  0.16745096851E+03  0.00000000000E+00 0.  1.
         21   -1    0    0  502  503 -0.00000000000E+00 -0.00000000000E+00 -0.63124050405E+03  0.63124050405E+03  0.00000000000E+00 0.  1.
          6    1    1    2  501    0  0.83979577337E+02  0.47963196234E+02  0.85486693076E+02  0.21504653519E+03  0.17200000000E+03 0.  1.
         -6    1    1    2    0  503 -0.83979577337E+02 -0.47963196234E+02 -0.54927622861E+03  0.58364493737E+03  0.17200000000E+03 0.  1.
</event>
<event>
 4    1  0.5818436E+000  0.1786339E+03  0.7818608E-02  0.1169132E+00
         21   -1    0    0  501  502  0.00000000000E+00  0.00000000000E+00  0.55589744818E+03  0.55589744818E+03  0.00000000000E+00 0. -1.
         21   -1    0    0  502  503 -0.00000000000E+00 -0.00000000000E+00 -0.95694455572E+02  0.95694455572E+02  0.00000000000E+00 0. -1.
          6    1    1    2  501    0 -0.16441704253E+02  0.45340285735E+02  0.43619028012E+03  0.47135128261E+03  0.17200000000E+03 0. -1.
         -6    1    1    2    0  503  0.16441704253E+02 -0.45340285735E+02  0.24012712493E+02  0.18024062114E+03  0.17200000000E+03 0. -1.
</event>
<event>
 4    1  0.5818436E+000  0.1807646E+03  0.7818608E-02  0.1167065E+00
         21   -1    0    0  501  502  0.00000000000E+00  0.00000000000E+00  0.23928221573E+02  0.23928221573E+02  0.00000000000E+00 0.  1.
         21   -1    0    0  502  503 -0.00000000000E+00 -0.00000000000E+00 -0.15607782722E+04  0.15607782722E+04  0.00000000000E+00 0.  1.
          6    1    1    2  501    0  0.26056996660E+02 -0.49121191741E+02 -0.10486379648E+04  0.10641040550E+04  0.17200000000E+03 0. -1.
         -6    1    1    2    0  503 -0.26056996660E+02  0.49121191741E+02 -0.48821208580E+03  0.52060243879E+03  0.17200000000E+03 0. -1.
</event>
<event>
 4    1  0.5818436E+000  0.1947964E+03  0.7818608E-02  0.1154205E+00
         21   -1    0    0  501  502  0.00000000000E+00  0.00000000000E+00  0.11333212765E+04  0.11333212765E+04  0.00000000000E+00 0.  1.
         21   -1    0    0  502  503 -0.00000000000E+00 -0.00000000000E+00 -0.37702747702E+02  0.37702747702E+02  0.00000000000E+00 0.  1.
          6    1    1    2  501    0  0.29330507731E+02 -0.86610346276E+02  0.74371833575E+03  0.76880595321E+03  0.17200000000E+03 0.  1.
         -6    1    1    2    0  503 -0.29330507731E+02  0.86610346276E+02  0.35190019308E+03  0.40221807102E+03  0.17200000000E+03 0.  1.
</event>
<event>
 4    1  0.5818436E+000  0.1812878E+03  0.7818608E-02  0.1166562E+00
         21   -1    0    0  503  502  0.00000000000E+00  0.00000000000E+00  0.17807037362E+03  0.17807037362E+03  0.00000000000E+00 0. -1.
         21   -1    0    0  501  503 -0.00000000000E+00 -0.00000000000E+00 -0.18534112313E+03  0.18534112313E+03  0.00000000000E+00 0. -1.
          6    1    1    2  501    0  0.55514365496E+02  0.14121859706E+02 -0.15405965369E+02  0.18194124180E+03  0.17200000000E+03 0. -1.
         -6    1    1    2    0  502 -0.55514365496E+02 -0.14121859706E+02  0.81352158599E+01  0.18147025496E+03  0.17200000000E+03 0. -1.
</event>
<event>
 4    1  0.5818436E+000  0.2369482E+03  0.7818608E-02  0.1121843E+00
         21   -1    0    0  503  502  0.00000000000E+00  0.00000000000E+00  0.60334240898E+02  0.60334240898E+02  0.00000000000E+00 0. -1.
         21   -1    0    0  501  503 -0.00000000000E+00 -0.00000000000E+00 -0.93521254389E+03  0.93521254389E+03  0.00000000000E+00 0. -1.
          6    1    1    2  501    0 -0.12981863292E+03  0.98527002887E+02 -0.47255988902E+03  0.52863720685E+03  0.17200000000E+03 0. -1.
         -6    1    1    2    0  502  0.12981863292E+03 -0.98527002887E+02 -0.40231841397E+03  0.46690957794E+03  0.17200000000E+03 0. -1.
</event>
<event>
 4    1  0.5818436E+000  0.2006628E+03  0.7818608E-02  0.1149181E+00
         21   -1    0    0  503  502  0.00000000000E+00  0.00000000000E+00  0.84109772021E+03  0.84109772021E+03  0.00000000000E+00 0. -1.
         21   -1    0    0  501  503 -0.00000000000E+00 -0.00000000000E+00 -0.55557529870E+02  0.55557529870E+02  0.00000000000E+00 0. -1.
          6    1    1    2  501    0  0.96081348422E+02 -0.38077864024E+02  0.22602867265E+03  0.30224908619E+03  0.17200000000E+03 0. -1.
         -6    1    1    2    0  502 -0.96081348422E+02  0.38077864024E+02  0.55951151769E+03  0.59440616389E+03  0.17200000000E+03 0. -1.
</event>
<event>
 4    1  0.5818436E+000  0.1967248E+03  0.7818608E-02  0.1152532E+00
         21   -1    0    0  503  502  0.00000000000E+00  0.00000000000E+00  0.23718768797E+03  0.23718768797E+03  0.00000000000E+00 0. -1.
         21   -1    0    0  501  503 -0.00000000000E+00 -0.00000000000E+00 -0.19280595958E+03  0.19280595958E+03  0.00000000000E+00 0. -1.
          6    1    1    2  501    0  0.27795048150E+02  0.91345970045E+02  0.10648946396E+03  0.22369769082E+03  0.17200000000E+03 0. -1.
         -6    1    1    2    0  502 -0.27795048150E+02 -0.91345970045E+02 -0.62107735568E+02  0.20629595673E+03  0.17200000000E+03 0. -1.
</event>
<event>
 4    1  0.5818436E+000  0.1911345E+03  0.7818608E-02  0.1157442E+00
         21   -1    0    0  503  502  0.00000000000E+00  0.00000000000E+00  0.45609120922E+03  0.45609120922E+03  0.00000000000E+00 0.  1.
         21   -1    0    0  501  503 -0.00000000000E+00 -0.00000000000E+00 -0.28453084065E+03  0.28453084065E+03  0.00000000000E+00 0.  1.
          6    1    1    2  501    0  0.74757638523E+02 -0.36874031431E+02 -0.22810900401E+03  0.29760059882E+03  0.17200000000E+03 0.  1.
         -6    1    1    2    0  502 -0.74757638523E+02  0.36874031431E+02  0.39966937258E+03  0.44302145105E+03  0.17200000000E+03 0.  1.
</event>
<event>
 4    1  0.5818436E+000  0.2318198E+03  0.7818608E-02  0.1125365E+00
         21   -1    0    0  501  502  0.00000000000E+00  0.00000000000E+00  0.21764575921E+03  0.21764575921E+03  0.00000000000E+00 0. -1.
         21   -1    0    0  502  503 -0.00000000000E+00 -0.00000000000E+00 -0.31060905354E+03  0.31060905354E+03  0.00000000000E+00 0.  1.
          6    1    1    2  501    0  0.14995435425E+03 -0.40867076547E+02  0.73123320906E+02  0.24307909487E+03  0.17200000000E+03 0. -1.
         -6    1    1    2    0  503 -0.14995435425E+03  0.40867076547E+02 -0.16608661524E+03  0.28517571787E+03  0.17200000000E+03 0.  1.
</event>
<event>
 4    1  0.5818436E+000  0.2546217E+03  0.7818608E-02  0.1110418E+00
         21   -1    0    0  503  502  0.00000000000E+00  0.00000000000E+00  0.11067013099E+04  0.11067013099E+04  0.00000000000E+00 0.  1.
         21   -1    0    0  501  503 -0.00000000000E+00 -0.00000000000E+00 -0.61090855279E+02  0.61090855279E+02  0.00000000000E+00 0.  1.
          6    1    1    2  501    0  0.87497322838E+02 -0.16610966075E+03  0.40446558634E+03  0.47793787403E+03  0.17200000000E+03 0.  1.
         -6    1    1    2    0  502 -0.87497322838E+02  0.16610966075E+03  0.64114486826E+03  0.68985429113E+03  0.17200000000E+03 0.  1.
</event>
<event>
 4    1  0.5818436E+000  0.1907765E+03  0.7818608E-02  0.1157763E+00
         21   -1    0    0  503  502  0.00000000000E+00  0.00000000000E+00  0.47566118120E+02  0.47566118120E+02  0.00000000000E+00 0. -1.
         21   -1    0    0  501  503 -0.00000000000E+00 -0.00000000000E+00 -0.96641909265E+03  0.96641909265E+03  0.00000000000E+00 0. -1.
          6    1    1    2  501    0 -0.15265155394E+02 -0.81108858673E+02 -0.22806180703E+03  0.29733459225E+03  0.17200000000E+03 0. -1.
         -6    1    1    2    0  502  0.15265155394E+02  0.81108858673E+02 -0.69079116750E+03  0.71665061852E+03  0.17200000000E+03 0. -1.
</event>
<event>
 4    1  0.5818436E+000  0.1867567E+03  0.7818608E-02  0.1161420E+00
         21   -1    0    0  503  502  0.00000000000E+00  0.00000000000E+00  0.63243242710E+03  0.63243242710E+03  0.00000000000E+00 0.  1.
         21   -1    0    0  501  503 -0.00000000000E+00 -0.00000000000E+00 -0.11580632444E+03  0.11580632444E+03  0.00000000000E+00 0.  1.
          6    1    1    2  501    0  0.56560085585E+02 -0.45771418324E+02 -0.12447508597E+02  0.18717106210E+03  0.17200000000E+03 0.  1.
         -6    1    1    2    0  502 -0.56560085585E+02  0.45771418324E+02  0.52907361125E+03  0.56106768944E+03  0.17200000000E+03 0.  1.
</event>
<event>
 4    1  0.5818436E+000  0.2541409E+03  0.7818608E-02  0.1110715E+00
         21   -1    0    0  503  502  0.00000000000E+00  0.00000000000E+00  0.10170679944E+03  0.10170679944E+03  0.00000000000E+00 0. -1.
         21   -1    0    0  501  503 -0.00000000000E+00 -0.00000000000E+00 -0.63555562109E+03  0.63555562109E+03  0.00000000000E+00 0. -1.
          6    1    1    2  501    0 -0.26023224309E+00  0.18709233934E+03 -0.27745167131E+03  0.37625395822E+03  0.17200000000E+03 0. -1.
         -6    1    1    2    0  502  0.26023224309E+00 -0.18709233934E+03 -0.25639715034E+03  0.36100846231E+03  0.17200000000E+03 0. -1.
</event>
<event>
 4    1  0.5818436E+000  0.1745759E+03  0.7818608E-02  0.1173158E+00
         21   -1    0    0  503  502  0.00000000000E+00  0.00000000000E+00  0.15300506672E+03  0.15300506672E+03  0.00000000000E+00 0.  1.
         21   -1    0    0  501  503 -0.00000000000E+00 -0.00000000000E+00 -0.21727030262E+03  0.21727030262E+03  0.00000000000E+00 0.  1.
          6    1    1    2  501    0 -0.18974674857E+02 -0.23080637109E+02 -0.85542671310E+02  0.19440756855E+03  0.17200000000E+03 0.  1.
         -6    1    1    2    0  502  0.18974674857E+02  0.23080637109E+02  0.21277435410E+02  0.17586780078E+03  0.17200000000E+03 0.  1.
</event>
<event>
 4    1  0.5818436E+000  0.2006703E+03  0.7818608E-02  0.1149175E+00
         21   -1    0    0  503  502  0.00000000000E+00  0.00000000000E+00  0.66235132845E+03  0.66235132845E+03  0.00000000000E+00 0.  1.
         21   -1    0    0  501  503 -0.00000000000E+00 -0.00000000000E+00 -0.65829850726E+02  0.65829850726E+02  0.00000000000E+00 0.  1.
          6    1    1    2  501    0  0.10078067828E+03 -0.22974837933E+02  0.19758376595E+03  0.28161664166E+03  0.17200000000E+03 0.  1.
         -6    1    1    2    0  502 -0.10078067828E+03  0.22974837933E+02  0.39893771177E+03  0.44656453752E+03  0.17200000000E+03 0.  1.
</event>
<event>
 4    1  0.5818436E+000  0.1866990E+03  0.7818608E-02  0.1161473E+00
         21   -1    0    0  503  502  0.00000000000E+00  0.00000000000E+00  0.88110511594E+02  0.88110511594E+02  0.00000000000E+00 0.  1.
         21   -1    0    0  501  503 -0.00000000000E+00 -0.00000000000E+00 -0.46993523036E+03  0.46993523036E+03  0.00000000000E+00 0.  1.
          6    1    1    2  501    0 -0.72193695582E+02  0.77842804488E+01 -0.79939203430E+02  0.20309308444E+03  0.17200000000E+03 0.  1.
         -6    1    1    2    0  502  0.72193695582E+02 -0.77842804488E+01 -0.30188551534E+03  0.35495265751E+03  0.17200000000E+03 0.  1.
</event>
<event>
 4    1  0.5818436E+000  0.1933792E+03  0.7818608E-02  0.1155448E+00
         21   -1    0    0  503  502  0.00000000000E+00  0.00000000000E+00  0.38498533649E+03  0.38498533649E+03  0.00000000000E+00 0.  1.
         21   -1    0    0  501  503 -0.00000000000E+00 -0.00000000000E+00 -0.12327083311E+03  0.12327083311E+03  0.00000000000E+00 0.  1.
          6    1    1    2  501    0 -0.57008817993E+02 -0.67538814684E+02  0.13842171645E+02  0.19387393464E+03  0.17200000000E+03 0.  1.
         -6    1    1    2    0  502  0.57008817993E+02  0.67538814684E+02  0.24787233173E+03  0.31438223496E+03  0.17200000000E+03 0.  1.
</event>
<event>
 4    1  0.5818436E+000  0.2038319E+03  0.7818608E-02  0.1146546E+00
         21   -1    0    0  503  502  0.00000000000E+00  0.00000000000E+00  0.46602796142E+03  0.46602796142E+03  0.00000000000E+00 0. -1.
         21   -1    0    0  501  503 -0.00000000000E+00 -0.00000000000E+00 -0.91241290039E+02  0.91241290039E+02  0.00000000000E+00 0.  1.
          6    1    1    2  501    0 -0.98886927841E+02 -0.46742154416E+02  0.22955425218E+03  0.30698958971E+03  0.17200000000E+03 0.  1.
         -6    1    1    2    0  502  0.98886927841E+02  0.46742154416E+02  0.14523241920E+03  0.25027966175E+03  0.17200000000E+03 0.  1.
</event>
<event>
 4    1  0.5818436E+000  0.2755263E+03  0.7818608E-02  0.1098158E+00
         21   -1    0    0  503  502  0.00000000000E+00  0.00000000000E+00  0.28307279087E+03  0.28307279087E+03  0.00000000000E+00 0.  1.
         21   -1    0    0  501  503 -0.00000000000E+00 -0.00000000000E+00 -0.26859502229E+03  0.26859502229E+03  0.00000000000E+00 0.  1.
          6    1    1    2  501    0  0.19440138779E+03 -0.92405946529E+02  0.18067771875E+02  0.27611809595E+03  0.17200000000E+03 0.  1.
         -6    1    1    2    0  502 -0.19440138779E+03  0.92405946529E+02 -0.35900032918E+01  0.27554971721E+03  0.17200000000E+03 0.  1.
</event>
<event>
 4    1  0.5818436E+000  0.2163694E+03  0.7818608E-02  0.1136619E+00
         21   -1    0    0  503  502  0.00000000000E+00  0.00000000000E+00  0.38640089496E+03  0.38640089496E+03  0.00000000000E+00 0. -1.
         21   -1    0    0  501  503 -0.00000000000E+00 -0.00000000000E+00 -0.14729409390E+03  0.14729409390E+03  0.00000000000E+00 0.  1.
          6    1    1    2  501    0 -0.10768257930E+03  0.75074595356E+02  0.71480249090E+01  0.21648747542E+03  0.17200000000E+03 0.  1.
         -6    1    1    2    0  502  0.10768257930E+03 -0.75074595356E+02  0.23195877615E+03  0.31720751344E+03  0.17200000000E+03 0. -1.
</event>
<event>
 4    1  0.5818436E+000  0.1895569E+03  0.7818608E-02  0.1158862E+00
         21   -1    0    0  503  502  0.00000000000E+00  0.00000000000E+00  0.33652271533E+03  0.33652271533E+03  0.00000000000E+00 0.  1.
         21   -1    0    0  501  503 -0.00000000000E+00 -0.00000000000E+00 -0.25214707895E+03  0.25214707895E+03  0.00000000000E+00 0.  1.
          6    1    1    2  501    0 -0.67779402643E+02 -0.41878203452E+02 -0.18130160776E+03  0.26230155227E+03  0.17200000000E+03 0.  1.
         -6    1    1    2    0  502  0.67779402643E+02  0.41878203452E+02  0.26567724413E+03  0.32636824201E+03  0.17200000000E+03 0.  1.
</event>
<event>
 4    1  0.5818436E+000  0.1933930E+03  0.7818608E-02  0.1155436E+00
         21   -1    0    0  503  502  0.00000000000E+00  0.00000000000E+00  0.20809280373E+03  0.20809280373E+03  0.00000000000E+00 0.  1.
         21   -1    0    0  501  503 -0.00000000000E+00 -0.00000000000E+00 -0.70395938961E+03  0.70395938961E+03  0.00000000000E+00 0. -1.
          6    1    1    2  501    0  0.44158193217E+02  0.76595717524E+02 -0.64146154655E+03  0.66998042186E+03  0.17200000000E+03 0. -1.
         -6    1    1    2    0  502 -0.44158193217E+02 -0.76595717524E+02  0.14559496068E+03  0.24207177148E+03  0.17200000000E+03 0.  1.
</event>
<event>
 4    1  0.5818436E+000  0.2118734E+03  0.7818608E-02  0.1140091E+00
         21   -1    0    0  501  502  0.00000000000E+00  0.00000000000E+00  0.92806091893E+03  0.92806091893E+03  0.00000000000E+00 0.  1.
         21   -1    0    0  502  503 -0.00000000000E+00 -0.00000000000E+00 -0.48371547883E+02  0.48371547883E+02  0.00000000000E+00 0. -1.
          6    1    1    2  501    0  0.55596582528E+02  0.11052302359E+03  0.44259480742E+03  0.49069387839E+03  0.17200000000E+03 0. -1.
         -6    1    1    2    0  503 -0.55596582528E+02 -0.11052302359E+03  0.43709456363E+03  0.48573858842E+03  0.17200000000E+03 0.  1.
</event>
<event>
 4    1  0.5818436E+000  0.2688999E+03  0.7818608E-02  0.1101911E+00
         21   -1    0    0  501  502  0.00000000000E+00  0.00000000000E+00  0.48363608967E+02  0.48363608967E+02  0.00000000000E+00 0. -1.
         21   -1    0    0  502  503 -0.00000000000E+00 -0.00000000000E+00 -0.22312876354E+04  0.22312876354E+04  0.00000000000E+00 0. -1.
          6    1    1    2  501    0  0.10156924901E+02 -0.20644605788E+03 -0.43673119137E+03  0.51287549313E+03  0.17200000000E+03 0. -1.
         -6    1    1    2    0  503 -0.10156924901E+02  0.20644605788E+03 -0.17461928351E+04  0.17667757513E+04  0.17200000000E+03 0. -1.
</event>
<event>
 4    1  0.5818436E+000  0.2011861E+03  0.7818608E-02  0.1148742E+00
         21   -1    0    0  501  502  0.00000000000E+00  0.00000000000E+00  0.72353622912E+03  0.72353622912E+03  0.00000000000E+00 0. -1.
         21   -1    0    0  502  503 -0.00000000000E+00 -0.00000000000E+00 -0.13633445906E+03  0.13633445906E+03  0.00000000000E+00 0. -1.
          6    1    1    2  501    0  0.36125644176E+02 -0.97912164438E+02  0.62374895936E+03  0.65539195785E+03  0.17200000000E+03 0. -1.
         -6    1    1    2    0  503 -0.36125644176E+02  0.97912164438E+02 -0.36547189307E+02  0.20447873033E+03  0.17200000000E+03 0. -1.
</event>
<event>
 4    1  0.5818436E+000  0.2058551E+03  0.7818608E-02  0.1144891E+00
         21   -1    0    0  503  502  0.00000000000E+00  0.00000000000E+00  0.41181287857E+03  0.41181287857E+03  0.00000000000E+00 0. -1.
         21   -1    0    0  501  503 -0.00000000000E+00 -0.00000000000E+00 -0.10932015292E+03  0.10932015292E+03  0.00000000000E+00 0. -1.
          6    1    1    2  501    0  0.11202343704E+03 -0.15591139921E+02  0.88110462957E+02  0.22391915454E+03  0.17200000000E+03 0. -1.
         -6    1    1    2    0  502 -0.11202343704E+03  0.15591139921E+02  0.21438226269E+03  0.29721387694E+03  0.17200000000E+03 0. -1.
</event>
<event>
 4    1  0.5818436E+000  0.2379031E+03  0.7818608E-02  0.1121198E+00
         21   -1    0    0  501  502  0.00000000000E+00  0.00000000000E+00  0.37917772839E+03  0.37917772839E+03  0.00000000000E+00 0. -1.
         21   -1    0    0  502  503 -0.00000000000E+00 -0.00000000000E+00 -0.34602603939E+03  0.34602603939E+03  0.00000000000E+00 0. -1.
          6    1    1    2  501    0 -0.83754248956E+02  0.14141825745E+03  0.29000537135E+03  0.37510133720E+03  0.17200000000E+03 0. -1.
         -6    1    1    2    0  503  0.83754248956E+02 -0.14141825745E+03 -0.25685368235E+03  0.35010243057E+03  0.17200000000E+03 0. -1.
</event>
<event>
 4    1  0.5818436E+000  0.3201877E+03  0.7818608E-02  0.1075563E+00
         21   -1    0    0  501  502  0.00000000000E+00  0.00000000000E+00  0.68542707680E+03  0.68542707680E+03  0.00000000000E+00 0.  1.
         21   -1    0    0  502  503 -0.00000000000E+00 -0.00000000000E+00 -0.17232650683E+03  0.17232650683E+03  0.00000000000E+00 0.  1.
          6    1    1    2  501    0 -0.24481040997E+03  0.11403511285E+03  0.41239710422E+03  0.52210297390E+03  0.17200000000E+03 0.  1.
         -6    1    1    2    0  503  0.24481040997E+03 -0.11403511285E+03  0.10070346576E+03  0.33565060972E+03  0.17200000000E+03 0.  1.
</event>
<event>
 4    1  0.5818436E+000  0.1892035E+03  0.7818608E-02  0.1159182E+00
         21   -1    0    0  503  502  0.00000000000E+00  0.00000000000E+00  0.34968889155E+03  0.34968889155E+03  0.00000000000E+00 0.  1.
         21   -1    0    0  501  503 -0.00000000000E+00 -0.00000000000E+00 -0.30149132001E+03  0.30149132001E+03  0.00000000000E+00 0.  1.
          6    1    1    2  501    0  0.55532872782E+02  0.55946978302E+02  0.28869991844E+03  0.34517474885E+03  0.17200000000E+03 0.  1.
         -6    1    1    2    0  502 -0.55532872782E+02 -0.55946978302E+02 -0.24050234690E+03  0.30600546271E+03  0.17200000000E+03 0.  1.
</event>
<event>
 4    1  0.5818436E+000  0.1794884E+03  0.7818608E-02  0.1168299E+00
         21   -1    0    0  503  502  0.00000000000E+00  0.00000000000E+00  0.14846279475E+03  0.14846279475E+03  0.00000000000E+00 0.  1.
         21   -1    0    0  501  503 -0.00000000000E+00 -0.00000000000E+00 -0.24584726698E+03  0.24584726698E+03  0.00000000000E+00 0.  1.
          6    1    1    2  501    0  0.29650843764E+01 -0.51218033829E+02 -0.11622976078E+03  0.21383506730E+03  0.17200000000E+03 0.  1.
         -6    1    1    2    0  502 -0.29650843764E+01  0.51218033829E+02  0.18845288557E+02  0.18047499443E+03  0.17200000000E+03 0.  1.
</event>
<event>
 4    1  0.5818436E+000  0.2495465E+03  0.7818608E-02  0.1113592E+00
         21   -1    0    0  503  502  0.00000000000E+00  0.00000000000E+00  0.90257511233E+03  0.90257511233E+03  0.00000000000E+00 0.  1.
         21   -1    0    0  501  503 -0.00000000000E+00 -0.00000000000E+00 -0.92210626062E+02  0.92210626062E+02  0.00000000000E+00 0.  1.
          6    1    1    2  501    0 -0.13904701115E+03 -0.11556550217E+03  0.15560999106E+03  0.29408829613E+03  0.17200000000E+03 0.  1.
         -6    1    1    2    0  502  0.13904701115E+03  0.11556550217E+03  0.65475449520E+03  0.70069744226E+03  0.17200000000E+03 0.  1.
</event>
<event>
 4    1  0.5818436E+000  0.2439263E+03  0.7818608E-02  0.1117205E+00
         21   -1    0    0  501  502  0.00000000000E+00  0.00000000000E+00  0.16291946281E+03  0.16291946281E+03  0.00000000000E+00 0. -1.
         21   -1    0    0  502  503 -0.00000000000E+00 -0.00000000000E+00 -0.37117875004E+03  0.37117875004E+03  0.00000000000E+00 0. -1.
          6    1    1    2  501    0 -0.12139611959E+03  0.12320309034E+03 -0.70268931171E+02  0.25384590209E+03  0.17200000000E+03 0.  1.
         -6    1    1    2    0  503  0.12139611959E+03 -0.12320309034E+03 -0.13799035606E+03  0.28025231076E+03  0.17200000000E+03 0.  1.
</event>
<event>
 4    1  0.5818436E+000  0.1726876E+03  0.7818608E-02  0.1175074E+00
         21   -1    0    0  501  502  0.00000000000E+00  0.00000000000E+00  0.14055516167E+04  0.14055516167E+04  0.00000000000E+00 0.  1.
         21   -1    0    0  502  503 -0.00000000000E+00 -0.00000000000E+00 -0.13860902098E+03  0.13860902098E+03  0.00000000000E+00 0.  1.
          6    1    1    2  501    0  0.12255429509E+02 -0.93178310782E+01  0.13440084243E+04  0.13550570697E+04  0.17200000000E+03 0.  1.
         -6    1    1    2    0  503 -0.12255429509E+02  0.93178310782E+01 -0.77065828508E+02  0.18910356806E+03  0.17200000000E+03 0.  1.
</event>
<event>
 4    1  0.5818436E+000  0.2068920E+03  0.7818608E-02  0.1144051E+00
         21   -1    0    0  501  502  0.00000000000E+00  0.00000000000E+00  0.47632051379E+03  0.47632051379E+03  0.00000000000E+00 0. -1.
         21   -1    0    0  502  503 -0.00000000000E+00 -0.00000000000E+00 -0.41357340962E+03  0.41357340962E+03  0.00000000000E+00 0. -1.
          6    1    1    2  501    0 -0.11497936454E+03  0.18597903185E+00  0.42502267696E+03  0.47270346391E+03  0.17200000000E+03 0. -1.
         -6    1    1    2    0  503  0.11497936454E+03 -0.18597903185E+00 -0.36227557279E+03  0.41719045950E+03  0.17200000000E+03 0. -1.
</event>
<event>
 4    1  0.5818436E+000  0.1870420E+03  0.7818608E-02  0.1161157E+00
         21   -1    0    0  503  502  0.00000000000E+00  0.00000000000E+00  0.83776193346E+02  0.83776193346E+02  0.00000000000E+00 0. -1.
         21   -1    0    0  501  503 -0.00000000000E+00 -0.00000000000E+00 -0.42029238815E+03  0.42029238815E+03  0.00000000000E+00 0. -1.
          6    1    1    2  501    0 -0.10639279506E+02  0.72715201333E+02 -0.18844115988E+03  0.26550850365E+03  0.17200000000E+03 0.  1.
         -6    1    1    2    0  502  0.10639279506E+02 -0.72715201333E+02 -0.14807503492E+03  0.23856007784E+03  0.17200000000E+03 0.  1.
</event>
<event>
 4    1  0.5818436E+000  0.1898005E+03  0.7818608E-02  0.1158641E+00
         21   -1    0    0  501  502  0.00000000000E+00  0.00000000000E+00  0.30864473680E+03  0.30864473680E+03  0.00000000000E+00 0. -1.
         21   -1    0    0  502  503 -0.00000000000E+00 -0.00000000000E+00 -0.30782635312E+03  0.30782635312E+03  0.00000000000E+00 0.  1.
          6    1    1    2  501    0  0.24853140460E+02 -0.76305625719E+02  0.24327718187E+03  0.30855795943E+03  0.17200000000E+03 0. -1.
         -6    1    1    2    0  503 -0.24853140460E+02  0.76305625719E+02 -0.24245879819E+03  0.30791313049E+03  0.17200000000E+03 0.  1.
</event>
<event>
 4    1  0.5818436E+000  0.1731597E+03  0.7818608E-02  0.1174592E+00
         21   -1    0    0  501  502  0.00000000000E+00  0.00000000000E+00  0.34470181516E+03  0.34470181516E+03  0.00000000000E+00 0. -1.
         21   -1    0    0  502  503 -0.00000000000E+00 -0.00000000000E+00 -0.56304328522E+03  0.56304328522E+03  0.00000000000E+00 0. -1.
          6    1    1    2  501    0 -0.20005740845E+02 -0.21814234515E+00  0.30817172734E+03  0.35348845920E+03  0.17200000000E+03 0. -1.
         -6    1    1    2    0  503  0.20005740845E+02  0.21814234515E+00 -0.52651319741E+03  0.55425664119E+03  0.17200000000E+03 0. -1.
</event>
<event>
 4    1  0.5818436E+000  0.2115054E+03  0.7818608E-02  0.1140379E+00
         21   -1    0    0  503  502  0.00000000000E+00  0.00000000000E+00  0.48265938990E+03  0.48265938990E+03  0.00000000000E+00 0.  1.
         21   -1    0    0  501  503 -0.00000000000E+00 -0.00000000000E+00 -0.95426347351E+02  0.95426347351E+02  0.00000000000E+00 0.  1.
          6    1    1    2  501    0 -0.99607623250E+02 -0.72310687177E+02  0.24262110613E+03  0.32186878573E+03  0.17200000000E+03 0. -1.
         -6    1    1    2    0  502  0.99607623250E+02  0.72310687177E+02  0.14461193642E+03  0.25621695151E+03  0.17200000000E+03 0. -1.
</event>
<event>
 4    1  0.5818436E+000  0.2166947E+03  0.7818608E-02  0.1136372E+00
         21   -1    0    0  503  502  0.00000000000E+00  0.00000000000E+00  0.10085827202E+03  0.10085827202E+03  0.00000000000E+00 0. -1.
         21   -1    0    0  501  503 -0.00000000000E+00 -0.00000000000E+00 -0.47446475150E+03  0.47446475150E+03  0.00000000000E+00 0. -1.
          6    1    1    2  501    0 -0.10521769222E+03 -0.79383945035E+02 -0.14741653482E+03  0.26208435326E+03  0.17200000000E+03 0. -1.
         -6    1    1    2    0  502  0.10521769222E+03  0.79383945035E+02 -0.22618994466E+03  0.31323867027E+03  0.17200000000E+03 0. -1.
</event>
<event>
 4    1  0.5818436E+000  0.2246606E+03  0.7818608E-02  0.1130455E+00
         21   -1    0    0  501  502  0.00000000000E+00  0.00000000000E+00  0.12568354191E+04  0.12568354191E+04  0.00000000000E+00 0. -1.
         21   -1    0    0  502  503 -0.00000000000E+00 -0.00000000000E+00 -0.50387945431E+02  0.50387945431E+02  0.00000000000E+00 0.  1.
          6    1    1    2  501    0  0.79495799795E+02 -0.12070138411E+03  0.30872311082E+03  0.38181456947E+03  0.17200000000E+03 0.  1.
         -6    1    1    2    0  503 -0.79495799795E+02  0.12070138411E+03  0.89772436284E+03  0.92540879505E+03  0.17200000000E+03 0. -1.
</event>
<event>
 4    1  0.5818436E+000  0.2582460E+03  0.7818608E-02  0.1108202E+00
         21   -1    0    0  503  502  0.00000000000E+00  0.00000000000E+00  0.39343330894E+03  0.39343330894E+03  0.00000000000E+00 0.  1.
         21   -1    0    0  501  503 -0.00000000000E+00 -0.00000000000E+00 -0.18654224857E+03  0.18654224857E+03  0.00000000000E+00 0.  1.
          6    1    1    2  501    0 -0.18256062844E+03  0.61470356531E+02  0.15821424496E+02  0.25873017849E+03  0.17200000000E+03 0.  1.
         -6    1    1    2    0  502  0.18256062844E+03 -0.61470356531E+02  0.19106963588E+03  0.32124537902E+03  0.17200000000E+03 0.  1.
</event>
<event>
 4    1  0.5818436E+000  0.1827442E+03  0.7818608E-02  0.1165173E+00
         21   -1    0    0  503  502  0.00000000000E+00  0.00000000000E+00  0.10323822324E+03  0.10323822324E+03  0.00000000000E+00 0. -1.
         21   -1    0    0  501  503 -0.00000000000E+00 -0.00000000000E+00 -0.70350916295E+03  0.70350916295E+03  0.00000000000E+00 0. -1.
          6    1    1    2  501    0  0.40762626273E+02 -0.46366613591E+02 -0.59660591724E+03  0.62396640538E+03  0.17200000000E+03 0. -1.
         -6    1    1    2    0  502 -0.40762626273E+02  0.46366613591E+02 -0.36650224788E+01  0.18278098081E+03  0.17200000000E+03 0. -1.
</event>
<event>
 4    1  0.5818436E+000  0.1955889E+03  0.7818608E-02  0.1153515E+00
         21   -1    0    0  501  502  0.00000000000E+00  0.00000000000E+00  0.64400522515E+03  0.64400522515E+03  0.00000000000E+00 0. -1.
         21   -1    0    0  502  503 -0.00000000000E+00 -0.00000000000E+00 -0.59558439654E+02  0.59558439654E+02  0.00000000000E+00 0. -1.
          6    1    1    2  501    0 -0.93111802498E+02 -0.11069164697E+01  0.31026732892E+03  0.36677083911E+03  0.17200000000E+03 0. -1.
         -6    1    1    2    0  503  0.93111802498E+02  0.11069164697E+01  0.27417945657E+03  0.33679282569E+03  0.17200000000E+03 0. -1.
</event>
<event>
 4    1  0.5818436E+000  0.1915365E+03  0.7818608E-02  0.1157083E+00
         21   -1    0    0  503  502  0.00000000000E+00  0.00000000000E+00  0.18434579581E+03  0.18434579581E+03  0.00000000000E+00 0. -1.
         21   -1    0    0  501  503 -0.00000000000E+00 -0.00000000000E+00 -0.20203943803E+03  0.20203943803E+03  0.00000000000E+00 0. -1.
          6    1    1    2  501    0 -0.63148247032E+02 -0.55808117671E+02  0.14818518433E+02  0.19210891596E+03  0.17200000000E+03 0. -1.
         -6    1    1    2    0  502  0.63148247032E+02  0.55808117671E+02 -0.32512160659E+02  0.19427631789E+03  0.17200000000E+03 0. -1.
</event>
<event>
 4    1  0.5818436E+000  0.2092230E+03  0.7818608E-02  0.1142183E+00
         21   -1    0    0  501  502  0.00000000000E+00  0.00000000000E+00  0.34760306377E+03  0.34760306377E+03  0.00000000000E+00 0.  1.
         21   -1    0    0  502  503 -0.00000000000E+00 -0.00000000000E+00 -0.13775327625E+03  0.13775327625E+03  0.00000000000E+00 0.  1.
          6    1    1    2  501    0 -0.69372125425E+02  0.96838938121E+02  0.17601612099E+03  0.27341533712E+03  0.17200000000E+03 0.  1.
         -6    1    1    2    0  503  0.69372125425E+02 -0.96838938121E+02  0.33833666529E+02  0.21194100291E+03  0.17200000000E+03 0.  1.
</event>
<event>
 4    1  0.5818436E+000  0.1808576E+03  0.7818608E-02  0.1166976E+00
         21   -1    0    0  503  502  0.00000000000E+00  0.00000000000E+00  0.84644837865E+03  0.84644837865E+03  0.00000000000E+00 0. -1.
         21   -1    0    0  501  503 -0.00000000000E+00 -0.00000000000E+00 -0.38670030102E+02  0.38670030102E+02  0.00000000000E+00 0.  1.
          6    1    1    2  501    0 -0.34153971706E+02  0.44260152469E+02  0.39222704398E+03  0.43191609013E+03  0.17200000000E+03 0. -1.
         -6    1    1    2    0  502  0.34153971706E+02 -0.44260152469E+02  0.41555130456E+03  0.45320231862E+03  0.17200000000E+03 0.  1.
</event>
<event>
 4    1  0.5818436E+000  0.3191051E+03  0.7818608E-02  0.1076062E+00
         21   -1    0    0  501  502  0.00000000000E+00  0.00000000000E+00  0.49968462499E+03  0.49968462499E+03  0.00000000000E+00 0. -1.
         21   -1    0    0  502  503 -0.00000000000E+00 -0.00000000000E+00 -0.20386288490E+03  0.20386288490E+03  0.00000000000E+00 0.  1.
          6    1    1    2  501    0  0.24967125393E+03 -0.99540742858E+02  0.14102303403E+03  0.34887761559E+03  0.17200000000E+03 0.  1.
         -6    1    1    2    0  503 -0.24967125393E+03  0.99540742858E+02  0.15479870605E+03  0.35466989430E+03  0.17200000000E+03 0.  1.
</event>
<event>
 4    1  0.5818436E+000  0.1913690E+03  0.7818608E-02  0.1157232E+00
         21   -1    0    0  501  502  0.00000000000E+00  0.00000000000E+00  0.48148598718E+02  0.48148598718E+02  0.00000000000E+00 0.  1.
         21   -1    0    0  502  503 -0.00000000000E+00 -0.00000000000E+00 -0.13677373895E+04  0.13677373895E+04  0.00000000000E+00 0. -1.
          6    1    1    2  501    0 -0.47743177627E+02  0.68983315666E+02 -0.18812434195E+03  0.26835215088E+03  0.17200000000E+03 0.  1.
         -6    1    1    2    0  503  0.47743177627E+02 -0.68983315666E+02 -0.11314644488E+04  0.11475338373E+04  0.17200000000E+03 0. -1.
</event>
<event>
 4    1  0.5818436E+000  0.1835478E+03  0.7818608E-02  0.1164413E+00
         21   -1    0    0  501  502  0.00000000000E+00  0.00000000000E+00  0.61800152152E+02  0.61800152152E+02  0.00000000000E+00 0.  1.
         21   -1    0    0  502  503 -0.00000000000E+00 -0.00000000000E+00 -0.54824298707E+03  0.54824298707E+03  0.00000000000E+00 0.  1.
          6    1    1    2  501    0  0.58256273674E+02 -0.26683486698E+02 -0.26616483863E+03  0.32331644438E+03  0.17200000000E+03 0.  1.
         -6    1    1    2    0  503 -0.58256273674E+02  0.26683486698E+02 -0.22027799629E+03  0.28672669484E+03  0.17200000000E+03 0.  1.
</event>
<event>
 4    1  0.5818436E+000  0.2781334E+03  0.7818608E-02  0.1096713E+00
         21   -1    0    0  501  502  0.00000000000E+00  0.00000000000E+00  0.12940652565E+04  0.12940652565E+04  0.00000000000E+00 0.  1.
         21   -1    0    0  502  503 -0.00000000000E+00 -0.00000000000E+00 -0.74683958028E+02  0.74683958028E+02  0.00000000000E+00 0. -1.
          6    1    1    2  501    0  0.80945198956E+02 -0.20303215744E+03  0.91542393904E+03  0.95674404642E+03  0.17200000000E+03 0. -1.
         -6    1    1    2    0  503 -0.80945198956E+02  0.20303215744E+03  0.30395735940E+03  0.41200516808E+03  0.17200000000E+03 0.  1.
</event>
<event>
 4    1  0.5818436E+000  0.2321610E+03  0.7818608E-02  0.1125128E+00
         21   -1    0    0  503  502  0.00000000000E+00  0.00000000000E+00  0.75661396750E+02  0.75661396750E+02  0.00000000000E+00 0. -1.
         21   -1    0    0  501  503 -0.00000000000E+00 -0.00000000000E+00 -0.71670757086E+03  0.71670757086E+03  0.00000000000E+00 0.  1.
          6    1    1    2  501    0  0.14432505296E+03  0.59033859353E+02 -0.28969286958E+03  0.37124207217E+03  0.17200000000E+03 0. -1.
         -6    1    1    2    0  502 -0.14432505296E+03 -0.59033859353E+02 -0.35135330453E+03  0.42112689544E+03  0.17200000000E+03 0.  1.
</event>
<event>
 4    1  0.5818436E+000  0.1897265E+03  0.7818608E-02  0.1158708E+00
         21   -1    0    0  503  502  0.00000000000E+00  0.00000000000E+00  0.10877105602E+03  0.10877105602E+03  0.00000000000E+00 0. -1.
         21   -1    0    0  501  503 -0.00000000000E+00 -0.00000000000E+00 -0.45270444230E+03  0.45270444230E+03  0.00000000000E+00 0.  1.
          6    1    1    2  501    0  0.66644705692E+02  0.44391867892E+02 -0.31756707266E+03  0.36992566871E+03  0.17200000000E+03 0.  1.
         -6    1    1    2    0  502 -0.66644705692E+02 -0.44391867892E+02 -0.26366313615E+02  0.19154982961E+03  0.17200000000E+03 0. -1.
</event>
<event>
 4    1  0.5818436E+000  0.1728625E+03  0.7818608E-02  0.1174895E+00
         21   -1    0    0  503  502  0.00000000000E+00  0.00000000000E+00  0.78586739905E+03  0.78586739905E+03  0.00000000000E+00 0.  1.
         21   -1    0    0  501  503 -0.00000000000E+00 -0.00000000000E+00 -0.38191577327E+02  0.38191577327E+02  0.00000000000E+00 0.  1.
          6    1    1    2  501    0 -0.15927063703E+00  0.17245640884E+02  0.40117077719E+03  0.43682883372E+03  0.17200000000E+03 0.  1.
         -6    1    1    2    0  502  0.15927063703E+00 -0.17245640884E+02  0.34650504453E+03  0.38723014266E+03  0.17200000000E+03 0.  1.
</event>
<event>
 4    1  0.5818436E+000  0.2102863E+03  0.7818608E-02  0.1141339E+00
         21   -1    0    0  501  502  0.00000000000E+00  0.00000000000E+00  0.75323152484E+02  0.75323152484E+02  0.00000000000E+00 0. -1.
         21   -1    0    0  502  503 -0.00000000000E+00 -0.00000000000E+00 -0.60432895012E+03  0.60432895012E+03  0.00000000000E+00 0.  1.
          6    1    1    2  501    0 -0.11562059672E+03  0.35611725172E+02 -0.20708226533E+03  0.29513282090E+03  0.17200000000E+03 0. -1.
         -6    1    1    2    0  503  0.11562059672E+03 -0.35611725172E+02 -0.32192353230E+03  0.38451928170E+03  0.17200000000E+03 0.  1.
</event>
<event>
 4    1  0.5818436E+000  0.2226913E+03  0.7818608E-02  0.1131892E+00
         21   -1    0    0  501  502  0.00000000000E+00  0.00000000000E+00  0.13250304803E+03  0.13250304803E+03  0.00000000000E+00 0. -1.
         21   -1    0    0  502  503 -0.00000000000E+00 -0.00000000000E+00 -0.97698699569E+03  0.97698699569E+03  0.00000000000E+00 0.  1.
          6    1    1    2  501    0  0.31119661189E+02  0.13798183091E+03  0.13477621928E+02  0.22309877917E+03  0.17200000000E+03 0. -1.
         -6    1    1    2    0  503 -0.31119661189E+02 -0.13798183091E+03 -0.85796156959E+03  0.88639126455E+03  0.17200000000E+03 0.  1.
</event>
<event>
 4    1  0.5818436E+000  0.3017765E+03  0.7818608E-02  0.1084356E+00
         21   -1    0    0  503  502  0.00000000000E+00  0.00000000000E+00  0.20504583029E+03  0.20504583029E+03  0.00000000000E+00 0.  1.
         21   -1    0    0  501  503 -0.00000000000E+00 -0.00000000000E+00 -0.59123354812E+03  0.59123354812E+03  0.00000000000E+00 0. -1.
          6    1    1    2  501    0  0.15441656284E+03  0.19401173064E+03 -0.39168183794E+03  0.49445291856E+03  0.17200000000E+03 0. -1.
         -6    1    1    2    0  502 -0.15441656284E+03 -0.19401173064E+03  0.54941201120E+01  0.30182645985E+03  0.17200000000E+03 0.  1.
</event>
<event>
 4    1  0.5818436E+000  0.2221618E+03  0.7818608E-02  0.1132282E+00
         21   -1    0    0  503  502  0.00000000000E+00  0.00000000000E+00  0.57940828591E+03  0.57940828591E+03  0.00000000000E+00 0.  1.
         21   -1    0    0  501  503 -0.00000000000E+00 -0.00000000000E+00 -0.96766620004E+02  0.96766620004E+02  0.00000000000E+00 0.  1.
          6    1    1    2  501    0  0.11762741561E+03  0.77043330076E+02  0.12434836754E+03  0.25459457992E+03  0.17200000000E+03 0.  1.
         -6    1    1    2    0  502 -0.11762741561E+03 -0.77043330076E+02  0.35829329836E+03  0.42158032599E+03  0.17200000000E+03 0.  1.
</event>
<event>
 4    1  0.5818436E+000  0.1897191E+03  0.7818608E-02  0.1158715E+00
         21   -1    0    0  501  502  0.00000000000E+00  0.00000000000E+00  0.29934231663E+03  0.29934231663E+03  0.00000000000E+00 0.  1.
         21   -1    0    0  502  503 -0.00000000000E+00 -0.00000000000E+00 -0.12979059097E+03  0.12979059097E+03  0.00000000000E+00 0.  1.
          6    1    1    2  501    0  0.59641039189E+02 -0.53406653153E+02  0.14297608642E+03  0.23756154033E+03  0.17200000000E+03 0.  1.
         -6    1    1    2    0  503 -0.59641039189E+02  0.53406653153E+02  0.26575639242E+02  0.19157136727E+03  0.17200000000E+03 0.  1.
</event>
<event>
 4    1  0.5818436E+000  0.1774959E+03  0.7818608E-02  0.1170249E+00
         21   -1    0    0  501  502  0.00000000000E+00  0.00000000000E+00  0.50630500487E+02  0.50630500487E+02  0.00000000000E+00 0. -1.
         21   -1    0    0  502  503 -0.00000000000E+00 -0.00000000000E+00 -0.10199106230E+04  0.10199106230E+04  0.00000000000E+00 0. -1.
          6    1    1    2  501    0 -0.33538420377E+02 -0.28213010405E+02 -0.15040738060E+03  0.23265248706E+03  0.17200000000E+03 0. -1.
         -6    1    1    2    0  503  0.33538420377E+02  0.28213010405E+02 -0.81887274190E+03  0.83788863641E+03  0.17200000000E+03 0. -1.
</event>
<event>
 4    1  0.5818436E+000  0.2463502E+03  0.7818608E-02  0.1115633E+00
         21   -1    0    0  501  502  0.00000000000E+00  0.00000000000E+00  0.82342716664E+02  0.82342716664E+02  0.00000000000E+00 0.  1.
         21   -1    0    0  502  503 -0.00000000000E+00 -0.00000000000E+00 -0.94156207090E+03  0.94156207090E+03  0.00000000000E+00 0.  1.
          6    1    1    2  501    0  0.52542777322E+02  0.16835577727E+03 -0.19099669077E+03  0.31171805703E+03  0.17200000000E+03 0.  1.
         -6    1    1    2    0  503 -0.52542777322E+02 -0.16835577727E+03 -0.66822266346E+03  0.71218673053E+03  0.17200000000E+03 0.  1.
</event>
<event>
 4    1  0.5818436E+000  0.2290628E+03  0.7818608E-02  0.1127301E+00
         21   -1    0    0  503  502  0.00000000000E+00  0.00000000000E+00  0.31793352650E+03  0.31793352650E+03  0.00000000000E+00 0. -1.
         21   -1    0    0  501  503 -0.00000000000E+00 -0.00000000000E+00 -0.17565619762E+03  0.17565619762E+03  0.00000000000E+00 0.  1.
          6    1    1    2  501    0  0.25820653771E+02 -0.14906051934E+03  0.10448571528E+02  0.22930093160E+03  0.17200000000E+03 0. -1.
         -6    1    1    2    0  502 -0.25820653771E+02  0.14906051934E+03  0.13182875735E+03  0.26428879252E+03  0.17200000000E+03 0.  1.
</event>
<event>
 4    1  0.5818436E+000  0.2064784E+03  0.7818608E-02  0.1144385E+00
         21   -1    0    0  501  502  0.00000000000E+00  0.00000000000E+00  0.67884918904E+03  0.67884918904E+03  0.00000000000E+00 0.  1.
         21   -1    0    0  502  503 -0.00000000000E+00 -0.00000000000E+00 -0.14216012917E+03  0.14216012917E+03  0.00000000000E+00 0. -1.
          6    1    1    2  501    0  0.26827107669E+02 -0.11103891168E+03  0.57505168063E+03  0.61099735598E+03  0.17200000000E+03 0.  1.
         -6    1    1    2    0  503 -0.26827107669E+02  0.11103891168E+03 -0.38362620759E+02  0.21001196224E+03  0.17200000000E+03 0. -1.
</event>
<event>
 4    1  0.5818436E+000  0.1840133E+03  0.7818608E-02  0.1163975E+00
         21   -1    0    0  501  502  0.00000000000E+00  0.00000000000E+00  0.22276845294E+02  0.22276845294E+02  0.00000000000E+00 0. -1.
         21   -1    0    0  502  503 -0.00000000000E+00 -0.00000000000E+00 -0.19603078966E+04  0.19603078966E+04  0.00000000000E+00 0. -1.
          6    1    1    2  501    0  0.32254212254E+02  0.56890815548E+02 -0.49921254303E+03  0.53204704888E+03  0.17200000000E+03 0. -1.
         -6    1    1    2    0  503 -0.32254212254E+02 -0.56890815548E+02 -0.14388185082E+04  0.14505376930E+04  0.17200000000E+03 0. -1.
</event>
<event>
 4    1  0.5818436E+000  0.2215757E+03  0.7818608E-02  0.1132714E+00
         21   -1    0    0  503  502  0.00000000000E+00  0.00000000000E+00  0.51626425436E+03  0.51626425436E+03  0.00000000000E+00 0.  1.
         21   -1    0    0  501  503 -0.00000000000E+00 -0.00000000000E+00 -0.11139449157E+03  0.11139449157E+03  0.00000000000E+00 0. -1.
          6    1    1    2  501    0  0.75416416937E+02  0.11757617687E+03  0.82400314171E+02  0.23640136439E+03  0.17200000000E+03 0.  1.
         -6    1    1    2    0  502 -0.75416416937E+02 -0.11757617687E+03  0.32246944863E+03  0.39125738154E+03  0.17200000000E+03 0. -1.
</event>
<event>
 4    1  0.5818436E+000  0.2547446E+03  0.7818608E-02  0.1110343E+00
         21   -1    0    0  501  502  0.00000000000E+00  0.00000000000E+00  0.44199003779E+03  0.44199003779E+03  0.00000000000E+00 0. -1.
         21   -1    0    0  502  503 -0.00000000000E+00 -0.00000000000E+00 -0.43540965805E+03  0.43540965805E+03  0.00000000000E+00 0. -1.
          6    1    1    2  501    0 -0.16962283175E+03 -0.80863510373E+02  0.36044434957E+03  0.44137845609E+03  0.17200000000E+03 0. -1.
         -6    1    1    2    0  503  0.16962283175E+03  0.80863510373E+02 -0.35386396984E+03  0.43602123975E+03  0.17200000000E+03 0. -1.
</event>
<event>
 4    1  0.5818436E+000  0.2604648E+03  0.7818608E-02  0.1106864E+00
         21   -1    0    0  503  502  0.00000000000E+00  0.00000000000E+00  0.38428446340E+03  0.38428446340E+03  0.00000000000E+00 0. -1.
         21   -1    0    0  501  503 -0.00000000000E+00 -0.00000000000E+00 -0.17779754315E+03  0.17779754315E+03  0.00000000000E+00 0.  1.
          6    1    1    2  501    0  0.19559622058E+03 -0.12621108638E+00  0.79615556034E+02  0.27236103649E+03  0.17200000000E+03 0. -1.
         -6    1    1    2    0  502 -0.19559622058E+03  0.12621108638E+00  0.12687136422E+03  0.28972097006E+03  0.17200000000E+03 0. -1.
</event>
<event>
 4    1  0.5818436E+000  0.2082004E+03  0.7818608E-02  0.1142999E+00
         21   -1    0    0  503  502  0.00000000000E+00  0.00000000000E+00  0.10071038024E+03  0.10071038024E+03  0.00000000000E+00 0.  1.
         21   -1    0    0  501  503 -0.00000000000E+00 -0.00000000000E+00 -0.44445027196E+03  0.44445027196E+03  0.00000000000E+00 0.  1.
          6    1    1    2  501    0 -0.29351349106E+02  0.11358647609E+03 -0.12343339398E+03  0.24203964963E+03  0.17200000000E+03 0.  1.
         -6    1    1    2    0  502  0.29351349106E+02 -0.11358647609E+03 -0.22030649774E+03  0.30312100256E+03  0.17200000000E+03 0.  1.
</event>
<event>
 4    1  0.5818436E+000  0.2301341E+03  0.7818608E-02  0.1126545E+00
         21   -1    0    0  503  502  0.00000000000E+00  0.00000000000E+00  0.85122999376E+02  0.85122999376E+02  0.00000000000E+00 0.  1.
         21   -1    0    0  501  503 -0.00000000000E+00 -0.00000000000E+00 -0.63490877678E+03  0.63490877678E+03  0.00000000000E+00 0. -1.
          6    1    1    2  501    0  0.12995880138E+03  0.80550684780E+02 -0.32587107295E+03  0.39894067110E+03  0.17200000000E+03 0. -1.
         -6    1    1    2    0  502 -0.12995880138E+03 -0.80550684780E+02 -0.22391470446E+03  0.32109110506E+03  0.17200000000E+03 0.  1.
</event>
<event>
 4    1  0.5818436E+000  0.3430581E+03  0.7818608E-02  0.1065501E+00
         21   -1    0    0  501  502  0.00000000000E+00  0.00000000000E+00  0.28115868934E+03  0.28115868934E+03  0.00000000000E+00 0. -1.
         21   -1    0    0  502  503 -0.00000000000E+00 -0.00000000000E+00 -0.42923944930E+03  0.42923944930E+03  0.00000000000E+00 0.  1.
          6    1    1    2  501    0  0.28615805261E+03  0.78857010419E+02 -0.13000118363E+03  0.36686396240E+03  0.17200000000E+03 0. -1.
         -6    1    1    2    0  503 -0.28615805261E+03 -0.78857010419E+02 -0.18079576334E+02  0.34353417624E+03  0.17200000000E+03 0.  1.
</event>
<event>
 4    1  0.5818436E+000  0.1963897E+03  0.7818608E-02  0.1152821E+00
         21   -1    0    0  501  502  0.00000000000E+00  0.00000000000E+00  0.50044065267E+02  0.50044065267E+02  0.00000000000E+00 0. -1.
         21   -1    0    0  502  503 -0.00000000000E+00 -0.00000000000E+00 -0.77128685827E+03  0.77128685827E+03  0.00000000000E+00 0.  1.
          6    1    1    2  501    0  0.80738473302E+02  0.49661080585E+02 -0.34928641008E+03  0.40071176706E+03  0.17200000000E+03 0.  1.
         -6    1    1    2    0  503 -0.80738473302E+02 -0.49661080585E+02 -0.37195638293E+03  0.42061915648E+03  0.17200000000E+03 0.  1.
</event>
<event>
 4    1  0.5818436E+000  0.3958352E+03  0.7818608E-02  0.1045231E+00
         21   -1    0    0  503  502  0.00000000000E+00  0.00000000000E+00  0.71260358068E+03  0.71260358068E+03  0.00000000000E+00 0.  1.
         21   -1    0    0  501  503 -0.00000000000E+00 -0.00000000000E+00 -0.24844486933E+03  0.24844486933E+03  0.00000000000E+00 0. -1.
          6    1    1    2  501    0 -0.10976104721E+02  0.35634399460E+03  0.69136567190E+02  0.40182755292E+03  0.17200000000E+03 0. -1.
         -6    1    1    2    0  502  0.10976104721E+02 -0.35634399460E+03  0.39502214416E+03  0.55922089709E+03  0.17200000000E+03 0.  1.
</event>
<event>
 4    1  0.5818436E+000  0.2791125E+03  0.7818608E-02  0.1096175E+00
         21   -1    0    0  503  502  0.00000000000E+00  0.00000000000E+00  0.18296721152E+03  0.18296721152E+03  0.00000000000E+00 0. -1.
         21   -1    0    0  501  503 -0.00000000000E+00 -0.00000000000E+00 -0.44606551269E+03  0.44606551269E+03  0.00000000000E+00 0. -1.
          6    1    1    2  501    0  0.18451955133E+03  0.11946680005E+03 -0.64477837604E+02  0.28646321348E+03  0.17200000000E+03 0. -1.
         -6    1    1    2    0  502 -0.18451955133E+03 -0.11946680005E+03 -0.19862046356E+03  0.34256951073E+03  0.17200000000E+03 0. -1.
</event>
<event>
 4    1  0.5818436E+000  0.1755744E+03  0.7818608E-02  0.1172156E+00
         21   -1    0    0  503  502  0.00000000000E+00  0.00000000000E+00  0.11476509822E+03  0.11476509822E+03  0.00000000000E+00 0. -1.
         21   -1    0    0  501  503 -0.00000000000E+00 -0.00000000000E+00 -0.26860920756E+03  0.26860920756E+03  0.00000000000E+00 0.  1.
          6    1    1    2  501    0 -0.26502933707E+02 -0.23237013363E+02 -0.77766180271E+02  0.19202589169E+03  0.17200000000E+03 0.  1.
         -6    1    1    2    0  502  0.26502933707E+02  0.23237013363E+02 -0.76077929061E+02  0.19134841409E+03  0.17200000000E+03 0. -1.
</event>
<event>
 4    1  0.5818436E+000  0.1886453E+03  0.7818608E-02  0.1159689E+00
         21   -1    0    0  503  502  0.00000000000E+00  0.00000000000E+00  0.19081968032E+03  0.19081968032E+03  0.00000000000E+00 0.  1.
         21   -1    0    0  501  503 -0.00000000000E+00 -0.00000000000E+00 -0.24032140624E+03  0.24032140624E+03  0.00000000000E+00 0.  1.
          6    1    1    2  501    0 -0.36308233388E+01  0.77394299773E+02 -0.12677145300E+03  0.22728409934E+03  0.17200000000E+03 0.  1.
         -6    1    1    2    0  502  0.36308233388E+01 -0.77394299773E+02  0.77269727090E+02  0.20385698722E+03  0.17200000000E+03 0.  1.
</event>
<event>
 4    1  0.5818436E+000  0.1789729E+03  0.7818608E-02  0.1168801E+00
         21   -1    0    0  501  502  0.00000000000E+00  0.00000000000E+00  0.80573979481E+03  0.80573979481E+03  0.00000000000E+00 0.  1.
         21   -1    0    0  502  503 -0.00000000000E+00 -0.00000000000E+00 -0.39762403509E+02  0.39762403509E+02  0.00000000000E+00 0. -1.
          6    1    1    2  501    0  0.40154694514E+02  0.28894803175E+02  0.37681090582E+03  0.41715436938E+03  0.17200000000E+03 0. -1.
         -6    1    1    2    0  503 -0.40154694514E+02 -0.28894803175E+02  0.38916648548E+03  0.42834782894E+03  0.17200000000E+03 0.  1.
</event>
<event>
 4    1  0.5818436E+000  0.3153427E+03  0.7818608E-02  0.1077813E+00
         21   -1    0    0  503  502  0.00000000000E+00  0.00000000000E+00  0.55292142927E+03  0.55292142927E+03  0.00000000000E+00 0. -1.
         21   -1    0    0  501  503 -0.00000000000E+00 -0.00000000000E+00 -0.18532082721E+03  0.18532082721E+03  0.00000000000E+00 0.  1.
          6    1    1    2  501    0 -0.16607133733E+03  0.20561449638E+03  0.12035926394E+03  0.33753127650E+03  0.17200000000E+03 0. -1.
         -6    1    1    2    0  502  0.16607133733E+03 -0.20561449638E+03  0.24724133812E+03  0.40071097998E+03  0.17200000000E+03 0.  1.
</event>
<event>
 4    1  0.5818436E+000  0.2102853E+03  0.7818608E-02  0.1141340E+00
         21   -1    0    0  501  502  0.00000000000E+00  0.00000000000E+00  0.84286195138E+03  0.84286195138E+03  0.00000000000E+00 0.  1.
         21   -1    0    0  502  503 -0.00000000000E+00 -0.00000000000E+00 -0.57104098349E+02  0.57104098349E+02  0.00000000000E+00 0. -1.
          6    1    1    2  501    0 -0.11378627017E+03 -0.41092327243E+02  0.26460839186E+03  0.33799037809E+03  0.17200000000E+03 0. -1.
         -6    1    1    2    0  503  0.11378627017E+03  0.41092327243E+02  0.52114946117E+03  0.56197567164E+03  0.17200000000E+03 0.  1.
</event>
<event>
 4    1  0.5818436E+000  0.1762228E+03  0.7818608E-02  0.1171509E+00
         21   -1    0    0  503  502  0.00000000000E+00  0.00000000000E+00  0.20766080588E+03  0.20766080588E+03  0.00000000000E+00 0. -1.
         21   -1    0    0  501  503 -0.00000000000E+00 -0.00000000000E+00 -0.15447742297E+03  0.15447742297E+03  0.00000000000E+00 0. -1.
          6    1    1    2  501    0  0.37005752581E+02 -0.10052861451E+02 -0.57657154724E+01  0.17631712685E+03  0.17200000000E+03 0. -1.
         -6    1    1    2    0  502 -0.37005752581E+02  0.10052861451E+02  0.58949098387E+02  0.18582110200E+03  0.17200000000E+03 0. -1.
</event>
<event>
 4    1  0.5818436E+000  0.1853403E+03  0.7818608E-02  0.1162733E+00
         21   -1    0    0  501  502  0.00000000000E+00  0.00000000000E+00  0.65031537773E+03  0.65031537773E+03  0.00000000000E+00 0. -1.
         21   -1    0    0  502  503 -0.00000000000E+00 -0.00000000000E+00 -0.64160993018E+02  0.64160993018E+02  0.00000000000E+00 0. -1.
          6    1    1    2  501    0  0.18325746860E+02 -0.66567092731E+02  0.44325579197E+03  0.48044428184E+03  0.17200000000E+03 0. -1.
         -6    1    1    2    0  503 -0.18325746860E+02  0.66567092731E+02  0.14289859274E+03  0.23403208891E+03  0.17200000000E+03 0. -1.
</event>
<event>
 4    1  0.5818436E+000  0.2289910E+03  0.7818608E-02  0.1127352E+00
         21   -1    0    0  503  502  0.00000000000E+00  0.00000000000E+00  0.23066336680E+03  0.23066336680E+03  0.00000000000E+00 0. -1.
         21   -1    0    0  501  503 -0.00000000000E+00 -0.00000000000E+00 -0.30862307086E+03  0.30862307086E+03  0.00000000000E+00 0. -1.
          6    1    1    2  501    0  0.39203378182E+02 -0.14599994392E+03 -0.17736832826E+03  0.28964877413E+03  0.17200000000E+03 0. -1.
         -6    1    1    2    0  502 -0.39203378182E+02  0.14599994392E+03  0.99408624207E+02  0.24963766353E+03  0.17200000000E+03 0. -1.
</event>
<event>
 4    1  0.5818436E+000  0.1751933E+03  0.7818608E-02  0.1172538E+00
         21   -1    0    0  503  502  0.00000000000E+00  0.00000000000E+00  0.25811214987E+02  0.25811214987E+02  0.00000000000E+00 0. -1.
         21   -1    0    0  501  503 -0.00000000000E+00 -0.00000000000E+00 -0.14395352054E+04  0.14395352054E+04  0.00000000000E+00 0. -1.
          6    1    1    2  501    0  0.12676596264E+01 -0.33272660620E+02 -0.40127982909E+03  0.43785634418E+03  0.17200000000E+03 0. -1.
         -6    1    1    2    0  502 -0.12676596264E+01  0.33272660620E+02 -0.10124441614E+04  0.10274900762E+04  0.17200000000E+03 0. -1.
</event>
<event>
 4    1  0.5818436E+000  0.1977162E+03  0.7818608E-02  0.1151680E+00
         21   -1    0    0  501  502  0.00000000000E+00  0.00000000000E+00  0.42577146617E+02  0.42577146617E+02  0.00000000000E+00 0.  1.
         21   -1    0    0  502  503 -0.00000000000E+00 -0.00000000000E+00 -0.91814788410E+03  0.91814788410E+03  0.00000000000E+00 0.  1.
          6    1    1    2  501    0  0.25639717459E+02  0.94075938282E+02 -0.43617415457E+03  0.47889411188E+03  0.17200000000E+03 0.  1.
         -6    1    1    2    0  503 -0.25639717459E+02 -0.94075938282E+02 -0.43939658291E+03  0.48183091884E+03  0.17200000000E+03 0.  1.
</event>
<event>
 4    1  0.5818436E+000  0.3340315E+03  0.7818608E-02  0.1069367E+00
         21   -1    0    0  501  502  0.00000000000E+00  0.00000000000E+00  0.17850820023E+04  0.17850820023E+04  0.00000000000E+00 0. -1.
         21   -1    0    0  502  503 -0.00000000000E+00 -0.00000000000E+00 -0.73074649459E+02  0.73074649459E+02  0.00000000000E+00 0.  1.
          6    1    1    2  501    0  0.53404820637E+02 -0.28132007925E+03  0.12093441330E+04  0.12546275518E+04  0.17200000000E+03 0. -1.
         -6    1    1    2    0  503 -0.53404820637E+02  0.28132007925E+03  0.50266321990E+03  0.60352909996E+03  0.17200000000E+03 0.  1.
</event>
<event>
 4    1  0.5818436E+000  0.2055338E+03  0.7818608E-02  0.1145152E+00
         21   -1    0    0  503  502  0.00000000000E+00  0.00000000000E+00  0.38230216177E+03  0.38230216177E+03  0.00000000000E+00 0. -1.
         21   -1    0    0  501  503 -0.00000000000E+00 -0.00000000000E+00 -0.24408463676E+03  0.24408463676E+03  0.00000000000E+00 0. -1.
          6    1    1    2  501    0  0.94624619849E+02  0.60879628656E+02 -0.16258890393E+03  0.26206735689E+03  0.17200000000E+03 0. -1.
         -6    1    1    2    0  502 -0.94624619849E+02 -0.60879628656E+02  0.30080642894E+03  0.36431944164E+03  0.17200000000E+03 0. -1.
</event>
<event>
 4    1  0.5818436E+000  0.2018357E+03  0.7818608E-02  0.1148199E+00
         21   -1    0    0  501  502  0.00000000000E+00  0.00000000000E+00  0.16749027495E+03  0.16749027495E+03  0.00000000000E+00 0.  1.
         21   -1    0    0  502  503 -0.00000000000E+00 -0.00000000000E+00 -0.29251352616E+03  0.29251352616E+03  0.00000000000E+00 0.  1.
          6    1    1    2  501    0  0.94261667098E+02 -0.47627556245E+02  0.31902287284E+02  0.20434138575E+03  0.17200000000E+03 0.  1.
         -6    1    1    2    0  503 -0.94261667098E+02  0.47627556245E+02 -0.15692553849E+03  0.25566241536E+03  0.17200000000E+03 0.  1.
</event>
<event>
 4    1  0.5818436E+000  0.1785061E+03  0.7818608E-02  0.1169257E+00
         21   -1    0    0  501  502  0.00000000000E+00  0.00000000000E+00  0.20421017573E+03  0.20421017573E+03  0.00000000000E+00 0. -1.
         21   -1    0    0  502  503 -0.00000000000E+00 -0.00000000000E+00 -0.16783448312E+03  0.16783448312E+03  0.00000000000E+00 0. -1.
          6    1    1    2  501    0 -0.21500507487E+02 -0.42639755245E+02 -0.31130918407E+02  0.18120031631E+03  0.17200000000E+03 0. -1.
         -6    1    1    2    0  503  0.21500507487E+02  0.42639755245E+02  0.67506611014E+02  0.19084434254E+03  0.17200000000E+03 0. -1.
</event>
<event>
 4    1  0.5818436E+000  0.1969264E+03  0.7818608E-02  0.1152358E+00
         21   -1    0    0  501  502  0.00000000000E+00  0.00000000000E+00  0.69607017906E+03  0.69607017906E+03  0.00000000000E+00 0. -1.
         21   -1    0    0  502  503 -0.00000000000E+00 -0.00000000000E+00 -0.55835203145E+02  0.55835203145E+02  0.00000000000E+00 0.  1.
          6    1    1    2  501    0 -0.84667135560E+02 -0.45027430141E+02  0.30251232425E+03  0.36096218587E+03  0.17200000000E+03 0. -1.
         -6    1    1    2    0  503  0.84667135560E+02  0.45027430141E+02  0.33772265167E+03  0.39094319634E+03  0.17200000000E+03 0. -1.
</event>
<event>
 4    1  0.5818436E+000  0.1983553E+03  0.7818608E-02  0.1151134E+00
         21   -1    0    0  501  502  0.00000000000E+00  0.00000000000E+00  0.18234121731E+03  0.18234121731E+03  0.00000000000E+00 0. -1.
         21   -1    0    0  502  503 -0.00000000000E+00 -0.00000000000E+00 -0.22898143858E+03  0.22898143858E+03  0.00000000000E+00 0.  1.
          6    1    1    2  501    0  0.98796138204E+02  0.36004324029E+00 -0.72709493070E+02  0.21126163148E+03  0.17200000000E+03 0. -1.
         -6    1    1    2    0  503 -0.98796138204E+02 -0.36004324029E+00  0.26069271805E+02  0.20006102441E+03  0.17200000000E+03 0. -1.
</event>
<event>
 4    1  0.5818436E+000  0.1781445E+03  0.7818608E-02  0.1169611E+00
         21   -1    0    0  501  502  0.00000000000E+00  0.00000000000E+00  0.17045012474E+03  0.17045012474E+03  0.00000000000E+00 0. -1.
         21   -1    0    0  502  503 -0.00000000000E+00 -0.00000000000E+00 -0.26325943044E+03  0.26325943044E+03  0.00000000000E+00 0. -1.
          6    1    1    2  501    0  0.28878980402E+02 -0.36296962806E+02  0.70930661437E+02  0.19174624833E+03  0.17200000000E+03 0.  1.
         -6    1    1    2    0  503 -0.28878980402E+02  0.36296962806E+02 -0.16373996714E+03  0.24196330684E+03  0.17200000000E+03 0.  1.
</event>
<event>
 4    1  0.5818436E+000  0.1836022E+03  0.7818608E-02  0.1164362E+00
         21   -1    0    0  501  502  0.00000000000E+00  0.00000000000E+00  0.16773102065E+03  0.16773102065E+03  0.00000000000E+00 0. -1.
         21   -1    0    0  502  503 -0.00000000000E+00 -0.00000000000E+00 -0.25026634477E+03  0.25026634477E+03  0.00000000000E+00 0. -1.
          6    1    1    2  501    0 -0.71828677526E+01 -0.63829340664E+02 -0.13402039175E+03  0.22731309625E+03  0.17200000000E+03 0. -1.
         -6    1    1    2    0  503  0.71828677526E+01  0.63829340664E+02  0.51485067637E+02  0.19068426917E+03  0.17200000000E+03 0. -1.
</event>
<event>
 4    1  0.5818436E+000  0.1913775E+03  0.7818608E-02  0.1157225E+00
         21   -1    0    0  503  502  0.00000000000E+00  0.00000000000E+00  0.17996118601E+03  0.17996118601E+03  0.00000000000E+00 0.  1.
         21   -1    0    0  501  503 -0.00000000000E+00 -0.00000000000E+00 -0.20755030883E+03  0.20755030883E+03  0.00000000000E+00 0.  1.
          6    1    1    2  501    0  0.73599922882E+02  0.40304058270E+02 -0.40800686952E+02  0.19567846539E+03  0.17200000000E+03 0.  1.
         -6    1    1    2    0  502 -0.73599922882E+02 -0.40304058270E+02  0.13211564125E+02  0.19183302945E+03  0.17200000000E+03 0.  1.
</event>
<event>
 4    1  0.5818436E+000  0.2180745E+03  0.7818608E-02  0.1135327E+00
         21   -1    0    0  503  502  0.00000000000E+00  0.00000000000E+00  0.19290189186E+03  0.19290189186E+03  0.00000000000E+00 0.  1.
         21   -1    0    0  501  503 -0.00000000000E+00 -0.00000000000E+00 -0.24846195651E+03  0.24846195651E+03  0.00000000000E+00 0. -1.
          6    1    1    2  501    0  0.13339715186E+03  0.13330743114E+02 -0.47229114956E+02  0.22313022685E+03  0.17200000000E+03 0.  1.
         -6    1    1    2    0  502 -0.13339715186E+03 -0.13330743114E+02 -0.83309496882E+01  0.21823362151E+03  0.17200000000E+03 0. -1.
</event>
<event>
 4    1  0.5818436E+000  0.2121461E+03  0.7818608E-02  0.1139878E+00
         21   -1    0    0  501  502  0.00000000000E+00  0.00000000000E+00  0.20536823584E+02  0.20536823584E+02  0.00000000000E+00 0.  1.
         21   -1    0    0  502  503 -0.00000000000E+00 -0.00000000000E+00 -0.22952629671E+04  0.22952629671E+04  0.00000000000E+00 0.  1.
          6    1    1    2  501    0  0.92097026446E+02  0.83307177515E+02 -0.89114098671E+03  0.91604487134E+03  0.17200000000E+03 0.  1.
         -6    1    1    2    0  503 -0.92097026446E+02 -0.83307177515E+02 -0.13835851568E+04  0.13997549193E+04  0.17200000000E+03 0.  1.
</event>
<event>
 4    1  0.5818436E+000  0.2150628E+03  0.7818608E-02  0.1137618E+00
         21   -1    0    0  503  502  0.00000000000E+00  0.00000000000E+00  0.11705306401E+03  0.11705306401E+03  0.00000000000E+00 0. -1.
         21   -1    0    0  501  503 -0.00000000000E+00 -0.00000000000E+00 -0.92509997509E+03  0.92509997509E+03  0.00000000000E+00 0.  1.
          6    1    1    2  501    0  0.92041617954E+02  0.90533742190E+02 -0.79841705571E+03  0.82687472616E+03  0.17200000000E+03 0.  1.
         -6    1    1    2    0  502 -0.92041617954E+02 -0.90533742190E+02 -0.96298553662E+01  0.21527831295E+03  0.17200000000E+03 0. -1.
</event>
<event>
 4    1  0.5818436E+000  0.1867235E+03  0.7818608E-02  0.1161450E+00
         21   -1    0    0  501  502  0.00000000000E+00  0.00000000000E+00  0.18633283407E+03  0.18633283407E+03  0.00000000000E+00 0.  1.
         21   -1    0    0  502  503 -0.00000000000E+00 -0.00000000000E+00 -0.19344115642E+03  0.19344115642E+03  0.00000000000E+00 0.  1.
          6    1    1    2  501    0  0.33702555011E+02 -0.64387913138E+02  0.30785123032E+02  0.18924425849E+03  0.17200000000E+03 0.  1.
         -6    1    1    2    0  503 -0.33702555011E+02  0.64387913138E+02 -0.37893445374E+02  0.19052973200E+03  0.17200000000E+03 0.  1.
</event>
<event>
 4    1  0.5818436E+000  0.2037374E+03  0.7818608E-02  0.1146624E+00
         21   -1    0    0  503  502  0.00000000000E+00  0.00000000000E+00  0.52819570693E+03  0.52819570693E+03  0.00000000000E+00 0.  1.
         21   -1    0    0  501  503 -0.00000000000E+00 -0.00000000000E+00 -0.42553119318E+03  0.42553119318E+03  0.00000000000E+00 0. -1.
          6    1    1    2  501    0  0.78945722689E+02  0.75448727449E+02 -0.37925244507E+03  0.43051289724E+03  0.17200000000E+03 0. -1.
         -6    1    1    2    0  502 -0.78945722689E+02 -0.75448727449E+02  0.48191695881E+03  0.52321400287E+03  0.17200000000E+03 0.  1.
</event>
<event>
 4    1  0.5818436E+000  0.3457358E+03  0.7818608E-02  0.1064379E+00
         21   -1    0    0  501  502  0.00000000000E+00  0.00000000000E+00  0.34093620334E+03  0.34093620334E+03  0.00000000000E+00 0.  1.
         21   -1    0    0  502  503 -0.00000000000E+00 -0.00000000000E+00 -0.35163707888E+03  0.35163707888E+03  0.00000000000E+00 0. -1.
          6    1    1    2  501    0 -0.11210274491E+03  0.27817653899E+03 -0.24130282355E+02  0.34657680648E+03  0.17200000000E+03 0.  1.
         -6    1    1    2    0  503  0.11210274491E+03 -0.27817653899E+03  0.13429406823E+02  0.34599647574E+03  0.17200000000E+03 0. -1.
</event>
<event>
 4    1  0.5818436E+000  0.2068550E+03  0.7818608E-02  0.1144081E+00
         21   -1    0    0  501  502  0.00000000000E+00  0.00000000000E+00  0.10987514991E+03  0.10987514991E+03  0.00000000000E+00 0.  1.
         21   -1    0    0  502  503 -0.00000000000E+00 -0.00000000000E+00 -0.89725903357E+03  0.89725903357E+03  0.00000000000E+00 0.  1.
          6    1    1    2  501    0 -0.66284747222E+02 -0.93868543425E+02 -0.14851747996E+02  0.20738742869E+03  0.17200000000E+03 0.  1.
         -6    1    1    2    0  503  0.66284747222E+02  0.93868543425E+02 -0.77253213566E+03  0.79974675479E+03  0.17200000000E+03 0.  1.
</event>
<event>
 4    1  0.5818436E+000  0.2025734E+03  0.7818608E-02  0.1147586E+00
         21   -1    0    0  501  502  0.00000000000E+00  0.00000000000E+00  0.16146516780E+03  0.16146516780E+03  0.00000000000E+00 0.  1.
         21   -1    0    0  502  503 -0.00000000000E+00 -0.00000000000E+00 -0.40464415563E+03  0.40464415563E+03  0.00000000000E+00 0.  1.
          6    1    1    2  501    0 -0.53508624310E+02  0.92675753291E+02  0.51032888320E+02  0.20890266589E+03  0.17200000000E+03 0.  1.
         -6    1    1    2    0  503  0.53508624310E+02 -0.92675753291E+02 -0.29421187615E+03  0.35720665754E+03  0.17200000000E+03 0.  1.
</event>
<event>
 4    1  0.5818436E+000  0.3055446E+03  0.7818608E-02  0.1082501E+00
         21   -1    0    0  503  502  0.00000000000E+00  0.00000000000E+00  0.26472290959E+03  0.26472290959E+03  0.00000000000E+00 0.  1.
         21   -1    0    0  501  503 -0.00000000000E+00 -0.00000000000E+00 -0.35925270913E+03  0.35925270913E+03  0.00000000000E+00 0. -1.
          6    1    1    2  501    0 -0.58432654808E+02 -0.24568090581E+03 -0.89525149666E+02  0.31839006745E+03  0.17200000000E+03 0. -1.
         -6    1    1    2    0  502  0.58432654808E+02  0.24568090581E+03 -0.50046498716E+01  0.30558555128E+03  0.17200000000E+03 0.  1.
</event>
<event>
 4    1  0.5818436E+000  0.1818774E+03  0.7818608E-02  0.1165998E+00
         21   -1    0    0  501  502  0.00000000000E+00  0.00000000000E+00  0.30373219708E+02  0.30373219708E+02  0.00000000000E+00 0.  1.
         21   -1    0    0  502  503 -0.00000000000E+00 -0.00000000000E+00 -0.11663971194E+04  0.11663971194E+04  0.00000000000E+00 0.  1.
          6    1    1    2  501    0  0.24829690378E+02 -0.53655003816E+02 -0.41396661036E+03  0.45215896259E+03  0.17200000000E+03 0.  1.
         -6    1    1    2    0  503 -0.24829690378E+02  0.53655003816E+02 -0.72205728931E+03  0.74461137649E+03  0.17200000000E+03 0.  1.
</event>
<event>
 4    1  0.5818436E+000  0.1944765E+03  0.7818608E-02  0.1154485E+00
         21   -1    0    0  501  502  0.00000000000E+00  0.00000000000E+00  0.11691599416E+03  0.11691599416E+03  0.00000000000E+00 0. -1.
         21   -1    0    0  502  503 -0.00000000000E+00 -0.00000000000E+00 -0.41249286729E+03  0.41249286729E+03  0.00000000000E+00 0.  1.
          6    1    1    2  501    0 -0.84512661448E+02 -0.33086247576E+02 -0.24830561472E+02  0.19605521290E+03  0.17200000000E+03 0. -1.
         -6    1    1    2    0  503  0.84512661448E+02  0.33086247576E+02 -0.27074631165E+03  0.33335364854E+03  0.17200000000E+03 0.  1.
</event>
<event>
 4    1  0.5818436E+000  0.1721339E+03  0.7818608E-02  0.1175641E+00
         21   -1    0    0  503  502  0.00000000000E+00  0.00000000000E+00  0.15062882777E+03  0.15062882777E+03  0.00000000000E+00 0. -1.
         21   -1    0    0  501  503 -0.00000000000E+00 -0.00000000000E+00 -0.20691727361E+03  0.20691727361E+03  0.00000000000E+00 0. -1.
          6    1    1    2  501    0  0.48688047043E+01  0.47303815436E+01 -0.67851928098E+02  0.18502423062E+03  0.17200000000E+03 0.  1.
         -6    1    1    2    0  502 -0.48688047043E+01 -0.47303815436E+01  0.11563482253E+02  0.17252187076E+03  0.17200000000E+03 0.  1.
</event>
<event>
 4    1  0.5818436E+000  0.4071979E+03  0.7818608E-02  0.1041315E+00
         21   -1    0    0  501  502  0.00000000000E+00  0.00000000000E+00  0.11979841092E+04  0.11979841092E+04  0.00000000000E+00 0. -1.
         21   -1    0    0  502  503 -0.00000000000E+00 -0.00000000000E+00 -0.21187015811E+03  0.21187015811E+03  0.00000000000E+00 0.  1.
          6    1    1    2  501    0 -0.23386676129E+03 -0.28553895795E+03  0.90814693134E+03  0.99525926644E+03  0.17200000000E+03 0. -1.
         -6    1    1    2    0  503  0.23386676129E+03  0.28553895795E+03  0.77967019718E+02  0.41459500082E+03  0.17200000000E+03 0.  1.
</event>
<event>
 4    1  0.5818436E+000  0.2214164E+03  0.7818608E-02  0.1132831E+00
         21   -1    0    0  503  502  0.00000000000E+00  0.00000000000E+00  0.13496074763E+03  0.13496074763E+03  0.00000000000E+00 0.  1.
         21   -1    0    0  501  503 -0.00000000000E+00 -0.00000000000E+00 -0.55538684942E+03  0.55538684942E+03  0.00000000000E+00 0.  1.
          6    1    1    2  501    0  0.97643753742E+02 -0.99533499132E+02 -0.41323325382E+03  0.46881440054E+03  0.17200000000E+03 0.  1.
         -6    1    1    2    0  502 -0.97643753742E+02  0.99533499132E+02 -0.71928479697E+01  0.22153319651E+03  0.17200000000E+03 0.  1.
</event>
<event>
 4    1  0.5818436E+000  0.2024107E+03  0.7818608E-02  0.1147721E+00
         21   -1    0    0  503  502  0.00000000000E+00  0.00000000000E+00  0.96233322541E+03  0.96233322541E+03  0.00000000000E+00 0.  1.
         21   -1    0    0  501  503 -0.00000000000E+00 -0.00000000000E+00 -0.69884289418E+02  0.69884289418E+02  0.00000000000E+00 0.  1.
          6    1    1    2  501    0 -0.10658411130E+03  0.50894305917E+01  0.12358530779E+03  0.23715691722E+03  0.17200000000E+03 0.  1.
         -6    1    1    2    0  502  0.10658411130E+03 -0.50894305917E+01  0.76886362821E+03  0.79506059761E+03  0.17200000000E+03 0.  1.
</event>
<event>
 4    1  0.5818436E+000  0.2151616E+03  0.7818608E-02  0.1137543E+00
         21   -1    0    0  501  502  0.00000000000E+00  0.00000000000E+00  0.10368366636E+04  0.10368366636E+04  0.00000000000E+00 0.  1.
         21   -1    0    0  502  503 -0.00000000000E+00 -0.00000000000E+00 -0.74382656504E+02  0.74382656504E+02  0.00000000000E+00 0.  1.
          6    1    1    2  501    0 -0.59127157927E+02 -0.11495434948E+03  0.83250621482E+03  0.85986110564E+03  0.17200000000E+03 0.  1.
         -6    1    1    2    0  503  0.59127157927E+02  0.11495434948E+03  0.12994779229E+03  0.25135821449E+03  0.17200000000E+03 0.  1.
</event>
<event>
 4    1  0.5818436E+000  0.2885038E+03  0.7818608E-02  0.1091133E+00
         21   -1    0    0  503  502  0.00000000000E+00  0.00000000000E+00  0.20679707143E+03  0.20679707143E+03  0.00000000000E+00 0.  1.
         21   -1    0    0  501  503 -0.00000000000E+00 -0.00000000000E+00 -0.40266739629E+03  0.40266739629E+03  0.00000000000E+00 0. -1.
          6    1    1    2  501    0 -0.13269106757E+03  0.18985137247E+03 -0.91601206692E+02  0.30269662057E+03  0.17200000000E+03 0. -1.
         -6    1    1    2    0  502  0.13269106757E+03 -0.18985137247E+03 -0.10426911817E+03  0.30676784715E+03  0.17200000000E+03 0.  1.
</event>
<event>
 4    1  0.5818436E+000  0.2303874E+03  0.7818608E-02  0.1126367E+00
         21   -1    0    0  501  502  0.00000000000E+00  0.00000000000E+00  0.37145716439E+03  0.37145716439E+03  0.00000000000E+00 0.  1.
         21   -1    0    0  502  503 -0.00000000000E+00 -0.00000000000E+00 -0.16845980113E+03  0.16845980113E+03  0.00000000000E+00 0.  1.
          6    1    1    2  501    0 -0.11561878851E+03  0.10063117463E+03  0.20666912086E+03  0.30950034423E+03  0.17200000000E+03 0.  1.
         -6    1    1    2    0  503  0.11561878851E+03 -0.10063117463E+03 -0.36717575973E+01  0.23041662129E+03  0.17200000000E+03 0.  1.
</event>
<event>
 4    1  0.5818436E+000  0.2404498E+03  0.7818608E-02  0.1119494E+00
         21   -1    0    0  501  502  0.00000000000E+00  0.00000000000E+00  0.11622702153E+04  0.11622702153E+04  0.00000000000E+00 0.  1.
         21   -1    0    0  502  503 -0.00000000000E+00 -0.00000000000E+00 -0.50305949140E+02  0.50305949140E+02  0.00000000000E+00 0. -1.
          6    1    1    2  501    0  0.53360255319E+02  0.15932605892E+03  0.49190970099E+03  0.54753197516E+03  0.17200000000E+03 0.  1.
         -6    1    1    2    0  503 -0.53360255319E+02 -0.15932605892E+03  0.62005456513E+03  0.66504418923E+03  0.17200000000E+03 0.  1.
</event>
<event>
 4    1  0.5818436E+000  0.2326302E+03  0.7818608E-02  0.1124802E+00
         21   -1    0    0  501  502  0.00000000000E+00  0.00000000000E+00  0.63296770121E+02  0.63296770121E+02  0.00000000000E+00 0. -1.
         21   -1    0    0  502  503 -0.00000000000E+00 -0.00000000000E+00 -0.87038142017E+03  0.87038142017E+03  0.00000000000E+00 0.  1.
          6    1    1    2  501    0 -0.10550113648E+03 -0.11576830778E+03 -0.34142044704E+03  0.41314006407E+03  0.17200000000E+03 0.  1.
         -6    1    1    2    0  503  0.10550113648E+03  0.11576830778E+03 -0.46566420302E+03  0.52053812623E+03  0.17200000000E+03 0. -1.
</event>
<event>
 4    1  0.5818436E+000  0.1762667E+03  0.7818608E-02  0.1171466E+00
         21   -1    0    0  501  502  0.00000000000E+00  0.00000000000E+00  0.33198359224E+03  0.33198359224E+03  0.00000000000E+00 0. -1.
         21   -1    0    0  502  503 -0.00000000000E+00 -0.00000000000E+00 -0.11812042775E+03  0.11812042775E+03  0.00000000000E+00 0. -1.
          6    1    1    2  501    0  0.85528273824E+00 -0.38538422131E+02  0.20949292411E+03  0.27378317469E+03  0.17200000000E+03 0. -1.
         -6    1    1    2    0  503 -0.85528273824E+00  0.38538422131E+02  0.43702403830E+01  0.17632084531E+03  0.17200000000E+03 0. -1.
</event>
<event>
 4    1  0.5818436E+000  0.2452673E+03  0.7818608E-02  0.1116333E+00
         21   -1    0    0  501  502  0.00000000000E+00  0.00000000000E+00  0.51116009338E+02  0.51116009338E+02  0.00000000000E+00 0. -1.
         21   -1    0    0  502  503 -0.00000000000E+00 -0.00000000000E+00 -0.14601400042E+04  0.14601400042E+04  0.00000000000E+00 0. -1.
          6    1    1    2  501    0 -0.16236662634E+03  0.64877819603E+02 -0.37168100181E+03  0.44531204781E+03  0.17200000000E+03 0. -1.
         -6    1    1    2    0  503  0.16236662634E+03 -0.64877819603E+02 -0.10373429931E+04  0.10659439657E+04  0.17200000000E+03 0. -1.
</event>
<event>
 4    1  0.5818436E+000  0.1787288E+03  0.7818608E-02  0.1169039E+00
         21   -1    0    0  503  502  0.00000000000E+00  0.00000000000E+00  0.44343133800E+02  0.44343133800E+02  0.00000000000E+00 0. -1.
         21   -1    0    0  501  503 -0.00000000000E+00 -0.00000000000E+00 -0.92494236402E+03  0.92494236402E+03  0.00000000000E+00 0. -1.
          6    1    1    2  501    0  0.42518710348E+02  0.23497873700E+02 -0.66821583751E+03  0.69170542595E+03  0.17200000000E+03 0. -1.
         -6    1    1    2    0  502 -0.42518710348E+02 -0.23497873700E+02 -0.21238339272E+03  0.27758007187E+03  0.17200000000E+03 0. -1.
</event>
<event>
 4    1  0.5818436E+000  0.1765112E+03  0.7818608E-02  0.1171223E+00
         21   -1    0    0  501  502  0.00000000000E+00  0.00000000000E+00  0.27533902001E+03  0.27533902001E+03  0.00000000000E+00 0. -1.
         21   -1    0    0  502  503 -0.00000000000E+00 -0.00000000000E+00 -0.11924297403E+03  0.11924297403E+03  0.00000000000E+00 0. -1.
          6    1    1    2  501    0 -0.46170316649E+01  0.39381124149E+02  0.12262400815E+03  0.21492519000E+03  0.17200000000E+03 0. -1.
         -6    1    1    2    0  503  0.46170316649E+01 -0.39381124149E+02  0.33472037830E+02  0.17965680404E+03  0.17200000000E+03 0. -1.
</event>
<event>
 4    1  0.5818436E+000  0.1779397E+03  0.7818608E-02  0.1169812E+00
         21   -1    0    0  501  502  0.00000000000E+00  0.00000000000E+00  0.75975179981E+03  0.75975179981E+03  0.00000000000E+00 0. -1.
         21   -1    0    0  502  503 -0.00000000000E+00 -0.00000000000E+00 -0.87790716536E+02  0.87790716536E+02  0.00000000000E+00 0. -1.
          6    1    1    2  501    0 -0.45566650632E+02 -0.14872696460E+01  0.64311776512E+03  0.66728029450E+03  0.17200000000E+03 0. -1.
         -6    1    1    2    0  503  0.45566650632E+02  0.14872696460E+01  0.28843318153E+02  0.18026222184E+03  0.17200000000E+03 0. -1.
</event>
<event>
 4    1  0.5818436E+000  0.3055764E+03  0.7818608E-02  0.1082486E+00
         21   -1    0    0  503  502  0.00000000000E+00  0.00000000000E+00  0.59519590988E+02  0.59519590988E+02  0.00000000000E+00 0.  1.
         21   -1    0    0  501  503 -0.00000000000E+00 -0.00000000000E+00 -0.17536224729E+04  0.17536224729E+04  0.00000000000E+00 0. -1.
          6    1    1    2  501    0  0.14796745847E+03 -0.20469135899E+03 -0.11413310058E+04  0.11815301037E+04  0.17200000000E+03 0. -1.
         -6    1    1    2    0  502 -0.14796745847E+03  0.20469135899E+03 -0.55277187621E+03  0.63161196026E+03  0.17200000000E+03 0.  1.
</event>
<event>
 4    1  0.5818436E+000  0.2637762E+03  0.7818608E-02  0.1104895E+00
         21   -1    0    0  503  502  0.00000000000E+00  0.00000000000E+00  0.64062063624E+02  0.64062063624E+02  0.00000000000E+00 0.  1.
         21   -1    0    0  501  503 -0.00000000000E+00 -0.00000000000E+00 -0.10861818786E+04  0.10861818786E+04  0.00000000000E+00 0. -1.
          6    1    1    2  501    0  0.99760552205E+01 -0.19973574376E+03 -0.50610558079E+03  0.57071950021E+03  0.17200000000E+03 0.  1.
         -6    1    1    2    0  502 -0.99760552205E+01  0.19973574376E+03 -0.51601423421E+03  0.57952444204E+03  0.17200000000E+03 0. -1.
</event>
<event>
 4    1  0.5818436E+000  0.1998030E+03  0.7818608E-02  0.1149905E+00
         21   -1    0    0  503  502  0.00000000000E+00  0.00000000000E+00  0.31671960658E+03  0.31671960658E+03  0.00000000000E+00 0.  1.
         21   -1    0    0  501  503 -0.00000000000E+00 -0.00000000000E+00 -0.13538391730E+03  0.13538391730E+03  0.00000000000E+00 0.  1.
          6    1    1    2  501    0 -0.78195024923E+02  0.64982910945E+02  0.31300272473E+02  0.20223982717E+03  0.17200000000E+03 0. -1.
         -6    1    1    2    0  502  0.78195024923E+02 -0.64982910945E+02  0.15003541681E+03  0.24986369671E+03  0.17200000000E+03 0. -1.
</event>
<event>
 4    1  0.5818436E+000  0.1965447E+03  0.7818608E-02  0.1152687E+00
         21   -1    0    0  503  502  0.00000000000E+00  0.00000000000E+00  0.77207090929E+02  0.77207090929E+02  0.00000000000E+00 0. -1.
         21   -1    0    0  501  503 -0.00000000000E+00 -0.00000000000E+00 -0.50298202220E+03  0.50298202220E+03  0.00000000000E+00 0. -1.
          6    1    1    2  501    0 -0.39770295096E+02 -0.86395205578E+02 -0.23391163075E+03  0.30552325430E+03  0.17200000000E+03 0. -1.
         -6    1    1    2    0  502  0.39770295096E+02  0.86395205578E+02 -0.19186330053E+03  0.27466585883E+03  0.17200000000E+03 0. -1.
</event>
<event>
 4    1  0.5818436E+000  0.2527282E+03  0.7818608E-02  0.1111593E+00
         21   -1    0    0  501  502  0.00000000000E+00  0.00000000000E+00  0.26539192437E+04  0.26539192437E+04  0.00000000000E+00 0. -1.
         21   -1    0    0  502  503 -0.00000000000E+00 -0.00000000000E+00 -0.32895976650E+02  0.32895976650E+02  0.00000000000E+00 0.  1.
          6    1    1    2  501    0  0.61755147457E+02  0.17456763162E+03  0.61453518319E+03  0.66447351160E+03  0.17200000000E+03 0.  1.
         -6    1    1    2    0  503 -0.61755147457E+02 -0.17456763162E+03  0.20064880839E+04  0.20223417088E+04  0.17200000000E+03 0. -1.
</event>
<event>
 4    1  0.5818436E+000  0.2188327E+03  0.7818608E-02  0.1134756E+00
         21   -1    0    0  501  502  0.00000000000E+00  0.00000000000E+00  0.44578474319E+03  0.44578474319E+03  0.00000000000E+00 0.  1.
         21   -1    0    0  502  503 -0.00000000000E+00 -0.00000000000E+00 -0.13015104498E+03  0.13015104498E+03  0.00000000000E+00 0. -1.
          6    1    1    2  501    0  0.88190001620E+02 -0.10259754970E+03  0.27815324860E+03  0.35391660500E+03  0.17200000000E+03 0.  1.
         -6    1    1    2    0  503 -0.88190001620E+02  0.10259754970E+03  0.37480449620E+02  0.22201918317E+03  0.17200000000E+03 0. -1.
</event>
<event>
 4    1  0.5818436E+000  0.1769842E+03  0.7818608E-02  0.1170754E+00
         21   -1    0    0  503  502  0.00000000000E+00  0.00000000000E+00  0.15432921001E+03  0.15432921001E+03  0.00000000000E+00 0.  1.
         21   -1    0    0  501  503 -0.00000000000E+00 -0.00000000000E+00 -0.53870517915E+03  0.53870517915E+03  0.00000000000E+00 0.  1.
          6    1    1    2  501    0  0.19810191578E+02 -0.36700987781E+02 -0.46574695779E+03  0.49824053918E+03  0.17200000000E+03 0.  1.
         -6    1    1    2    0  502 -0.19810191578E+02  0.36700987781E+02  0.81370988649E+02  0.19479384998E+03  0.17200000000E+03 0.  1.
</event>
<event>
 4    1  0.5818436E+000  0.1857181E+03  0.7818608E-02  0.1162381E+00
         21   -1    0    0  501  502  0.00000000000E+00  0.00000000000E+00  0.83505029009E+02  0.83505029009E+02  0.00000000000E+00 0.  1.
         21   -1    0    0  502  503 -0.00000000000E+00 -0.00000000000E+00 -0.95517213674E+03  0.95517213674E+03  0.00000000000E+00 0.  1.
          6    1    1    2  501    0  0.47811757570E+02 -0.51198105208E+02 -0.44577620269E+02  0.19099312649E+03  0.17200000000E+03 0.  1.
         -6    1    1    2    0  503 -0.47811757570E+02  0.51198105208E+02 -0.82708948746E+03  0.84768403925E+03  0.17200000000E+03 0.  1.
</event>
<event>
 4    1  0.5818436E+000  0.1745141E+03  0.7818608E-02  0.1173220E+00
         21   -1    0    0  501  502  0.00000000000E+00  0.00000000000E+00  0.25810324229E+03  0.25810324229E+03  0.00000000000E+00 0.  1.
         21   -1    0    0  502  503 -0.00000000000E+00 -0.00000000000E+00 -0.24512947894E+03  0.24512947894E+03  0.00000000000E+00 0.  1.
          6    1    1    2  501    0  0.28333902477E+02 -0.82675118038E+01  0.18769222267E+03  0.25628798690E+03  0.17200000000E+03 0.  1.
         -6    1    1    2    0  503 -0.28333902477E+02  0.82675118038E+01 -0.17471845932E+03  0.24694473432E+03  0.17200000000E+03 0.  1.
</event>
<event>
 4    1  0.5818436E+000  0.2175145E+03  0.7818608E-02  0.1135750E+00
         21   -1    0    0  501  502  0.00000000000E+00  0.00000000000E+00  0.33448564107E+03  0.33448564107E+03  0.00000000000E+00 0.  1.
         21   -1    0    0  502  503 -0.00000000000E+00 -0.00000000000E+00 -0.17459163620E+03  0.17459163620E+03  0.00000000000E+00 0.  1.
          6    1    1    2  501    0 -0.12853682235E+03  0.34739425804E+02  0.19084860371E+03  0.28937127007E+03  0.17200000000E+03 0. -1.
         -6    1    1    2    0  503  0.12853682235E+03 -0.34739425804E+02 -0.30954598844E+02  0.21970600719E+03  0.17200000000E+03 0. -1.
</event>
<event>
 4    1  0.5818436E+000  0.1939960E+03  0.7818608E-02  0.1154906E+00
         21   -1    0    0  501  502  0.00000000000E+00  0.00000000000E+00  0.50806887426E+02  0.50806887426E+02  0.00000000000E+00 0.  1.
         21   -1    0    0  502  503 -0.00000000000E+00 -0.00000000000E+00 -0.85629428450E+03  0.85629428450E+03  0.00000000000E+00 0.  1.
          6    1    1    2  501    0  0.86301451215E+02 -0.24545879127E+02 -0.23612773909E+03  0.30559900169E+03  0.17200000000E+03 0.  1.
         -6    1    1    2    0  503 -0.86301451215E+02  0.24545879127E+02 -0.56935965798E+03  0.60150217024E+03  0.17200000000E+03 0.  1.
</event>
<event>
 4    1  0.5818436E+000  0.1813905E+03  0.7818608E-02  0.1166464E+00
         21   -1    0    0  501  502  0.00000000000E+00  0.00000000000E+00  0.74256180036E+03  0.74256180036E+03  0.00000000000E+00 0.  1.
         21   -1    0    0  502  503 -0.00000000000E+00 -0.00000000000E+00 -0.74975693211E+02  0.74975693211E+02  0.00000000000E+00 0.  1.
          6    1    1    2  501    0 -0.57605833534E+02  0.28695436426E+00  0.59521836648E+03  0.62224385750E+03  0.17200000000E+03 0.  1.
         -6    1    1    2    0  503  0.57605833534E+02 -0.28695436426E+00  0.72367740664E+02  0.19529363607E+03  0.17200000000E+03 0.  1.
</event>
<event>
 4    1  0.5818436E+000  0.1759682E+03  0.7818608E-02  0.1171763E+00
         21   -1    0    0  503  502  0.00000000000E+00  0.00000000000E+00  0.18235940515E+03  0.18235940515E+03  0.00000000000E+00 0. -1.
         21   -1    0    0  501  503 -0.00000000000E+00 -0.00000000000E+00 -0.17498471642E+03  0.17498471642E+03  0.00000000000E+00 0. -1.
          6    1    1    2  501    0  0.25275034797E+02 -0.27239337359E+02 -0.27064935126E+02  0.17803741067E+03  0.17200000000E+03 0. -1.
         -6    1    1    2    0  502 -0.25275034797E+02  0.27239337359E+02  0.34439623848E+02  0.17930671090E+03  0.17200000000E+03 0. -1.
</event>
<event>
 4    1  0.5818436E+000  0.2557153E+03  0.7818608E-02  0.1109745E+00
         21   -1    0    0  501  502  0.00000000000E+00  0.00000000000E+00  0.62171761545E+02  0.62171761545E+02  0.00000000000E+00 0.  1.
         21   -1    0    0  502  503 -0.00000000000E+00 -0.00000000000E+00 -0.16218557470E+04  0.16218557470E+04  0.00000000000E+00 0.  1.
          6    1    1    2  501    0  0.16639120611E+03  0.90112551809E+02 -0.28063149948E+03  0.37966346146E+03  0.17200000000E+03 0.  1.
         -6    1    1    2    0  503 -0.16639120611E+03 -0.90112551809E+02 -0.12790524859E+04  0.13043640471E+04  0.17200000000E+03 0.  1.
</event>
<event>
 4    1  0.5818436E+000  0.1851367E+03  0.7818608E-02  0.1162922E+00
         21   -1    0    0  501  502  0.00000000000E+00  0.00000000000E+00  0.24898209606E+03  0.24898209606E+03  0.00000000000E+00 0. -1.
         21   -1    0    0  502  503 -0.00000000000E+00 -0.00000000000E+00 -0.14278435859E+03  0.14278435859E+03  0.00000000000E+00 0.  1.
          6    1    1    2  501    0  0.54546053753E+02 -0.41428668707E+02  0.90197014482E+02  0.20593957364E+03  0.17200000000E+03 0.  1.
         -6    1    1    2    0  503 -0.54546053753E+02  0.41428668707E+02  0.16000722988E+02  0.18582688101E+03  0.17200000000E+03 0.  1.
</event>
<event>
 4    1  0.5818436E+000  0.2312877E+03  0.7818608E-02  0.1125737E+00
         21   -1    0    0  503  502  0.00000000000E+00  0.00000000000E+00  0.92105092898E+02  0.92105092898E+02  0.00000000000E+00 0. -1.
         21   -1    0    0  501  503 -0.00000000000E+00 -0.00000000000E+00 -0.63053073059E+03  0.63053073059E+03  0.00000000000E+00 0.  1.
          6    1    1    2  501    0 -0.22278549105E+02 -0.15301523123E+03 -0.37069254190E+03  0.43692900494E+03  0.17200000000E+03 0.  1.
         -6    1    1    2    0  502  0.22278549105E+02  0.15301523123E+03 -0.16773309579E+03  0.28570681854E+03  0.17200000000E+03 0. -1.
</event>
<event>
 4    1  0.5818436E+000  0.1868705E+03  0.7818608E-02  0.1161315E+00
         21   -1    0    0  503  502  0.00000000000E+00  0.00000000000E+00  0.70072793674E+03  0.70072793674E+03  0.00000000000E+00 0.  1.
         21   -1    0    0  501  503 -0.00000000000E+00 -0.00000000000E+00 -0.64593628944E+02  0.64593628944E+02  0.00000000000E+00 0.  1.
          6    1    1    2  501    0 -0.72766108162E+02  0.64549686180E+01  0.13515338615E+03  0.23062309274E+03  0.17200000000E+03 0.  1.
         -6    1    1    2    0  502  0.72766108162E+02 -0.64549686180E+01  0.50098092165E+03  0.53469847295E+03  0.17200000000E+03 0.  1.
</event>
<event>
 4    1  0.5818436E+000  0.1890632E+03  0.7818608E-02  0.1159309E+00
         21   -1    0    0  503  502  0.00000000000E+00  0.00000000000E+00  0.44294115893E+02  0.44294115893E+02  0.00000000000E+00 0. -1.
         21   -1    0    0  501  503 -0.00000000000E+00 -0.00000000000E+00 -0.82749970024E+03  0.82749970024E+03  0.00000000000E+00 0. -1.
          6    1    1    2  501    0 -0.94510203688E+01 -0.77920327974E+02 -0.46022769495E+03  0.49754842025E+03  0.17200000000E+03 0.  1.
         -6    1    1    2    0  502  0.94510203688E+01  0.77920327974E+02 -0.32297788940E+03  0.37424539588E+03  0.17200000000E+03 0.  1.
</event>
<event>
 4    1  0.5818436E+000  0.1770128E+03  0.7818608E-02  0.1170726E+00
         21   -1    0    0  503  502  0.00000000000E+00  0.00000000000E+00  0.54370138485E+02  0.54370138485E+02  0.00000000000E+00 0.  1.
         21   -1    0    0  501  503 -0.00000000000E+00 -0.00000000000E+00 -0.10318833440E+04  0.10318833440E+04  0.00000000000E+00 0.  1.
          6    1    1    2  501    0 -0.37741901521E+02 -0.18029982032E+02 -0.84964226120E+03  0.86788565111E+03  0.17200000000E+03 0.  1.
         -6    1    1    2    0  502  0.37741901521E+02  0.18029982032E+02 -0.12787094433E+03  0.21836783139E+03  0.17200000000E+03 0.  1.
</event>
<event>
 4    1  0.5818436E+000  0.2319028E+03  0.7818608E-02  0.1125308E+00
         21   -1    0    0  503  502  0.00000000000E+00  0.00000000000E+00  0.21204138425E+03  0.21204138425E+03  0.00000000000E+00 0. -1.
         21   -1    0    0  501  503 -0.00000000000E+00 -0.00000000000E+00 -0.26850880683E+03  0.26850880683E+03  0.00000000000E+00 0. -1.
          6    1    1    2  501    0  0.15395110165E+03  0.22224867306E+02  0.28337313798E+02  0.23362767340E+03  0.17200000000E+03 0. -1.
         -6    1    1    2    0  502 -0.15395110165E+03 -0.22224867306E+02 -0.84804736373E+02  0.24692251768E+03  0.17200000000E+03 0. -1.
</event>
<event>
 4    1  0.5818436E+000  0.1822380E+03  0.7818608E-02  0.1165655E+00
         21   -1    0    0  503  502  0.00000000000E+00  0.00000000000E+00  0.12443147887E+03  0.12443147887E+03  0.00000000000E+00 0. -1.
         21   -1    0    0  501  503 -0.00000000000E+00 -0.00000000000E+00 -0.33748251225E+03  0.33748251225E+03  0.00000000000E+00 0. -1.
          6    1    1    2  501    0 -0.56594321303E+02 -0.20585386844E+02 -0.90308159236E+00  0.18224020114E+03  0.17200000000E+03 0. -1.
         -6    1    1    2    0  502  0.56594321303E+02  0.20585386844E+02 -0.21214795178E+03  0.27967378998E+03  0.17200000000E+03 0. -1.
</event>
<event>
 4    1  0.5818436E+000  0.2351462E+03  0.7818608E-02  0.1123069E+00
         21   -1    0    0  501  502  0.00000000000E+00  0.00000000000E+00  0.11233807751E+03  0.11233807751E+03  0.00000000000E+00 0. -1.
         21   -1    0    0  502  503 -0.00000000000E+00 -0.00000000000E+00 -0.50975966459E+03  0.50975966459E+03  0.00000000000E+00 0.  1.
          6    1    1    2  501    0  0.50969733277E+02 -0.15202565001E+03 -0.14099378911E+03  0.27417687820E+03  0.17200000000E+03 0.  1.
         -6    1    1    2    0  503 -0.50969733277E+02  0.15202565001E+03 -0.25642779797E+03  0.34792086391E+03  0.17200000000E+03 0.  1.
</event>
<event>
 4    1  0.5818436E+000  0.2403026E+03  0.7818608E-02  0.1119591E+00
         21   -1    0    0  503  502  0.00000000000E+00  0.00000000000E+00  0.89469328277E+03  0.89469328277E+03  0.00000000000E+00 0. -1.
         21   -1    0    0  501  503 -0.00000000000E+00 -0.00000000000E+00 -0.91131156322E+02  0.91131156322E+02  0.00000000000E+00 0. -1.
          6    1    1    2  501    0 -0.14180963896E+03  0.89729372213E+02  0.13553201925E+03  0.27588813346E+03  0.17200000000E+03 0. -1.
         -6    1    1    2    0  502  0.14180963896E+03 -0.89729372213E+02  0.66803010720E+03  0.70993630563E+03  0.17200000000E+03 0. -1.
</event>
<event>
 4    1  0.5818436E+000  0.2603263E+03  0.7818608E-02  0.1106947E+00
         21   -1    0    0  503  502  0.00000000000E+00  0.00000000000E+00  0.78677403038E+03  0.78677403038E+03  0.00000000000E+00 0.  1.
         21   -1    0    0  501  503 -0.00000000000E+00 -0.00000000000E+00 -0.86211879008E+02  0.86211879008E+02  0.00000000000E+00 0.  1.
          6    1    1    2  501    0 -0.19207132766E+03  0.35977341844E+02  0.33735282239E+03  0.42611816532E+03  0.17200000000E+03 0.  1.
         -6    1    1    2    0  502  0.19207132766E+03 -0.35977341844E+02  0.36320932898E+03  0.44686774408E+03  0.17200000000E+03 0.  1.
</event>
<event>
 4    1  0.5818436E+000  0.2555148E+03  0.7818608E-02  0.1109868E+00
         21   -1    0    0  503  502  0.00000000000E+00  0.00000000000E+00  0.77011812868E+02  0.77011812868E+02  0.00000000000E+00 0.  1.
         21   -1    0    0  501  503 -0.00000000000E+00 -0.00000000000E+00 -0.95589554596E+03  0.95589554596E+03  0.00000000000E+00 0. -1.
          6    1    1    2  501    0  0.12517510754E+03  0.14154504373E+03 -0.61314325523E+03  0.66425330890E+03  0.17200000000E+03 0. -1.
         -6    1    1    2    0  502 -0.12517510754E+03 -0.14154504373E+03 -0.26574047786E+03  0.36865404993E+03  0.17200000000E+03 0.  1.
</event>
<event>
 4    1  0.5818436E+000  0.1908542E+03  0.7818608E-02  0.1157693E+00
         21   -1    0    0  503  502  0.00000000000E+00  0.00000000000E+00  0.45084859595E+02  0.45084859595E+02  0.00000000000E+00 0.  1.
         21   -1    0    0  501  503 -0.00000000000E+00 -0.00000000000E+00 -0.89927910282E+03  0.89927910282E+03  0.00000000000E+00 0.  1.
          6    1    1    2  501    0 -0.80346072314E+02  0.19643061294E+02 -0.57759069784E+03  0.60830613627E+03  0.17200000000E+03 0.  1.
         -6    1    1    2    0  502  0.80346072314E+02 -0.19643061294E+02 -0.27660354539E+03  0.33605782615E+03  0.17200000000E+03 0.  1.
</event>
<event>
 4    1  0.5818436E+000  0.1742420E+03  0.7818608E-02  0.1173495E+00
         21   -1    0    0  503  502  0.00000000000E+00  0.00000000000E+00  0.21563712065E+02  0.21563712065E+02  0.00000000000E+00 0.  1.
         21   -1    0    0  501  503 -0.00000000000E+00 -0.00000000000E+00 -0.14104739214E+04  0.14104739214E+04  0.00000000000E+00 0.  1.
          6    1    1    2  501    0 -0.65327955025E+01  0.27084783339E+02 -0.72484528087E+03  0.74549375860E+03  0.17200000000E+03 0.  1.
         -6    1    1    2    0  502  0.65327955025E+01 -0.27084783339E+02 -0.66406492849E+03  0.68654387489E+03  0.17200000000E+03 0.  1.
</event>
<event>
 4    1  0.5818436E+000  0.1776864E+03  0.7818608E-02  0.1170061E+00
         21   -1    0    0  501  502  0.00000000000E+00  0.00000000000E+00  0.57291467497E+03  0.57291467497E+03  0.00000000000E+00 0.  1.
         21   -1    0    0  502  503 -0.00000000000E+00 -0.00000000000E+00 -0.12560353677E+03  0.12560353677E+03  0.00000000000E+00 0.  1.
          6    1    1    2  501    0 -0.30401827677E+02  0.32621596467E+02  0.48530887634E+03  0.51681442040E+03  0.17200000000E+03 0.  1.
         -6    1    1    2    0  503  0.30401827677E+02 -0.32621596467E+02 -0.37997738135E+02  0.18170379134E+03  0.17200000000E+03 0.  1.
</event>
<event>
 4    1  0.5818436E+000  0.2190511E+03  0.7818608E-02  0.1134592E+00
         21   -1    0    0  501  502  0.00000000000E+00  0.00000000000E+00  0.76418889594E+03  0.76418889594E+03  0.00000000000E+00 0.  1.
         21   -1    0    0  502  503 -0.00000000000E+00 -0.00000000000E+00 -0.90954323188E+02  0.90954323188E+02  0.00000000000E+00 0. -1.
          6    1    1    2  501    0  0.13377755405E+03  0.22426721397E+02  0.57454615494E+03  0.61488753114E+03  0.17200000000E+03 0.  1.
         -6    1    1    2    0  503 -0.13377755405E+03 -0.22426721397E+02  0.98688417813E+02  0.24025568799E+03  0.17200000000E+03 0. -1.
</event>
<event>
 4    1  0.5818436E+000  0.1805085E+03  0.7818608E-02  0.1167312E+00
         21   -1    0    0  501  502  0.00000000000E+00  0.00000000000E+00  0.20381457739E+03  0.20381457739E+03  0.00000000000E+00 0.  1.
         21   -1    0    0  502  503 -0.00000000000E+00 -0.00000000000E+00 -0.20147195751E+03  0.20147195751E+03  0.00000000000E+00 0.  1.
          6    1    1    2  501    0  0.54751635473E+02  0.12545092386E+01  0.93257627105E+02  0.20317554084E+03  0.17200000000E+03 0.  1.
         -6    1    1    2    0  503 -0.54751635473E+02 -0.12545092386E+01 -0.90915007223E+02  0.20211099406E+03  0.17200000000E+03 0.  1.
</event>
<event>
 4    1  0.5818436E+000  0.4150942E+03  0.7818608E-02  0.1038675E+00
         21   -1    0    0  501  502  0.00000000000E+00  0.00000000000E+00  0.29094005385E+03  0.29094005385E+03  0.00000000000E+00 0.  1.
         21   -1    0    0  502  503 -0.00000000000E+00 -0.00000000000E+00 -0.63081947542E+03  0.63081947542E+03  0.00000000000E+00 0.  1.
          6    1    1    2  501    0 -0.37043517922E+03 -0.74141591413E+02 -0.55947811510E+02  0.41884765153E+03  0.17200000000E+03 0.  1.
         -6    1    1    2    0  503  0.37043517922E+03  0.74141591413E+02 -0.28393161006E+03  0.50291187774E+03  0.17200000000E+03 0.  1.
</event>
<event>
 4    1  0.5818436E+000  0.2320598E+03  0.7818608E-02  0.1125198E+00
         21   -1    0    0  501  502  0.00000000000E+00  0.00000000000E+00  0.38157612998E+03  0.38157612998E+03  0.00000000000E+00 0.  1.
         21   -1    0    0  502  503 -0.00000000000E+00 -0.00000000000E+00 -0.19760979975E+03  0.19760979975E+03  0.00000000000E+00 0. -1.
          6    1    1    2  501    0  0.46464932422E+02  0.14869008536E+03  0.24680472132E+03  0.33876880301E+03  0.17200000000E+03 0.  1.
         -6    1    1    2    0  503 -0.46464932422E+02 -0.14869008536E+03 -0.62838391089E+02  0.24041712673E+03  0.17200000000E+03 0. -1.
</event>
<event>
 4    1  0.5818436E+000  0.1894561E+03  0.7818608E-02  0.1158953E+00
         21   -1    0    0  501  502  0.00000000000E+00  0.00000000000E+00  0.68431536146E+03  0.68431536146E+03  0.00000000000E+00 0.  1.
         21   -1    0    0  502  503 -0.00000000000E+00 -0.00000000000E+00 -0.52475697731E+02  0.52475697731E+02  0.00000000000E+00 0.  1.
          6    1    1    2  501    0 -0.63472311786E+02 -0.47758535353E+02  0.32377195855E+03  0.37512916870E+03  0.17200000000E+03 0.  1.
         -6    1    1    2    0  503  0.63472311786E+02  0.47758535353E+02  0.30806770518E+03  0.36166189049E+03  0.17200000000E+03 0.  1.
</event>
<event>
 4    1  0.5818436E+000  0.2112577E+03  0.7818608E-02  0.1140574E+00
         21   -1    0    0  501  502  0.00000000000E+00  0.00000000000E+00  0.50436565020E+03  0.50436565020E+03  0.00000000000E+00 0.  1.
         21   -1    0    0  502  503 -0.00000000000E+00 -0.00000000000E+00 -0.10289402205E+03  0.10289402205E+03  0.00000000000E+00 0.  1.
          6    1    1    2  501    0 -0.12237592444E+03 -0.83638609278E+01  0.87120740794E+02  0.22851661762E+03  0.17200000000E+03 0.  1.
         -6    1    1    2    0  503  0.12237592444E+03  0.83638609278E+01  0.31435088735E+03  0.37874305463E+03  0.17200000000E+03 0.  1.
</event>
<event>
 4    1  0.5818436E+000  0.2142469E+03  0.7818608E-02  0.1138246E+00
         21   -1    0    0  503  502  0.00000000000E+00  0.00000000000E+00  0.26719774108E+03  0.26719774108E+03  0.00000000000E+00 0. -1.
         21   -1    0    0  501  503 -0.00000000000E+00 -0.00000000000E+00 -0.33796289670E+03  0.33796289670E+03  0.00000000000E+00 0.  1.
          6    1    1    2  501    0  0.12260960476E+03 -0.35841863021E+02 -0.24755404116E+03  0.32739083313E+03  0.17200000000E+03 0.  1.
         -6    1    1    2    0  502 -0.12260960476E+03  0.35841863021E+02  0.17678888554E+03  0.27776980465E+03  0.17200000000E+03 0.  1.
</event>
<event>
 4    1  0.5818436E+000  0.2183477E+03  0.7818608E-02  0.1135121E+00
         21   -1    0    0  501  502  0.00000000000E+00  0.00000000000E+00  0.21365480284E+03  0.21365480284E+03  0.00000000000E+00 0. -1.
         21   -1    0    0  502  503 -0.00000000000E+00 -0.00000000000E+00 -0.32701998920E+03  0.32701998920E+03  0.00000000000E+00 0. -1.
          6    1    1    2  501    0  0.11377036929E+03 -0.71749751208E+02  0.95679589237E+02  0.23839108105E+03  0.17200000000E+03 0. -1.
         -6    1    1    2    0  503 -0.11377036929E+03  0.71749751208E+02 -0.20904477560E+03  0.30228371099E+03  0.17200000000E+03 0. -1.
</event>
<event>
 4    1  0.5818436E+000  0.2673818E+03  0.7818608E-02  0.1102787E+00
         21   -1    0    0  501  502  0.00000000000E+00  0.00000000000E+00  0.45401684707E+03  0.45401684707E+03  0.00000000000E+00 0.  1.
         21   -1    0    0  502  503 -0.00000000000E+00 -0.00000000000E+00 -0.25846501535E+03  0.25846501535E+03  0.00000000000E+00 0. -1.
          6    1    1    2  501    0  0.76612172062E+01 -0.20457355900E+03  0.32046433274E+03  0.41736126300E+03  0.17200000000E+03 0.  1.
         -6    1    1    2    0  503 -0.76612172062E+01  0.20457355900E+03 -0.12491250101E+03  0.29512059942E+03  0.17200000000E+03 0. -1.
</event>
<event>
 4    1  0.5818436E+000  0.2384758E+03  0.7818608E-02  0.1120812E+00
         21   -1    0    0  503  502  0.00000000000E+00  0.00000000000E+00  0.10402419833E+04  0.10402419833E+04  0.00000000000E+00 0.  1.
         21   -1    0    0  501  503 -0.00000000000E+00 -0.00000000000E+00 -0.67649788103E+02  0.67649788103E+02  0.00000000000E+00 0.  1.
          6    1    1    2  501    0 -0.15973224464E+03  0.42098772006E+02  0.72893318777E+03  0.76695129494E+03  0.17200000000E+03 0.  1.
         -6    1    1    2    0  502  0.15973224464E+03 -0.42098772006E+02  0.24365900739E+03  0.34094047642E+03  0.17200000000E+03 0.  1.
</event>
<event>
 4    1  0.5818436E+000  0.2084710E+03  0.7818608E-02  0.1142783E+00
         21   -1    0    0  503  502  0.00000000000E+00  0.00000000000E+00  0.28105122123E+03  0.28105122123E+03  0.00000000000E+00 0.  1.
         21   -1    0    0  501  503 -0.00000000000E+00 -0.00000000000E+00 -0.16054067448E+03  0.16054067448E+03  0.00000000000E+00 0. -1.
          6    1    1    2  501    0 -0.48424533946E+02  0.10738354756E+03  0.17904761344E+02  0.20923848177E+03  0.17200000000E+03 0.  1.
         -6    1    1    2    0  502  0.48424533946E+02 -0.10738354756E+03  0.10260578541E+03  0.23235341395E+03  0.17200000000E+03 0. -1.
</event>
<event>
 4    1  0.5818436E+000  0.2092642E+03  0.7818608E-02  0.1142150E+00
         21   -1    0    0  501  502  0.00000000000E+00  0.00000000000E+00  0.93715253229E+03  0.93715253229E+03  0.00000000000E+00 0. -1.
         21   -1    0    0  502  503 -0.00000000000E+00 -0.00000000000E+00 -0.13567108613E+03  0.13567108613E+03  0.00000000000E+00 0.  1.
          6    1    1    2  501    0  0.55292078963E+02 -0.10559503430E+03  0.83506098927E+03  0.86088232707E+03  0.17200000000E+03 0. -1.
         -6    1    1    2    0  503 -0.55292078963E+02  0.10559503430E+03 -0.33579543105E+02  0.21194129135E+03  0.17200000000E+03 0.  1.
</event>
<event>
 4    1  0.5818436E+000  0.1911671E+03  0.7818608E-02  0.1157413E+00
         21   -1    0    0  501  502  0.00000000000E+00  0.00000000000E+00  0.39153834770E+02  0.39153834770E+02  0.00000000000E+00 0. -1.
         21   -1    0    0  502  503 -0.00000000000E+00 -0.00000000000E+00 -0.12081137561E+04  0.12081137561E+04  0.00000000000E+00 0. -1.
          6    1    1    2  501    0 -0.37336575853E+01  0.83348156305E+02 -0.28707866198E+03  0.34490435416E+03  0.17200000000E+03 0. -1.
         -6    1    1    2    0  503  0.37336575853E+01 -0.83348156305E+02 -0.88188125931E+03  0.90236323667E+03  0.17200000000E+03 0. -1.
</event>
<event>
 4    1  0.5818436E+000  0.2976240E+03  0.7818608E-02  0.1086434E+00
         21   -1    0    0  503  502  0.00000000000E+00  0.00000000000E+00  0.11456686552E+04  0.11456686552E+04  0.00000000000E+00 0. -1.
         21   -1    0    0  501  503 -0.00000000000E+00 -0.00000000000E+00 -0.77341337505E+02  0.77341337505E+02  0.00000000000E+00 0. -1.
          6    1    1    2  501    0 -0.14120327787E+03  0.19763022281E+03  0.54493171560E+03  0.62091114124E+03  0.17200000000E+03 0. -1.
         -6    1    1    2    0  502  0.14120327787E+03 -0.19763022281E+03  0.52339560212E+03  0.60209885149E+03  0.17200000000E+03 0. -1.
</event>
<event>
 4    1  0.5818436E+000  0.2498252E+03  0.7818608E-02  0.1113415E+00
         21   -1    0    0  503  502  0.00000000000E+00  0.00000000000E+00  0.38582706475E+02  0.38582706475E+02  0.00000000000E+00 0. -1.
         21   -1    0    0  501  503 -0.00000000000E+00 -0.00000000000E+00 -0.16246033041E+04  0.16246033041E+04  0.00000000000E+00 0. -1.
          6    1    1    2  501    0  0.15718434335E+03  0.90120437566E+02 -0.73853471330E+03  0.77964487673E+03  0.17200000000E+03 0. -1.
         -6    1    1    2    0  502 -0.15718434335E+03 -0.90120437566E+02 -0.84748588429E+03  0.88354113381E+03  0.17200000000E+03 0. -1.
</event>
<event>
 4    1  0.5818436E+000  0.1755216E+03  0.7818608E-02  0.1172209E+00
         21   -1    0    0  503  502  0.00000000000E+00  0.00000000000E+00  0.64476803534E+03  0.64476803534E+03  0.00000000000E+00 0. -1.
         21   -1    0    0  501  503 -0.00000000000E+00 -0.00000000000E+00 -0.52537983736E+02  0.52537983736E+02  0.00000000000E+00 0. -1.
          6    1    1    2  501    0  0.20648605620E+02 -0.28239593309E+02  0.40102334888E+03  0.43775285937E+03  0.17200000000E+03 0. -1.
         -6    1    1    2    0  502 -0.20648605620E+02  0.28239593309E+02  0.19120670272E+03  0.25955315970E+03  0.17200000000E+03 0. -1.
</event>
<event>
 4    1  0.5818436E+000  0.2250736E+03  0.7818608E-02  0.1130156E+00
         21   -1    0    0  503  502  0.00000000000E+00  0.00000000000E+00  0.92024800295E+02  0.92024800295E+02  0.00000000000E+00 0.  1.
         21   -1    0    0  501  503 -0.00000000000E+00 -0.00000000000E+00 -0.60041081190E+03  0.60041081190E+03  0.00000000000E+00 0.  1.
          6    1    1    2  501    0 -0.89721788488E+02 -0.11412329427E+03 -0.35403072318E+03  0.41951862721E+03  0.17200000000E+03 0.  1.
         -6    1    1    2    0  502  0.89721788488E+02  0.11412329427E+03 -0.15435528843E+03  0.27291698498E+03  0.17200000000E+03 0.  1.
</event>
<event>
 4    1  0.5818436E+000  0.2824989E+03  0.7818608E-02  0.1094332E+00
         21   -1    0    0  503  502  0.00000000000E+00  0.00000000000E+00  0.32132624875E+03  0.32132624875E+03  0.00000000000E+00 0.  1.
         21   -1    0    0  501  503 -0.00000000000E+00 -0.00000000000E+00 -0.10812186651E+04  0.10812186651E+04  0.00000000000E+00 0.  1.
          6    1    1    2  501    0 -0.17415131739E+03 -0.14104228384E+03 -0.99542747833E+03  0.10347373927E+04  0.17200000000E+03 0.  1.
         -6    1    1    2    0  502  0.17415131739E+03  0.14104228384E+03  0.23553506201E+03  0.36780752115E+03  0.17200000000E+03 0.  1.
</event>
<event>
 4    1  0.5818436E+000  0.6732248E+03  0.7818608E-02  0.9764150E-01
         21   -1    0    0  501  502  0.00000000000E+00  0.00000000000E+00  0.60621601439E+03  0.60621601439E+03  0.00000000000E+00 0.  1.
         21   -1    0    0  502  503 -0.00000000000E+00 -0.00000000000E+00 -0.11278480577E+04  0.11278480577E+04  0.00000000000E+00 0. -1.
          6    1    1    2  501    0 -0.63692260050E+03 -0.13407944277E+03 -0.76422408826E+03  0.10184646057E+04  0.17200000000E+03 0. -1.
         -6    1    1    2    0  503  0.63692260050E+03  0.13407944277E+03  0.24259204496E+03  0.71559946638E+03  0.17200000000E+03 0.  1.
</event>
<event>
 4    1  0.5818436E+000  0.2282838E+03  0.7818608E-02  0.1127854E+00
         21   -1    0    0  503  502  0.00000000000E+00  0.00000000000E+00  0.11970143602E+03  0.11970143602E+03  0.00000000000E+00 0.  1.
         21   -1    0    0  501  503 -0.00000000000E+00 -0.00000000000E+00 -0.84037372837E+03  0.84037372837E+03  0.00000000000E+00 0.  1.
          6    1    1    2  501    0 -0.13570676302E+03  0.64133940679E+02 -0.69358807048E+03  0.73019031724E+03  0.17200000000E+03 0.  1.
         -6    1    1    2    0  502  0.13570676302E+03 -0.64133940679E+02 -0.27084221874E+02  0.22988484715E+03  0.17200000000E+03 0.  1.
</event>
<event>
 4    1  0.5818436E+000  0.1720692E+03  0.7818608E-02  0.1175707E+00
         21   -1    0    0  503  502  0.00000000000E+00  0.00000000000E+00  0.13281720100E+04  0.13281720100E+04  0.00000000000E+00 0. -1.
         21   -1    0    0  501  503 -0.00000000000E+00 -0.00000000000E+00 -0.29549357686E+02  0.29549357686E+02  0.00000000000E+00 0. -1.
          6    1    1    2  501    0 -0.47216276835E+01  0.12371999128E+01  0.31288414390E+03  0.35707745929E+03  0.17200000000E+03 0. -1.
         -6    1    1    2    0  502  0.47216276835E+01 -0.12371999128E+01  0.98573850840E+03  0.10006439084E+04  0.17200000000E+03 0. -1.
</event>
<event>
 4    1  0.5818436E+000  0.2257258E+03  0.7818608E-02  0.1129685E+00
         21   -1    0    0  503  502  0.00000000000E+00  0.00000000000E+00  0.16459547550E+03  0.16459547550E+03  0.00000000000E+00 0.  1.
         21   -1    0    0  501  503 -0.00000000000E+00 -0.00000000000E+00 -0.32640318005E+03  0.32640318005E+03  0.00000000000E+00 0. -1.
          6    1    1    2  501    0  0.25526866513E+01 -0.14615620250E+03 -0.13667210209E+03  0.26387765201E+03  0.17200000000E+03 0. -1.
         -6    1    1    2    0  502 -0.25526866513E+01  0.14615620250E+03 -0.25135602454E+02  0.22712100354E+03  0.17200000000E+03 0.  1.
</event>
<event>
 4    1  0.5818436E+000  0.1743177E+03  0.7818608E-02  0.1173419E+00
         21   -1    0    0  501  502  0.00000000000E+00  0.00000000000E+00  0.10830213923E+03  0.10830213923E+03  0.00000000000E+00 0. -1.
         21   -1    0    0  502  503 -0.00000000000E+00 -0.00000000000E+00 -0.57519498756E+03  0.57519498756E+03  0.00000000000E+00 0. -1.
          6    1    1    2  501    0  0.28220737729E+02  0.25017737866E+01  0.11139602307E+02  0.17467329404E+03  0.17200000000E+03 0. -1.
         -6    1    1    2    0  503 -0.28220737729E+02 -0.25017737866E+01 -0.47803245064E+03  0.50882383275E+03  0.17200000000E+03 0. -1.
</event>
<event>
 4    1  0.5818436E+000  0.2684765E+03  0.7818608E-02  0.1102155E+00
         21   -1    0    0  503  502  0.00000000000E+00  0.00000000000E+00  0.73080964474E+03  0.73080964474E+03  0.00000000000E+00 0. -1.
         21   -1    0    0  501  503 -0.00000000000E+00 -0.00000000000E+00 -0.10858608017E+03  0.10858608017E+03  0.00000000000E+00 0. -1.
          6    1    1    2  501    0  0.88238903705E+02 -0.18630488896E+03  0.18402568748E+03  0.32549204204E+03  0.17200000000E+03 0. -1.
         -6    1    1    2    0  502 -0.88238903705E+02  0.18630488896E+03  0.43819787709E+03  0.51390368287E+03  0.17200000000E+03 0. -1.
</event>
<event>
 4    1  0.5818436E+000  0.1838651E+03  0.7818608E-02  0.1164114E+00
         21   -1    0    0  503  502  0.00000000000E+00  0.00000000000E+00  0.25783614290E+03  0.25783614290E+03  0.00000000000E+00 0.  1.
         21   -1    0    0  501  503 -0.00000000000E+00 -0.00000000000E+00 -0.15992389873E+03  0.15992389873E+03  0.00000000000E+00 0.  1.
          6    1    1    2  501    0  0.48933287346E+02 -0.42754027201E+02 -0.39697822224E+02  0.18810180898E+03  0.17200000000E+03 0.  1.
         -6    1    1    2    0  502 -0.48933287346E+02  0.42754027201E+02  0.13761006639E+03  0.22965823265E+03  0.17200000000E+03 0.  1.
</event>
<event>
 4    1  0.5818436E+000  0.1803415E+03  0.7818608E-02  0.1167473E+00
         21   -1    0    0  501  502  0.00000000000E+00  0.00000000000E+00  0.35220907421E+03  0.35220907421E+03  0.00000000000E+00 0.  1.
         21   -1    0    0  502  503 -0.00000000000E+00 -0.00000000000E+00 -0.19347556452E+03  0.19347556452E+03  0.00000000000E+00 0. -1.
          6    1    1    2  501    0 -0.54152409742E+02 -0.25668638766E+01  0.27663178194E+03  0.33022449190E+03  0.17200000000E+03 0.  1.
         -6    1    1    2    0  503  0.54152409742E+02  0.25668638766E+01 -0.11789827226E+03  0.21546014683E+03  0.17200000000E+03 0. -1.
</event>
<event>
 4    1  0.5818436E+000  0.1764456E+03  0.7818608E-02  0.1171288E+00
         21   -1    0    0  501  502  0.00000000000E+00  0.00000000000E+00  0.14500282679E+04  0.14500282679E+04  0.00000000000E+00 0. -1.
         21   -1    0    0  502  503 -0.00000000000E+00 -0.00000000000E+00 -0.21521573595E+02  0.21521573595E+02  0.00000000000E+00 0. -1.
          6    1    1    2  501    0 -0.20483472501E+02  0.33607785040E+02  0.75004226618E+03  0.77051700625E+03  0.17200000000E+03 0. -1.
         -6    1    1    2    0  503  0.20483472501E+02 -0.33607785040E+02  0.67846442809E+03  0.70103283521E+03  0.17200000000E+03 0. -1.
</event>
<event>
 4    1  0.5818436E+000  0.2050775E+03  0.7818608E-02  0.1145524E+00
         21   -1    0    0  503  502  0.00000000000E+00  0.00000000000E+00  0.63448145154E+02  0.63448145154E+02  0.00000000000E+00 0. -1.
         21   -1    0    0  501  503 -0.00000000000E+00 -0.00000000000E+00 -0.69306271057E+03  0.69306271057E+03  0.00000000000E+00 0. -1.
          6    1    1    2  501    0 -0.17899999854E+02 -0.11023786804E+03 -0.39377902337E+03  0.44398053650E+03  0.17200000000E+03 0. -1.
         -6    1    1    2    0  502  0.17899999854E+02  0.11023786804E+03 -0.23583554205E+03  0.31253031923E+03  0.17200000000E+03 0. -1.
</event>
<event>
 4    1  0.5818436E+000  0.2053506E+03  0.7818608E-02  0.1145302E+00
         21   -1    0    0  503  502  0.00000000000E+00  0.00000000000E+00  0.41884481852E+02  0.41884481852E+02  0.00000000000E+00 0. -1.
         21   -1    0    0  501  503 -0.00000000000E+00 -0.00000000000E+00 -0.10140370901E+04  0.10140370901E+04  0.00000000000E+00 0.  1.
          6    1    1    2  501    0 -0.97299473701E+02  0.55836304243E+02 -0.44144347122E+03  0.48686879006E+03  0.17200000000E+03 0.  1.
         -6    1    1    2    0  502  0.97299473701E+02 -0.55836304243E+02 -0.53070913705E+03  0.56905278191E+03  0.17200000000E+03 0. -1.
</event>
<event>
 4    1  0.5818436E+000  0.2178227E+03  0.7818608E-02  0.1135517E+00
         21   -1    0    0  501  502  0.00000000000E+00  0.00000000000E+00  0.11099023346E+03  0.11099023346E+03  0.00000000000E+00 0. -1.
         21   -1    0    0  502  503 -0.00000000000E+00 -0.00000000000E+00 -0.56812948627E+03  0.56812948627E+03  0.00000000000E+00 0. -1.
          6    1    1    2  501    0 -0.62883913452E+02 -0.11793365906E+03 -0.59621648192E+02  0.22583506248E+03  0.17200000000E+03 0. -1.
         -6    1    1    2    0  503  0.62883913452E+02  0.11793365906E+03 -0.39751760462E+03  0.45328465724E+03  0.17200000000E+03 0. -1.
</event>
<event>
 4    1  0.5818436E+000  0.1895484E+03  0.7818608E-02  0.1158869E+00
         21   -1    0    0  501  502  0.00000000000E+00  0.00000000000E+00  0.16284054826E+03  0.16284054826E+03  0.00000000000E+00 0.  1.
         21   -1    0    0  502  503 -0.00000000000E+00 -0.00000000000E+00 -0.22408958809E+03  0.22408958809E+03  0.00000000000E+00 0.  1.
          6    1    1    2  501    0 -0.79263637468E+02  0.78660407035E+01 -0.66094481219E+01  0.18966360649E+03  0.17200000000E+03 0.  1.
         -6    1    1    2    0  503  0.79263637468E+02 -0.78660407035E+01 -0.54639591717E+02  0.19726652986E+03  0.17200000000E+03 0.  1.
</event>
<event>
 4    1  0.5818436E+000  0.1891613E+03  0.7818608E-02  0.1159220E+00
         21   -1    0    0  503  502  0.00000000000E+00  0.00000000000E+00  0.27829804971E+04  0.27829804971E+04  0.00000000000E+00 0.  1.
         21   -1    0    0  501  503 -0.00000000000E+00 -0.00000000000E+00 -0.13155725906E+02  0.13155725906E+02  0.00000000000E+00 0.  1.
          6    1    1    2  501    0 -0.97361681495E+00  0.78721291868E+02  0.11743934223E+04  0.11895301174E+04  0.17200000000E+03 0.  1.
         -6    1    1    2    0  502  0.97361681495E+00 -0.78721291868E+02  0.15954313489E+04  0.16066061056E+04  0.17200000000E+03 0.  1.
</event>
<event>
 4    1  0.5818436E+000  0.2347586E+03  0.7818608E-02  0.1123335E+00
         21   -1    0    0  503  502  0.00000000000E+00  0.00000000000E+00  0.22673456685E+03  0.22673456685E+03  0.00000000000E+00 0. -1.
         21   -1    0    0  501  503 -0.00000000000E+00 -0.00000000000E+00 -0.24381902204E+03  0.24381902204E+03  0.00000000000E+00 0.  1.
          6    1    1    2  501    0 -0.91864997324E+02 -0.13072260587E+03 -0.21613116983E+02  0.23575136106E+03  0.17200000000E+03 0.  1.
         -6    1    1    2    0  502  0.91864997324E+02  0.13072260587E+03  0.45286617938E+01  0.23480222783E+03  0.17200000000E+03 0.  1.
</event>
<event>
 4    1  0.5818436E+000  0.1842539E+03  0.7818608E-02  0.1163748E+00
         21   -1    0    0  501  502  0.00000000000E+00  0.00000000000E+00  0.29892904001E+02  0.29892904001E+02  0.00000000000E+00 0. -1.
         21   -1    0    0  502  503 -0.00000000000E+00 -0.00000000000E+00 -0.11419085323E+04  0.11419085323E+04  0.00000000000E+00 0. -1.
          6    1    1    2  501    0  0.15651052588E+02  0.64191398156E+02 -0.51281988016E+03  0.54491625094E+03  0.17200000000E+03 0. -1.
         -6    1    1    2    0  503 -0.15651052588E+02 -0.64191398156E+02 -0.59919574814E+03  0.62688518537E+03  0.17200000000E+03 0. -1.
</event>
<event>
 4    1  0.5818436E+000  0.1809908E+03  0.7818608E-02  0.1166848E+00
         21   -1    0    0  501  502  0.00000000000E+00  0.00000000000E+00  0.94065769258E+02  0.94065769258E+02  0.00000000000E+00 0. -1.
         21   -1    0    0  502  503 -0.00000000000E+00 -0.00000000000E+00 -0.36648505151E+03  0.36648505151E+03  0.00000000000E+00 0. -1.
          6    1    1    2  501    0 -0.91413298713E+01 -0.55588703328E+02 -0.84832951154E+02  0.19988571097E+03  0.17200000000E+03 0.  1.
         -6    1    1    2    0  503  0.91413298713E+01  0.55588703328E+02 -0.18758633110E+03  0.26066510979E+03  0.17200000000E+03 0.  1.
</event>
<event>
 4    1  0.5818436E+000  0.3192198E+03  0.7818608E-02  0.1076009E+00
         21   -1    0    0  501  502  0.00000000000E+00  0.00000000000E+00  0.46311209042E+03  0.46311209042E+03  0.00000000000E+00 0.  1.
         21   -1    0    0  502  503 -0.00000000000E+00 -0.00000000000E+00 -0.71533999643E+03  0.71533999643E+03  0.00000000000E+00 0.  1.
          6    1    1    2  501    0 -0.26887836764E+03 -0.46612314483E+01  0.36418574176E+03  0.48428561631E+03  0.17200000000E+03 0.  1.
         -6    1    1    2    0  503  0.26887836764E+03  0.46612314483E+01 -0.61641364777E+03  0.69416647054E+03  0.17200000000E+03 0.  1.
</event>
<event>
 4    1  0.5818436E+000  0.2446966E+03  0.7818608E-02  0.1116703E+00
         21   -1    0    0  501  502  0.00000000000E+00  0.00000000000E+00  0.18473419936E+03  0.18473419936E+03  0.00000000000E+00 0.  1.
         21   -1    0    0  502  503 -0.00000000000E+00 -0.00000000000E+00 -0.57990245659E+03  0.57990245659E+03  0.00000000000E+00 0. -1.
          6    1    1    2  501    0 -0.17307462052E+03  0.18374423909E+02  0.56326689968E+02  0.25109587756E+03  0.17200000000E+03 0. -1.
         -6    1    1    2    0  503  0.17307462052E+03 -0.18374423909E+02 -0.45149494720E+03  0.51354077839E+03  0.17200000000E+03 0.  1.
</event>
<event>
 4    1  0.5818436E+000  0.2598141E+03  0.7818608E-02  0.1107255E+00
         21   -1    0    0  501  502  0.00000000000E+00  0.00000000000E+00  0.53249875087E+03  0.53249875087E+03  0.00000000000E+00 0. -1.
         21   -1    0    0  502  503 -0.00000000000E+00 -0.00000000000E+00 -0.18616101006E+03  0.18616101006E+03  0.00000000000E+00 0.  1.
          6    1    1    2  501    0 -0.18610138037E+03 -0.57320494725E+02 -0.29795427181E+02  0.26151697912E+03  0.17200000000E+03 0. -1.
         -6    1    1    2    0  503  0.18610138037E+03  0.57320494725E+02  0.37613316800E+03  0.45714278181E+03  0.17200000000E+03 0. -1.
</event>
<event>
 4    1  0.5818436E+000  0.1825369E+03  0.7818608E-02  0.1165370E+00
         21   -1    0    0  501  502  0.00000000000E+00  0.00000000000E+00  0.30054261480E+02  0.30054261480E+02  0.00000000000E+00 0.  1.
         21   -1    0    0  502  503 -0.00000000000E+00 -0.00000000000E+00 -0.29405726139E+04  0.29405726139E+04  0.00000000000E+00 0.  1.
          6    1    1    2  501    0  0.26099391113E+02  0.55268053577E+02 -0.28291425474E+03  0.33669008227E+03  0.17200000000E+03 0.  1.
         -6    1    1    2    0  503 -0.26099391113E+02 -0.55268053577E+02 -0.26276040976E+04  0.26339367931E+04  0.17200000000E+03 0.  1.
</event>
<event>
 4    1  0.5818436E+000  0.1791999E+03  0.7818608E-02  0.1168580E+00
         21   -1    0    0  501  502  0.00000000000E+00  0.00000000000E+00  0.20030622109E+03  0.20030622109E+03  0.00000000000E+00 0.  1.
         21   -1    0    0  502  503 -0.00000000000E+00 -0.00000000000E+00 -0.24477081313E+03  0.24477081313E+03  0.00000000000E+00 0.  1.
          6    1    1    2  501    0  0.82211449853E+01  0.49608491518E+02  0.10848521147E+03  0.20947942802E+03  0.17200000000E+03 0. -1.
         -6    1    1    2    0  503 -0.82211449853E+01 -0.49608491518E+02 -0.15294980351E+03  0.23559760620E+03  0.17200000000E+03 0. -1.
</event>
<event>
 4    1  0.5818436E+000  0.2357283E+03  0.7818608E-02  0.1122672E+00
         21   -1    0    0  503  502  0.00000000000E+00  0.00000000000E+00  0.41039937508E+03  0.41039937508E+03  0.00000000000E+00 0.  1.
         21   -1    0    0  501  503 -0.00000000000E+00 -0.00000000000E+00 -0.41052249529E+03  0.41052249529E+03  0.00000000000E+00 0. -1.
          6    1    1    2  501    0 -0.47269693215E+02 -0.15410841174E+03 -0.33608291597E+03  0.41051133099E+03  0.17200000000E+03 0. -1.
         -6    1    1    2    0  502  0.47269693215E+02  0.15410841174E+03  0.33595979576E+03  0.41041053938E+03  0.17200000000E+03 0.  1.
</event>
<event>
 4    1  0.5818436E+000  0.2090835E+03  0.7818608E-02  0.1142294E+00
         21   -1    0    0  501  502  0.00000000000E+00  0.00000000000E+00  0.62017999996E+03  0.62017999996E+03  0.00000000000E+00 0. -1.
         21   -1    0    0  502  503 -0.00000000000E+00 -0.00000000000E+00 -0.23208859680E+03  0.23208859680E+03  0.00000000000E+00 0.  1.
          6    1    1    2  501    0  0.48966996068E+02  0.10832431742E+03  0.54962756665E+03  0.58805304733E+03  0.17200000000E+03 0. -1.
         -6    1    1    2    0  503 -0.48966996068E+02 -0.10832431742E+03 -0.16153616349E+03  0.26421554944E+03  0.17200000000E+03 0.  1.
</event>
<event>
 4    1  0.5818436E+000  0.3637582E+03  0.7818608E-02  0.1057106E+00
         21   -1    0    0  503  502  0.00000000000E+00  0.00000000000E+00  0.38121338432E+03  0.38121338432E+03  0.00000000000E+00 0.  1.
         21   -1    0    0  501  503 -0.00000000000E+00 -0.00000000000E+00 -0.69186530511E+03  0.69186530511E+03  0.00000000000E+00 0.  1.
          6    1    1    2  501    0 -0.25296462489E+02 -0.31952482296E+03 -0.53407466693E+03  0.64618555644E+03  0.17200000000E+03 0.  1.
         -6    1    1    2    0  502  0.25296462489E+02  0.31952482296E+03  0.22342274613E+03  0.42689313299E+03  0.17200000000E+03 0.  1.
</event>
<event>
 4    1  0.5818436E+000  0.1750332E+03  0.7818608E-02  0.1172698E+00
         21   -1    0    0  503  502  0.00000000000E+00  0.00000000000E+00  0.20908340588E+03  0.20908340588E+03  0.00000000000E+00 0. -1.
         21   -1    0    0  501  503 -0.00000000000E+00 -0.00000000000E+00 -0.15596080083E+03  0.15596080083E+03  0.00000000000E+00 0. -1.
          6    1    1    2  501    0 -0.26988631035E+02 -0.18006637558E+02 -0.18325880772E+02  0.17598995172E+03  0.17200000000E+03 0.  1.
         -6    1    1    2    0  502  0.26988631035E+02  0.18006637558E+02  0.71448485821E+02  0.18905425498E+03  0.17200000000E+03 0.  1.
</event>
<event>
 4    1  0.5818436E+000  0.2514455E+03  0.7818608E-02  0.1112395E+00
         21   -1    0    0  501  502  0.00000000000E+00  0.00000000000E+00  0.10322500822E+03  0.10322500822E+03  0.00000000000E+00 0. -1.
         21   -1    0    0  502  503 -0.00000000000E+00 -0.00000000000E+00 -0.23029511987E+04  0.23029511987E+04  0.00000000000E+00 0.  1.
          6    1    1    2  501    0  0.17800406813E+03  0.44219760777E+02 -0.69104455884E+02  0.26076859730E+03  0.17200000000E+03 0. -1.
         -6    1    1    2    0  503 -0.17800406813E+03 -0.44219760777E+02 -0.21306217346E+04  0.21454076096E+04  0.17200000000E+03 0.  1.
</event>
<event>
 4    1  0.5818436E+000  0.1877701E+03  0.7818608E-02  0.1160488E+00
         21   -1    0    0  501  502  0.00000000000E+00  0.00000000000E+00  0.16627090587E+04  0.16627090587E+04  0.00000000000E+00 0.  1.
         21   -1    0    0  502  503 -0.00000000000E+00 -0.00000000000E+00 -0.36834123871E+02  0.36834123871E+02  0.00000000000E+00 0. -1.
          6    1    1    2  501    0  0.74611893585E+02  0.10328947955E+02  0.13664728501E+04  0.13793134785E+04  0.17200000000E+03 0.  1.
         -6    1    1    2    0  503 -0.74611893585E+02 -0.10328947955E+02  0.25940208476E+03  0.32022970413E+03  0.17200000000E+03 0. -1.
</event>
<event>
 4    1  0.5818436E+000  0.5353266E+03  0.7818608E-02  0.1004948E+00
         21   -1    0    0  501  502  0.00000000000E+00  0.00000000000E+00  0.19361134985E+04  0.19361134985E+04  0.00000000000E+00 0.  1.
         21   -1    0    0  502  503 -0.00000000000E+00 -0.00000000000E+00 -0.14853284850E+03  0.14853284850E+03  0.00000000000E+00 0.  1.
          6    1    1    2  501    0 -0.34709193307E+03  0.36948316869E+03  0.83226938415E+03  0.98956907275E+03  0.17200000000E+03 0.  1.
         -6    1    1    2    0  503  0.34709193307E+03 -0.36948316869E+03  0.95531126585E+03  0.10950772743E+04  0.17200000000E+03 0.  1.
</event>
<event>
 4    1  0.5818436E+000  0.2021097E+03  0.7818608E-02  0.1147971E+00
         21   -1    0    0  503  502  0.00000000000E+00  0.00000000000E+00  0.32120844752E+03  0.32120844752E+03  0.00000000000E+00 0.  1.
         21   -1    0    0  501  503 -0.00000000000E+00 -0.00000000000E+00 -0.13489061563E+03  0.13489061563E+03  0.00000000000E+00 0.  1.
          6    1    1    2  501    0  0.35365193657E+02  0.10006822549E+03  0.38603134783E+02  0.20576333175E+03  0.17200000000E+03 0.  1.
         -6    1    1    2    0  502 -0.35365193657E+02 -0.10006822549E+03  0.14771469711E+03  0.25033573141E+03  0.17200000000E+03 0.  1.
</event>
<event>
 4    1  0.5818436E+000  0.2075979E+03  0.7818608E-02  0.1143482E+00
         21   -1    0    0  503  502  0.00000000000E+00  0.00000000000E+00  0.90000401630E+03  0.90000401630E+03  0.00000000000E+00 0. -1.
         21   -1    0    0  501  503 -0.00000000000E+00 -0.00000000000E+00 -0.53027768987E+02  0.53027768987E+02  0.00000000000E+00 0. -1.
          6    1    1    2  501    0 -0.43391888148E+02 -0.10784268207E+03  0.27509476146E+03  0.34463608026E+03  0.17200000000E+03 0. -1.
         -6    1    1    2    0  502  0.43391888148E+02  0.10784268207E+03  0.57188148585E+03  0.60839570503E+03  0.17200000000E+03 0. -1.
</event>
<event>
 4    1  0.5818436E+000  0.1947660E+03  0.7818608E-02  0.1154232E+00
         21   -1    0    0  501  502  0.00000000000E+00  0.00000000000E+00  0.54461754687E+02  0.54461754687E+02  0.00000000000E+00 0.  1.
         21   -1    0    0  502  503 -0.00000000000E+00 -0.00000000000E+00 -0.14253829477E+04  0.14253829477E+04  0.00000000000E+00 0.  1.
          6    1    1    2  501    0 -0.50368699890E+02 -0.76241628145E+02 -0.15635444721E+03  0.24976089556E+03  0.17200000000E+03 0.  1.
         -6    1    1    2    0  503  0.50368699890E+02  0.76241628145E+02 -0.12145667458E+04  0.12300838068E+04  0.17200000000E+03 0.  1.
</event>
<event>
 4    1  0.5818436E+000  0.2485584E+03  0.7818608E-02  0.1114219E+00
         21   -1    0    0  501  502  0.00000000000E+00  0.00000000000E+00  0.25722950466E+03  0.25722950466E+03  0.00000000000E+00 0.  1.
         21   -1    0    0  502  503 -0.00000000000E+00 -0.00000000000E+00 -0.40268359580E+03  0.40268359580E+03  0.00000000000E+00 0. -1.
          6    1    1    2  501    0  0.11634820651E+03  0.13660290459E+03  0.13688050149E+03  0.28375611075E+03  0.17200000000E+03 0.  1.
         -6    1    1    2    0  503 -0.11634820651E+03 -0.13660290459E+03 -0.28233459263E+03  0.37615698970E+03  0.17200000000E+03 0. -1.
</event>
<event>
 4    1  0.5818436E+000  0.1819705E+03  0.7818608E-02  0.1165909E+00
         21   -1    0    0  503  502  0.00000000000E+00  0.00000000000E+00  0.66195784111E+03  0.66195784111E+03  0.00000000000E+00 0. -1.
         21   -1    0    0  501  503 -0.00000000000E+00 -0.00000000000E+00 -0.17312627771E+03  0.17312627771E+03  0.00000000000E+00 0. -1.
          6    1    1    2  501    0  0.93417234118E+01 -0.58668619468E+02 -0.10767375688E+03  0.21144009229E+03  0.17200000000E+03 0. -1.
         -6    1    1    2    0  502 -0.93417234118E+01  0.58668619468E+02  0.59650532028E+03  0.62364402653E+03  0.17200000000E+03 0. -1.
</event>
<event>
 4    1  0.5818436E+000  0.3027337E+03  0.7818608E-02  0.1083882E+00
         21   -1    0    0  503  502  0.00000000000E+00  0.00000000000E+00  0.27408315280E+03  0.27408315280E+03  0.00000000000E+00 0. -1.
         21   -1    0    0  501  503 -0.00000000000E+00 -0.00000000000E+00 -0.39321623982E+03  0.39321623982E+03  0.00000000000E+00 0.  1.
          6    1    1    2  501    0  0.24583979117E+03  0.40329609377E+02 -0.18862924626E+03  0.35669128509E+03  0.17200000000E+03 0. -1.
         -6    1    1    2    0  502 -0.24583979117E+03 -0.40329609377E+02  0.69496159232E+02  0.31060810753E+03  0.17200000000E+03 0.  1.
</event>
<event>
 4    1  0.5818436E+000  0.2203070E+03  0.7818608E-02  0.1133654E+00
         21   -1    0    0  501  502  0.00000000000E+00  0.00000000000E+00  0.11610080725E+03  0.11610080725E+03  0.00000000000E+00 0. -1.
         21   -1    0    0  502  503 -0.00000000000E+00 -0.00000000000E+00 -0.45030266503E+03  0.45030266503E+03  0.00000000000E+00 0. -1.
          6    1    1    2  501    0  0.12031667546E+03 -0.66895920631E+02 -0.91300538125E+02  0.23847631927E+03  0.17200000000E+03 0.  1.
         -6    1    1    2    0  503 -0.12031667546E+03  0.66895920631E+02 -0.24290131965E+03  0.32792715301E+03  0.17200000000E+03 0.  1.
</event>
<event>
 4    1  0.5818436E+000  0.1825630E+03  0.7818608E-02  0.1165345E+00
         21   -1    0    0  503  502  0.00000000000E+00  0.00000000000E+00  0.68308365400E+02  0.68308365400E+02  0.00000000000E+00 0.  1.
         21   -1    0    0  501  503 -0.00000000000E+00 -0.00000000000E+00 -0.73635634195E+03  0.73635634195E+03  0.00000000000E+00 0.  1.
          6    1    1    2  501    0  0.58200823768E+02  0.18918253745E+02 -0.10033098583E+03  0.20831596897E+03  0.17200000000E+03 0.  1.
         -6    1    1    2    0  502 -0.58200823768E+02 -0.18918253745E+02 -0.56771699072E+03  0.59634873837E+03  0.17200000000E+03 0.  1.
</event>
<event>
 4    1  0.5818436E+000  0.2500951E+03  0.7818608E-02  0.1113245E+00
         21   -1    0    0  501  502  0.00000000000E+00  0.00000000000E+00  0.11047863656E+03  0.11047863656E+03  0.00000000000E+00 0.  1.
         21   -1    0    0  502  503 -0.00000000000E+00 -0.00000000000E+00 -0.56684308012E+03  0.56684308012E+03  0.00000000000E+00 0.  1.
          6    1    1    2  501    0  0.15215156883E+03 -0.99062895268E+02 -0.21634617332E+03  0.33068598977E+03  0.17200000000E+03 0.  1.
         -6    1    1    2    0  503 -0.15215156883E+03  0.99062895268E+02 -0.24001827024E+03  0.34663572691E+03  0.17200000000E+03 0.  1.
</event>
<event>
 4    1  0.5818436E+000  0.2060188E+03  0.7818608E-02  0.1144758E+00
         21   -1    0    0  501  502  0.00000000000E+00  0.00000000000E+00  0.27854575075E+03  0.27854575075E+03  0.00000000000E+00 0. -1.
         21   -1    0    0  502  503 -0.00000000000E+00 -0.00000000000E+00 -0.15671160706E+03  0.15671160706E+03  0.00000000000E+00 0.  1.
          6    1    1    2  501    0  0.22349586056E+02  0.11117664280E+03  0.97114627753E+02  0.22776084129E+03  0.17200000000E+03 0. -1.
         -6    1    1    2    0  503 -0.22349586056E+02 -0.11117664280E+03  0.24719515941E+02  0.20749651652E+03  0.17200000000E+03 0.  1.
</event>
<event>
 4    1  0.5818436E+000  0.1812372E+03  0.7818608E-02  0.1166611E+00
         21   -1    0    0  501  502  0.00000000000E+00  0.00000000000E+00  0.25009112170E+03  0.25009112170E+03  0.00000000000E+00 0. -1.
         21   -1    0    0  502  503 -0.00000000000E+00 -0.00000000000E+00 -0.18682828854E+03  0.18682828854E+03  0.00000000000E+00 0.  1.
          6    1    1    2  501    0 -0.19827585930E+02  0.53570292881E+02  0.15068750381E+03  0.23569818253E+03  0.17200000000E+03 0. -1.
         -6    1    1    2    0  503  0.19827585930E+02 -0.53570292881E+02 -0.87424670650E+02  0.20122122771E+03  0.17200000000E+03 0.  1.
</event>
<event>
 4    1  0.5818436E+000  0.3130750E+03  0.7818608E-02  0.1078881E+00
         21   -1    0    0  503  502  0.00000000000E+00  0.00000000000E+00  0.18136244046E+04  0.18136244046E+04  0.00000000000E+00 0. -1.
         21   -1    0    0  501  503 -0.00000000000E+00 -0.00000000000E+00 -0.18401885657E+03  0.18401885657E+03  0.00000000000E+00 0.  1.
          6    1    1    2  501    0 -0.16276441251E+02  0.26108820697E+03 -0.24630204928E+02  0.31404238783E+03  0.17200000000E+03 0.  1.
         -6    1    1    2    0  502  0.16276441251E+02 -0.26108820697E+03  0.16542357530E+04  0.16836008734E+04  0.17200000000E+03 0. -1.
</event>
<event>
 4    1  0.5818436E+000  0.1793839E+03  0.7818608E-02  0.1168401E+00
         21   -1    0    0  501  502  0.00000000000E+00  0.00000000000E+00  0.16287824316E+03  0.16287824316E+03  0.00000000000E+00 0.  1.
         21   -1    0    0  502  503 -0.00000000000E+00 -0.00000000000E+00 -0.27898835165E+03  0.27898835165E+03  0.00000000000E+00 0.  1.
          6    1    1    2  501    0 -0.49583579251E+02 -0.11664850350E+02  0.61302478145E+02  0.18956949621E+03  0.17200000000E+03 0.  1.
         -6    1    1    2    0  503  0.49583579251E+02  0.11664850350E+02 -0.17741258663E+03  0.25229709860E+03  0.17200000000E+03 0.  1.
</event>
<event>
 4    1  0.5818436E+000  0.4584316E+03  0.7818608E-02  0.1025237E+00
         21   -1    0    0  501  502  0.00000000000E+00  0.00000000000E+00  0.91256204083E+03  0.91256204083E+03  0.00000000000E+00 0.  1.
         21   -1    0    0  502  503 -0.00000000000E+00 -0.00000000000E+00 -0.77584460882E+03  0.77584460882E+03  0.00000000000E+00 0. -1.
          6    1    1    2  501    0 -0.36177089151E+03 -0.22292911786E+03  0.77626592004E+03  0.90152556711E+03  0.17200000000E+03 0.  1.
         -6    1    1    2    0  503  0.36177089151E+03  0.22292911786E+03 -0.63954848803E+03  0.78688108255E+03  0.17200000000E+03 0. -1.
</event>
<event>
 4    1  0.5818436E+000  0.1831594E+03  0.7818608E-02  0.1164780E+00
         21   -1    0    0  503  502  0.00000000000E+00  0.00000000000E+00  0.19763319486E+03  0.19763319486E+03  0.00000000000E+00 0. -1.
         21   -1    0    0  501  503 -0.00000000000E+00 -0.00000000000E+00 -0.24887232089E+03  0.24887232089E+03  0.00000000000E+00 0. -1.
          6    1    1    2  501    0 -0.53247896775E+02 -0.33586127939E+02 -0.15150343720E+03  0.23769867056E+03  0.17200000000E+03 0. -1.
         -6    1    1    2    0  502  0.53247896775E+02  0.33586127939E+02  0.10026431118E+03  0.20880684519E+03  0.17200000000E+03 0. -1.
</event>
<event>
 4    1  0.5818436E+000  0.2406225E+03  0.7818608E-02  0.1119379E+00
         21   -1    0    0  501  502  0.00000000000E+00  0.00000000000E+00  0.10528707060E+04  0.10528707060E+04  0.00000000000E+00 0. -1.
         21   -1    0    0  502  503 -0.00000000000E+00 -0.00000000000E+00 -0.85354557481E+02  0.85354557481E+02  0.00000000000E+00 0. -1.
          6    1    1    2  501    0  0.67898054356E+02 -0.15396436269E+03  0.82319262526E+03  0.85763935839E+03  0.17200000000E+03 0. -1.
         -6    1    1    2    0  503 -0.67898054356E+02  0.15396436269E+03  0.14432352323E+03  0.28058590507E+03  0.17200000000E+03 0. -1.
</event>
<event>
 4    1  0.5818436E+000  0.2210170E+03  0.7818608E-02  0.1133127E+00
         21   -1    0    0  501  502  0.00000000000E+00  0.00000000000E+00  0.18521020614E+04  0.18521020614E+04  0.00000000000E+00 0. -1.
         21   -1    0    0  502  503 -0.00000000000E+00 -0.00000000000E+00 -0.36129324365E+02  0.36129324365E+02  0.00000000000E+00 0. -1.
          6    1    1    2  501    0  0.13870042848E+03 -0.51688428173E+01  0.41741533752E+03  0.47231778475E+03  0.17200000000E+03 0. -1.
         -6    1    1    2    0  503 -0.13870042848E+03  0.51688428173E+01  0.13985573996E+04  0.14159136011E+04  0.17200000000E+03 0. -1.
</event>
<event>
 4    1  0.5818436E+000  0.2348348E+03  0.7818608E-02  0.1123282E+00
         21   -1    0    0  501  502  0.00000000000E+00  0.00000000000E+00  0.15276561142E+03  0.15276561142E+03  0.00000000000E+00 0. -1.
         21   -1    0    0  502  503 -0.00000000000E+00 -0.00000000000E+00 -0.57764703106E+03  0.57764703106E+03  0.00000000000E+00 0.  1.
          6    1    1    2  501    0  0.14639211927E+03 -0.64286363560E+02  0.11220115327E+02  0.23510270120E+03  0.17200000000E+03 0. -1.
         -6    1    1    2    0  503 -0.14639211927E+03  0.64286363560E+02 -0.43610153497E+03  0.49530994128E+03  0.17200000000E+03 0.  1.
</event>
<event>
 4    1  0.5818436E+000  0.1932523E+03  0.7818608E-02  0.1155560E+00
         21   -1    0    0  501  502  0.00000000000E+00  0.00000000000E+00  0.41947400517E+03  0.41947400517E+03  0.00000000000E+00 0. -1.
         21   -1    0    0  502  503 -0.00000000000E+00 -0.00000000000E+00 -0.92964514461E+02  0.92964514461E+02  0.00000000000E+00 0. -1.
          6    1    1    2  501    0 -0.72192627047E+02  0.50504145796E+02  0.11055480584E+03  0.22264053817E+03  0.17200000000E+03 0. -1.
         -6    1    1    2    0  503  0.72192627047E+02 -0.50504145796E+02  0.21595468487E+03  0.28979798146E+03  0.17200000000E+03 0. -1.
</event>
<event>
 4    1  0.5818436E+000  0.3269547E+03  0.7818608E-02  0.1072492E+00
         21   -1    0    0  501  502  0.00000000000E+00  0.00000000000E+00  0.50298075728E+03  0.50298075728E+03  0.00000000000E+00 0.  1.
         21   -1    0    0  502  503 -0.00000000000E+00 -0.00000000000E+00 -0.24505016594E+03  0.24505016594E+03  0.00000000000E+00 0.  1.
          6    1    1    2  501    0 -0.21661261805E+03  0.17433967336E+03  0.26521236793E+03  0.42099518775E+03  0.17200000000E+03 0.  1.
         -6    1    1    2    0  503  0.21661261805E+03 -0.17433967336E+03 -0.72817765889E+01  0.32703573548E+03  0.17200000000E+03 0.  1.
</event>
<event>
 4    1  0.5818436E+000  0.1864023E+03  0.7818608E-02  0.1161747E+00
         21   -1    0    0  501  502  0.00000000000E+00  0.00000000000E+00  0.41599466952E+03  0.41599466952E+03  0.00000000000E+00 0.  1.
         21   -1    0    0  502  503 -0.00000000000E+00 -0.00000000000E+00 -0.15083660485E+03  0.15083660485E+03  0.00000000000E+00 0.  1.
          6    1    1    2  501    0 -0.70628287572E+02 -0.13170127320E+02  0.32190777497E+03  0.37198175069E+03  0.17200000000E+03 0.  1.
         -6    1    1    2    0  503  0.70628287572E+02  0.13170127320E+02 -0.56749710300E+02  0.19484952368E+03  0.17200000000E+03 0.  1.
</event>
<event>
 4    1  0.5818436E+000  0.2077541E+03  0.7818608E-02  0.1143357E+00
         21   -1    0    0  503  502  0.00000000000E+00  0.00000000000E+00  0.42560569534E+03  0.42560569534E+03  0.00000000000E+00 0. -1.
         21   -1    0    0  501  503 -0.00000000000E+00 -0.00000000000E+00 -0.10203515982E+03  0.10203515982E+03  0.00000000000E+00 0. -1.
          6    1    1    2  501    0 -0.97104777890E+02  0.64408413906E+02  0.14117788758E+03  0.25118315551E+03  0.17200000000E+03 0. -1.
         -6    1    1    2    0  502  0.97104777890E+02 -0.64408413906E+02  0.18239264795E+03  0.27645769965E+03  0.17200000000E+03 0. -1.
</event>
<event>
 4    1  0.5818436E+000  0.1807846E+03  0.7818608E-02  0.1167046E+00
         21   -1    0    0  503  502  0.00000000000E+00  0.00000000000E+00  0.10497943048E+04  0.10497943048E+04  0.00000000000E+00 0. -1.
         21   -1    0    0  501  503 -0.00000000000E+00 -0.00000000000E+00 -0.57198373090E+02  0.57198373090E+02  0.00000000000E+00 0. -1.
          6    1    1    2  501    0  0.10765945213E+02 -0.54618371572E+02  0.12265546678E+03  0.21846609719E+03  0.17200000000E+03 0.  1.
         -6    1    1    2    0  502 -0.10765945213E+02  0.54618371572E+02  0.86994046494E+03  0.88852658071E+03  0.17200000000E+03 0.  1.
</event>
<event>
 4    1  0.5818436E+000  0.4637804E+03  0.7818608E-02  0.1023690E+00
         21   -1    0    0  501  502  0.00000000000E+00  0.00000000000E+00  0.15700690679E+03  0.15700690679E+03  0.00000000000E+00 0. -1.
         21   -1    0    0  502  503 -0.00000000000E+00 -0.00000000000E+00 -0.20594378259E+04  0.20594378259E+04  0.00000000000E+00 0.  1.
          6    1    1    2  501    0 -0.16839056094E+03  0.39642513937E+03 -0.15924465117E+04  0.16586072967E+04  0.17200000000E+03 0.  1.
         -6    1    1    2    0  503  0.16839056094E+03 -0.39642513937E+03 -0.30998440746E+03  0.55783743600E+03  0.17200000000E+03 0. -1.
</event>
<event>
 4    1  0.5818436E+000  0.2141272E+03  0.7818608E-02  0.1138339E+00
         21   -1    0    0  503  502  0.00000000000E+00  0.00000000000E+00  0.93393251600E+03  0.93393251600E+03  0.00000000000E+00 0.  1.
         21   -1    0    0  501  503 -0.00000000000E+00 -0.00000000000E+00 -0.70974705402E+02  0.70974705402E+02  0.00000000000E+00 0.  1.
          6    1    1    2  501    0 -0.11901667073E+03 -0.45841963824E+02  0.15249757306E+03  0.26288013114E+03  0.17200000000E+03 0.  1.
         -6    1    1    2    0  502  0.11901667073E+03  0.45841963824E+02  0.71046023754E+03  0.74202709026E+03  0.17200000000E+03 0.  1.
</event>
<event>
 4    1  0.5818436E+000  0.2739473E+03  0.7818608E-02  0.1099041E+00
         21   -1    0    0  501  502  0.00000000000E+00  0.00000000000E+00  0.74296267573E+02  0.74296267573E+02  0.00000000000E+00 0.  1.
         21   -1    0    0  502  503 -0.00000000000E+00 -0.00000000000E+00 -0.10106979028E+04  0.10106979028E+04  0.00000000000E+00 0.  1.
          6    1    1    2  501    0 -0.18048092591E+03  0.11353316448E+03 -0.48132348849E+03  0.55382257504E+03  0.17200000000E+03 0.  1.
         -6    1    1    2    0  503  0.18048092591E+03 -0.11353316448E+03 -0.45507814676E+03  0.53117159536E+03  0.17200000000E+03 0.  1.
</event>
<event>
 4    1  0.5818436E+000  0.2070465E+03  0.7818608E-02  0.1143926E+00
         21   -1    0    0  501  502  0.00000000000E+00  0.00000000000E+00  0.91534709771E+02  0.91534709771E+02  0.00000000000E+00 0.  1.
         21   -1    0    0  502  503 -0.00000000000E+00 -0.00000000000E+00 -0.61532070339E+03  0.61532070339E+03  0.00000000000E+00 0.  1.
          6    1    1    2  501    0 -0.91798946994E+02 -0.69693720882E+02 -0.89151047285E+02  0.22542442332E+03  0.17200000000E+03 0.  1.
         -6    1    1    2    0  503  0.91798946994E+02  0.69693720882E+02 -0.43463494634E+03  0.48143098984E+03  0.17200000000E+03 0.  1.
</event>
<event>
 4    1  0.5818436E+000  0.2127109E+03  0.7818608E-02  0.1139437E+00
         21   -1    0    0  501  502  0.00000000000E+00  0.00000000000E+00  0.29005524552E+02  0.29005524552E+02  0.00000000000E+00 0.  1.
         21   -1    0    0  502  503 -0.00000000000E+00 -0.00000000000E+00 -0.17182959193E+04  0.17182959193E+04  0.00000000000E+00 0.  1.
          6    1    1    2  501    0  0.11356673778E+03 -0.52578612022E+02 -0.57939753709E+03  0.61720938129E+03  0.17200000000E+03 0.  1.
         -6    1    1    2    0  503 -0.11356673778E+03  0.52578612022E+02 -0.11098928576E+04  0.11300920625E+04  0.17200000000E+03 0.  1.
</event>
<event>
 4    1  0.5818436E+000  0.2529182E+03  0.7818608E-02  0.1111474E+00
         21   -1    0    0  501  502  0.00000000000E+00  0.00000000000E+00  0.35544740832E+03  0.35544740832E+03  0.00000000000E+00 0.  1.
         21   -1    0    0  502  503 -0.00000000000E+00 -0.00000000000E+00 -0.19708799306E+03  0.19708799306E+03  0.00000000000E+00 0. -1.
          6    1    1    2  501    0 -0.17699062022E+03 -0.55298754683E+02  0.16061381010E+03  0.29960712260E+03  0.17200000000E+03 0. -1.
         -6    1    1    2    0  503  0.17699062022E+03  0.55298754683E+02 -0.22543948422E+01  0.25292827879E+03  0.17200000000E+03 0. -1.
</event>
<event>
 4    1  0.5818436E+000  0.2579298E+03  0.7818608E-02  0.1108393E+00
         21   -1    0    0  501  502  0.00000000000E+00  0.00000000000E+00  0.65132466597E+03  0.65132466597E+03  0.00000000000E+00 0.  1.
         21   -1    0    0  502  503 -0.00000000000E+00 -0.00000000000E+00 -0.15062358811E+03  0.15062358811E+03  0.00000000000E+00 0. -1.
          6    1    1    2  501    0  0.10888305612E+03 -0.15839272871E+03  0.47783780393E+03  0.54300713005E+03  0.17200000000E+03 0.  1.
         -6    1    1    2    0  503 -0.10888305612E+03  0.15839272871E+03  0.22863273924E+02  0.25894112403E+03  0.17200000000E+03 0. -1.
</event>
<event>
 4    1  0.5818436E+000  0.1953277E+03  0.7818608E-02  0.1153742E+00
         21   -1    0    0  503  502  0.00000000000E+00  0.00000000000E+00  0.98720498834E+03  0.98720498834E+03  0.00000000000E+00 0. -1.
         21   -1    0    0  501  503 -0.00000000000E+00 -0.00000000000E+00 -0.10522466491E+03  0.10522466491E+03  0.00000000000E+00 0.  1.
          6    1    1    2  501    0  0.36421191906E+02 -0.85102267056E+02  0.65122455283E+01  0.19543620038E+03  0.17200000000E+03 0.  1.
         -6    1    1    2    0  502 -0.36421191906E+02  0.85102267056E+02  0.87546807790E+03  0.89699345287E+03  0.17200000000E+03 0. -1.
</event>
<event>
 4    1  0.5818436E+000  0.1770148E+03  0.7818608E-02  0.1170724E+00
         21   -1    0    0  503  502  0.00000000000E+00  0.00000000000E+00  0.47356941963E+03  0.47356941963E+03  0.00000000000E+00 0.  1.
         21   -1    0    0  501  503 -0.00000000000E+00 -0.00000000000E+00 -0.25190428313E+03  0.25190428313E+03  0.00000000000E+00 0.  1.
          6    1    1    2  501    0  0.36041664911E+02 -0.21242043132E+02 -0.20064339525E+03  0.26756681047E+03  0.17200000000E+03 0.  1.
         -6    1    1    2    0  502 -0.36041664911E+02  0.21242043132E+02  0.42230853176E+03  0.45790689228E+03  0.17200000000E+03 0.  1.
</event>
<event>
 4    1  0.5818436E+000  0.1995138E+03  0.7818608E-02  0.1150150E+00
         21   -1    0    0  503  502  0.00000000000E+00  0.00000000000E+00  0.24328442695E+02  0.24328442695E+02  0.00000000000E+00 0.  1.
         21   -1    0    0  501  503 -0.00000000000E+00 -0.00000000000E+00 -0.19190922272E+04  0.19190922272E+04  0.00000000000E+00 0. -1.
          6    1    1    2  501    0 -0.39191071808E+02 -0.93197800210E+02 -0.13204712881E+04  0.13354587948E+04  0.17200000000E+03 0.  1.
         -6    1    1    2    0  502  0.39191071808E+02  0.93197800210E+02 -0.57429249647E+03  0.60796187510E+03  0.17200000000E+03 0.  1.
</event>
<event>
 4    1  0.5818436E+000  0.1972024E+03  0.7818608E-02  0.1152121E+00
         21   -1    0    0  503  502  0.00000000000E+00  0.00000000000E+00  0.31656769425E+03  0.31656769425E+03  0.00000000000E+00 0. -1.
         21   -1    0    0  501  503 -0.00000000000E+00 -0.00000000000E+00 -0.41516088293E+03  0.41516088293E+03  0.00000000000E+00 0. -1.
          6    1    1    2  501    0  0.89056391485E+02 -0.37064247979E+02 -0.35629627089E+03  0.40722945865E+03  0.17200000000E+03 0. -1.
         -6    1    1    2    0  502 -0.89056391485E+02  0.37064247979E+02  0.25770308221E+03  0.32449911853E+03  0.17200000000E+03 0. -1.
</event>
<event>
 4    1  0.5818436E+000  0.2383109E+03  0.7818608E-02  0.1120923E+00
         21   -1    0    0  503  502  0.00000000000E+00  0.00000000000E+00  0.13819514690E+03  0.13819514690E+03  0.00000000000E+00 0. -1.
         21   -1    0    0  501  503 -0.00000000000E+00 -0.00000000000E+00 -0.47897591657E+03  0.47897591657E+03  0.00000000000E+00 0.  1.
          6    1    1    2  501    0  0.15654189305E+03 -0.51987550777E+02 -0.28667922556E+03  0.37279625546E+03  0.17200000000E+03 0. -1.
         -6    1    1    2    0  502 -0.15654189305E+03  0.51987550777E+02 -0.54101544113E+02  0.24437480801E+03  0.17200000000E+03 0. -1.
</event>
<event>
 4    1  0.5818436E+000  0.1889610E+03  0.7818608E-02  0.1159402E+00
         21   -1    0    0  501  502  0.00000000000E+00  0.00000000000E+00  0.12889481014E+03  0.12889481014E+03  0.00000000000E+00 0. -1.
         21   -1    0    0  502  503 -0.00000000000E+00 -0.00000000000E+00 -0.28945082182E+03  0.28945082182E+03  0.00000000000E+00 0. -1.
          6    1    1    2  501    0  0.11044571203E+02 -0.77461351646E+02 -0.12362853807E+03  0.22581022780E+03  0.17200000000E+03 0. -1.
         -6    1    1    2    0  503 -0.11044571203E+02  0.77461351646E+02 -0.36927473610E+02  0.19253540417E+03  0.17200000000E+03 0. -1.
</event>
<event>
 4    1  0.5818436E+000  0.2132987E+03  0.7818608E-02  0.1138980E+00
         21   -1    0    0  503  502  0.00000000000E+00  0.00000000000E+00  0.69224982491E+03  0.69224982491E+03  0.00000000000E+00 0.  1.
         21   -1    0    0  501  503 -0.00000000000E+00 -0.00000000000E+00 -0.13315939724E+03  0.13315939724E+03  0.00000000000E+00 0. -1.
          6    1    1    2  501    0 -0.12214339748E+03 -0.31517402371E+02 -0.14153709284E+02  0.21376782659E+03  0.17200000000E+03 0. -1.
         -6    1    1    2    0  502  0.12214339748E+03  0.31517402371E+02  0.57324413696E+03  0.61164139556E+03  0.17200000000E+03 0.  1.
</event>
<event>
 4    1  0.5818436E+000  0.2173232E+03  0.7818608E-02  0.1135895E+00
         21   -1    0    0  501  502  0.00000000000E+00  0.00000000000E+00  0.27856806366E+03  0.27856806366E+03  0.00000000000E+00 0. -1.
         21   -1    0    0  502  503 -0.00000000000E+00 -0.00000000000E+00 -0.16955227992E+03  0.16955227992E+03  0.00000000000E+00 0. -1.
          6    1    1    2  501    0  0.71184780636E+02  0.11215217930E+03  0.52888906785E+02  0.22366631570E+03  0.17200000000E+03 0. -1.
         -6    1    1    2    0  503 -0.71184780636E+02 -0.11215217930E+03  0.56126876961E+02  0.22445402789E+03  0.17200000000E+03 0. -1.
</event>
<event>
 4    1  0.5818436E+000  0.1944017E+03  0.7818608E-02  0.1154550E+00
         21   -1    0    0  503  502  0.00000000000E+00  0.00000000000E+00  0.25773477388E+03  0.25773477388E+03  0.00000000000E+00 0. -1.
         21   -1    0    0  501  503 -0.00000000000E+00 -0.00000000000E+00 -0.14731514997E+03  0.14731514997E+03  0.00000000000E+00 0. -1.
          6    1    1    2  501    0  0.43652682543E+02 -0.79388175714E+02  0.41413325490E+02  0.19876393703E+03  0.17200000000E+03 0. -1.
         -6    1    1    2    0  502 -0.43652682543E+02  0.79388175714E+02  0.69006298413E+02  0.20628598682E+03  0.17200000000E+03 0. -1.
</event>
<event>
 4    1  0.5818436E+000  0.2246648E+03  0.7818608E-02  0.1130452E+00
         21   -1    0    0  501  502  0.00000000000E+00  0.00000000000E+00  0.41581351738E+03  0.41581351738E+03  0.00000000000E+00 0.  1.
         21   -1    0    0  502  503 -0.00000000000E+00 -0.00000000000E+00 -0.23077176698E+03  0.23077176698E+03  0.00000000000E+00 0.  1.
          6    1    1    2  501    0 -0.39558374408E+02  0.13901585006E+03  0.31509942393E+03  0.38699085069E+03  0.17200000000E+03 0.  1.
         -6    1    1    2    0  503  0.39558374408E+02 -0.13901585006E+03 -0.13005767353E+03  0.25959443368E+03  0.17200000000E+03 0.  1.
</event>
<event>
 4    1  0.5818436E+000  0.1764344E+03  0.7818608E-02  0.1171299E+00
         21   -1    0    0  501  502  0.00000000000E+00  0.00000000000E+00  0.19950631965E+04  0.19950631965E+04  0.00000000000E+00 0. -1.
         21   -1    0    0  502  503 -0.00000000000E+00 -0.00000000000E+00 -0.20303011686E+02  0.20303011686E+02  0.00000000000E+00 0. -1.
          6    1    1    2  501    0 -0.15491357375E+02 -0.36126428944E+02  0.14722108946E+04  0.14827454331E+04  0.17200000000E+03 0. -1.
         -6    1    1    2    0  503  0.15491357375E+02  0.36126428944E+02  0.50254929019E+03  0.53262077512E+03  0.17200000000E+03 0. -1.
</event>
<event>
 4    1  0.5818436E+000  0.2120481E+03  0.7818608E-02  0.1139954E+00
         21   -1    0    0  503  502  0.00000000000E+00  0.00000000000E+00  0.28040636862E+03  0.28040636862E+03  0.00000000000E+00 0.  1.
         21   -1    0    0  501  503 -0.00000000000E+00 -0.00000000000E+00 -0.33547877579E+03  0.33547877579E+03  0.00000000000E+00 0.  1.
          6    1    1    2  501    0 -0.93148297451E+02  0.81876768768E+02 -0.25002617463E+03  0.32783761008E+03  0.17200000000E+03 0.  1.
         -6    1    1    2    0  502  0.93148297451E+02 -0.81876768768E+02  0.19495376747E+03  0.28804753433E+03  0.17200000000E+03 0.  1.
</event>
<event>
 4    1  0.5818436E+000  0.1819882E+03  0.7818608E-02  0.1165893E+00
         21   -1    0    0  503  502  0.00000000000E+00  0.00000000000E+00  0.10006711082E+03  0.10006711082E+03  0.00000000000E+00 0. -1.
         21   -1    0    0  501  503 -0.00000000000E+00 -0.00000000000E+00 -0.34528584632E+03  0.34528584632E+03  0.00000000000E+00 0.  1.
          6    1    1    2  501    0 -0.46894314915E+01 -0.59276486545E+02 -0.16794300384E+03  0.24763793159E+03  0.17200000000E+03 0.  1.
         -6    1    1    2    0  502  0.46894314915E+01  0.59276486545E+02 -0.77275731654E+02  0.19771502555E+03  0.17200000000E+03 0.  1.
</event>
<event>
 4    1  0.5818436E+000  0.2028913E+03  0.7818608E-02  0.1147322E+00
         21   -1    0    0  503  502  0.00000000000E+00  0.00000000000E+00  0.22029058050E+02  0.22029058050E+02  0.00000000000E+00 0.  1.
         21   -1    0    0  501  503 -0.00000000000E+00 -0.00000000000E+00 -0.21556470504E+04  0.21556470504E+04  0.00000000000E+00 0. -1.
          6    1    1    2  501    0  0.54447848100E+02 -0.92824043389E+02 -0.14640955279E+04  0.14780867992E+04  0.17200000000E+03 0. -1.
         -6    1    1    2    0  502 -0.54447848100E+02  0.92824043389E+02 -0.66952246446E+03  0.69958930924E+03  0.17200000000E+03 0. -1.
</event>
<event>
 4    1  0.5818436E+000  0.3720976E+03  0.7818608E-02  0.1053894E+00
         21   -1    0    0  501  502  0.00000000000E+00  0.00000000000E+00  0.25033327120E+03  0.25033327120E+03  0.00000000000E+00 0.  1.
         21   -1    0    0  502  503 -0.00000000000E+00 -0.00000000000E+00 -0.55965371666E+03  0.55965371666E+03  0.00000000000E+00 0.  1.
          6    1    1    2  501    0  0.10436189029E+03  0.31301952549E+03 -0.11079807542E+03  0.38824327553E+03  0.17200000000E+03 0.  1.
         -6    1    1    2    0  503 -0.10436189029E+03 -0.31301952549E+03 -0.19852237004E+03  0.42174371233E+03  0.17200000000E+03 0.  1.
</event>
<event>
 4    1  0.5818436E+000  0.1838875E+03  0.7818608E-02  0.1164093E+00
         21   -1    0    0  503  502  0.00000000000E+00  0.00000000000E+00  0.34964809926E+03  0.34964809926E+03  0.00000000000E+00 0.  1.
         21   -1    0    0  501  503 -0.00000000000E+00 -0.00000000000E+00 -0.98059629174E+02  0.98059629174E+02  0.00000000000E+00 0. -1.
          6    1    1    2  501    0  0.25745543400E+02  0.59730882006E+02  0.99536297174E+02  0.20909826811E+03  0.17200000000E+03 0.  1.
         -6    1    1    2    0  502 -0.25745543400E+02 -0.59730882006E+02  0.15205217291E+03  0.23860946033E+03  0.17200000000E+03 0.  1.
</event>
<event>
 4    1  0.5818436E+000  0.1845194E+03  0.7818608E-02  0.1163499E+00
         21   -1    0    0  501  502  0.00000000000E+00  0.00000000000E+00  0.22281845566E+03  0.22281845566E+03  0.00000000000E+00 0.  1.
         21   -1    0    0  502  503 -0.00000000000E+00 -0.00000000000E+00 -0.15968840042E+03  0.15968840042E+03  0.00000000000E+00 0. -1.
          6    1    1    2  501    0 -0.41520654401E+02  0.52339695387E+02 -0.81473440133E+01  0.18469918156E+03  0.17200000000E+03 0.  1.
         -6    1    1    2    0  503  0.41520654401E+02 -0.52339695387E+02  0.71277399251E+02  0.19780767452E+03  0.17200000000E+03 0.  1.
</event>
<event>
 4    1  0.5818436E+000  0.2082337E+03  0.7818608E-02  0.1142972E+00
         21   -1    0    0  503  502  0.00000000000E+00  0.00000000000E+00  0.18149486515E+03  0.18149486515E+03  0.00000000000E+00 0.  1.
         21   -1    0    0  501  503 -0.00000000000E+00 -0.00000000000E+00 -0.24970261382E+03  0.24970261382E+03  0.00000000000E+00 0. -1.
          6    1    1    2  501    0 -0.68226102924E+02  0.95511539895E+02 -0.78922943413E+02  0.22268831665E+03  0.17200000000E+03 0. -1.
         -6    1    1    2    0  502  0.68226102924E+02 -0.95511539895E+02  0.10715194739E+02  0.20850916232E+03  0.17200000000E+03 0. -1.
</event>
<event>
 4    1  0.5818436E+000  0.1931240E+03  0.7818608E-02  0.1155673E+00
         21   -1    0    0  501  502  0.00000000000E+00  0.00000000000E+00  0.99321501081E+02  0.99321501081E+02  0.00000000000E+00 0. -1.
         21   -1    0    0  502  503 -0.00000000000E+00 -0.00000000000E+00 -0.46358815264E+03  0.46358815264E+03  0.00000000000E+00 0. -1.
          6    1    1    2  501    0  0.73119912945E+02 -0.48645343517E+02 -0.59457243446E+02  0.20206943092E+03  0.17200000000E+03 0. -1.
         -6    1    1    2    0  503 -0.73119912945E+02  0.48645343517E+02 -0.30480940811E+03  0.36084022280E+03  0.17200000000E+03 0. -1.
</event>
<event>
 4    1  0.5818436E+000  0.1873971E+03  0.7818608E-02  0.1160830E+00
         21   -1    0    0  503  502  0.00000000000E+00  0.00000000000E+00  0.60711681123E+03  0.60711681123E+03  0.00000000000E+00 0.  1.
         21   -1    0    0  501  503 -0.00000000000E+00 -0.00000000000E+00 -0.57940166456E+02  0.57940166456E+02  0.00000000000E+00 0. -1.
          6    1    1    2  501    0 -0.69653594827E+02 -0.26116180153E+02  0.26099629431E+03  0.32130475219E+03  0.17200000000E+03 0.  1.
         -6    1    1    2    0  502  0.69653594827E+02  0.26116180153E+02  0.28818035047E+03  0.34375222550E+03  0.17200000000E+03 0. -1.
</event>
<event>
 4    1  0.5818436E+000  0.2020351E+03  0.7818608E-02  0.1148033E+00
         21   -1    0    0  501  502  0.00000000000E+00  0.00000000000E+00  0.69827147308E+03  0.69827147308E+03  0.00000000000E+00 0.  1.
         21   -1    0    0  502  503 -0.00000000000E+00 -0.00000000000E+00 -0.70434329088E+02  0.70434329088E+02  0.00000000000E+00 0.  1.
          6    1    1    2  501    0 -0.20298416289E+02 -0.10402957105E+03  0.47242087258E+03  0.51380897054E+03  0.17200000000E+03 0.  1.
         -6    1    1    2    0  503  0.20298416289E+02  0.10402957105E+03  0.15541627141E+03  0.25489683163E+03  0.17200000000E+03 0.  1.
</event>
<event>
 4    1  0.5818436E+000  0.3629770E+03  0.7818608E-02  0.1057411E+00
         21   -1    0    0  503  502  0.00000000000E+00  0.00000000000E+00  0.68910364752E+03  0.68910364752E+03  0.00000000000E+00 0. -1.
         21   -1    0    0  501  503 -0.00000000000E+00 -0.00000000000E+00 -0.36312963956E+03  0.36312963956E+03  0.00000000000E+00 0.  1.
          6    1    1    2  501    0 -0.11170052558E+03  0.29948505882E+03 -0.19903458171E+03  0.41396506204E+03  0.17200000000E+03 0.  1.
         -6    1    1    2    0  502  0.11170052558E+03 -0.29948505882E+03  0.52500858967E+03  0.63826822504E+03  0.17200000000E+03 0. -1.
</event>
<event>
 4    1  0.5818436E+000  0.1951567E+03  0.7818608E-02  0.1153891E+00
         21   -1    0    0  501  502  0.00000000000E+00  0.00000000000E+00  0.27004642046E+03  0.27004642046E+03  0.00000000000E+00 0. -1.
         21   -1    0    0  502  503 -0.00000000000E+00 -0.00000000000E+00 -0.23315764304E+03  0.23315764304E+03  0.00000000000E+00 0. -1.
          6    1    1    2  501    0  0.91446969710E+02 -0.11814376890E+02  0.17659517962E+03  0.26319571660E+03  0.17200000000E+03 0. -1.
         -6    1    1    2    0  503 -0.91446969710E+02  0.11814376890E+02 -0.13970640220E+03  0.24000834691E+03  0.17200000000E+03 0. -1.
</event>
<event>
 4    1  0.5818436E+000  0.2085493E+03  0.7818608E-02  0.1142720E+00
         21   -1    0    0  503  502  0.00000000000E+00  0.00000000000E+00  0.78831621595E+03  0.78831621595E+03  0.00000000000E+00 0.  1.
         21   -1    0    0  501  503 -0.00000000000E+00 -0.00000000000E+00 -0.83718589915E+02  0.83718589915E+02  0.00000000000E+00 0.  1.
          6    1    1    2  501    0 -0.66184805031E+02  0.97613340713E+02  0.97690945970E+02  0.23029614332E+03  0.17200000000E+03 0.  1.
         -6    1    1    2    0  502  0.66184805031E+02 -0.97613340713E+02  0.60690668007E+03  0.64173866255E+03  0.17200000000E+03 0.  1.
</event>
<event>
 4    1  0.5818436E+000  0.2258575E+03  0.7818608E-02  0.1129590E+00
         21   -1    0    0  503  502  0.00000000000E+00  0.00000000000E+00  0.33037599652E+03  0.33037599652E+03  0.00000000000E+00 0. -1.
         21   -1    0    0  501  503 -0.00000000000E+00 -0.00000000000E+00 -0.16836101472E+03  0.16836101472E+03  0.00000000000E+00 0.  1.
          6    1    1    2  501    0 -0.74934170964E+02 -0.12574769239E+03  0.92105477194E+01  0.22604523067E+03  0.17200000000E+03 0.  1.
         -6    1    1    2    0  502  0.74934170964E+02  0.12574769239E+03  0.15280443408E+03  0.27269178058E+03  0.17200000000E+03 0.  1.
</event>
<event>
 4    1  0.5818436E+000  0.1726309E+03  0.7818608E-02  0.1175132E+00
         21   -1    0    0  501  502  0.00000000000E+00  0.00000000000E+00  0.65223154553E+03  0.65223154553E+03  0.00000000000E+00 0. -1.
         21   -1    0    0  502  503 -0.00000000000E+00 -0.00000000000E+00 -0.10741834238E+03  0.10741834238E+03  0.00000000000E+00 0. -1.
          6    1    1    2  501    0 -0.14299764652E+02 -0.35962298861E+01  0.56033294776E+03  0.58632280228E+03  0.17200000000E+03 0. -1.
         -6    1    1    2    0  503  0.14299764652E+02  0.35962298861E+01 -0.15519744615E+02  0.17332708563E+03  0.17200000000E+03 0. -1.
</event>
<event>
 4    1  0.5818436E+000  0.2741634E+03  0.7818608E-02  0.1098920E+00
         21   -1    0    0  501  502  0.00000000000E+00  0.00000000000E+00  0.36447393213E+04  0.36447393213E+04  0.00000000000E+00 0.  1.
         21   -1    0    0  502  503 -0.00000000000E+00 -0.00000000000E+00 -0.28245492761E+02  0.28245492761E+02  0.00000000000E+00 0. -1.
          6    1    1    2  501    0 -0.18437753326E+03 -0.10764061790E+03  0.27622771622E+04  0.27758495453E+04  0.17200000000E+03 0.  1.
         -6    1    1    2    0  503  0.18437753326E+03  0.10764061790E+03  0.85421666639E+03  0.89713526881E+03  0.17200000000E+03 0. -1.
</event>
<event>
 4    1  0.5818436E+000  0.1916295E+03  0.7818608E-02  0.1157000E+00
         21   -1    0    0  501  502  0.00000000000E+00  0.00000000000E+00  0.76219495522E+03  0.76219495522E+03  0.00000000000E+00 0. -1.
         21   -1    0    0  502  503 -0.00000000000E+00 -0.00000000000E+00 -0.57881224468E+02  0.57881224468E+02  0.00000000000E+00 0. -1.
          6    1    1    2  501    0 -0.83848987701E+02  0.10353492531E+02  0.52003314572E+03  0.55421685304E+03  0.17200000000E+03 0. -1.
         -6    1    1    2    0  503  0.83848987701E+02 -0.10353492531E+02  0.18428058503E+03  0.26585932665E+03  0.17200000000E+03 0. -1.
</event>
<event>
 4    1  0.5818436E+000  0.2090507E+03  0.7818608E-02  0.1142320E+00
         21   -1    0    0  503  502  0.00000000000E+00  0.00000000000E+00  0.38488232806E+03  0.38488232806E+03  0.00000000000E+00 0.  1.
         21   -1    0    0  501  503 -0.00000000000E+00 -0.00000000000E+00 -0.27895052805E+03  0.27895052805E+03  0.00000000000E+00 0.  1.
          6    1    1    2  501    0  0.11016811818E+03 -0.44510683849E+02 -0.20262041804E+03  0.29113098263E+03  0.17200000000E+03 0.  1.
         -6    1    1    2    0  502 -0.11016811818E+03  0.44510683849E+02  0.30855221804E+03  0.37270187349E+03  0.17200000000E+03 0.  1.
</event>
<event>
 4    1  0.5818436E+000  0.1728472E+03  0.7818608E-02  0.1174911E+00
         21   -1    0    0  503  502  0.00000000000E+00  0.00000000000E+00  0.25685068665E+03  0.25685068665E+03  0.00000000000E+00 0. -1.
         21   -1    0    0  501  503 -0.00000000000E+00 -0.00000000000E+00 -0.42113298484E+03  0.42113298484E+03  0.00000000000E+00 0. -1.
          6    1    1    2  501    0 -0.16241218979E+02  0.53257926413E+01 -0.37054321554E+03  0.40887457227E+03  0.17200000000E+03 0. -1.
         -6    1    1    2    0  502  0.16241218979E+02 -0.53257926413E+01  0.20626091735E+03  0.26910909923E+03  0.17200000000E+03 0. -1.
</event>
<event>
 4    1  0.5818436E+000  0.3668247E+03  0.7818608E-02  0.1055914E+00
         21   -1    0    0  501  502  0.00000000000E+00  0.00000000000E+00  0.63189766950E+03  0.63189766950E+03  0.00000000000E+00 0.  1.
         21   -1    0    0  502  503 -0.00000000000E+00 -0.00000000000E+00 -0.21587353558E+03  0.21587353558E+03  0.00000000000E+00 0. -1.
          6    1    1    2  501    0  0.20553912373E+03  0.25045959070E+03  0.15865266312E+03  0.39966361539E+03  0.17200000000E+03 0.  1.
         -6    1    1    2    0  503 -0.20553912373E+03 -0.25045959070E+03  0.25737147080E+03  0.44810758969E+03  0.17200000000E+03 0.  1.
</event>
<event>
 4    1  0.5818436E+000  0.2614412E+03  0.7818608E-02  0.1106280E+00
         21   -1    0    0  501  502  0.00000000000E+00  0.00000000000E+00  0.29393002596E+03  0.29393002596E+03  0.00000000000E+00 0.  1.
         21   -1    0    0  502  503 -0.00000000000E+00 -0.00000000000E+00 -0.23278490369E+03  0.23278490369E+03  0.00000000000E+00 0. -1.
          6    1    1    2  501    0  0.19314014016E+03  0.38267364909E+02  0.39054145668E+02  0.26434207242E+03  0.17200000000E+03 0. -1.
         -6    1    1    2    0  503 -0.19314014016E+03 -0.38267364909E+02  0.22090976603E+02  0.26237285722E+03  0.17200000000E+03 0.  1.
</event>
<event>
 4    1  0.5818436E+000  0.1809105E+03  0.7818608E-02  0.1166925E+00
         21   -1    0    0  501  502  0.00000000000E+00  0.00000000000E+00  0.19070904168E+03  0.19070904168E+03  0.00000000000E+00 0. -1.
         21   -1    0    0  502  503 -0.00000000000E+00 -0.00000000000E+00 -0.17501119586E+03  0.17501119586E+03  0.00000000000E+00 0. -1.
          6    1    1    2  501    0 -0.30107427981E+02 -0.47309206997E+02 -0.17622521747E+02  0.18176680544E+03  0.17200000000E+03 0.  1.
         -6    1    1    2    0  503  0.30107427981E+02  0.47309206997E+02  0.33320367564E+02  0.18395343210E+03  0.17200000000E+03 0.  1.
</event>
<event>
 4    1  0.5818436E+000  0.2724455E+03  0.7818608E-02  0.1099888E+00
         21   -1    0    0  503  502  0.00000000000E+00  0.00000000000E+00  0.22385801738E+03  0.22385801738E+03  0.00000000000E+00 0.  1.
         21   -1    0    0  501  503 -0.00000000000E+00 -0.00000000000E+00 -0.54647266781E+03  0.54647266781E+03  0.00000000000E+00 0.  1.
          6    1    1    2  501    0  0.21128664767E+03 -0.71906568070E+00 -0.40283952012E+03  0.48631907582E+03  0.17200000000E+03 0.  1.
         -6    1    1    2    0  502 -0.21128664767E+03  0.71906568070E+00  0.80224869690E+02  0.28401160937E+03  0.17200000000E+03 0.  1.
</event>
<event>
 4    1  0.5818436E+000  0.1883495E+03  0.7818608E-02  0.1159958E+00
         21   -1    0    0  501  502  0.00000000000E+00  0.00000000000E+00  0.20631347242E+03  0.20631347242E+03  0.00000000000E+00 0.  1.
         21   -1    0    0  502  503 -0.00000000000E+00 -0.00000000000E+00 -0.51370013930E+03  0.51370013930E+03  0.00000000000E+00 0.  1.
          6    1    1    2  501    0  0.64383758945E+02 -0.41788474790E+02  0.13994340642E+03  0.23464803865E+03  0.17200000000E+03 0.  1.
         -6    1    1    2    0  503 -0.64383758945E+02  0.41788474790E+02 -0.44733007330E+03  0.48536557307E+03  0.17200000000E+03 0.  1.
</event>
<event>
 4    1  0.5818436E+000  0.1751454E+03  0.7818608E-02  0.1172586E+00
         21   -1    0    0  503  502  0.00000000000E+00  0.00000000000E+00  0.15928355363E+03  0.15928355363E+03  0.00000000000E+00 0. -1.
         21   -1    0    0  501  503 -0.00000000000E+00 -0.00000000000E+00 -0.25952958069E+03  0.25952958069E+03  0.00000000000E+00 0. -1.
          6    1    1    2  501    0 -0.63766707428E+01  0.32423153705E+02 -0.15647570265E+03  0.23486287137E+03  0.17200000000E+03 0. -1.
         -6    1    1    2    0  502  0.63766707428E+01 -0.32423153705E+02  0.56229675590E+02  0.18395026296E+03  0.17200000000E+03 0. -1.
</event>
<event>
 4    1  0.5818436E+000  0.2298269E+03  0.7818608E-02  0.1126762E+00
         21   -1    0    0  501  502  0.00000000000E+00  0.00000000000E+00  0.73323731595E+02  0.73323731595E+02  0.00000000000E+00 0. -1.
         21   -1    0    0  502  503 -0.00000000000E+00 -0.00000000000E+00 -0.11728726186E+04  0.11728726186E+04  0.00000000000E+00 0. -1.
          6    1    1    2  501    0  0.16470273526E+02 -0.15154256402E+03 -0.16274831886E+03  0.28161575580E+03  0.17200000000E+03 0. -1.
         -6    1    1    2    0  503 -0.16470273526E+02  0.15154256402E+03 -0.93680056811E+03  0.96458059437E+03  0.17200000000E+03 0. -1.
</event>
<event>
 4    1  0.5818436E+000  0.1801602E+03  0.7818608E-02  0.1167648E+00
         21   -1    0    0  501  502  0.00000000000E+00  0.00000000000E+00  0.40702548242E+03  0.40702548242E+03  0.00000000000E+00 0. -1.
         21   -1    0    0  502  503 -0.00000000000E+00 -0.00000000000E+00 -0.16236367254E+03  0.16236367254E+03  0.00000000000E+00 0. -1.
          6    1    1    2  501    0  0.74809590486E+01 -0.53082167298E+02 -0.80753943204E+02  0.19743069816E+03  0.17200000000E+03 0. -1.
         -6    1    1    2    0  503 -0.74809590486E+01  0.53082167298E+02  0.32541575308E+03  0.37195845680E+03  0.17200000000E+03 0. -1.
</event>
<event>
 4    1  0.5818436E+000  0.2411130E+03  0.7818608E-02  0.1119054E+00
         21   -1    0    0  503  502  0.00000000000E+00  0.00000000000E+00  0.41611760167E+02  0.41611760167E+02  0.00000000000E+00 0. -1.
         21   -1    0    0  501  503 -0.00000000000E+00 -0.00000000000E+00 -0.17593239032E+04  0.17593239032E+04  0.00000000000E+00 0. -1.
          6    1    1    2  501    0 -0.14820052473E+03  0.81167025895E+02 -0.12674466032E+04  0.12901768769E+04  0.17200000000E+03 0. -1.
         -6    1    1    2    0  502  0.14820052473E+03 -0.81167025895E+02 -0.45026553974E+03  0.51075878642E+03  0.17200000000E+03 0. -1.
</event>
<event>
 4    1  0.5818436E+000  0.2098719E+03  0.7818608E-02  0.1141667E+00
         21   -1    0    0  503  502  0.00000000000E+00  0.00000000000E+00  0.75690829625E+02  0.75690829625E+02  0.00000000000E+00 0. -1.
         21   -1    0    0  501  503 -0.00000000000E+00 -0.00000000000E+00 -0.59890990720E+03  0.59890990720E+03  0.00000000000E+00 0.  1.
          6    1    1    2  501    0  0.11656504603E+03 -0.29576954191E+02 -0.31841603886E+03  0.38135938428E+03  0.17200000000E+03 0.  1.
         -6    1    1    2    0  502 -0.11656504603E+03  0.29576954191E+02 -0.20480303872E+03  0.29324135255E+03  0.17200000000E+03 0. -1.
</event>
<event>
 4    1  0.5818436E+000  0.2053809E+03  0.7818608E-02  0.1145277E+00
         21   -1    0    0  501  502  0.00000000000E+00  0.00000000000E+00  0.19793486913E+03  0.19793486913E+03  0.00000000000E+00 0.  1.
         21   -1    0    0  502  503 -0.00000000000E+00 -0.00000000000E+00 -0.37156272917E+03  0.37156272917E+03  0.00000000000E+00 0.  1.
          6    1    1    2  501    0 -0.11722521735E+02 -0.11162393088E+03  0.99137580343E+02  0.22805608805E+03  0.17200000000E+03 0.  1.
         -6    1    1    2    0  503  0.11722521735E+02  0.11162393088E+03 -0.27276544038E+03  0.34144151026E+03  0.17200000000E+03 0.  1.
</event>
<event>
 4    1  0.5818436E+000  0.2937848E+03  0.7818608E-02  0.1088389E+00
         21   -1    0    0  501  502  0.00000000000E+00  0.00000000000E+00  0.16163540469E+03  0.16163540469E+03  0.00000000000E+00 0. -1.
         21   -1    0    0  502  503 -0.00000000000E+00 -0.00000000000E+00 -0.59391501765E+03  0.59391501765E+03  0.00000000000E+00 0.  1.
          6    1    1    2  501    0 -0.20765271961E+03 -0.11664402981E+03 -0.33615186521E+03  0.44643875071E+03  0.17200000000E+03 0.  1.
         -6    1    1    2    0  503  0.20765271961E+03  0.11664402981E+03 -0.96127747752E+02  0.30911167163E+03  0.17200000000E+03 0.  1.
</event>
<event>
 4    1  0.5818436E+000  0.1802964E+03  0.7818608E-02  0.1167517E+00
         21   -1    0    0  501  502  0.00000000000E+00  0.00000000000E+00  0.15458173281E+03  0.15458173281E+03  0.00000000000E+00 0.  1.
         21   -1    0    0  502  503 -0.00000000000E+00 -0.00000000000E+00 -0.51595177817E+03  0.51595177817E+03  0.00000000000E+00 0. -1.
          6    1    1    2  501    0 -0.51731530895E+02  0.15704496385E+02  0.77367119140E+02  0.19619493780E+03  0.17200000000E+03 0.  1.
         -6    1    1    2    0  503  0.51731530895E+02 -0.15704496385E+02 -0.43873716449E+03  0.47433857318E+03  0.17200000000E+03 0. -1.
</event>
<event>
 4    1  0.5818436E+000  0.2485222E+03  0.7818608E-02  0.1114242E+00
         21   -1    0    0  501  502  0.00000000000E+00  0.00000000000E+00  0.25114038191E+03  0.25114038191E+03  0.00000000000E+00 0.  1.
         21   -1    0    0  502  503 -0.00000000000E+00 -0.00000000000E+00 -0.24693006608E+03  0.24693006608E+03  0.00000000000E+00 0.  1.
          6    1    1    2  501    0  0.17155269527E+03 -0.52430570220E+02 -0.13732679064E+02  0.24890134275E+03  0.17200000000E+03 0.  1.
         -6    1    1    2    0  503 -0.17155269527E+03  0.52430570220E+02  0.17942994893E+02  0.24916910525E+03  0.17200000000E+03 0.  1.
</event>
<event>
 4    1  0.5818436E+000  0.1967008E+03  0.7818608E-02  0.1152553E+00
         21   -1    0    0  501  502  0.00000000000E+00  0.00000000000E+00  0.28301100432E+03  0.28301100432E+03  0.00000000000E+00 0.  1.
         21   -1    0    0  502  503 -0.00000000000E+00 -0.00000000000E+00 -0.15165536755E+03  0.15165536755E+03  0.00000000000E+00 0. -1.
          6    1    1    2  501    0 -0.38874346266E+02  0.87155054045E+02  0.13389758172E+03  0.23794911354E+03  0.17200000000E+03 0.  1.
         -6    1    1    2    0  503  0.38874346266E+02 -0.87155054045E+02 -0.25419449507E+01  0.19671725834E+03  0.17200000000E+03 0. -1.
</event>
<event>
 4    1  0.5818436E+000  0.1811379E+03  0.7818608E-02  0.1166706E+00
         21   -1    0    0  503  502  0.00000000000E+00  0.00000000000E+00  0.51850177310E+03  0.51850177310E+03  0.00000000000E+00 0. -1.
         21   -1    0    0  501  503 -0.00000000000E+00 -0.00000000000E+00 -0.74338665642E+02  0.74338665642E+02  0.00000000000E+00 0. -1.
          6    1    1    2  501    0 -0.34795338623E+02  0.44902289115E+02  0.33640795812E+03  0.38207492124E+03  0.17200000000E+03 0.  1.
         -6    1    1    2    0  502  0.34795338623E+02 -0.44902289115E+02  0.10775514934E+03  0.21076551750E+03  0.17200000000E+03 0.  1.
</event>
<event>
 4    1  0.5818436E+000  0.1778883E+03  0.7818608E-02  0.1169863E+00
         21   -1    0    0  503  502  0.00000000000E+00  0.00000000000E+00  0.16061384877E+02  0.16061384877E+02  0.00000000000E+00 0.  1.
         21   -1    0    0  501  503 -0.00000000000E+00 -0.00000000000E+00 -0.19711600518E+04  0.19711600518E+04  0.00000000000E+00 0.  1.
          6    1    1    2  501    0  0.45389594998E+02 -0.21331886689E+00 -0.95570689452E+03  0.97212135512E+03  0.17200000000E+03 0.  1.
         -6    1    1    2    0  502 -0.45389594998E+02  0.21331886689E+00 -0.99939177235E+03  0.10151000815E+04  0.17200000000E+03 0.  1.
</event>
<event>
 4    1  0.5818436E+000  0.1837708E+03  0.7818608E-02  0.1164203E+00
         21   -1    0    0  501  502  0.00000000000E+00  0.00000000000E+00  0.79640725206E+02  0.79640725206E+02  0.00000000000E+00 0. -1.
         21   -1    0    0  502  503 -0.00000000000E+00 -0.00000000000E+00 -0.52665400303E+03  0.52665400303E+03  0.00000000000E+00 0. -1.
          6    1    1    2  501    0  0.30948403839E+02  0.56832235719E+02 -0.89701826301E+02  0.20449480277E+03  0.17200000000E+03 0. -1.
         -6    1    1    2    0  503 -0.30948403839E+02 -0.56832235719E+02 -0.35731145152E+03  0.40179992547E+03  0.17200000000E+03 0. -1.
</event>
<event>
 4    1  0.5818436E+000  0.2416513E+03  0.7818608E-02  0.1118698E+00
         21   -1    0    0  501  502  0.00000000000E+00  0.00000000000E+00  0.91842245129E+02  0.91842245129E+02  0.00000000000E+00 0.  1.
         21   -1    0    0  502  503 -0.00000000000E+00 -0.00000000000E+00 -0.72137153255E+03  0.72137153255E+03  0.00000000000E+00 0. -1.
          6    1    1    2  501    0  0.16476624335E+03 -0.40785336607E+02 -0.45478880652E+03  0.51500312345E+03  0.17200000000E+03 0. -1.
         -6    1    1    2    0  503 -0.16476624335E+03  0.40785336607E+02 -0.17474048090E+03  0.29821065423E+03  0.17200000000E+03 0.  1.
</event>
<event>
 4    1  0.5818436E+000  0.1743334E+03  0.7818608E-02  0.1173403E+00
         21   -1    0    0  503  502  0.00000000000E+00  0.00000000000E+00  0.61323410352E+03  0.61323410352E+03  0.00000000000E+00 0.  1.
         21   -1    0    0  501  503 -0.00000000000E+00 -0.00000000000E+00 -0.50117595887E+02  0.50117595887E+02  0.00000000000E+00 0.  1.
          6    1    1    2  501    0  0.13221587213E+02  0.25166237327E+02  0.24658722194E+03  0.30198908572E+03  0.17200000000E+03 0.  1.
         -6    1    1    2    0  502 -0.13221587213E+02 -0.25166237327E+02  0.31652928569E+03  0.36136261368E+03  0.17200000000E+03 0.  1.
</event>
<event>
 4    1  0.5818436E+000  0.1930426E+03  0.7818608E-02  0.1155745E+00
         21   -1    0    0  501  502  0.00000000000E+00  0.00000000000E+00  0.19638957594E+03  0.19638957594E+03  0.00000000000E+00 0. -1.
         21   -1    0    0  502  503 -0.00000000000E+00 -0.00000000000E+00 -0.21926889469E+03  0.21926889469E+03  0.00000000000E+00 0. -1.
          6    1    1    2  501    0  0.86358218777E+02  0.14956525936E+02  0.64811909503E+02  0.20363207810E+03  0.17200000000E+03 0. -1.
         -6    1    1    2    0  503 -0.86358218777E+02 -0.14956525936E+02 -0.87691228256E+02  0.21202639254E+03  0.17200000000E+03 0. -1.
</event>
<event>
 4    1  0.5818436E+000  0.2206685E+03  0.7818608E-02  0.1133386E+00
         21   -1    0    0  503  502  0.00000000000E+00  0.00000000000E+00  0.59444989467E+03  0.59444989467E+03  0.00000000000E+00 0.  1.
         21   -1    0    0  501  503 -0.00000000000E+00 -0.00000000000E+00 -0.74804901950E+03  0.74804901950E+03  0.00000000000E+00 0.  1.
          6    1    1    2  501    0 -0.11758809373E+03  0.72688543517E+02 -0.71023098570E+03  0.74372215053E+03  0.17200000000E+03 0.  1.
         -6    1    1    2    0  502  0.11758809373E+03 -0.72688543517E+02  0.55663186086E+03  0.59877676364E+03  0.17200000000E+03 0.  1.
</event>
<event>
 4    1  0.5818436E+000  0.2223273E+03  0.7818608E-02  0.1132160E+00
         21   -1    0    0  501  502  0.00000000000E+00  0.00000000000E+00  0.27018149603E+04  0.27018149603E+04  0.00000000000E+00 0.  1.
         21   -1    0    0  502  503 -0.00000000000E+00 -0.00000000000E+00 -0.42680066132E+02  0.42680066132E+02  0.00000000000E+00 0.  1.
          6    1    1    2  501    0  0.86665920037E+02 -0.11106053409E+03  0.23668159217E+04  0.23772351653E+04  0.17200000000E+03 0.  1.
         -6    1    1    2    0  503 -0.86665920037E+02  0.11106053409E+03  0.29231897243E+03  0.36725986110E+03  0.17200000000E+03 0.  1.
</event>
<event>
 4    1  0.5818436E+000  0.1925996E+03  0.7818608E-02  0.1156137E+00
         21   -1    0    0  501  502  0.00000000000E+00  0.00000000000E+00  0.14712620329E+02  0.14712620329E+02  0.00000000000E+00 0. -1.
         21   -1    0    0  502  503 -0.00000000000E+00 -0.00000000000E+00 -0.27459036942E+04  0.27459036942E+04  0.00000000000E+00 0. -1.
          6    1    1    2  501    0 -0.74559151408E+02 -0.44176267863E+02 -0.97080850894E+03  0.98972914009E+03  0.17200000000E+03 0. -1.
         -6    1    1    2    0  503  0.74559151408E+02  0.44176267863E+02 -0.17603825649E+04  0.17708871745E+04  0.17200000000E+03 0. -1.
</event>
<event>
 4    1  0.5818436E+000  0.1841197E+03  0.7818608E-02  0.1163875E+00
         21   -1    0    0  503  502  0.00000000000E+00  0.00000000000E+00  0.41445741485E+03  0.41445741485E+03  0.00000000000E+00 0. -1.
         21   -1    0    0  501  503 -0.00000000000E+00 -0.00000000000E+00 -0.10207544027E+03  0.10207544027E+03  0.00000000000E+00 0.  1.
          6    1    1    2  501    0 -0.65696490911E+02  0.15005513927E+00  0.41068876226E+02  0.18864438510E+03  0.17200000000E+03 0.  1.
         -6    1    1    2    0  502  0.65696490911E+02 -0.15005513927E+00  0.27131309835E+03  0.32788847002E+03  0.17200000000E+03 0. -1.
</event>
<event>
 4    1  0.5818436E+000  0.1898616E+03  0.7818608E-02  0.1158586E+00
         21   -1    0    0  501  502  0.00000000000E+00  0.00000000000E+00  0.62704327761E+03  0.62704327761E+03  0.00000000000E+00 0.  1.
         21   -1    0    0  502  503 -0.00000000000E+00 -0.00000000000E+00 -0.15642524741E+03  0.15642524741E+03  0.00000000000E+00 0.  1.
          6    1    1    2  501    0 -0.43967671109E+02 -0.67307426987E+02  0.54685209431E+03  0.57887361218E+03  0.17200000000E+03 0.  1.
         -6    1    1    2    0  503  0.43967671109E+02  0.67307426987E+02 -0.76234064104E+02  0.20459491284E+03  0.17200000000E+03 0.  1.
</event>
<event>
 4    1  0.5818436E+000  0.2001886E+03  0.7818608E-02  0.1149580E+00
         21   -1    0    0  503  502  0.00000000000E+00  0.00000000000E+00  0.41695171005E+02  0.41695171005E+02  0.00000000000E+00 0.  1.
         21   -1    0    0  501  503 -0.00000000000E+00 -0.00000000000E+00 -0.11154107507E+04  0.11154107507E+04  0.00000000000E+00 0.  1.
          6    1    1    2  501    0 -0.20296547022E+02 -0.10039674397E+03 -0.32170418853E+03  0.37890505531E+03  0.17200000000E+03 0.  1.
         -6    1    1    2    0  502  0.20296547022E+02  0.10039674397E+03 -0.75201139119E+03  0.77820086642E+03  0.17200000000E+03 0.  1.
</event>
<event>
 4    1  0.5818436E+000  0.2125302E+03  0.7818608E-02  0.1139578E+00
         21   -1    0    0  501  502  0.00000000000E+00  0.00000000000E+00  0.14543732551E+03  0.14543732551E+03  0.00000000000E+00 0.  1.
         21   -1    0    0  502  503 -0.00000000000E+00 -0.00000000000E+00 -0.52959850254E+03  0.52959850254E+03  0.00000000000E+00 0.  1.
          6    1    1    2  501    0  0.12464707683E+03  0.69432982538E+01  0.24974242395E+02  0.21399256047E+03  0.17200000000E+03 0.  1.
         -6    1    1    2    0  503 -0.12464707683E+03 -0.69432982538E+01 -0.40913541942E+03  0.46104326758E+03  0.17200000000E+03 0.  1.
</event>
<event>
 4    1  0.5818436E+000  0.2112006E+03  0.7818608E-02  0.1140619E+00
         21   -1    0    0  501  502  0.00000000000E+00  0.00000000000E+00  0.20276173057E+03  0.20276173057E+03  0.00000000000E+00 0.  1.
         21   -1    0    0  502  503 -0.00000000000E+00 -0.00000000000E+00 -0.23123304773E+03  0.23123304773E+03  0.00000000000E+00 0.  1.
          6    1    1    2  501    0 -0.46209555496E+02 -0.11351820529E+03 -0.62082913282E+02  0.22013630794E+03  0.17200000000E+03 0.  1.
         -6    1    1    2    0  503  0.46209555496E+02  0.11351820529E+03  0.33611596116E+02  0.21385847036E+03  0.17200000000E+03 0.  1.
</event>
<event>
 4    1  0.5818436E+000  0.2131925E+03  0.7818608E-02  0.1139062E+00
         21   -1    0    0  501  502  0.00000000000E+00  0.00000000000E+00  0.23546674714E+03  0.23546674714E+03  0.00000000000E+00 0.  1.
         21   -1    0    0  502  503 -0.00000000000E+00 -0.00000000000E+00 -0.58157151604E+03  0.58157151604E+03  0.00000000000E+00 0. -1.
          6    1    1    2  501    0 -0.45560530893E+02  0.11743636632E+03  0.16085969060E+03  0.26707096842E+03  0.17200000000E+03 0.  1.
         -6    1    1    2    0  503  0.45560530893E+02 -0.11743636632E+03 -0.50696445950E+03  0.54996729476E+03  0.17200000000E+03 0. -1.
</event>
<event>
 4    1  0.5818436E+000  0.1962201E+03  0.7818608E-02  0.1152968E+00
         21   -1    0    0  503  502  0.00000000000E+00  0.00000000000E+00  0.80729911679E+03  0.80729911679E+03  0.00000000000E+00 0. -1.
         21   -1    0    0  501  503 -0.00000000000E+00 -0.00000000000E+00 -0.52278179353E+02  0.52278179353E+02  0.00000000000E+00 0.  1.
          6    1    1    2  501    0 -0.94434992080E+02 -0.60196606901E+00  0.25022353389E+03  0.31798450749E+03  0.17200000000E+03 0. -1.
         -6    1    1    2    0  502  0.94434992080E+02  0.60196606901E+00  0.50479740354E+03  0.54159278865E+03  0.17200000000E+03 0. -1.
</event>
<event>
 4    1  0.5818436E+000  0.1889539E+03  0.7818608E-02  0.1159408E+00
         21   -1    0    0  503  502  0.00000000000E+00  0.00000000000E+00  0.14855072752E+04  0.14855072752E+04  0.00000000000E+00 0.  1.
         21   -1    0    0  501  503 -0.00000000000E+00 -0.00000000000E+00 -0.34725019257E+02  0.34725019257E+02  0.00000000000E+00 0.  1.
          6    1    1    2  501    0 -0.43208238453E+02  0.65212232499E+02  0.30364035380E+03  0.35763256506E+03  0.17200000000E+03 0.  1.
         -6    1    1    2    0  502  0.43208238453E+02 -0.65212232499E+02  0.11471419022E+04  0.11625997294E+04  0.17200000000E+03 0.  1.
</event>
<event>
 4    1  0.5818436E+000  0.2341905E+03  0.7818608E-02  0.1123725E+00
         21   -1    0    0  503  502  0.00000000000E+00  0.00000000000E+00  0.39661552480E+03  0.39661552480E+03  0.00000000000E+00 0. -1.
         21   -1    0    0  501  503 -0.00000000000E+00 -0.00000000000E+00 -0.27534088263E+03  0.27534088263E+03  0.00000000000E+00 0.  1.
          6    1    1    2  501    0 -0.87888390355E+02  0.13242672457E+03 -0.17640597385E+03  0.29319664757E+03  0.17200000000E+03 0.  1.
         -6    1    1    2    0  502  0.87888390355E+02 -0.13242672457E+03  0.29768061602E+03  0.37875975986E+03  0.17200000000E+03 0. -1.
</event>
<event>
 4    1  0.5818436E+000  0.2218284E+03  0.7818608E-02  0.1132527E+00
         21   -1    0    0  501  502  0.00000000000E+00  0.00000000000E+00  0.32402084122E+03  0.32402084122E+03  0.00000000000E+00 0.  1.
         21   -1    0    0  502  503 -0.00000000000E+00 -0.00000000000E+00 -0.17464472511E+03  0.17464472511E+03  0.00000000000E+00 0.  1.
          6    1    1    2  501    0 -0.13824799680E+03  0.22612251223E+02  0.16473401010E+03  0.27630620081E+03  0.17200000000E+03 0.  1.
         -6    1    1    2    0  503  0.13824799680E+03 -0.22612251223E+02 -0.15357893978E+02  0.22235936552E+03  0.17200000000E+03 0.  1.
</event>
<event>
 4    1  0.5818436E+000  0.2401281E+03  0.7818608E-02  0.1119707E+00
         21   -1    0    0  503  502  0.00000000000E+00  0.00000000000E+00  0.12573013020E+04  0.12573013020E+04  0.00000000000E+00 0.  1.
         21   -1    0    0  501  503 -0.00000000000E+00 -0.00000000000E+00 -0.52641257307E+02  0.52641257307E+02  0.00000000000E+00 0. -1.
          6    1    1    2  501    0 -0.10744972640E+02 -0.16721860368E+03  0.83738610688E+03  0.87113547043E+03  0.17200000000E+03 0.  1.
         -6    1    1    2    0  502  0.10744972640E+02  0.16721860368E+03  0.36727393784E+03  0.43880708890E+03  0.17200000000E+03 0. -1.
</event>
<event>
 4    1  0.5818436E+000  0.1738571E+03  0.7818608E-02  0.1173884E+00
         21   -1    0    0  501  502  0.00000000000E+00  0.00000000000E+00  0.15175415929E+03  0.15175415929E+03  0.00000000000E+00 0. -1.
         21   -1    0    0  502  503 -0.00000000000E+00 -0.00000000000E+00 -0.22175391700E+03  0.22175391700E+03  0.00000000000E+00 0. -1.
          6    1    1    2  501    0  0.17000031913E+02  0.18796091288E+02  0.24586104170E+02  0.17558693189E+03  0.17200000000E+03 0. -1.
         -6    1    1    2    0  503 -0.17000031913E+02 -0.18796091288E+02 -0.94585861874E+02  0.19792114440E+03  0.17200000000E+03 0. -1.
</event>
<event>
 4    1  0.5818436E+000  0.2266951E+03  0.7818608E-02  0.1128988E+00
         21   -1    0    0  501  502  0.00000000000E+00  0.00000000000E+00  0.15500172140E+03  0.15500172140E+03  0.00000000000E+00 0. -1.
         21   -1    0    0  502  503 -0.00000000000E+00 -0.00000000000E+00 -0.73315484328E+03  0.73315484328E+03  0.00000000000E+00 0.  1.
          6    1    1    2  501    0 -0.87366826663E+02  0.11905335825E+03  0.39594673787E+02  0.23012692738E+03  0.17200000000E+03 0. -1.
         -6    1    1    2    0  503  0.87366826663E+02 -0.11905335825E+03 -0.61774779567E+03  0.65802963730E+03  0.17200000000E+03 0.  1.
</event>
<event>
 4    1  0.5818436E+000  0.2161621E+03  0.7818608E-02  0.1136777E+00
         21   -1    0    0  503  502  0.00000000000E+00  0.00000000000E+00  0.37503995343E+03  0.37503995343E+03  0.00000000000E+00 0.  1.
         21   -1    0    0  501  503 -0.00000000000E+00 -0.00000000000E+00 -0.12543941825E+03  0.12543941825E+03  0.00000000000E+00 0.  1.
          6    1    1    2  501    0 -0.69317115707E+02 -0.11107299696E+03  0.14539733219E+03  0.26051191410E+03  0.17200000000E+03 0.  1.
         -6    1    1    2    0  502  0.69317115707E+02  0.11107299696E+03  0.10420320299E+03  0.23996745758E+03  0.17200000000E+03 0.  1.
</event>
<event>
 4    1  0.5818436E+000  0.2829168E+03  0.7818608E-02  0.1094106E+00
         21   -1    0    0  501  502  0.00000000000E+00  0.00000000000E+00  0.11279764424E+04  0.11279764424E+04  0.00000000000E+00 0. -1.
         21   -1    0    0  502  503 -0.00000000000E+00 -0.00000000000E+00 -0.82630906553E+02  0.82630906553E+02  0.00000000000E+00 0.  1.
          6    1    1    2  501    0  0.73690600248E+02  0.21219715828E+03  0.75015228765E+03  0.80172962601E+03  0.17200000000E+03 0. -1.
         -6    1    1    2    0  503 -0.73690600248E+02 -0.21219715828E+03  0.29519324821E+03  0.40887772296E+03  0.17200000000E+03 0.  1.
</event>
<event>
 4    1  0.5818436E+000  0.2020462E+03  0.7818608E-02  0.1148024E+00
         21   -1    0    0  501  502  0.00000000000E+00  0.00000000000E+00  0.53918239892E+03  0.53918239892E+03  0.00000000000E+00 0.  1.
         21   -1    0    0  502  503 -0.00000000000E+00 -0.00000000000E+00 -0.11390209901E+03  0.11390209901E+03  0.00000000000E+00 0.  1.
          6    1    1    2  501    0 -0.18461978870E+02 -0.10439262867E+03  0.40172118982E+03  0.44966941183E+03  0.17200000000E+03 0.  1.
         -6    1    1    2    0  503  0.18461978870E+02  0.10439262867E+03  0.23559110094E+02  0.20341508610E+03  0.17200000000E+03 0.  1.
</event>
<event>
 4    1  0.5818436E+000  0.1864571E+03  0.7818608E-02  0.1161696E+00
         21   -1    0    0  503  502  0.00000000000E+00  0.00000000000E+00  0.30613894706E+03  0.30613894706E+03  0.00000000000E+00 0. -1.
         21   -1    0    0  501  503 -0.00000000000E+00 -0.00000000000E+00 -0.17441880204E+03  0.17441880204E+03  0.00000000000E+00 0. -1.
          6    1    1    2  501    0 -0.12451221831E+02  0.70902746095E+02 -0.76067865749E+02  0.20137664345E+03  0.17200000000E+03 0. -1.
         -6    1    1    2    0  502  0.12451221831E+02 -0.70902746095E+02  0.20778801077E+03  0.27918110564E+03  0.17200000000E+03 0. -1.
</event>
<event>
 4    1  0.5818436E+000  0.1761606E+03  0.7818608E-02  0.1171571E+00
         21   -1    0    0  503  502  0.00000000000E+00  0.00000000000E+00  0.11722055209E+03  0.11722055209E+03  0.00000000000E+00 0.  1.
         21   -1    0    0  501  503 -0.00000000000E+00 -0.00000000000E+00 -0.11292282277E+04  0.11292282277E+04  0.00000000000E+00 0.  1.
          6    1    1    2  501    0  0.22009929466E+02 -0.31050206498E+02 -0.10513019734E+04  0.10659589071E+04  0.17200000000E+03 0.  1.
         -6    1    1    2    0  502 -0.22009929466E+02  0.31050206498E+02  0.39294297772E+02  0.18048987272E+03  0.17200000000E+03 0.  1.
</event>
<event>
 4    1  0.5818436E+000  0.2521142E+03  0.7818608E-02  0.1111976E+00
         21   -1    0    0  501  502  0.00000000000E+00  0.00000000000E+00  0.11869751223E+03  0.11869751223E+03  0.00000000000E+00 0.  1.
         21   -1    0    0  502  503 -0.00000000000E+00 -0.00000000000E+00 -0.11811896740E+04  0.11811896740E+04  0.00000000000E+00 0.  1.
          6    1    1    2  501    0 -0.14505847903E+03 -0.11373477446E+03 -0.50705048758E+02  0.25716252299E+03  0.17200000000E+03 0.  1.
         -6    1    1    2    0  503  0.14505847903E+03  0.11373477446E+03 -0.10117871131E+04  0.10427246633E+04  0.17200000000E+03 0.  1.
</event>
<event>
 4    1  0.5818436E+000  0.2196847E+03  0.7818608E-02  0.1134118E+00
         21   -1    0    0  503  502  0.00000000000E+00  0.00000000000E+00  0.72990242941E+03  0.72990242941E+03  0.00000000000E+00 0.  1.
         21   -1    0    0  501  503 -0.00000000000E+00 -0.00000000000E+00 -0.66679677357E+02  0.66679677357E+02  0.00000000000E+00 0. -1.
          6    1    1    2  501    0  0.13273842186E+03  0.32525074176E+02  0.29513132332E+03  0.36791828861E+03  0.17200000000E+03 0. -1.
         -6    1    1    2    0  502 -0.13273842186E+03 -0.32525074176E+02  0.36809142873E+03  0.42866381815E+03  0.17200000000E+03 0.  1.
</event>
<event>
 4    1  0.5818436E+000  0.1915953E+03  0.7818608E-02  0.1157030E+00
         21   -1    0    0  503  502  0.00000000000E+00  0.00000000000E+00  0.29390952447E+03  0.29390952447E+03  0.00000000000E+00 0.  1.
         21   -1    0    0  501  503 -0.00000000000E+00 -0.00000000000E+00 -0.13272293245E+03  0.13272293245E+03  0.00000000000E+00 0.  1.
          6    1    1    2  501    0  0.64031279690E+02  0.54997619962E+02  0.28798244929E+02  0.19374746938E+03  0.17200000000E+03 0.  1.
         -6    1    1    2    0  502 -0.64031279690E+02 -0.54997619962E+02  0.13238834709E+03  0.23288498755E+03  0.17200000000E+03 0.  1.
</event>
<event>
 4    1  0.5818436E+000  0.1795300E+03  0.7818608E-02  0.1168259E+00
         21   -1    0    0  503  502  0.00000000000E+00  0.00000000000E+00  0.15345906502E+03  0.15345906502E+03  0.00000000000E+00 0.  1.
         21   -1    0    0  501  503 -0.00000000000E+00 -0.00000000000E+00 -0.38594255068E+03  0.38594255068E+03  0.00000000000E+00 0.  1.
          6    1    1    2  501    0 -0.13583559892E+02 -0.49623729665E+02 -0.29832464472E+03  0.34817900754E+03  0.17200000000E+03 0.  1.
         -6    1    1    2    0  502  0.13583559892E+02  0.49623729665E+02  0.65841159065E+02  0.19122260816E+03  0.17200000000E+03 0.  1.
</event>
<event>
 4    1  0.5818436E+000  0.2173020E+03  0.7818608E-02  0.1135911E+00
         21   -1    0    0  503  502  0.00000000000E+00  0.00000000000E+00  0.19421221334E+04  0.19421221334E+04  0.00000000000E+00 0. -1.
         21   -1    0    0  501  503 -0.00000000000E+00 -0.00000000000E+00 -0.26891468079E+02  0.26891468079E+02  0.00000000000E+00 0. -1.
          6    1    1    2  501    0 -0.28334824083E+02 -0.12974318667E+03  0.65280184985E+03  0.68801919444E+03  0.17200000000E+03 0. -1.
         -6    1    1    2    0  502  0.28334824083E+02  0.12974318667E+03  0.12624288154E+04  0.12809944070E+04  0.17200000000E+03 0. -1.
</event>
<event>
 4    1  0.5818436E+000  0.1925775E+03  0.7818608E-02  0.1156157E+00
         21   -1    0    0  501  502  0.00000000000E+00  0.00000000000E+00  0.16201323609E+03  0.16201323609E+03  0.00000000000E+00 0. -1.
         21   -1    0    0  502  503 -0.00000000000E+00 -0.00000000000E+00 -0.80599990063E+03  0.80599990063E+03  0.00000000000E+00 0. -1.
          6    1    1    2  501    0 -0.24892080835E+01 -0.86578866741E+02  0.87556091677E+02  0.21154707635E+03  0.17200000000E+03 0. -1.
         -6    1    1    2    0  503  0.24892080835E+01  0.86578866741E+02 -0.73154275621E+03  0.75646606037E+03  0.17200000000E+03 0. -1.
</event>
<event>
 4    1  0.5818436E+000  0.1975466E+03  0.7818608E-02  0.1151826E+00
         21   -1    0    0  501  502  0.00000000000E+00  0.00000000000E+00  0.45314388063E+03  0.45314388063E+03  0.00000000000E+00 0. -1.
         21   -1    0    0  502  503 -0.00000000000E+00 -0.00000000000E+00 -0.91486528173E+02  0.91486528173E+02  0.00000000000E+00 0.  1.
          6    1    1    2  501    0  0.10217867090E+02 -0.96624262436E+02  0.24678383702E+03  0.31611218754E+03  0.17200000000E+03 0.  1.
         -6    1    1    2    0  503 -0.10217867090E+02  0.96624262436E+02  0.11487351544E+03  0.22851822126E+03  0.17200000000E+03 0.  1.
</event>
<event>
 4    1  0.5818436E+000  0.1936796E+03  0.7818608E-02  0.1155184E+00
         21   -1    0    0  501  502  0.00000000000E+00  0.00000000000E+00  0.45278514211E+02  0.45278514211E+02  0.00000000000E+00 0.  1.
         21   -1    0    0  502  503 -0.00000000000E+00 -0.00000000000E+00 -0.90217397274E+03  0.90217397274E+03  0.00000000000E+00 0.  1.
          6    1    1    2  501    0  0.58137167021E+02 -0.67437925183E+02 -0.29304313836E+03  0.35126355473E+03  0.17200000000E+03 0.  1.
         -6    1    1    2    0  503 -0.58137167021E+02  0.67437925183E+02 -0.56385232018E+03  0.59618893223E+03  0.17200000000E+03 0.  1.
</event>
<event>
 4    1  0.5818436E+000  0.1731042E+03  0.7818608E-02  0.1174649E+00
         21   -1    0    0  501  502  0.00000000000E+00  0.00000000000E+00  0.14816324636E+03  0.14816324636E+03  0.00000000000E+00 0. -1.
         21   -1    0    0  502  503 -0.00000000000E+00 -0.00000000000E+00 -0.22355874769E+03  0.22355874769E+03  0.00000000000E+00 0. -1.
          6    1    1    2  501    0 -0.10612072500E+02  0.16384563271E+02  0.19692284000E+02  0.17422071072E+03  0.17200000000E+03 0. -1.
         -6    1    1    2    0  503  0.10612072500E+02 -0.16384563271E+02 -0.95087785335E+02  0.19750128333E+03  0.17200000000E+03 0. -1.
</event>
<event>
 4    1  0.5818436E+000  0.1930511E+03  0.7818608E-02  0.1155738E+00
         21   -1    0    0  503  502  0.00000000000E+00  0.00000000000E+00  0.40760952011E+03  0.40760952011E+03  0.00000000000E+00 0.  1.
         21   -1    0    0  501  503 -0.00000000000E+00 -0.00000000000E+00 -0.92442692379E+02  0.92442692379E+02  0.00000000000E+00 0. -1.
          6    1    1    2  501    0 -0.32549434162E+02 -0.81395805998E+02  0.18372059701E+03  0.26649953220E+03  0.17200000000E+03 0. -1.
         -6    1    1    2    0  502  0.32549434162E+02  0.81395805998E+02  0.13144623072E+03  0.23355268029E+03  0.17200000000E+03 0.  1.
</event>
<event>
 4    1  0.5818436E+000  0.2396228E+03  0.7818608E-02  0.1120044E+00
         21   -1    0    0  503  502  0.00000000000E+00  0.00000000000E+00  0.84256450756E+03  0.84256450756E+03  0.00000000000E+00 0.  1.
         21   -1    0    0  501  503 -0.00000000000E+00 -0.00000000000E+00 -0.68253355890E+02  0.68253355890E+02  0.00000000000E+00 0. -1.
          6    1    1    2  501    0  0.34673446745E+02 -0.16319574318E+03  0.36926441519E+03  0.44019916723E+03  0.17200000000E+03 0. -1.
         -6    1    1    2    0  502 -0.34673446745E+02  0.16319574318E+03  0.40504673648E+03  0.47061869622E+03  0.17200000000E+03 0.  1.
</event>
<event>
 4    1  0.5818436E+000  0.1756441E+03  0.7818608E-02  0.1172086E+00
         21   -1    0    0  501  502  0.00000000000E+00  0.00000000000E+00  0.65981634375E+03  0.65981634375E+03  0.00000000000E+00 0. -1.
         21   -1    0    0  502  503 -0.00000000000E+00 -0.00000000000E+00 -0.14757594103E+03  0.14757594103E+03  0.00000000000E+00 0. -1.
          6    1    1    2  501    0 -0.90331273750E+01  0.34427718620E+02  0.58979117729E+03  0.61538971231E+03  0.17200000000E+03 0. -1.
         -6    1    1    2    0  503  0.90331273750E+01 -0.34427718620E+02 -0.77550774576E+02  0.19200257247E+03  0.17200000000E+03 0. -1.
</event>
<event>
 4    1  0.5818436E+000  0.2842644E+03  0.7818608E-02  0.1093382E+00
         21   -1    0    0  501  502  0.00000000000E+00  0.00000000000E+00  0.43521663404E+03  0.43521663404E+03  0.00000000000E+00 0. -1.
         21   -1    0    0  502  503 -0.00000000000E+00 -0.00000000000E+00 -0.67573539445E+03  0.67573539445E+03  0.00000000000E+00 0.  1.
          6    1    1    2  501    0 -0.88293804051E+02 -0.20839010333E+03  0.35278778518E+03  0.45306230518E+03  0.17200000000E+03 0. -1.
         -6    1    1    2    0  503  0.88293804051E+02  0.20839010333E+03 -0.59330654559E+03  0.65788972331E+03  0.17200000000E+03 0.  1.
</event>
<event>
 4    1  0.5818436E+000  0.2962654E+03  0.7818608E-02  0.1087123E+00
         21   -1    0    0  501  502  0.00000000000E+00  0.00000000000E+00  0.52398592095E+03  0.52398592095E+03  0.00000000000E+00 0.  1.
         21   -1    0    0  502  503 -0.00000000000E+00 -0.00000000000E+00 -0.20339330260E+03  0.20339330260E+03  0.00000000000E+00 0. -1.
          6    1    1    2  501    0 -0.87329887018E+02 -0.22486140561E+03  0.31305486732E+03  0.43101799365E+03  0.17200000000E+03 0. -1.
         -6    1    1    2    0  503  0.87329887018E+02  0.22486140561E+03  0.75377510389E+01  0.29636122990E+03  0.17200000000E+03 0.  1.
</event>
<event>
 4    1  0.5818436E+000  0.2202180E+03  0.7818608E-02  0.1133721E+00
         21   -1    0    0  501  502  0.00000000000E+00  0.00000000000E+00  0.37651653988E+03  0.37651653988E+03  0.00000000000E+00 0.  1.
         21   -1    0    0  502  503 -0.00000000000E+00 -0.00000000000E+00 -0.14995918985E+03  0.14995918985E+03  0.00000000000E+00 0. -1.
          6    1    1    2  501    0  0.13733268389E+03 -0.71899199797E+01  0.21215541604E+03  0.30578731427E+03  0.17200000000E+03 0. -1.
         -6    1    1    2    0  503 -0.13733268389E+03  0.71899199797E+01  0.14401933996E+02  0.22068841546E+03  0.17200000000E+03 0. -1.
</event>
<event>
 4    1  0.5818436E+000  0.2010064E+03  0.7818608E-02  0.1148893E+00
         21   -1    0    0  501  502  0.00000000000E+00  0.00000000000E+00  0.78530234311E+03  0.78530234311E+03  0.00000000000E+00 0. -1.
         21   -1    0    0  502  503 -0.00000000000E+00 -0.00000000000E+00 -0.55996882300E+02  0.55996882300E+02  0.00000000000E+00 0. -1.
          6    1    1    2  501    0  0.58068052374E+01  0.10385500980E+03  0.48452231975E+03  0.52456216065E+03  0.17200000000E+03 0. -1.
         -6    1    1    2    0  503 -0.58068052374E+01 -0.10385500980E+03  0.24478314105E+03  0.31673706476E+03  0.17200000000E+03 0. -1.
</event>
<event>
 4    1  0.5818436E+000  0.2020797E+03  0.7818608E-02  0.1147996E+00
         21   -1    0    0  503  502  0.00000000000E+00  0.00000000000E+00  0.90533972712E+02  0.90533972712E+02  0.00000000000E+00 0.  1.
         21   -1    0    0  501  503 -0.00000000000E+00 -0.00000000000E+00 -0.13491734236E+04  0.13491734236E+04  0.00000000000E+00 0.  1.
          6    1    1    2  501    0  0.97570451028E+02 -0.41619819272E+02 -0.12166414732E+04  0.12333096434E+04  0.17200000000E+03 0.  1.
         -6    1    1    2    0  502 -0.97570451028E+02  0.41619819272E+02 -0.41997977705E+02  0.20639775290E+03  0.17200000000E+03 0.  1.
</event>
<event>
 4    1  0.5818436E+000  0.1832798E+03  0.7818608E-02  0.1164666E+00
         21   -1    0    0  501  502  0.00000000000E+00  0.00000000000E+00  0.25626676954E+03  0.25626676954E+03  0.00000000000E+00 0. -1.
         21   -1    0    0  502  503 -0.00000000000E+00 -0.00000000000E+00 -0.13346508613E+03  0.13346508613E+03  0.00000000000E+00 0.  1.
          6    1    1    2  501    0 -0.55692564208E+02 -0.30096875667E+02  0.35351814921E+02  0.18665806827E+03  0.17200000000E+03 0.  1.
         -6    1    1    2    0  503  0.55692564208E+02  0.30096875667E+02  0.87449868488E+02  0.20307378741E+03  0.17200000000E+03 0. -1.
</event>
<event>
 4    1  0.5818436E+000  0.1774284E+03  0.7818608E-02  0.1170315E+00
         21   -1    0    0  503  502  0.00000000000E+00  0.00000000000E+00  0.83520376364E+02  0.83520376364E+02  0.00000000000E+00 0.  1.
         21   -1    0    0  501  503 -0.00000000000E+00 -0.00000000000E+00 -0.37715513400E+03  0.37715513400E+03  0.00000000000E+00 0.  1.
          6    1    1    2  501    0  0.43459818840E+02  0.28403415727E+01 -0.14111363333E+03  0.22670218549E+03  0.17200000000E+03 0.  1.
         -6    1    1    2    0  502 -0.43459818840E+02 -0.28403415727E+01 -0.15252112431E+03  0.23397332488E+03  0.17200000000E+03 0.  1.
</event>
<event>
 4    1  0.5818436E+000  0.1932554E+03  0.7818608E-02  0.1155557E+00
         21   -1    0    0  501  502  0.00000000000E+00  0.00000000000E+00  0.42633161257E+03  0.42633161257E+03  0.00000000000E+00 0.  1.
         21   -1    0    0  502  503 -0.00000000000E+00 -0.00000000000E+00 -0.44856326172E+03  0.44856326172E+03  0.00000000000E+00 0.  1.
          6    1    1    2  501    0 -0.84983209515E+02 -0.23270469486E+02  0.38129782020E+03  0.42747595060E+03  0.17200000000E+03 0.  1.
         -6    1    1    2    0  503  0.84983209515E+02  0.23270469486E+02 -0.40352946934E+03  0.44741892369E+03  0.17200000000E+03 0.  1.
</event>
<event>
 4    1  0.5818436E+000  0.2368093E+03  0.7818608E-02  0.1121937E+00
         21   -1    0    0  501  502  0.00000000000E+00  0.00000000000E+00  0.85071416179E+03  0.85071416179E+03  0.00000000000E+00 0. -1.
         21   -1    0    0  502  503 -0.00000000000E+00 -0.00000000000E+00 -0.13525645104E+03  0.13525645104E+03  0.00000000000E+00 0.  1.
          6    1    1    2  501    0  0.15980014321E+03  0.30960895588E+02  0.71069846313E+03  0.74911345491E+03  0.17200000000E+03 0. -1.
         -6    1    1    2    0  503 -0.15980014321E+03 -0.30960895588E+02  0.47592476143E+01  0.23685715793E+03  0.17200000000E+03 0.  1.
</event>
<event>
 4    1  0.5818436E+000  0.1812882E+03  0.7818608E-02  0.1166562E+00
         21   -1    0    0  501  502  0.00000000000E+00  0.00000000000E+00  0.20058006602E+03  0.20058006602E+03  0.00000000000E+00 0.  1.
         21   -1    0    0  502  503 -0.00000000000E+00 -0.00000000000E+00 -0.16885220613E+03  0.16885220613E+03  0.00000000000E+00 0.  1.
          6    1    1    2  501    0  0.29869876468E+02 -0.48879573302E+02  0.47650989077E+02  0.18744609616E+03  0.17200000000E+03 0.  1.
         -6    1    1    2    0  503 -0.29869876468E+02  0.48879573302E+02 -0.15923129183E+02  0.18198617598E+03  0.17200000000E+03 0.  1.
</event>
<event>
 4    1  0.5818436E+000  0.2682057E+03  0.7818608E-02  0.1102311E+00
         21   -1    0    0  503  502  0.00000000000E+00  0.00000000000E+00  0.18650924439E+03  0.18650924439E+03  0.00000000000E+00 0.  1.
         21   -1    0    0  501  503 -0.00000000000E+00 -0.00000000000E+00 -0.49341581282E+03  0.49341581282E+03  0.00000000000E+00 0.  1.
          6    1    1    2  501    0  0.14220693284E+03  0.14875312173E+03 -0.31230402528E+03  0.41166504246E+03  0.17200000000E+03 0.  1.
         -6    1    1    2    0  502 -0.14220693284E+03 -0.14875312173E+03  0.53974568545E+01  0.26826001475E+03  0.17200000000E+03 0.  1.
</event>
<event>
 4    1  0.5818436E+000  0.2033251E+03  0.7818608E-02  0.1146964E+00
         21   -1    0    0  503  502  0.00000000000E+00  0.00000000000E+00  0.74312186033E+03  0.74312186033E+03  0.00000000000E+00 0.  1.
         21   -1    0    0  501  503 -0.00000000000E+00 -0.00000000000E+00 -0.10222884971E+03  0.10222884971E+03  0.00000000000E+00 0.  1.
          6    1    1    2  501    0  0.10512180572E+03  0.26580237000E+02  0.35081936711E+02  0.20632945820E+03  0.17200000000E+03 0.  1.
         -6    1    1    2    0  502 -0.10512180572E+03 -0.26580237000E+02  0.60581107391E+03  0.63902125184E+03  0.17200000000E+03 0.  1.
</event>
<event>
 4    1  0.5818436E+000  0.1827157E+03  0.7818608E-02  0.1165200E+00
         21   -1    0    0  501  502  0.00000000000E+00  0.00000000000E+00  0.57465371650E+03  0.57465371650E+03  0.00000000000E+00 0. -1.
         21   -1    0    0  502  503 -0.00000000000E+00 -0.00000000000E+00 -0.61716993581E+02  0.61716993581E+02  0.00000000000E+00 0. -1.
          6    1    1    2  501    0  0.37654187828E+02 -0.48817980002E+02  0.33354039640E+03  0.38030807126E+03  0.17200000000E+03 0. -1.
         -6    1    1    2    0  503 -0.37654187828E+02  0.48817980002E+02  0.17939632651E+03  0.25606263882E+03  0.17200000000E+03 0. -1.
</event>
<event>
 4    1  0.5818436E+000  0.2145353E+03  0.7818608E-02  0.1138024E+00
         21   -1    0    0  503  502  0.00000000000E+00  0.00000000000E+00  0.17997046894E+04  0.17997046894E+04  0.00000000000E+00 0.  1.
         21   -1    0    0  501  503 -0.00000000000E+00 -0.00000000000E+00 -0.26327474668E+02  0.26327474668E+02  0.00000000000E+00 0.  1.
          6    1    1    2  501    0  0.12031365479E+03  0.44339672156E+02  0.73221627909E+03  0.76299807432E+03  0.17200000000E+03 0. -1.
         -6    1    1    2    0  502 -0.12031365479E+03 -0.44339672156E+02  0.10411609357E+04  0.10630340898E+04  0.17200000000E+03 0. -1.
</event>
<event>
 4    1  0.5818436E+000  0.2203235E+03  0.7818608E-02  0.1133642E+00
         21   -1    0    0  503  502  0.00000000000E+00  0.00000000000E+00  0.16410585883E+04  0.16410585883E+04  0.00000000000E+00 0. -1.
         21   -1    0    0  501  503 -0.00000000000E+00 -0.00000000000E+00 -0.39922320419E+02  0.39922320419E+02  0.00000000000E+00 0. -1.
          6    1    1    2  501    0  0.12127155066E+03  0.65204583155E+02  0.37277383078E+03  0.43301588375E+03  0.17200000000E+03 0. -1.
         -6    1    1    2    0  502 -0.12127155066E+03 -0.65204583155E+02  0.12283624371E+04  0.12479650249E+04  0.17200000000E+03 0. -1.
</event>
<event>
 4    1  0.5818436E+000  0.1805033E+03  0.7818608E-02  0.1167317E+00
         21   -1    0    0  503  502  0.00000000000E+00  0.00000000000E+00  0.30665306609E+03  0.30665306609E+03  0.00000000000E+00 0.  1.
         21   -1    0    0  501  503 -0.00000000000E+00 -0.00000000000E+00 -0.16934670933E+03  0.16934670933E+03  0.00000000000E+00 0.  1.
          6    1    1    2  501    0 -0.37464084316E+02  0.39923355722E+02 -0.76623816402E+02  0.19609345013E+03  0.17200000000E+03 0.  1.
         -6    1    1    2    0  502  0.37464084316E+02 -0.39923355722E+02  0.21393017316E+03  0.27990632529E+03  0.17200000000E+03 0.  1.
</event>
<event>
 4    1  0.5818436E+000  0.1731556E+03  0.7818608E-02  0.1174596E+00
         21   -1    0    0  503  502  0.00000000000E+00  0.00000000000E+00  0.45881564564E+02  0.45881564564E+02  0.00000000000E+00 0.  1.
         21   -1    0    0  501  503 -0.00000000000E+00 -0.00000000000E+00 -0.84571956131E+03  0.84571956131E+03  0.00000000000E+00 0.  1.
          6    1    1    2  501    0  0.18820465912E+02 -0.66817700217E+01 -0.61246091556E+03  0.63646777537E+03  0.17200000000E+03 0.  1.
         -6    1    1    2    0  502 -0.18820465912E+02  0.66817700217E+01 -0.18737708118E+03  0.25513335050E+03  0.17200000000E+03 0.  1.
</event>
<event>
 4    1  0.5818436E+000  0.2238591E+03  0.7818608E-02  0.1131038E+00
         21   -1    0    0  503  502  0.00000000000E+00  0.00000000000E+00  0.97607112812E+02  0.97607112812E+02  0.00000000000E+00 0.  1.
         21   -1    0    0  501  503 -0.00000000000E+00 -0.00000000000E+00 -0.59082799138E+03  0.59082799138E+03  0.00000000000E+00 0. -1.
          6    1    1    2  501    0  0.10637956389E+03 -0.95980597536E+02 -0.37120853115E+03  0.43348432534E+03  0.17200000000E+03 0. -1.
         -6    1    1    2    0  502 -0.10637956389E+03  0.95980597536E+02 -0.12201234743E+03  0.25495077886E+03  0.17200000000E+03 0.  1.
</event>
<event>
 4    1  0.5818436E+000  0.1967657E+03  0.7818608E-02  0.1152497E+00
         21   -1    0    0  503  502  0.00000000000E+00  0.00000000000E+00  0.95202332904E+02  0.95202332904E+02  0.00000000000E+00 0. -1.
         21   -1    0    0  501  503 -0.00000000000E+00 -0.00000000000E+00 -0.41366544402E+03  0.41366544402E+03  0.00000000000E+00 0. -1.
          6    1    1    2  501    0  0.19128190079E+02  0.93631445058E+02 -0.19229866096E+03  0.27512817043E+03  0.17200000000E+03 0. -1.
         -6    1    1    2    0  502 -0.19128190079E+02 -0.93631445058E+02 -0.12616445016E+03  0.23373960649E+03  0.17200000000E+03 0. -1.
</event>
<event>
 4    1  0.5818436E+000  0.2544390E+03  0.7818608E-02  0.1110531E+00
         21   -1    0    0  503  502  0.00000000000E+00  0.00000000000E+00  0.35121322802E+03  0.35121322802E+03  0.00000000000E+00 0.  1.
         21   -1    0    0  501  503 -0.00000000000E+00 -0.00000000000E+00 -0.21801867223E+03  0.21801867223E+03  0.00000000000E+00 0. -1.
          6    1    1    2  501    0 -0.18541779611E+03  0.27846677690E+02  0.17847746763E+03  0.31079479247E+03  0.17200000000E+03 0.  1.
         -6    1    1    2    0  502  0.18541779611E+03 -0.27846677690E+02 -0.45282911840E+02  0.25843710778E+03  0.17200000000E+03 0. -1.
</event>
<event>
 4    1  0.5818436E+000  0.2006959E+03  0.7818608E-02  0.1149153E+00
         21   -1    0    0  503  502  0.00000000000E+00  0.00000000000E+00  0.69570778698E+03  0.69570778698E+03  0.00000000000E+00 0. -1.
         21   -1    0    0  501  503 -0.00000000000E+00 -0.00000000000E+00 -0.74845446257E+02  0.74845446257E+02  0.00000000000E+00 0. -1.
          6    1    1    2  501    0  0.88013383870E+02  0.54300144271E+02  0.12708801180E+03  0.23755046654E+03  0.17200000000E+03 0. -1.
         -6    1    1    2    0  502 -0.88013383870E+02 -0.54300144271E+02  0.49377432893E+03  0.53300276671E+03  0.17200000000E+03 0. -1.
</event>
<event>
 4    1  0.5818436E+000  0.1818584E+03  0.7818608E-02  0.1166017E+00
         21   -1    0    0  501  502  0.00000000000E+00  0.00000000000E+00  0.29628772391E+03  0.29628772391E+03  0.00000000000E+00 0. -1.
         21   -1    0    0  502  503 -0.00000000000E+00 -0.00000000000E+00 -0.12043623522E+03  0.12043623522E+03  0.00000000000E+00 0. -1.
          6    1    1    2  501    0  0.50063013326E+02  0.31339350249E+02  0.31560300945E+02  0.18457657699E+03  0.17200000000E+03 0. -1.
         -6    1    1    2    0  503 -0.50063013326E+02 -0.31339350249E+02  0.14429118774E+03  0.23214738215E+03  0.17200000000E+03 0. -1.
</event>
<event>
 4    1  0.5818436E+000  0.2486791E+03  0.7818608E-02  0.1114142E+00
         21   -1    0    0  503  502  0.00000000000E+00  0.00000000000E+00  0.28852645916E+03  0.28852645916E+03  0.00000000000E+00 0.  1.
         21   -1    0    0  501  503 -0.00000000000E+00 -0.00000000000E+00 -0.23674933749E+03  0.23674933749E+03  0.00000000000E+00 0.  1.
          6    1    1    2  501    0 -0.14787665467E+03 -0.10193020476E+03 -0.54923752535E+02  0.25467212300E+03  0.17200000000E+03 0.  1.
         -6    1    1    2    0  502  0.14787665467E+03  0.10193020476E+03  0.10670087421E+03  0.27060367366E+03  0.17200000000E+03 0.  1.
</event>
<event>
 4    1  0.5818436E+000  0.2172504E+03  0.7818608E-02  0.1135950E+00
         21   -1    0    0  501  502  0.00000000000E+00  0.00000000000E+00  0.53888944761E+03  0.53888944761E+03  0.00000000000E+00 0. -1.
         21   -1    0    0  502  503 -0.00000000000E+00 -0.00000000000E+00 -0.72947348236E+03  0.72947348236E+03  0.00000000000E+00 0.  1.
          6    1    1    2  501    0  0.38755455518E+02  0.12693211723E+03  0.49960136403E+03  0.54479286950E+03  0.17200000000E+03 0. -1.
         -6    1    1    2    0  503 -0.38755455518E+02 -0.12693211723E+03 -0.69018539878E+03  0.72357006047E+03  0.17200000000E+03 0.  1.
</event>
<event>
 4    1  0.5818436E+000  0.1759919E+03  0.7818608E-02  0.1171739E+00
         21   -1    0    0  503  502  0.00000000000E+00  0.00000000000E+00  0.94743766536E+02  0.94743766536E+02  0.00000000000E+00 0.  1.
         21   -1    0    0  501  503 -0.00000000000E+00 -0.00000000000E+00 -0.33089336684E+03  0.33089336684E+03  0.00000000000E+00 0.  1.
          6    1    1    2  501    0  0.31826534861E+02 -0.19396820742E+02 -0.94739460348E+02  0.19987178471E+03  0.17200000000E+03 0. -1.
         -6    1    1    2    0  502 -0.31826534861E+02  0.19396820742E+02 -0.14141013996E+03  0.22576534867E+03  0.17200000000E+03 0. -1.
</event>
<event>
 4    1  0.5818436E+000  0.2423633E+03  0.7818608E-02  0.1118228E+00
         21   -1    0    0  501  502  0.00000000000E+00  0.00000000000E+00  0.87257729787E+03  0.87257729787E+03  0.00000000000E+00 0. -1.
         21   -1    0    0  502  503 -0.00000000000E+00 -0.00000000000E+00 -0.67449734959E+02  0.67449734959E+02  0.00000000000E+00 0. -1.
          6    1    1    2  501    0 -0.10220617780E+03 -0.13678400051E+03  0.38177471630E+03  0.45220780575E+03  0.17200000000E+03 0. -1.
         -6    1    1    2    0  503  0.10220617780E+03  0.13678400051E+03  0.42335284661E+03  0.48781922708E+03  0.17200000000E+03 0. -1.
</event>
<event>
 4    1  0.5818436E+000  0.1788960E+03  0.7818608E-02  0.1168876E+00
         21   -1    0    0  501  502  0.00000000000E+00  0.00000000000E+00  0.33254219429E+03  0.33254219429E+03  0.00000000000E+00 0.  1.
         21   -1    0    0  502  503 -0.00000000000E+00 -0.00000000000E+00 -0.34953275924E+03  0.34953275924E+03  0.00000000000E+00 0.  1.
          6    1    1    2  501    0  0.47723040269E+02 -0.11928530353E+02  0.28181991009E+03  0.33380569218E+03  0.17200000000E+03 0.  1.
         -6    1    1    2    0  503 -0.47723040269E+02  0.11928530353E+02 -0.29881047504E+03  0.34826926135E+03  0.17200000000E+03 0.  1.
</event>
<event>
 4    1  0.5818436E+000  0.2157430E+03  0.7818608E-02  0.1137097E+00
         21   -1    0    0  503  502  0.00000000000E+00  0.00000000000E+00  0.20211193743E+03  0.20211193743E+03  0.00000000000E+00 0.  1.
         21   -1    0    0  501  503 -0.00000000000E+00 -0.00000000000E+00 -0.35919863243E+03  0.35919863243E+03  0.00000000000E+00 0.  1.
          6    1    1    2  501    0 -0.15654479804E+02  0.12929034744E+03 -0.24667174181E+03  0.32770719383E+03  0.17200000000E+03 0.  1.
         -6    1    1    2    0  502  0.15654479804E+02 -0.12929034744E+03  0.89585046814E+02  0.23360337603E+03  0.17200000000E+03 0.  1.
</event>
<event>
 4    1  0.5818436E+000  0.2602076E+03  0.7818608E-02  0.1107019E+00
         21   -1    0    0  503  502  0.00000000000E+00  0.00000000000E+00  0.30591668472E+03  0.30591668472E+03  0.00000000000E+00 0.  1.
         21   -1    0    0  501  503 -0.00000000000E+00 -0.00000000000E+00 -0.24237023917E+03  0.24237023917E+03  0.00000000000E+00 0. -1.
          6    1    1    2  501    0 -0.18963797553E+03 -0.46490965112E+02 -0.49002853318E+02  0.26478151604E+03  0.17200000000E+03 0.  1.
         -6    1    1    2    0  502  0.18963797553E+03  0.46490965112E+02  0.11254929887E+03  0.28350540785E+03  0.17200000000E+03 0.  1.
</event>
<event>
 4    1  0.5818436E+000  0.1875295E+03  0.7818608E-02  0.1160709E+00
         21   -1    0    0  501  502  0.00000000000E+00  0.00000000000E+00  0.44340889086E+03  0.44340889086E+03  0.00000000000E+00 0. -1.
         21   -1    0    0  502  503 -0.00000000000E+00 -0.00000000000E+00 -0.12059062162E+03  0.12059062162E+03  0.00000000000E+00 0. -1.
          6    1    1    2  501    0 -0.44988952794E+02 -0.59659849976E+02 -0.35812448063E+01  0.18756366622E+03  0.17200000000E+03 0. -1.
         -6    1    1    2    0  503  0.44988952794E+02  0.59659849976E+02  0.32639951405E+03  0.37643584625E+03  0.17200000000E+03 0. -1.
</event>
<event>
 4    1  0.5818436E+000  0.3722594E+03  0.7818608E-02  0.1053832E+00
         21   -1    0    0  503  502  0.00000000000E+00  0.00000000000E+00  0.54951915957E+03  0.54951915957E+03  0.00000000000E+00 0.  1.
         21   -1    0    0  501  503 -0.00000000000E+00 -0.00000000000E+00 -0.29864827660E+03  0.29864827660E+03  0.00000000000E+00 0. -1.
          6    1    1    2  501    0 -0.51539731817E+02 -0.32609312223E+03 -0.41849019459E+02  0.37460433627E+03  0.17200000000E+03 0. -1.
         -6    1    1    2    0  502  0.51539731817E+02  0.32609312223E+03  0.29271990243E+03  0.47356309991E+03  0.17200000000E+03 0.  1.
</event>
<event>
 4    1  0.5818436E+000  0.2001606E+03  0.7818608E-02  0.1149604E+00
         21   -1    0    0  503  502  0.00000000000E+00  0.00000000000E+00  0.11484704642E+03  0.11484704642E+03  0.00000000000E+00 0.  1.
         21   -1    0    0  501  503 -0.00000000000E+00 -0.00000000000E+00 -0.70738587792E+03  0.70738587792E+03  0.00000000000E+00 0.  1.
          6    1    1    2  501    0 -0.10237176166E+03  0.52660139740E+00 -0.58895660163E+03  0.62204029893E+03  0.17200000000E+03 0. -1.
         -6    1    1    2    0  502  0.10237176166E+03 -0.52660139740E+00 -0.35822298677E+01  0.20019262540E+03  0.17200000000E+03 0. -1.
</event>
<event>
 4    1  0.5818436E+000  0.1779188E+03  0.7818608E-02  0.1169833E+00
         21   -1    0    0  503  502  0.00000000000E+00  0.00000000000E+00  0.19276952991E+02  0.19276952991E+02  0.00000000000E+00 0. -1.
         21   -1    0    0  501  503 -0.00000000000E+00 -0.00000000000E+00 -0.26102536886E+04  0.26102536886E+04  0.00000000000E+00 0. -1.
          6    1    1    2  501    0 -0.60091589081E+01 -0.45110811019E+02 -0.20961965274E+04  0.21037335802E+04  0.17200000000E+03 0. -1.
         -6    1    1    2    0  502  0.60091589081E+01  0.45110811019E+02 -0.49478020821E+03  0.52579706133E+03  0.17200000000E+03 0. -1.
</event>
<event>
 4    1  0.5818436E+000  0.1754165E+03  0.7818608E-02  0.1172314E+00
         21   -1    0    0  501  502  0.00000000000E+00  0.00000000000E+00  0.48803264970E+02  0.48803264970E+02  0.00000000000E+00 0.  1.
         21   -1    0    0  502  503 -0.00000000000E+00 -0.00000000000E+00 -0.68891826845E+03  0.68891826845E+03  0.00000000000E+00 0.  1.
          6    1    1    2  501    0  0.21949574151E+02  0.26554745961E+02 -0.21265450262E+03  0.27566805369E+03  0.17200000000E+03 0. -1.
         -6    1    1    2    0  503 -0.21949574151E+02 -0.26554745961E+02 -0.42746050086E+03  0.46205347973E+03  0.17200000000E+03 0. -1.
</event>
<event>
 4    1  0.5818436E+000  0.1953592E+03  0.7818608E-02  0.1153715E+00
         21   -1    0    0  503  502  0.00000000000E+00  0.00000000000E+00  0.20782166478E+03  0.20782166478E+03  0.00000000000E+00 0. -1.
         21   -1    0    0  501  503 -0.00000000000E+00 -0.00000000000E+00 -0.53083296249E+03  0.53083296249E+03  0.00000000000E+00 0. -1.
          6    1    1    2  501    0  0.75232990216E+02  0.54048410832E+02 -0.46019197786E+03  0.49994188664E+03  0.17200000000E+03 0. -1.
         -6    1    1    2    0  502 -0.75232990216E+02 -0.54048410832E+02  0.13718068015E+03  0.23871274062E+03  0.17200000000E+03 0. -1.
</event>
<event>
 4    1  0.5818436E+000  0.2297015E+03  0.7818608E-02  0.1126850E+00
         21   -1    0    0  503  502  0.00000000000E+00  0.00000000000E+00  0.19417203087E+03  0.19417203087E+03  0.00000000000E+00 0.  1.
         21   -1    0    0  501  503 -0.00000000000E+00 -0.00000000000E+00 -0.64115908085E+03  0.64115908085E+03  0.00000000000E+00 0.  1.
          6    1    1    2  501    0 -0.14751389393E+03  0.37661957367E+02 -0.54053061503E+03  0.58731262350E+03  0.17200000000E+03 0. -1.
         -6    1    1    2    0  502  0.14751389393E+03 -0.37661957367E+02  0.93543565059E+02  0.24801848822E+03  0.17200000000E+03 0. -1.
</event>
<event>
 4    1  0.5818436E+000  0.1899071E+03  0.7818608E-02  0.1158545E+00
         21   -1    0    0  501  502  0.00000000000E+00  0.00000000000E+00  0.57375060699E+03  0.57375060699E+03  0.00000000000E+00 0.  1.
         21   -1    0    0  502  503 -0.00000000000E+00 -0.00000000000E+00 -0.79915981768E+02  0.79915981768E+02  0.00000000000E+00 0.  1.
          6    1    1    2  501    0 -0.46228592029E+02 -0.65906253336E+02  0.95917821081E+02  0.21275560005E+03  0.17200000000E+03 0.  1.
         -6    1    1    2    0  503  0.46228592029E+02  0.65906253336E+02  0.39791680414E+03  0.44091098871E+03  0.17200000000E+03 0.  1.
</event>
<event>
 4    1  0.5818436E+000  0.1949535E+03  0.7818608E-02  0.1154068E+00
         21   -1    0    0  503  502  0.00000000000E+00  0.00000000000E+00  0.41431055105E+03  0.41431055105E+03  0.00000000000E+00 0. -1.
         21   -1    0    0  501  503 -0.00000000000E+00 -0.00000000000E+00 -0.11214908783E+03  0.11214908783E+03  0.00000000000E+00 0. -1.
          6    1    1    2  501    0  0.78838533864E+02 -0.46982623415E+02  0.38775610642E+02  0.19877230518E+03  0.17200000000E+03 0. -1.
         -6    1    1    2    0  502 -0.78838533864E+02  0.46982623415E+02  0.26338585258E+03  0.32768733369E+03  0.17200000000E+03 0. -1.
</event>
<event>
 4    1  0.5818436E+000  0.2038517E+03  0.7818608E-02  0.1146529E+00
         21   -1    0    0  501  502  0.00000000000E+00  0.00000000000E+00  0.75417603621E+02  0.75417603621E+02  0.00000000000E+00 0.  1.
         21   -1    0    0  502  503 -0.00000000000E+00 -0.00000000000E+00 -0.79455159568E+03  0.79455159568E+03  0.00000000000E+00 0. -1.
          6    1    1    2  501    0  0.28768118793E+02 -0.10556463841E+03 -0.11874086185E+03  0.23591288607E+03  0.17200000000E+03 0.  1.
         -6    1    1    2    0  503 -0.28768118793E+02  0.10556463841E+03 -0.60039313021E+03  0.63405631323E+03  0.17200000000E+03 0. -1.
</event>
<event>
 4    1  0.5818436E+000  0.1941716E+03  0.7818608E-02  0.1154752E+00
         21   -1    0    0  501  502  0.00000000000E+00  0.00000000000E+00  0.74664378700E+02  0.74664378700E+02  0.00000000000E+00 0.  1.
         21   -1    0    0  502  503 -0.00000000000E+00 -0.00000000000E+00 -0.69409067384E+03  0.69409067384E+03  0.00000000000E+00 0.  1.
          6    1    1    2  501    0 -0.65804337550E+02 -0.61549825137E+02 -0.10906745751E+03  0.22270676259E+03  0.17200000000E+03 0.  1.
         -6    1    1    2    0  503  0.65804337550E+02  0.61549825137E+02 -0.51035883762E+03  0.54604828995E+03  0.17200000000E+03 0.  1.
</event>
<event>
 4    1  0.5818436E+000  0.2684219E+03  0.7818608E-02  0.1102186E+00
         21   -1    0    0  503  502  0.00000000000E+00  0.00000000000E+00  0.68564374487E+03  0.68564374487E+03  0.00000000000E+00 0. -1.
         21   -1    0    0  501  503 -0.00000000000E+00 -0.00000000000E+00 -0.10645369847E+03  0.10645369847E+03  0.00000000000E+00 0.  1.
          6    1    1    2  501    0 -0.20230121589E+03 -0.39249779667E+02  0.33451591606E+03  0.42889535466E+03  0.17200000000E+03 0.  1.
         -6    1    1    2    0  502  0.20230121589E+03  0.39249779667E+02  0.24467413034E+03  0.36320208867E+03  0.17200000000E+03 0.  1.
</event>
<event>
 4    1  0.5818436E+000  0.1792035E+03  0.7818608E-02  0.1168576E+00
         21   -1    0    0  503  502  0.00000000000E+00  0.00000000000E+00  0.26033310100E+03  0.26033310100E+03  0.00000000000E+00 0. -1.
         21   -1    0    0  501  503 -0.00000000000E+00 -0.00000000000E+00 -0.12402352981E+03  0.12402352981E+03  0.00000000000E+00 0. -1.
          6    1    1    2  501    0 -0.20300065193E+02  0.46019461517E+02  0.82244290444E+02  0.19717506636E+03  0.17200000000E+03 0.  1.
         -6    1    1    2    0  502  0.20300065193E+02 -0.46019461517E+02  0.54065280753E+02  0.18718156444E+03  0.17200000000E+03 0.  1.
</event>
<event>
 4    1  0.5818436E+000  0.2565967E+03  0.7818608E-02  0.1109205E+00
         21   -1    0    0  501  502  0.00000000000E+00  0.00000000000E+00  0.20008743304E+03  0.20008743304E+03  0.00000000000E+00 0. -1.
         21   -1    0    0  502  503 -0.00000000000E+00 -0.00000000000E+00 -0.33266046392E+03  0.33266046392E+03  0.00000000000E+00 0.  1.
          6    1    1    2  501    0 -0.16203497825E+03 -0.10001253911E+03 -0.38594970303E+02  0.25948297418E+03  0.17200000000E+03 0. -1.
         -6    1    1    2    0  503  0.16203497825E+03  0.10001253911E+03 -0.93978060578E+02  0.27326492279E+03  0.17200000000E+03 0. -1.
</event>
<event>
 4    1  0.5818436E+000  0.1827161E+03  0.7818608E-02  0.1165200E+00
         21   -1    0    0  503  502  0.00000000000E+00  0.00000000000E+00  0.14983933891E+03  0.14983933891E+03  0.00000000000E+00 0. -1.
         21   -1    0    0  501  503 -0.00000000000E+00 -0.00000000000E+00 -0.29876955797E+03  0.29876955797E+03  0.00000000000E+00 0. -1.
          6    1    1    2  501    0  0.25867555125E+02 -0.55964513359E+02 -0.18756738548E+03  0.26185240358E+03  0.17200000000E+03 0. -1.
         -6    1    1    2    0  502 -0.25867555125E+02  0.55964513359E+02  0.38637166411E+02  0.18675649331E+03  0.17200000000E+03 0. -1.
</event>
<event>
 4    1  0.5818436E+000  0.2380750E+03  0.7818608E-02  0.1121082E+00
         21   -1    0    0  501  502  0.00000000000E+00  0.00000000000E+00  0.10146676653E+03  0.10146676653E+03  0.00000000000E+00 0. -1.
         21   -1    0    0  502  503 -0.00000000000E+00 -0.00000000000E+00 -0.64867069405E+03  0.64867069405E+03  0.00000000000E+00 0. -1.
          6    1    1    2  501    0 -0.85129627370E+02  0.14088527651E+03 -0.13384242029E+03  0.27311812108E+03  0.17200000000E+03 0. -1.
         -6    1    1    2    0  503  0.85129627370E+02 -0.14088527651E+03 -0.41336150723E+03  0.47701933949E+03  0.17200000000E+03 0. -1.
</event>
<event>
 4    1  0.5818436E+000  0.1997269E+03  0.7818608E-02  0.1149970E+00
         21   -1    0    0  503  502  0.00000000000E+00  0.00000000000E+00  0.20697889220E+03  0.20697889220E+03  0.00000000000E+00 0. -1.
         21   -1    0    0  501  503 -0.00000000000E+00 -0.00000000000E+00 -0.19327492760E+03  0.19327492760E+03  0.00000000000E+00 0. -1.
          6    1    1    2  501    0  0.40766311424E+02 -0.92978165556E+02  0.17488316548E+02  0.20049107869E+03  0.17200000000E+03 0. -1.
         -6    1    1    2    0  502 -0.40766311424E+02  0.92978165556E+02 -0.37843519460E+01  0.19976274111E+03  0.17200000000E+03 0. -1.
</event>
<event>
 4    1  0.5818436E+000  0.1778954E+03  0.7818608E-02  0.1169856E+00
         21   -1    0    0  501  502  0.00000000000E+00  0.00000000000E+00  0.60666693747E+02  0.60666693747E+02  0.00000000000E+00 0. -1.
         21   -1    0    0  502  503 -0.00000000000E+00 -0.00000000000E+00 -0.22066062453E+04  0.22066062453E+04  0.00000000000E+00 0. -1.
          6    1    1    2  501    0 -0.30067157765E+02 -0.34040004616E+02 -0.82352827192E+02  0.19603250760E+03  0.17200000000E+03 0. -1.
         -6    1    1    2    0  503  0.30067157765E+02  0.34040004616E+02 -0.20635867244E+04  0.20712404315E+04  0.17200000000E+03 0. -1.
</event>
<event>
 4    1  0.5818436E+000  0.2196006E+03  0.7818608E-02  0.1134181E+00
         21   -1    0    0  503  502  0.00000000000E+00  0.00000000000E+00  0.48228763401E+02  0.48228763401E+02  0.00000000000E+00 0. -1.
         21   -1    0    0  501  503 -0.00000000000E+00 -0.00000000000E+00 -0.13129395377E+04  0.13129395377E+04  0.00000000000E+00 0. -1.
          6    1    1    2  501    0  0.37505830908E+02  0.13127727784E+03 -0.30003858732E+03  0.37181657428E+03  0.17200000000E+03 0. -1.
         -6    1    1    2    0  502 -0.37505830908E+02 -0.13127727784E+03 -0.96467218695E+03  0.98935172679E+03  0.17200000000E+03 0. -1.
</event>
<event>
 4    1  0.5818436E+000  0.1852774E+03  0.7818608E-02  0.1162791E+00
         21   -1    0    0  503  502  0.00000000000E+00  0.00000000000E+00  0.16027577705E+04  0.16027577705E+04  0.00000000000E+00 0. -1.
         21   -1    0    0  501  503 -0.00000000000E+00 -0.00000000000E+00 -0.24966376754E+02  0.24966376754E+02  0.00000000000E+00 0. -1.
          6    1    1    2  501    0  0.68312583336E+02 -0.87807669030E+01  0.48206851428E+03  0.51644725130E+03  0.17200000000E+03 0. -1.
         -6    1    1    2    0  502 -0.68312583336E+02  0.87807669030E+01  0.10957228795E+04  0.11112768960E+04  0.17200000000E+03 0. -1.
</event>
<event>
 4    1  0.5818436E+000  0.2441755E+03  0.7818608E-02  0.1117042E+00
         21   -1    0    0  503  502  0.00000000000E+00  0.00000000000E+00  0.83394149537E+02  0.83394149537E+02  0.00000000000E+00 0. -1.
         21   -1    0    0  501  503 -0.00000000000E+00 -0.00000000000E+00 -0.77452273066E+03  0.77452273066E+03  0.00000000000E+00 0. -1.
          6    1    1    2  501    0  0.15701806340E+03 -0.73369068450E+02 -0.22658712582E+03  0.33311172003E+03  0.17200000000E+03 0. -1.
         -6    1    1    2    0  502 -0.15701806340E+03  0.73369068450E+02 -0.46454145530E+03  0.52480516016E+03  0.17200000000E+03 0. -1.
</event>
<event>
 4    1  0.5818436E+000  0.1835169E+03  0.7818608E-02  0.1164442E+00
         21   -1    0    0  501  502  0.00000000000E+00  0.00000000000E+00  0.15688383615E+03  0.15688383615E+03  0.00000000000E+00 0. -1.
         21   -1    0    0  502  503 -0.00000000000E+00 -0.00000000000E+00 -0.21566058115E+03  0.21566058115E+03  0.00000000000E+00 0.  1.
          6    1    1    2  501    0  0.57261196816E+02 -0.28558545852E+02 -0.16771459233E+02  0.18428162428E+03  0.17200000000E+03 0. -1.
         -6    1    1    2    0  503 -0.57261196816E+02  0.28558545852E+02 -0.42005285769E+02  0.18826279302E+03  0.17200000000E+03 0.  1.
</event>
<event>
 4    1  0.5818436E+000  0.2845451E+03  0.7818608E-02  0.1093232E+00
         21   -1    0    0  501  502  0.00000000000E+00  0.00000000000E+00  0.18552472340E+03  0.18552472340E+03  0.00000000000E+00 0. -1.
         21   -1    0    0  502  503 -0.00000000000E+00 -0.00000000000E+00 -0.52834258050E+03  0.52834258050E+03  0.00000000000E+00 0. -1.
          6    1    1    2  501    0 -0.20161678282E+02 -0.22577736685E+03 -0.22523973166E+02  0.28543518007E+03  0.17200000000E+03 0. -1.
         -6    1    1    2    0  503  0.20161678282E+02  0.22577736685E+03 -0.32029388393E+03  0.42843212384E+03  0.17200000000E+03 0. -1.
</event>
<event>
 4    1  0.5818436E+000  0.1998477E+03  0.7818608E-02  0.1149868E+00
         21   -1    0    0  503  502  0.00000000000E+00  0.00000000000E+00  0.95559947829E+02  0.95559947829E+02  0.00000000000E+00 0.  1.
         21   -1    0    0  501  503 -0.00000000000E+00 -0.00000000000E+00 -0.56603548020E+03  0.56603548020E+03  0.00000000000E+00 0.  1.
          6    1    1    2  501    0 -0.89003693058E+02  0.49329968293E+02 -0.40443748158E+03  0.45111947381E+03  0.17200000000E+03 0.  1.
         -6    1    1    2    0  502  0.89003693058E+02 -0.49329968293E+02 -0.66038050794E+02  0.21047595421E+03  0.17200000000E+03 0.  1.
</event>
<event>
 4    1  0.5818436E+000  0.2111831E+03  0.7818608E-02  0.1140633E+00
         21   -1    0    0  503  502  0.00000000000E+00  0.00000000000E+00  0.96441498558E+03  0.96441498558E+03  0.00000000000E+00 0.  1.
         21   -1    0    0  501  503 -0.00000000000E+00 -0.00000000000E+00 -0.49078351836E+02  0.49078351836E+02  0.00000000000E+00 0.  1.
          6    1    1    2  501    0 -0.11117211403E+03  0.51527146968E+02  0.33588651605E+03  0.39675942015E+03  0.17200000000E+03 0.  1.
         -6    1    1    2    0  502  0.11117211403E+03 -0.51527146968E+02  0.57945011769E+03  0.61673391727E+03  0.17200000000E+03 0.  1.
</event>
<event>
 4    1  0.5818436E+000  0.2564954E+03  0.7818608E-02  0.1109267E+00
         21   -1    0    0  501  502  0.00000000000E+00  0.00000000000E+00  0.23452125942E+03  0.23452125942E+03  0.00000000000E+00 0.  1.
         21   -1    0    0  502  503 -0.00000000000E+00 -0.00000000000E+00 -0.33753344472E+03  0.33753344472E+03  0.00000000000E+00 0. -1.
          6    1    1    2  501    0  0.99172102673E+02  0.16239076159E+03  0.66039388887E+02  0.26486046569E+03  0.17200000000E+03 0.  1.
         -6    1    1    2    0  503 -0.99172102673E+02 -0.16239076159E+03 -0.16905157419E+03  0.30719423845E+03  0.17200000000E+03 0.  1.
</event>
<event>
 4    1  0.5818436E+000  0.3591149E+03  0.7818608E-02  0.1058935E+00
         21   -1    0    0  501  502  0.00000000000E+00  0.00000000000E+00  0.65420751183E+03  0.65420751183E+03  0.00000000000E+00 0.  1.
         21   -1    0    0  502  503 -0.00000000000E+00 -0.00000000000E+00 -0.32994291598E+03  0.32994291598E+03  0.00000000000E+00 0.  1.
          6    1    1    2  501    0 -0.20438490681E+03  0.24001320271E+03  0.47433254285E+03  0.59494108012E+03  0.17200000000E+03 0.  1.
         -6    1    1    2    0  503  0.20438490681E+03 -0.24001320271E+03 -0.15006794700E+03  0.38920934769E+03  0.17200000000E+03 0.  1.
</event>
<event>
 4    1  0.5818436E+000  0.1738325E+03  0.7818608E-02  0.1173909E+00
         21   -1    0    0  503  502  0.00000000000E+00  0.00000000000E+00  0.29019710222E+03  0.29019710222E+03  0.00000000000E+00 0.  1.
         21   -1    0    0  501  503 -0.00000000000E+00 -0.00000000000E+00 -0.10446626557E+03  0.10446626557E+03  0.00000000000E+00 0.  1.
          6    1    1    2  501    0  0.21668458784E+02 -0.12814315683E+02  0.81641364828E+02  0.19204958017E+03  0.17200000000E+03 0.  1.
         -6    1    1    2    0  502 -0.21668458784E+02  0.12814315683E+02  0.10408947182E+03  0.20261378763E+03  0.17200000000E+03 0.  1.
</event>
<event>
 4    1  0.5818436E+000  0.1874247E+03  0.7818608E-02  0.1160805E+00
         21   -1    0    0  503  502  0.00000000000E+00  0.00000000000E+00  0.15656165531E+03  0.15656165531E+03  0.00000000000E+00 0. -1.
         21   -1    0    0  501  503 -0.00000000000E+00 -0.00000000000E+00 -0.30023265889E+03  0.30023265889E+03  0.00000000000E+00 0. -1.
          6    1    1    2  501    0 -0.74450747588E+02 -0.10479000218E+01 -0.18664313418E+03  0.26450646768E+03  0.17200000000E+03 0. -1.
         -6    1    1    2    0  502  0.74450747588E+02  0.10479000218E+01  0.42972130595E+02  0.19228784652E+03  0.17200000000E+03 0. -1.
</event>
<event>
 4    1  0.5818436E+000  0.2074875E+03  0.7818608E-02  0.1143571E+00
         21   -1    0    0  503  502  0.00000000000E+00  0.00000000000E+00  0.12765718220E+03  0.12765718220E+03  0.00000000000E+00 0.  1.
         21   -1    0    0  501  503 -0.00000000000E+00 -0.00000000000E+00 -0.40612110582E+03  0.40612110582E+03  0.00000000000E+00 0.  1.
          6    1    1    2  501    0  0.11601843261E+03  0.26041017741E+01 -0.24914631807E+03  0.32422977324E+03  0.17200000000E+03 0.  1.
         -6    1    1    2    0  502 -0.11601843261E+03 -0.26041017741E+01 -0.29317605551E+02  0.20954851478E+03  0.17200000000E+03 0.  1.
</event>
<event>
 4    1  0.5818436E+000  0.2008928E+03  0.7818608E-02  0.1148988E+00
         21   -1    0    0  503  502  0.00000000000E+00  0.00000000000E+00  0.12731536065E+03  0.12731536065E+03  0.00000000000E+00 0. -1.
         21   -1    0    0  501  503 -0.00000000000E+00 -0.00000000000E+00 -0.61669163759E+03  0.61669163759E+03  0.00000000000E+00 0.  1.
          6    1    1    2  501    0 -0.63898979802E+02 -0.81797570064E+02 -0.50402023292E+03  0.54258116193E+03  0.17200000000E+03 0.  1.
         -6    1    1    2    0  502  0.63898979802E+02  0.81797570064E+02  0.14643955985E+02  0.20142583631E+03  0.17200000000E+03 0. -1.
</event>
<event>
 4    1  0.5818436E+000  0.1898617E+03  0.7818608E-02  0.1158586E+00
         21   -1    0    0  501  502  0.00000000000E+00  0.00000000000E+00  0.11706306159E+03  0.11706306159E+03  0.00000000000E+00 0.  1.
         21   -1    0    0  502  503 -0.00000000000E+00 -0.00000000000E+00 -0.39897707598E+03  0.39897707598E+03  0.00000000000E+00 0.  1.
          6    1    1    2  501    0  0.59207676495E+02  0.54386706991E+02 -0.17701099891E+02  0.19068505917E+03  0.17200000000E+03 0.  1.
         -6    1    1    2    0  503 -0.59207676495E+02 -0.54386706991E+02 -0.26421291449E+03  0.32535507840E+03  0.17200000000E+03 0.  1.
</event>
<event>
 4    1  0.5818436E+000  0.1819579E+03  0.7818608E-02  0.1165922E+00
         21   -1    0    0  501  502  0.00000000000E+00  0.00000000000E+00  0.86413009866E+02  0.86413009866E+02  0.00000000000E+00 0. -1.
         21   -1    0    0  502  503 -0.00000000000E+00 -0.00000000000E+00 -0.38999369514E+03  0.38999369514E+03  0.00000000000E+00 0. -1.
          6    1    1    2  501    0  0.57433568170E+02  0.15035044716E+02 -0.12022288326E+03  0.21808761767E+03  0.17200000000E+03 0.  1.
         -6    1    1    2    0  503 -0.57433568170E+02 -0.15035044716E+02 -0.18335780201E+03  0.25831908733E+03  0.17200000000E+03 0.  1.
</event>
<event>
 4    1  0.5818436E+000  0.1814687E+03  0.7818608E-02  0.1166389E+00
         21   -1    0    0  503  502  0.00000000000E+00  0.00000000000E+00  0.36784014550E+02  0.36784014550E+02  0.00000000000E+00 0. -1.
         21   -1    0    0  501  503 -0.00000000000E+00 -0.00000000000E+00 -0.90244312162E+03  0.90244312162E+03  0.00000000000E+00 0. -1.
          6    1    1    2  501    0 -0.32834438672E+01 -0.57759002246E+02 -0.39090252526E+03  0.43097061106E+03  0.17200000000E+03 0. -1.
         -6    1    1    2    0  502  0.32834438672E+01  0.57759002246E+02 -0.47475658182E+03  0.50825652512E+03  0.17200000000E+03 0. -1.
</event>
<event>
 4    1  0.5818436E+000  0.1843517E+03  0.7818608E-02  0.1163657E+00
         21   -1    0    0  503  502  0.00000000000E+00  0.00000000000E+00  0.18614201267E+04  0.18614201267E+04  0.00000000000E+00 0.  1.
         21   -1    0    0  501  503 -0.00000000000E+00 -0.00000000000E+00 -0.36379085249E+02  0.36379085249E+02  0.00000000000E+00 0.  1.
          6    1    1    2  501    0  0.50656220900E+02 -0.42842806815E+02  0.24280850760E+03  0.30486313351E+03  0.17200000000E+03 0.  1.
         -6    1    1    2    0  502 -0.50656220900E+02  0.42842806815E+02  0.15822325338E+04  0.15929360784E+04  0.17200000000E+03 0.  1.
</event>
<event>
 4    1  0.5818436E+000  0.2460311E+03  0.7818608E-02  0.1115839E+00
         21   -1    0    0  501  502  0.00000000000E+00  0.00000000000E+00  0.41338592944E+03  0.41338592944E+03  0.00000000000E+00 0.  1.
         21   -1    0    0  502  503 -0.00000000000E+00 -0.00000000000E+00 -0.29249594148E+03  0.29249594148E+03  0.00000000000E+00 0.  1.
          6    1    1    2  501    0  0.96458036095E+02 -0.14711606807E+03  0.30985823708E+03  0.39565568023E+03  0.17200000000E+03 0.  1.
         -6    1    1    2    0  503 -0.96458036095E+02  0.14711606807E+03 -0.18896824912E+03  0.31022619068E+03  0.17200000000E+03 0.  1.
</event>
<event>
 4    1  0.5818436E+000  0.1980410E+03  0.7818608E-02  0.1151402E+00
         21   -1    0    0  501  502  0.00000000000E+00  0.00000000000E+00  0.50398469324E+03  0.50398469324E+03  0.00000000000E+00 0.  1.
         21   -1    0    0  502  503 -0.00000000000E+00 -0.00000000000E+00 -0.37967242838E+03  0.37967242838E+03  0.00000000000E+00 0.  1.
          6    1    1    2  501    0  0.88993985821E+02  0.41428268907E+02  0.45611092698E+03  0.49724984534E+03  0.17200000000E+03 0.  1.
         -6    1    1    2    0  503 -0.88993985821E+02 -0.41428268907E+02 -0.33179866212E+03  0.38640727628E+03  0.17200000000E+03 0.  1.
</event>
<event>
 4    1  0.5818436E+000  0.1810383E+03  0.7818608E-02  0.1166802E+00
         21   -1    0    0  503  502  0.00000000000E+00  0.00000000000E+00  0.54272535262E+03  0.54272535262E+03  0.00000000000E+00 0. -1.
         21   -1    0    0  501  503 -0.00000000000E+00 -0.00000000000E+00 -0.60588437678E+02  0.60588437678E+02  0.00000000000E+00 0.  1.
          6    1    1    2  501    0 -0.94626904249E+01  0.55689607660E+02  0.25835677991E+03  0.31547282076E+03  0.17200000000E+03 0. -1.
         -6    1    1    2    0  502  0.94626904249E+01 -0.55689607660E+02  0.22378013504E+03  0.28784096954E+03  0.17200000000E+03 0.  1.
</event>
<event>
 4    1  0.5818436E+000  0.2321004E+03  0.7818608E-02  0.1125170E+00
         21   -1    0    0  503  502  0.00000000000E+00  0.00000000000E+00  0.13341793572E+03  0.13341793572E+03  0.00000000000E+00 0.  1.
         21   -1    0    0  501  503 -0.00000000000E+00 -0.00000000000E+00 -0.46522546890E+03  0.46522546890E+03  0.00000000000E+00 0.  1.
          6    1    1    2  501    0  0.15558776256E+03 -0.88896916432E+01 -0.27469042781E+03  0.35961842223E+03  0.17200000000E+03 0.  1.
         -6    1    1    2    0  502 -0.15558776256E+03  0.88896916432E+01 -0.57117105376E+02  0.23902498238E+03  0.17200000000E+03 0.  1.
</event>
<event>
 4    1  0.5818436E+000  0.2450213E+03  0.7818608E-02  0.1116492E+00
         21   -1    0    0  503  502  0.00000000000E+00  0.00000000000E+00  0.57986927243E+03  0.57986927243E+03  0.00000000000E+00 0. -1.
         21   -1    0    0  501  503 -0.00000000000E+00 -0.00000000000E+00 -0.20201930060E+03  0.20201930060E+03  0.00000000000E+00 0.  1.
          6    1    1    2  501    0  0.15386999212E+03  0.82313162305E+02 -0.84040044806E+02  0.25903312586E+03  0.17200000000E+03 0.  1.
         -6    1    1    2    0  502 -0.15386999212E+03 -0.82313162305E+02  0.46189001664E+03  0.52285544717E+03  0.17200000000E+03 0. -1.
</event>
<event>
 4    1  0.5818436E+000  0.1840488E+03  0.7818608E-02  0.1163941E+00
         21   -1    0    0  501  502  0.00000000000E+00  0.00000000000E+00  0.30041029688E+03  0.30041029688E+03  0.00000000000E+00 0. -1.
         21   -1    0    0  502  503 -0.00000000000E+00 -0.00000000000E+00 -0.11675866659E+03  0.11675866659E+03  0.00000000000E+00 0. -1.
          6    1    1    2  501    0  0.67911951194E+01 -0.65144705544E+02  0.53220114731E+02  0.19158897046E+03  0.17200000000E+03 0. -1.
         -6    1    1    2    0  503 -0.67911951194E+01  0.65144705544E+02  0.13043151556E+03  0.22557999300E+03  0.17200000000E+03 0. -1.
</event>
<event>
 4    1  0.5818436E+000  0.1938577E+03  0.7818608E-02  0.1155027E+00
         21   -1    0    0  503  502  0.00000000000E+00  0.00000000000E+00  0.77181901256E+03  0.77181901256E+03  0.00000000000E+00 0.  1.
         21   -1    0    0  501  503 -0.00000000000E+00 -0.00000000000E+00 -0.58107836964E+02  0.58107836964E+02  0.00000000000E+00 0.  1.
          6    1    1    2  501    0  0.18691306459E+02  0.87449637743E+02  0.18980805165E+03  0.27130775984E+03  0.17200000000E+03 0.  1.
         -6    1    1    2    0  502 -0.18691306459E+02 -0.87449637743E+02  0.52390312394E+03  0.55861908968E+03  0.17200000000E+03 0.  1.
</event>
<event>
 4    1  0.5818436E+000  0.1922832E+03  0.7818608E-02  0.1156418E+00
         21   -1    0    0  501  502  0.00000000000E+00  0.00000000000E+00  0.88697397466E+02  0.88697397466E+02  0.00000000000E+00 0.  1.
         21   -1    0    0  502  503 -0.00000000000E+00 -0.00000000000E+00 -0.60140349338E+03  0.60140349338E+03  0.00000000000E+00 0.  1.
          6    1    1    2  501    0 -0.80562164477E+02 -0.29975969408E+02 -0.65204987979E+02  0.20303820218E+03  0.17200000000E+03 0.  1.
         -6    1    1    2    0  503  0.80562164477E+02  0.29975969408E+02 -0.44750110793E+03  0.48706268866E+03  0.17200000000E+03 0.  1.
</event>
<event>
 4    1  0.5818436E+000  0.2537499E+03  0.7818608E-02  0.1110958E+00
         21   -1    0    0  503  502  0.00000000000E+00  0.00000000000E+00  0.21656037789E+03  0.21656037789E+03  0.00000000000E+00 0. -1.
         21   -1    0    0  501  503 -0.00000000000E+00 -0.00000000000E+00 -0.63812234027E+03  0.63812234027E+03  0.00000000000E+00 0. -1.
          6    1    1    2  501    0  0.13687519514E+02 -0.18605821133E+03 -0.52307990392E+03  0.58137904338E+03  0.17200000000E+03 0. -1.
         -6    1    1    2    0  502 -0.13687519514E+02  0.18605821133E+03  0.10151794153E+03  0.27330367478E+03  0.17200000000E+03 0. -1.
</event>
<event>
 4    1  0.5818436E+000  0.1887231E+03  0.7818608E-02  0.1159618E+00
         21   -1    0    0  501  502  0.00000000000E+00  0.00000000000E+00  0.53191162976E+03  0.53191162976E+03  0.00000000000E+00 0.  1.
         21   -1    0    0  502  503 -0.00000000000E+00 -0.00000000000E+00 -0.70637711877E+02  0.70637711877E+02  0.00000000000E+00 0.  1.
          6    1    1    2  501    0  0.30085944106E+02  0.71604872704E+02  0.16188652598E+03  0.24864365892E+03  0.17200000000E+03 0.  1.
         -6    1    1    2    0  503 -0.30085944106E+02 -0.71604872704E+02  0.29938739191E+03  0.35390568272E+03  0.17200000000E+03 0.  1.
</event>
<event>
 4    1  0.5818436E+000  0.2615950E+03  0.7818608E-02  0.1106189E+00
         21   -1    0    0  503  502  0.00000000000E+00  0.00000000000E+00  0.10833169307E+03  0.10833169307E+03  0.00000000000E+00 0. -1.
         21   -1    0    0  501  503 -0.00000000000E+00 -0.00000000000E+00 -0.86908864718E+03  0.86908864718E+03  0.00000000000E+00 0.  1.
          6    1    1    2  501    0  0.16478560124E+03  0.10813725475E+03 -0.63580100127E+03  0.68751354420E+03  0.17200000000E+03 0.  1.
         -6    1    1    2    0  502 -0.16478560124E+03 -0.10813725475E+03 -0.12495595284E+03  0.28990679604E+03  0.17200000000E+03 0. -1.
</event>
<event>
 4    1  0.5818436E+000  0.1912725E+03  0.7818608E-02  0.1157319E+00
         21   -1    0    0  501  502  0.00000000000E+00  0.00000000000E+00  0.50366615435E+03  0.50366615435E+03  0.00000000000E+00 0.  1.
         21   -1    0    0  502  503 -0.00000000000E+00 -0.00000000000E+00 -0.82502191427E+02  0.82502191427E+02  0.00000000000E+00 0.  1.
          6    1    1    2  501    0 -0.38221007558E+02  0.74433411504E+02  0.31192545544E+03  0.36589980584E+03  0.17200000000E+03 0.  1.
         -6    1    1    2    0  503  0.38221007558E+02 -0.74433411504E+02  0.10923850749E+03  0.22026853993E+03  0.17200000000E+03 0.  1.
</event>
<event>
 4    1  0.5818436E+000  0.1934090E+03  0.7818608E-02  0.1155422E+00
         21   -1    0    0  501  502  0.00000000000E+00  0.00000000000E+00  0.19523354207E+03  0.19523354207E+03  0.00000000000E+00 0.  1.
         21   -1    0    0  502  503 -0.00000000000E+00 -0.00000000000E+00 -0.21610624327E+03  0.21610624327E+03  0.00000000000E+00 0.  1.
          6    1    1    2  501    0 -0.85983311119E+02  0.20734007807E+02  0.58820482045E+02  0.20215557865E+03  0.17200000000E+03 0.  1.
         -6    1    1    2    0  503  0.85983311119E+02 -0.20734007807E+02 -0.79693183244E+02  0.20918420668E+03  0.17200000000E+03 0.  1.
</event>
<event>
 4    1  0.5818436E+000  0.1964294E+03  0.7818608E-02  0.1152787E+00
         21   -1    0    0  503  502  0.00000000000E+00  0.00000000000E+00  0.63864476199E+02  0.63864476199E+02  0.00000000000E+00 0.  1.
         21   -1    0    0  501  503 -0.00000000000E+00 -0.00000000000E+00 -0.60777898440E+03  0.60777898440E+03  0.00000000000E+00 0. -1.
          6    1    1    2  501    0  0.29070445648E+02 -0.90307461850E+02 -0.29786160950E+03  0.35679975741E+03  0.17200000000E+03 0.  1.
         -6    1    1    2    0  502 -0.29070445648E+02  0.90307461850E+02 -0.24605289870E+03  0.31484370318E+03  0.17200000000E+03 0.  1.
</event>
<event>
 4    1  0.5818436E+000  0.2329835E+03  0.7818608E-02  0.1124557E+00
         21   -1    0    0  501  502  0.00000000000E+00  0.00000000000E+00  0.55304742312E+03  0.55304742312E+03  0.00000000000E+00 0.  1.
         21   -1    0    0  502  503 -0.00000000000E+00 -0.00000000000E+00 -0.12875080106E+03  0.12875080106E+03  0.00000000000E+00 0. -1.
          6    1    1    2  501    0  0.55420711935E+02 -0.14705729622E+03  0.37834453745E+03  0.44432633582E+03  0.17200000000E+03 0.  1.
         -6    1    1    2    0  503 -0.55420711935E+02  0.14705729622E+03  0.45952084602E+02  0.23747188836E+03  0.17200000000E+03 0. -1.
</event>
<event>
 4    1  0.5818436E+000  0.2553480E+03  0.7818608E-02  0.1109971E+00
         21   -1    0    0  501  502  0.00000000000E+00  0.00000000000E+00  0.40676674420E+03  0.40676674420E+03  0.00000000000E+00 0. -1.
         21   -1    0    0  502  503 -0.00000000000E+00 -0.00000000000E+00 -0.33653100511E+03  0.33653100511E+03  0.00000000000E+00 0.  1.
          6    1    1    2  501    0  0.18248193018E+03  0.48155211931E+02  0.30406560472E+03  0.39706230148E+03  0.17200000000E+03 0. -1.
         -6    1    1    2    0  503 -0.18248193018E+03 -0.48155211931E+02 -0.23382986563E+03  0.34623544784E+03  0.17200000000E+03 0.  1.
</event>
<event>
 4    1  0.5818436E+000  0.1732558E+03  0.7818608E-02  0.1174495E+00
         21   -1    0    0  503  502  0.00000000000E+00  0.00000000000E+00  0.10951992404E+04  0.10951992404E+04  0.00000000000E+00 0. -1.
         21   -1    0    0  501  503 -0.00000000000E+00 -0.00000000000E+00 -0.10597174961E+03  0.10597174961E+03  0.00000000000E+00 0. -1.
          6    1    1    2  501    0 -0.12539370223E+02  0.16623138661E+02 -0.22504689921E+02  0.17471126355E+03  0.17200000000E+03 0. -1.
         -6    1    1    2    0  502  0.12539370223E+02 -0.16623138661E+02  0.10117321807E+04  0.10264597265E+04  0.17200000000E+03 0. -1.
</event>
<event>
 4    1  0.5818436E+000  0.2002411E+03  0.7818608E-02  0.1149536E+00
         21   -1    0    0  503  502  0.00000000000E+00  0.00000000000E+00  0.30572509362E+03  0.30572509362E+03  0.00000000000E+00 0.  1.
         21   -1    0    0  501  503 -0.00000000000E+00 -0.00000000000E+00 -0.14562042178E+03  0.14562042178E+03  0.00000000000E+00 0.  1.
          6    1    1    2  501    0 -0.43187239218E+02  0.92991078966E+02  0.89182840989E+01  0.20043955246E+03  0.17200000000E+03 0.  1.
         -6    1    1    2    0  502  0.43187239218E+02 -0.92991078966E+02  0.15118638774E+03  0.25090596294E+03  0.17200000000E+03 0.  1.
</event>
<event>
 4    1  0.5818436E+000  0.3867308E+03  0.7818608E-02  0.1048474E+00
         21   -1    0    0  501  502  0.00000000000E+00  0.00000000000E+00  0.12894861508E+04  0.12894861508E+04  0.00000000000E+00 0. -1.
         21   -1    0    0  502  503 -0.00000000000E+00 -0.00000000000E+00 -0.11638355416E+03  0.11638355416E+03  0.00000000000E+00 0. -1.
          6    1    1    2  501    0 -0.27156660507E+03  0.21500759981E+03  0.62770092878E+03  0.73727141879E+03  0.17200000000E+03 0. -1.
         -6    1    1    2    0  503  0.27156660507E+03 -0.21500759981E+03  0.54540166788E+03  0.66859828619E+03  0.17200000000E+03 0. -1.
</event>
<event>
 4    1  0.5818436E+000  0.3592345E+03  0.7818608E-02  0.1058887E+00
         21   -1    0    0  501  502  0.00000000000E+00  0.00000000000E+00  0.15116118946E+03  0.15116118946E+03  0.00000000000E+00 0.  1.
         21   -1    0    0  502  503 -0.00000000000E+00 -0.00000000000E+00 -0.12770851185E+04  0.12770851185E+04  0.00000000000E+00 0.  1.
          6    1    1    2  501    0  0.19588820073E+03 -0.24717053353E+03 -0.15179303371E+03  0.38998792919E+03  0.17200000000E+03 0.  1.
         -6    1    1    2    0  503 -0.19588820073E+03  0.24717053353E+03 -0.97413089530E+03  0.10382583787E+04  0.17200000000E+03 0.  1.
</event>
<event>
 4    1  0.5818436E+000  0.2186528E+03  0.7818608E-02  0.1134891E+00
         21   -1    0    0  501  502  0.00000000000E+00  0.00000000000E+00  0.85823069188E+03  0.85823069188E+03  0.00000000000E+00 0.  1.
         21   -1    0    0  502  503 -0.00000000000E+00 -0.00000000000E+00 -0.58343779705E+02  0.58343779705E+02  0.00000000000E+00 0. -1.
          6    1    1    2  501    0  0.13478768971E+03  0.75725375403E+01  0.30250843858E+03  0.37325650702E+03  0.17200000000E+03 0.  1.
         -6    1    1    2    0  503 -0.13478768971E+03 -0.75725375403E+01  0.49737847360E+03  0.54331796457E+03  0.17200000000E+03 0. -1.
</event>
<event>
 4    1  0.5818436E+000  0.2501812E+03  0.7818608E-02  0.1113190E+00
         21   -1    0    0  501  502  0.00000000000E+00  0.00000000000E+00  0.46034190630E+03  0.46034190630E+03  0.00000000000E+00 0. -1.
         21   -1    0    0  502  503 -0.00000000000E+00 -0.00000000000E+00 -0.13977293695E+03  0.13977293695E+03  0.00000000000E+00 0.  1.
          6    1    1    2  501    0 -0.10091105747E+03  0.15107472048E+03  0.11076116156E+03  0.27360308405E+03  0.17200000000E+03 0. -1.
         -6    1    1    2    0  503  0.10091105747E+03 -0.15107472048E+03  0.20980780779E+03  0.32651175920E+03  0.17200000000E+03 0. -1.
</event>
<event>
 4    1  0.5818436E+000  0.1728284E+03  0.7818608E-02  0.1174930E+00
         21   -1    0    0  503  502  0.00000000000E+00  0.00000000000E+00  0.11184752368E+03  0.11184752368E+03  0.00000000000E+00 0. -1.
         21   -1    0    0  501  503 -0.00000000000E+00 -0.00000000000E+00 -0.44111186064E+03  0.44111186064E+03  0.00000000000E+00 0. -1.
          6    1    1    2  501    0 -0.13411432171E+02 -0.10285311535E+02 -0.33830506956E+03  0.37989468835E+03  0.17200000000E+03 0. -1.
         -6    1    1    2    0  502  0.13411432171E+02  0.10285311535E+02  0.90407326074E+01  0.17306469597E+03  0.17200000000E+03 0. -1.
</event>
<event>
 4    1  0.5818436E+000  0.1868223E+03  0.7818608E-02  0.1161359E+00
         21   -1    0    0  501  502  0.00000000000E+00  0.00000000000E+00  0.40424252867E+02  0.40424252867E+02  0.00000000000E+00 0.  1.
         21   -1    0    0  502  503 -0.00000000000E+00 -0.00000000000E+00 -0.15793773577E+04  0.15793773577E+04  0.00000000000E+00 0.  1.
          6    1    1    2  501    0 -0.34418070553E+02 -0.64295842283E+02 -0.13147779089E+04  0.13279847547E+04  0.17200000000E+03 0.  1.
         -6    1    1    2    0  503  0.34418070553E+02  0.64295842283E+02 -0.22417519596E+03  0.29181685592E+03  0.17200000000E+03 0.  1.
</event>
<event>
 4    1  0.5818436E+000  0.2661870E+03  0.7818608E-02  0.1103482E+00
         21   -1    0    0  501  502  0.00000000000E+00  0.00000000000E+00  0.12361718750E+04  0.12361718750E+04  0.00000000000E+00 0. -1.
         21   -1    0    0  502  503 -0.00000000000E+00 -0.00000000000E+00 -0.11724852519E+03  0.11724852519E+03  0.00000000000E+00 0.  1.
          6    1    1    2  501    0  0.20245346614E+03  0.16854926534E+02  0.10432677598E+04  0.10766908159E+04  0.17200000000E+03 0. -1.
         -6    1    1    2    0  503 -0.20245346614E+03 -0.16854926534E+02  0.75655590023E+02  0.27672958425E+03  0.17200000000E+03 0.  1.
</event>
<event>
 4    1  0.5818436E+000  0.1938605E+03  0.7818608E-02  0.1155025E+00
         21   -1    0    0  501  502  0.00000000000E+00  0.00000000000E+00  0.50345908865E+03  0.50345908865E+03  0.00000000000E+00 0. -1.
         21   -1    0    0  502  503 -0.00000000000E+00 -0.00000000000E+00 -0.74974849434E+02  0.74974849434E+02  0.00000000000E+00 0. -1.
          6    1    1    2  501    0  0.86063534175E+02 -0.24309419641E+02  0.19512684818E+03  0.27505702441E+03  0.17200000000E+03 0. -1.
         -6    1    1    2    0  503 -0.86063534175E+02  0.24309419641E+02  0.23335739103E+03  0.30337691367E+03  0.17200000000E+03 0. -1.
</event>
<event>
 4    1  0.5818436E+000  0.3539727E+03  0.7818608E-02  0.1060996E+00
         21   -1    0    0  501  502  0.00000000000E+00  0.00000000000E+00  0.14343037785E+03  0.14343037785E+03  0.00000000000E+00 0. -1.
         21   -1    0    0  502  503 -0.00000000000E+00 -0.00000000000E+00 -0.97128344969E+03  0.97128344969E+03  0.00000000000E+00 0.  1.
          6    1    1    2  501    0 -0.46902668402E+02  0.30579867530E+03 -0.23714608346E+03  0.42606919041E+03  0.17200000000E+03 0.  1.
         -6    1    1    2    0  503  0.46902668402E+02 -0.30579867530E+03 -0.59070698838E+03  0.68864463712E+03  0.17200000000E+03 0. -1.
</event>
<event>
 4    1  0.5818436E+000  0.2166320E+03  0.7818608E-02  0.1136419E+00
         21   -1    0    0  501  502  0.00000000000E+00  0.00000000000E+00  0.12655554693E+04  0.12655554693E+04  0.00000000000E+00 0.  1.
         21   -1    0    0  502  503 -0.00000000000E+00 -0.00000000000E+00 -0.87291205145E+02  0.87291205145E+02  0.00000000000E+00 0.  1.
          6    1    1    2  501    0  0.11876953268E+03  0.56914100696E+02  0.11021408052E+04  0.11232291712E+04  0.17200000000E+03 0.  1.
         -6    1    1    2    0  503 -0.11876953268E+03 -0.56914100696E+02  0.76123458951E+02  0.22961750315E+03  0.17200000000E+03 0.  1.
</event>
<event>
 4    1  0.5818436E+000  0.3630180E+03  0.7818608E-02  0.1057395E+00
         21   -1    0    0  503  502  0.00000000000E+00  0.00000000000E+00  0.56007834819E+03  0.56007834819E+03  0.00000000000E+00 0.  1.
         21   -1    0    0  501  503 -0.00000000000E+00 -0.00000000000E+00 -0.34111707404E+03  0.34111707404E+03  0.00000000000E+00 0. -1.
          6    1    1    2  501    0  0.23795867121E+03 -0.21348003208E+03  0.36045605245E+03  0.51157660135E+03  0.17200000000E+03 0.  1.
         -6    1    1    2    0  502 -0.23795867121E+03  0.21348003208E+03 -0.14149477829E+03  0.38961882088E+03  0.17200000000E+03 0. -1.
</event>
<event>
 4    1  0.5818436E+000  0.2285550E+03  0.7818608E-02  0.1127661E+00
         21   -1    0    0  503  502  0.00000000000E+00  0.00000000000E+00  0.44223369137E+03  0.44223369137E+03  0.00000000000E+00 0. -1.
         21   -1    0    0  501  503 -0.00000000000E+00 -0.00000000000E+00 -0.12296545586E+03  0.12296545586E+03  0.00000000000E+00 0. -1.
          6    1    1    2  501    0 -0.14773296959E+03 -0.28780918795E+02  0.10354566256E+03  0.25091647181E+03  0.17200000000E+03 0. -1.
         -6    1    1    2    0  502  0.14773296959E+03  0.28780918795E+02  0.21572257296E+03  0.31428267542E+03  0.17200000000E+03 0. -1.
</event>
<event>
 4    1  0.5818436E+000  0.2051385E+03  0.7818608E-02  0.1145475E+00
         21   -1    0    0  503  502  0.00000000000E+00  0.00000000000E+00  0.36831450496E+03  0.36831450496E+03  0.00000000000E+00 0.  1.
         21   -1    0    0  501  503 -0.00000000000E+00 -0.00000000000E+00 -0.36026922189E+03  0.36026922189E+03  0.00000000000E+00 0. -1.
          6    1    1    2  501    0  0.11177899589E+03  0.18101930673E+01 -0.29701159110E+03  0.36096773535E+03  0.17200000000E+03 0. -1.
         -6    1    1    2    0  502 -0.11177899589E+03 -0.18101930673E+01  0.30505687417E+03  0.36761599149E+03  0.17200000000E+03 0.  1.
</event>
<event>
 4    1  0.5818436E+000  0.3197067E+03  0.7818608E-02  0.1075784E+00
         21   -1    0    0  501  502  0.00000000000E+00  0.00000000000E+00  0.36559461462E+03  0.36559461462E+03  0.00000000000E+00 0. -1.
         21   -1    0    0  502  503 -0.00000000000E+00 -0.00000000000E+00 -0.28940735602E+03  0.28940735602E+03  0.00000000000E+00 0.  1.
          6    1    1    2  501    0  0.13602441487E+03 -0.23264941209E+03  0.98448111857E+02  0.33452118186E+03  0.17200000000E+03 0. -1.
         -6    1    1    2    0  503 -0.13602441487E+03  0.23264941209E+03 -0.22260853260E+02  0.32048078878E+03  0.17200000000E+03 0.  1.
</event>
<event>
 4    1  0.5818436E+000  0.1917689E+03  0.7818608E-02  0.1156876E+00
         21   -1    0    0  501  502  0.00000000000E+00  0.00000000000E+00  0.13266312260E+03  0.13266312260E+03  0.00000000000E+00 0.  1.
         21   -1    0    0  502  503 -0.00000000000E+00 -0.00000000000E+00 -0.56599955668E+03  0.56599955668E+03  0.00000000000E+00 0.  1.
          6    1    1    2  501    0 -0.67062089539E+02 -0.51903520087E+02  0.32861132378E+02  0.19456400816E+03  0.17200000000E+03 0.  1.
         -6    1    1    2    0  503  0.67062089539E+02  0.51903520087E+02 -0.46619756645E+03  0.50409867111E+03  0.17200000000E+03 0.  1.
</event>
<event>
 4    1  0.5818436E+000  0.2067850E+03  0.7818608E-02  0.1144138E+00
         21   -1    0    0  503  502  0.00000000000E+00  0.00000000000E+00  0.40271185365E+02  0.40271185365E+02  0.00000000000E+00 0.  1.
         21   -1    0    0  501  503 -0.00000000000E+00 -0.00000000000E+00 -0.13751407960E+04  0.13751407960E+04  0.00000000000E+00 0. -1.
          6    1    1    2  501    0 -0.11210291397E+02 -0.11423817099E+03 -0.32961408417E+03  0.38910856432E+03  0.17200000000E+03 0.  1.
         -6    1    1    2    0  502  0.11210291397E+02  0.11423817099E+03 -0.10052555265E+04  0.10263034170E+04  0.17200000000E+03 0. -1.
</event>
<event>
 4    1  0.5818436E+000  0.2487124E+03  0.7818608E-02  0.1114121E+00
         21   -1    0    0  501  502  0.00000000000E+00  0.00000000000E+00  0.12879209084E+04  0.12879209084E+04  0.00000000000E+00 0.  1.
         21   -1    0    0  502  503 -0.00000000000E+00 -0.00000000000E+00 -0.58765847769E+02  0.58765847769E+02  0.00000000000E+00 0.  1.
          6    1    1    2  501    0 -0.15458660027E+03 -0.91525118856E+02  0.90238867297E+03  0.93603588685E+03  0.17200000000E+03 0. -1.
         -6    1    1    2    0  503  0.15458660027E+03  0.91525118856E+02  0.32676638763E+03  0.41065086929E+03  0.17200000000E+03 0. -1.
</event>
<event>
 4    1  0.5818436E+000  0.1907275E+03  0.7818608E-02  0.1157807E+00
         21   -1    0    0  501  502  0.00000000000E+00  0.00000000000E+00  0.69445957799E+02  0.69445957799E+02  0.00000000000E+00 0. -1.
         21   -1    0    0  502  503 -0.00000000000E+00 -0.00000000000E+00 -0.11667338473E+04  0.11667338473E+04  0.00000000000E+00 0. -1.
          6    1    1    2  501    0 -0.46612028044E+02  0.67972680995E+02 -0.89823051266E+02  0.21082017707E+03  0.17200000000E+03 0. -1.
         -6    1    1    2    0  503  0.46612028044E+02 -0.67972680995E+02 -0.10074648383E+04  0.10253596281E+04  0.17200000000E+03 0. -1.
</event>
<event>
 4    1  0.5818436E+000  0.2093489E+03  0.7818608E-02  0.1142083E+00
         21   -1    0    0  501  502  0.00000000000E+00  0.00000000000E+00  0.58574324305E+03  0.58574324305E+03  0.00000000000E+00 0.  1.
         21   -1    0    0  502  503 -0.00000000000E+00 -0.00000000000E+00 -0.78948670763E+02  0.78948670763E+02  0.00000000000E+00 0. -1.
          6    1    1    2  501    0  0.10250430924E+03 -0.61121554790E+02  0.32937273100E+03  0.39027346028E+03  0.17200000000E+03 0.  1.
         -6    1    1    2    0  503 -0.10250430924E+03  0.61121554790E+02  0.17742184129E+03  0.27441845353E+03  0.17200000000E+03 0. -1.
</event>
<event>
 4    1  0.5818436E+000  0.1723942E+03  0.7818608E-02  0.1175374E+00
         21   -1    0    0  501  502  0.00000000000E+00  0.00000000000E+00  0.52734670419E+02  0.52734670419E+02  0.00000000000E+00 0.  1.
         21   -1    0    0  502  503 -0.00000000000E+00 -0.00000000000E+00 -0.79947266409E+03  0.79947266409E+03  0.00000000000E+00 0.  1.
          6    1    1    2  501    0 -0.62081568110E+01  0.98595705611E+01 -0.14190758849E+03  0.22328796657E+03  0.17200000000E+03 0.  1.
         -6    1    1    2    0  503  0.62081568110E+01 -0.98595705611E+01 -0.60483040518E+03  0.62891936795E+03  0.17200000000E+03 0.  1.
</event>
<event>
 4    1  0.5818436E+000  0.1743146E+03  0.7818608E-02  0.1173422E+00
         21   -1    0    0  501  502  0.00000000000E+00  0.00000000000E+00  0.66272498696E+03  0.66272498696E+03  0.00000000000E+00 0. -1.
         21   -1    0    0  502  503 -0.00000000000E+00 -0.00000000000E+00 -0.57205276530E+02  0.57205276530E+02  0.00000000000E+00 0. -1.
          6    1    1    2  501    0 -0.24407402138E+02 -0.14347634449E+02  0.46314043247E+03  0.49485819795E+03  0.17200000000E+03 0. -1.
         -6    1    1    2    0  503  0.24407402138E+02  0.14347634449E+02  0.14237927797E+03  0.22507206554E+03  0.17200000000E+03 0. -1.
</event>
<event>
 4    1  0.5818436E+000  0.3294469E+03  0.7818608E-02  0.1071382E+00
         21   -1    0    0  503  502  0.00000000000E+00  0.00000000000E+00  0.16818445869E+03  0.16818445869E+03  0.00000000000E+00 0. -1.
         21   -1    0    0  501  503 -0.00000000000E+00 -0.00000000000E+00 -0.10737089541E+04  0.10737089541E+04  0.00000000000E+00 0.  1.
          6    1    1    2  501    0  0.25590093314E+03  0.11604308295E+03 -0.84497586537E+03  0.90692860675E+03  0.17200000000E+03 0.  1.
         -6    1    1    2    0  502 -0.25590093314E+03 -0.11604308295E+03 -0.60548630021E+02  0.33496480603E+03  0.17200000000E+03 0. -1.
</event>
<event>
 4    1  0.5818436E+000  0.2059276E+03  0.7818608E-02  0.1144832E+00
         21   -1    0    0  503  502  0.00000000000E+00  0.00000000000E+00  0.19314645503E+03  0.19314645503E+03  0.00000000000E+00 0.  1.
         21   -1    0    0  501  503 -0.00000000000E+00 -0.00000000000E+00 -0.37542909430E+03  0.37542909430E+03  0.00000000000E+00 0.  1.
          6    1    1    2  501    0 -0.42658796623E+02 -0.10489242841E+03 -0.27432287278E+03  0.34301491658E+03  0.17200000000E+03 0.  1.
         -6    1    1    2    0  502  0.42658796623E+02  0.10489242841E+03  0.92040233509E+02  0.22556063276E+03  0.17200000000E+03 0.  1.
</event>
<event>
 4    1  0.5818436E+000  0.2302044E+03  0.7818608E-02  0.1126496E+00
         21   -1    0    0  501  502  0.00000000000E+00  0.00000000000E+00  0.18880128310E+03  0.18880128310E+03  0.00000000000E+00 0.  1.
         21   -1    0    0  502  503 -0.00000000000E+00 -0.00000000000E+00 -0.28535971100E+03  0.28535971100E+03  0.00000000000E+00 0.  1.
          6    1    1    2  501    0  0.15177118097E+03 -0.19380302949E+02 -0.17941796720E+02  0.23090256730E+03  0.17200000000E+03 0.  1.
         -6    1    1    2    0  503 -0.15177118097E+03  0.19380302949E+02 -0.78616631185E+02  0.24325842681E+03  0.17200000000E+03 0.  1.
</event>
<event>
 4    1  0.5818436E+000  0.2462338E+03  0.7818608E-02  0.1115708E+00
         21   -1    0    0  503  502  0.00000000000E+00  0.00000000000E+00  0.75633544618E+03  0.75633544618E+03  0.00000000000E+00 0.  1.
         21   -1    0    0  501  503 -0.00000000000E+00 -0.00000000000E+00 -0.86458391036E+02  0.86458391036E+02  0.00000000000E+00 0.  1.
          6    1    1    2  501    0 -0.38926086351E+01 -0.17615888089E+03  0.22124016904E+03  0.33102615624E+03  0.17200000000E+03 0.  1.
         -6    1    1    2    0  502  0.38926086351E+01  0.17615888089E+03  0.44863688610E+03  0.51176768097E+03  0.17200000000E+03 0.  1.
</event>
<event>
 4    1  0.5818436E+000  0.1770882E+03  0.7818608E-02  0.1170651E+00
         21   -1    0    0  503  502  0.00000000000E+00  0.00000000000E+00  0.13803732510E+03  0.13803732510E+03  0.00000000000E+00 0.  1.
         21   -1    0    0  501  503 -0.00000000000E+00 -0.00000000000E+00 -0.55271681229E+03  0.55271681229E+03  0.00000000000E+00 0.  1.
          6    1    1    2  501    0 -0.13496976947E+02 -0.39925527643E+02 -0.47239589157E+03  0.50449786373E+03  0.17200000000E+03 0.  1.
         -6    1    1    2    0  502  0.13496976947E+02  0.39925527643E+02  0.57716404378E+02  0.18625627366E+03  0.17200000000E+03 0.  1.
</event>
<event>
 4    1  0.5818436E+000  0.2284463E+03  0.7818608E-02  0.1127738E+00
         21   -1    0    0  501  502  0.00000000000E+00  0.00000000000E+00  0.10340210542E+03  0.10340210542E+03  0.00000000000E+00 0. -1.
         21   -1    0    0  502  503 -0.00000000000E+00 -0.00000000000E+00 -0.56981057585E+03  0.56981057585E+03  0.00000000000E+00 0.  1.
          6    1    1    2  501    0  0.89447776613E+02  0.12084215267E+03 -0.11942562714E+03  0.25777938440E+03  0.17200000000E+03 0. -1.
         -6    1    1    2    0  503 -0.89447776613E+02 -0.12084215267E+03 -0.34698284329E+03  0.41543329687E+03  0.17200000000E+03 0. -1.
</event>
<event>
 4    1  0.5818436E+000  0.2194720E+03  0.7818608E-02  0.1134277E+00
         21   -1    0    0  503  502  0.00000000000E+00  0.00000000000E+00  0.41353983059E+03  0.41353983059E+03  0.00000000000E+00 0. -1.
         21   -1    0    0  501  503 -0.00000000000E+00 -0.00000000000E+00 -0.12709371019E+03  0.12709371019E+03  0.00000000000E+00 0.  1.
          6    1    1    2  501    0  0.12046725179E+03 -0.63809023604E+02  0.65095833026E+02  0.22892229626E+03  0.17200000000E+03 0.  1.
         -6    1    1    2    0  502 -0.12046725179E+03  0.63809023604E+02  0.22135028737E+03  0.31171124453E+03  0.17200000000E+03 0. -1.
</event>
<event>
 4    1  0.5818436E+000  0.1903730E+03  0.7818608E-02  0.1158125E+00
         21   -1    0    0  501  502  0.00000000000E+00  0.00000000000E+00  0.56993490477E+03  0.56993490477E+03  0.00000000000E+00 0.  1.
         21   -1    0    0  502  503 -0.00000000000E+00 -0.00000000000E+00 -0.16405089375E+03  0.16405089375E+03  0.00000000000E+00 0.  1.
          6    1    1    2  501    0  0.42663953199E+02  0.69553355395E+02  0.49013109439E+03  0.52580449964E+03  0.17200000000E+03 0.  1.
         -6    1    1    2    0  503 -0.42663953199E+02 -0.69553355395E+02 -0.84247083368E+02  0.20818129888E+03  0.17200000000E+03 0.  1.
</event>
<event>
 4    1  0.5818436E+000  0.1774884E+03  0.7818608E-02  0.1170256E+00
         21   -1    0    0  501  502  0.00000000000E+00  0.00000000000E+00  0.97589846928E+02  0.97589846928E+02  0.00000000000E+00 0. -1.
         21   -1    0    0  502  503 -0.00000000000E+00 -0.00000000000E+00 -0.35560489227E+03  0.35560489227E+03  0.00000000000E+00 0. -1.
          6    1    1    2  501    0 -0.59568831751E+01  0.43389523410E+02 -0.60184884947E+02  0.18741492890E+03  0.17200000000E+03 0.  1.
         -6    1    1    2    0  503  0.59568831751E+01 -0.43389523410E+02 -0.19783016039E+03  0.26577981029E+03  0.17200000000E+03 0.  1.
</event>
<event>
 4    1  0.5818436E+000  0.2093714E+03  0.7818608E-02  0.1142065E+00
         21   -1    0    0  501  502  0.00000000000E+00  0.00000000000E+00  0.10595022268E+03  0.10595022268E+03  0.00000000000E+00 0.  1.
         21   -1    0    0  502  503 -0.00000000000E+00 -0.00000000000E+00 -0.88219804010E+03  0.88219804010E+03  0.00000000000E+00 0.  1.
          6    1    1    2  501    0  0.63267703392E+02  0.10124020008E+03 -0.28091100266E+02  0.21124746228E+03  0.17200000000E+03 0.  1.
         -6    1    1    2    0  503 -0.63267703392E+02 -0.10124020008E+03 -0.74815671715E+03  0.77690080050E+03  0.17200000000E+03 0.  1.
</event>
<event>
 4    1  0.5818436E+000  0.1816813E+03  0.7818608E-02  0.1166186E+00
         21   -1    0    0  503  502  0.00000000000E+00  0.00000000000E+00  0.28922574569E+02  0.28922574569E+02  0.00000000000E+00 0.  1.
         21   -1    0    0  501  503 -0.00000000000E+00 -0.00000000000E+00 -0.13872299812E+04  0.13872299812E+04  0.00000000000E+00 0.  1.
          6    1    1    2  501    0 -0.58063055194E+02  0.72651226409E+01 -0.97731359220E+03  0.99405732123E+03  0.17200000000E+03 0.  1.
         -6    1    1    2    0  502  0.58063055194E+02 -0.72651226409E+01 -0.38099381439E+03  0.42209523450E+03  0.17200000000E+03 0.  1.
</event>
<event>
 4    1  0.5818436E+000  0.2073770E+03  0.7818608E-02  0.1143660E+00
         21   -1    0    0  501  502  0.00000000000E+00  0.00000000000E+00  0.19755757335E+04  0.19755757335E+04  0.00000000000E+00 0.  1.
         21   -1    0    0  502  503 -0.00000000000E+00 -0.00000000000E+00 -0.30783712972E+02  0.30783712972E+02  0.00000000000E+00 0.  1.
          6    1    1    2  501    0  0.70698923756E+02 -0.91776185591E+02  0.15152807497E+04  0.15294054259E+04  0.17200000000E+03 0.  1.
         -6    1    1    2    0  503 -0.70698923756E+02  0.91776185591E+02  0.42951127078E+03  0.47695402063E+03  0.17200000000E+03 0.  1.
</event>
<event>
 4    1  0.5818436E+000  0.2059293E+03  0.7818608E-02  0.1144831E+00
         21   -1    0    0  501  502  0.00000000000E+00  0.00000000000E+00  0.86363112737E+02  0.86363112737E+02  0.00000000000E+00 0.  1.
         21   -1    0    0  502  503 -0.00000000000E+00 -0.00000000000E+00 -0.51181603478E+03  0.51181603478E+03  0.00000000000E+00 0. -1.
          6    1    1    2  501    0  0.73797242824E+02  0.85888464633E+02 -0.15245214193E+03  0.25621966549E+03  0.17200000000E+03 0. -1.
         -6    1    1    2    0  503 -0.73797242824E+02 -0.85888464633E+02 -0.27300078012E+03  0.34195948203E+03  0.17200000000E+03 0. -1.
</event>
<event>
 4    1  0.5818436E+000  0.2095528E+03  0.7818608E-02  0.1141921E+00
         21   -1    0    0  503  502  0.00000000000E+00  0.00000000000E+00  0.45959788490E+03  0.45959788490E+03  0.00000000000E+00 0. -1.
         21   -1    0    0  501  503 -0.00000000000E+00 -0.00000000000E+00 -0.10354662641E+03  0.10354662641E+03  0.00000000000E+00 0. -1.
          6    1    1    2  501    0  0.42391514655E+02 -0.11194343368E+03  0.99753791654E+02  0.23208444974E+03  0.17200000000E+03 0.  1.
         -6    1    1    2    0  502 -0.42391514655E+02  0.11194343368E+03  0.25629746684E+03  0.33106006157E+03  0.17200000000E+03 0.  1.
</event>
<event>
 4    1  0.5818436E+000  0.2649596E+03  0.7818608E-02  0.1104200E+00
         21   -1    0    0  503  502  0.00000000000E+00  0.00000000000E+00  0.75598869246E+02  0.75598869246E+02  0.00000000000E+00 0.  1.
         21   -1    0    0  501  503 -0.00000000000E+00 -0.00000000000E+00 -0.98491916128E+03  0.98491916128E+03  0.00000000000E+00 0.  1.
          6    1    1    2  501    0  0.18230738939E+03 -0.85927780062E+02 -0.58142255327E+03  0.63894894402E+03  0.17200000000E+03 0.  1.
         -6    1    1    2    0  502 -0.18230738939E+03  0.85927780062E+02 -0.32789773876E+03  0.42156908650E+03  0.17200000000E+03 0.  1.
</event>
<event>
 4    1  0.5818436E+000  0.4749347E+03  0.7818608E-02  0.1020537E+00
         21   -1    0    0  501  502  0.00000000000E+00  0.00000000000E+00  0.41823191496E+03  0.41823191496E+03  0.00000000000E+00 0. -1.
         21   -1    0    0  502  503 -0.00000000000E+00 -0.00000000000E+00 -0.76055375104E+03  0.76055375104E+03  0.00000000000E+00 0.  1.
          6    1    1    2  501    0  0.42852261165E+03 -0.11111841127E+03 -0.48903906461E+03  0.68170531518E+03  0.17200000000E+03 0.  1.
         -6    1    1    2    0  503 -0.42852261165E+03  0.11111841127E+03  0.14671722854E+03  0.49708035082E+03  0.17200000000E+03 0. -1.
</event>
<event>
 4    1  0.5818436E+000  0.1744449E+03  0.7818608E-02  0.1173290E+00
         21   -1    0    0  501  502  0.00000000000E+00  0.00000000000E+00  0.42832608766E+02  0.42832608766E+02  0.00000000000E+00 0.  1.
         21   -1    0    0  502  503 -0.00000000000E+00 -0.00000000000E+00 -0.71551489213E+03  0.71551489213E+03  0.00000000000E+00 0.  1.
          6    1    1    2  501    0 -0.26512623635E+02  0.12004412119E+02 -0.36819884103E+03  0.40743270813E+03  0.17200000000E+03 0. -1.
         -6    1    1    2    0  503  0.26512623635E+02 -0.12004412119E+02 -0.30448344234E+03  0.35091479276E+03  0.17200000000E+03 0. -1.
</event>
<event>
 4    1  0.5818436E+000  0.2554871E+03  0.7818608E-02  0.1109885E+00
         21   -1    0    0  501  502  0.00000000000E+00  0.00000000000E+00  0.57416268878E+03  0.57416268878E+03  0.00000000000E+00 0.  1.
         21   -1    0    0  502  503 -0.00000000000E+00 -0.00000000000E+00 -0.11802199254E+03  0.11802199254E+03  0.00000000000E+00 0.  1.
          6    1    1    2  501    0 -0.51786953027E+02 -0.18168037673E+03  0.29441533655E+03  0.38981282456E+03  0.17200000000E+03 0.  1.
         -6    1    1    2    0  503  0.51786953027E+02  0.18168037673E+03  0.16172535969E+03  0.30237185676E+03  0.17200000000E+03 0.  1.
</event>
<event>
 4    1  0.5818436E+000  0.1807491E+03  0.7818608E-02  0.1167080E+00
         21   -1    0    0  503  502  0.00000000000E+00  0.00000000000E+00  0.60332047587E+03  0.60332047587E+03  0.00000000000E+00 0. -1.
         21   -1    0    0  501  503 -0.00000000000E+00 -0.00000000000E+00 -0.16679704317E+03  0.16679704317E+03  0.00000000000E+00 0. -1.
          6    1    1    2  501    0 -0.13299042906E+02 -0.53938507213E+02 -0.98178286163E+02  0.20569201000E+03  0.17200000000E+03 0. -1.
         -6    1    1    2    0  502  0.13299042906E+02  0.53938507213E+02  0.53470171886E+03  0.56442550904E+03  0.17200000000E+03 0. -1.
</event>
<event>
 4    1  0.5818436E+000  0.2309406E+03  0.7818608E-02  0.1125980E+00
         21   -1    0    0  501  502  0.00000000000E+00  0.00000000000E+00  0.76703110085E+03  0.76703110085E+03  0.00000000000E+00 0. -1.
         21   -1    0    0  502  503 -0.00000000000E+00 -0.00000000000E+00 -0.55805284525E+03  0.55805284525E+03  0.00000000000E+00 0.  1.
          6    1    1    2  501    0 -0.97171735033E+02 -0.11961267573E+03  0.72438263991E+03  0.76030503568E+03  0.17200000000E+03 0. -1.
         -6    1    1    2    0  503  0.97171735033E+02  0.11961267573E+03 -0.51540438431E+03  0.56477891041E+03  0.17200000000E+03 0.  1.
</event>
<event>
 4    1  0.5818436E+000  0.2185372E+03  0.7818608E-02  0.1134978E+00
         21   -1    0    0  503  502  0.00000000000E+00  0.00000000000E+00  0.27554205072E+02  0.27554205072E+02  0.00000000000E+00 0. -1.
         21   -1    0    0  501  503 -0.00000000000E+00 -0.00000000000E+00 -0.17462364621E+04  0.17462364621E+04  0.00000000000E+00 0. -1.
          6    1    1    2  501    0  0.10464514688E+03  0.84993628721E+02 -0.93580323093E+03  0.96098189926E+03  0.17200000000E+03 0.  1.
         -6    1    1    2    0  502 -0.10464514688E+03 -0.84993628721E+02 -0.78287902609E+03  0.81280876790E+03  0.17200000000E+03 0.  1.
</event>
<event>
 4    1  0.5818436E+000  0.1884644E+03  0.7818608E-02  0.1159854E+00
         21   -1    0    0  503  502  0.00000000000E+00  0.00000000000E+00  0.10963733911E+03  0.10963733911E+03  0.00000000000E+00 0. -1.
         21   -1    0    0  501  503 -0.00000000000E+00 -0.00000000000E+00 -0.46958024678E+03  0.46958024678E+03  0.00000000000E+00 0. -1.
          6    1    1    2  501    0 -0.57178088220E+02 -0.51628423616E+02 -0.34124308661E+03  0.38982774665E+03  0.17200000000E+03 0. -1.
         -6    1    1    2    0  502  0.57178088220E+02  0.51628423616E+02 -0.18699821062E+02  0.18938983923E+03  0.17200000000E+03 0. -1.
</event>
<event>
 4    1  0.5818436E+000  0.1998913E+03  0.7818608E-02  0.1149831E+00
         21   -1    0    0  501  502  0.00000000000E+00  0.00000000000E+00  0.41916372191E+02  0.41916372191E+02  0.00000000000E+00 0. -1.
         21   -1    0    0  502  503 -0.00000000000E+00 -0.00000000000E+00 -0.13972979745E+04  0.13972979745E+04  0.00000000000E+00 0. -1.
          6    1    1    2  501    0 -0.37178630625E+02 -0.94817102647E+02 -0.27202461210E+03  0.33757061945E+03  0.17200000000E+03 0. -1.
         -6    1    1    2    0  503  0.37178630625E+02  0.94817102647E+02 -0.10833569902E+04  0.11016437272E+04  0.17200000000E+03 0. -1.
</event>
<event>
 4    1  0.5818436E+000  0.1906588E+03  0.7818608E-02  0.1157868E+00
         21   -1    0    0  503  502  0.00000000000E+00  0.00000000000E+00  0.28464490981E+03  0.28464490981E+03  0.00000000000E+00 0.  1.
         21   -1    0    0  501  503 -0.00000000000E+00 -0.00000000000E+00 -0.15001162543E+03  0.15001162543E+03  0.00000000000E+00 0. -1.
          6    1    1    2  501    0  0.77124433146E+02 -0.28611181386E+02 -0.16487187979E+02  0.19137033536E+03  0.17200000000E+03 0. -1.
         -6    1    1    2    0  502 -0.77124433146E+02  0.28611181386E+02  0.15112047236E+03  0.24328619988E+03  0.17200000000E+03 0.  1.
</event>
<event>
 4    1  0.5818436E+000  0.2791534E+03  0.7818608E-02  0.1096152E+00
         21   -1    0    0  503  502  0.00000000000E+00  0.00000000000E+00  0.16265504947E+03  0.16265504947E+03  0.00000000000E+00 0. -1.
         21   -1    0    0  501  503 -0.00000000000E+00 -0.00000000000E+00 -0.68737986775E+03  0.68737986775E+03  0.00000000000E+00 0. -1.
          6    1    1    2  501    0 -0.18716132938E+03  0.11538313845E+03 -0.49632207967E+03  0.56944028539E+03  0.17200000000E+03 0. -1.
         -6    1    1    2    0  502  0.18716132938E+03 -0.11538313845E+03 -0.28402738615E+02  0.28059463183E+03  0.17200000000E+03 0. -1.
</event>
<event>
 4    1  0.5818436E+000  0.3622813E+03  0.7818608E-02  0.1057684E+00
         21   -1    0    0  503  502  0.00000000000E+00  0.00000000000E+00  0.14556643586E+03  0.14556643586E+03  0.00000000000E+00 0. -1.
         21   -1    0    0  501  503 -0.00000000000E+00 -0.00000000000E+00 -0.93962238153E+03  0.93962238153E+03  0.00000000000E+00 0.  1.
          6    1    1    2  501    0  0.29839328618E+03 -0.11236196354E+03 -0.50612664580E+03  0.62242424895E+03  0.17200000000E+03 0.  1.
         -6    1    1    2    0  502 -0.29839328618E+03  0.11236196354E+03 -0.28792929986E+03  0.46276456844E+03  0.17200000000E+03 0. -1.
</event>
<event>
 4    1  0.5818436E+000  0.1757224E+03  0.7818608E-02  0.1172008E+00
         21   -1    0    0  503  502  0.00000000000E+00  0.00000000000E+00  0.19142427400E+03  0.19142427400E+03  0.00000000000E+00 0. -1.
         21   -1    0    0  501  503 -0.00000000000E+00 -0.00000000000E+00 -0.17243562130E+03  0.17243562130E+03  0.00000000000E+00 0. -1.
          6    1    1    2  501    0 -0.26992380566E+01  0.35875699124E+02 -0.36720701230E+02  0.17951813717E+03  0.17200000000E+03 0.  1.
         -6    1    1    2    0  502  0.26992380566E+01 -0.35875699124E+02  0.55709353933E+02  0.18434175813E+03  0.17200000000E+03 0.  1.
</event>
<event>
 4    1  0.5818436E+000  0.1731568E+03  0.7818608E-02  0.1174595E+00
         21   -1    0    0  501  502  0.00000000000E+00  0.00000000000E+00  0.15144890135E+03  0.15144890135E+03  0.00000000000E+00 0. -1.
         21   -1    0    0  502  503 -0.00000000000E+00 -0.00000000000E+00 -0.41462796241E+03  0.41462796241E+03  0.00000000000E+00 0. -1.
          6    1    1    2  501    0  0.90646680728E+01 -0.17807509756E+02  0.73006519342E+02  0.18791814036E+03  0.17200000000E+03 0. -1.
         -6    1    1    2    0  503 -0.90646680728E+01  0.17807509756E+02 -0.33618558040E+03  0.37815872340E+03  0.17200000000E+03 0. -1.
</event>
<event>
 4    1  0.5818436E+000  0.2342968E+03  0.7818608E-02  0.1123651E+00
         21   -1    0    0  503  502  0.00000000000E+00  0.00000000000E+00  0.43804854290E+02  0.43804854290E+02  0.00000000000E+00 0.  1.
         21   -1    0    0  501  503 -0.00000000000E+00 -0.00000000000E+00 -0.13484697604E+04  0.13484697604E+04  0.00000000000E+00 0.  1.
          6    1    1    2  501    0 -0.41995003000E+02 -0.15345168500E+03 -0.83739414665E+03  0.86955388376E+03  0.17200000000E+03 0.  1.
         -6    1    1    2    0  502  0.41995003000E+02  0.15345168500E+03 -0.46727075946E+03  0.52272073094E+03  0.17200000000E+03 0.  1.
</event>
<event>
 4    1  0.5818436E+000  0.1853032E+03  0.7818608E-02  0.1162767E+00
         21   -1    0    0  501  502  0.00000000000E+00  0.00000000000E+00  0.21998646498E+03  0.21998646498E+03  0.00000000000E+00 0.  1.
         21   -1    0    0  502  503 -0.00000000000E+00 -0.00000000000E+00 -0.15618588202E+03  0.15618588202E+03  0.00000000000E+00 0. -1.
          6    1    1    2  501    0 -0.65619266096E+02 -0.21151168266E+02  0.27193122585E+02  0.18728781572E+03  0.17200000000E+03 0.  1.
         -6    1    1    2    0  503  0.65619266096E+02  0.21151168266E+02  0.36607460379E+02  0.18888453128E+03  0.17200000000E+03 0. -1.
</event>
<event>
 4    1  0.5818436E+000  0.1782417E+03  0.7818608E-02  0.1169516E+00
         21   -1    0    0  501  502  0.00000000000E+00  0.00000000000E+00  0.53079484305E+03  0.53079484305E+03  0.00000000000E+00 0. -1.
         21   -1    0    0  502  503 -0.00000000000E+00 -0.00000000000E+00 -0.17062680204E+03  0.17062680204E+03  0.00000000000E+00 0. -1.
          6    1    1    2  501    0  0.35394851264E+02  0.30550325442E+02  0.46266465518E+03  0.49581115461E+03  0.17200000000E+03 0. -1.
         -6    1    1    2    0  503 -0.35394851264E+02 -0.30550325442E+02 -0.10249661417E+03  0.20561049048E+03  0.17200000000E+03 0. -1.
</event>
<event>
 4    1  0.5818436E+000  0.2789459E+03  0.7818608E-02  0.1096266E+00
         21   -1    0    0  501  502  0.00000000000E+00  0.00000000000E+00  0.66837952149E+03  0.66837952149E+03  0.00000000000E+00 0. -1.
         21   -1    0    0  502  503 -0.00000000000E+00 -0.00000000000E+00 -0.11723370881E+03  0.11723370881E+03  0.00000000000E+00 0.  1.
          6    1    1    2  501    0  0.20492560992E+03  0.78944888337E+02  0.24278894714E+03  0.36980707653E+03  0.17200000000E+03 0. -1.
         -6    1    1    2    0  503 -0.20492560992E+03 -0.78944888337E+02  0.30835686554E+03  0.41580615378E+03  0.17200000000E+03 0.  1.
</event>
<event>
 4    1  0.5818436E+000  0.2169454E+03  0.7818608E-02  0.1136181E+00
         21   -1    0    0  503  502  0.00000000000E+00  0.00000000000E+00  0.32115108208E+03  0.32115108208E+03  0.00000000000E+00 0.  1.
         21   -1    0    0  501  503 -0.00000000000E+00 -0.00000000000E+00 -0.19987147622E+03  0.19987147622E+03  0.00000000000E+00 0.  1.
          6    1    1    2  501    0 -0.89279454723E+02  0.97521735681E+02 -0.73913497661E+02  0.22919100136E+03  0.17200000000E+03 0.  1.
         -6    1    1    2    0  502  0.89279454723E+02 -0.97521735681E+02  0.19519310352E+03  0.29183155694E+03  0.17200000000E+03 0.  1.
</event>
<event>
 4    1  0.5818436E+000  0.2146005E+03  0.7818608E-02  0.1137974E+00
         21   -1    0    0  501  502  0.00000000000E+00  0.00000000000E+00  0.47055410611E+03  0.47055410611E+03  0.00000000000E+00 0.  1.
         21   -1    0    0  502  503 -0.00000000000E+00 -0.00000000000E+00 -0.11372910273E+03  0.11372910273E+03  0.00000000000E+00 0.  1.
          6    1    1    2  501    0 -0.87967501668E+02 -0.93440423223E+02  0.28750358065E+03  0.35876413272E+03  0.17200000000E+03 0.  1.
         -6    1    1    2    0  503  0.87967501668E+02  0.93440423223E+02  0.69321422733E+02  0.22551907611E+03  0.17200000000E+03 0.  1.
</event>
<event>
 4    1  0.5818436E+000  0.2865444E+03  0.7818608E-02  0.1092167E+00
         21   -1    0    0  503  502  0.00000000000E+00  0.00000000000E+00  0.30125310610E+03  0.30125310610E+03  0.00000000000E+00 0. -1.
         21   -1    0    0  501  503 -0.00000000000E+00 -0.00000000000E+00 -0.29052275565E+03  0.29052275565E+03  0.00000000000E+00 0.  1.
          6    1    1    2  501    0 -0.74423296172E+02  0.21675998071E+03  0.78951496245E+02  0.29722223169E+03  0.17200000000E+03 0. -1.
         -6    1    1    2    0  502  0.74423296172E+02 -0.21675998071E+03 -0.68221145794E+02  0.29455363007E+03  0.17200000000E+03 0.  1.
</event>
<event>
 4    1  0.5818436E+000  0.1766891E+03  0.7818608E-02  0.1171046E+00
         21   -1    0    0  503  502  0.00000000000E+00  0.00000000000E+00  0.10274734201E+03  0.10274734201E+03  0.00000000000E+00 0. -1.
         21   -1    0    0  501  503 -0.00000000000E+00 -0.00000000000E+00 -0.36518967197E+03  0.36518967197E+03  0.00000000000E+00 0. -1.
          6    1    1    2  501    0  0.40021785133E+02  0.57711689291E+01 -0.22711574066E+03  0.28775095019E+03  0.17200000000E+03 0. -1.
         -6    1    1    2    0  502 -0.40021785133E+02 -0.57711689291E+01 -0.35326589294E+02  0.18018606380E+03  0.17200000000E+03 0. -1.
</event>
<event>
 4    1  0.5818436E+000  0.1781420E+03  0.7818608E-02  0.1169613E+00
         21   -1    0    0  503  502  0.00000000000E+00  0.00000000000E+00  0.49430262552E+03  0.49430262552E+03  0.00000000000E+00 0. -1.
         21   -1    0    0  501  503 -0.00000000000E+00 -0.00000000000E+00 -0.81874023844E+02  0.81874023844E+02  0.00000000000E+00 0. -1.
          6    1    1    2  501    0  0.13082565581E+02 -0.44490494036E+02  0.34006237614E+03  0.38389709200E+03  0.17200000000E+03 0. -1.
         -6    1    1    2    0  502 -0.13082565581E+02  0.44490494036E+02  0.72366225540E+02  0.19227955737E+03  0.17200000000E+03 0. -1.
</event>
<event>
 4    1  0.5818436E+000  0.1853462E+03  0.7818608E-02  0.1162727E+00
         21   -1    0    0  503  502  0.00000000000E+00  0.00000000000E+00  0.13140699792E+04  0.13140699792E+04  0.00000000000E+00 0.  1.
         21   -1    0    0  501  503 -0.00000000000E+00 -0.00000000000E+00 -0.34759766167E+02  0.34759766167E+02  0.00000000000E+00 0.  1.
          6    1    1    2  501    0 -0.53065853384E+02  0.44195448778E+02  0.30386288590E+03  0.35592959404E+03  0.17200000000E+03 0.  1.
         -6    1    1    2    0  502  0.53065853384E+02 -0.44195448778E+02  0.97544732716E+03  0.99290015135E+03  0.17200000000E+03 0.  1.
</event>
<event>
 4    1  0.5818436E+000  0.2538031E+03  0.7818608E-02  0.1110925E+00
         21   -1    0    0  503  502  0.00000000000E+00  0.00000000000E+00  0.20622746249E+03  0.20622746249E+03  0.00000000000E+00 0. -1.
         21   -1    0    0  501  503 -0.00000000000E+00 -0.00000000000E+00 -0.60174897534E+03  0.60174897534E+03  0.00000000000E+00 0.  1.
          6    1    1    2  501    0 -0.13076279116E+02  0.18617469602E+03 -0.47792092579E+03  0.54113253259E+03  0.17200000000E+03 0.  1.
         -6    1    1    2    0  502  0.13076279116E+02 -0.18617469602E+03  0.82399412942E+02  0.26684390525E+03  0.17200000000E+03 0. -1.
</event>
<event>
 4    1  0.5818436E+000  0.1820285E+03  0.7818608E-02  0.1165854E+00
         21   -1    0    0  503  502  0.00000000000E+00  0.00000000000E+00  0.51374142149E+03  0.51374142149E+03  0.00000000000E+00 0. -1.
         21   -1    0    0  501  503 -0.00000000000E+00 -0.00000000000E+00 -0.21128575758E+03  0.21128575758E+03  0.00000000000E+00 0. -1.
          6    1    1    2  501    0 -0.21546673829E+02 -0.55552963311E+02 -0.15093197838E+03  0.23646321698E+03  0.17200000000E+03 0. -1.
         -6    1    1    2    0  502  0.21546673829E+02  0.55552963311E+02  0.45338764228E+03  0.48856396210E+03  0.17200000000E+03 0. -1.
</event>
<event>
 4    1  0.5818436E+000  0.2218453E+03  0.7818608E-02  0.1132515E+00
         21   -1    0    0  501  502  0.00000000000E+00  0.00000000000E+00  0.78844661534E+03  0.78844661534E+03  0.00000000000E+00 0.  1.
         21   -1    0    0  502  503 -0.00000000000E+00 -0.00000000000E+00 -0.89710209113E+02  0.89710209113E+02  0.00000000000E+00 0.  1.
          6    1    1    2  501    0  0.10716671346E+03  0.90258600928E+02  0.59153785646E+03  0.63176922617E+03  0.17200000000E+03 0.  1.
         -6    1    1    2    0  503 -0.10716671346E+03 -0.90258600928E+02  0.10719854977E+03  0.24638759828E+03  0.17200000000E+03 0.  1.
</event>
<event>
 4    1  0.5818436E+000  0.1999137E+03  0.7818608E-02  0.1149812E+00
         21   -1    0    0  501  502  0.00000000000E+00  0.00000000000E+00  0.43135525227E+03  0.43135525227E+03  0.00000000000E+00 0. -1.
         21   -1    0    0  502  503 -0.00000000000E+00 -0.00000000000E+00 -0.10706384624E+03  0.10706384624E+03  0.00000000000E+00 0.  1.
          6    1    1    2  501    0  0.96623723328E+02 -0.32331748628E+02  0.26092006935E+03  0.32870164050E+03  0.17200000000E+03 0. -1.
         -6    1    1    2    0  503 -0.96623723328E+02  0.32331748628E+02  0.63371336686E+02  0.20971745801E+03  0.17200000000E+03 0.  1.
</event>
<event>
 4    1  0.5818436E+000  0.1809125E+03  0.7818608E-02  0.1166923E+00
         21   -1    0    0  503  502  0.00000000000E+00  0.00000000000E+00  0.26507895552E+02  0.26507895552E+02  0.00000000000E+00 0.  1.
         21   -1    0    0  501  503 -0.00000000000E+00 -0.00000000000E+00 -0.12347838647E+04  0.12347838647E+04  0.00000000000E+00 0. -1.
          6    1    1    2  501    0  0.30934068733E+02  0.46780517708E+02 -0.60929445851E+03  0.63558561234E+03  0.17200000000E+03 0.  1.
         -6    1    1    2    0  502 -0.30934068733E+02 -0.46780517708E+02 -0.59898151063E+03  0.62570614790E+03  0.17200000000E+03 0. -1.
</event>
<event>
 4    1  0.5818436E+000  0.1798946E+03  0.7818608E-02  0.1167905E+00
         21   -1    0    0  503  502  0.00000000000E+00  0.00000000000E+00  0.75177145748E+02  0.75177145748E+02  0.00000000000E+00 0.  1.
         21   -1    0    0  501  503 -0.00000000000E+00 -0.00000000000E+00 -0.43639507143E+03  0.43639507143E+03  0.00000000000E+00 0.  1.
          6    1    1    2  501    0 -0.47057662887E+02 -0.23741485776E+02 -0.15082359819E+03  0.23475484990E+03  0.17200000000E+03 0.  1.
         -6    1    1    2    0  502  0.47057662887E+02  0.23741485776E+02 -0.21039432749E+03  0.27681736728E+03  0.17200000000E+03 0.  1.
</event>
<event>
 4    1  0.5818436E+000  0.1881191E+03  0.7818608E-02  0.1160169E+00
         21   -1    0    0  501  502  0.00000000000E+00  0.00000000000E+00  0.40339104489E+02  0.40339104489E+02  0.00000000000E+00 0. -1.
         21   -1    0    0  502  503 -0.00000000000E+00 -0.00000000000E+00 -0.97810154698E+03  0.97810154698E+03  0.00000000000E+00 0. -1.
          6    1    1    2  501    0  0.40309361463E+02 -0.64652564304E+02 -0.30539369955E+03  0.35868385860E+03  0.17200000000E+03 0. -1.
         -6    1    1    2    0  503 -0.40309361463E+02  0.64652564304E+02 -0.63236874294E+03  0.65975679287E+03  0.17200000000E+03 0. -1.
</event>
<event>
 4    1  0.5818436E+000  0.2610964E+03  0.7818608E-02  0.1106486E+00
         21   -1    0    0  501  502  0.00000000000E+00  0.00000000000E+00  0.27397597341E+03  0.27397597341E+03  0.00000000000E+00 0. -1.
         21   -1    0    0  502  503 -0.00000000000E+00 -0.00000000000E+00 -0.35192874777E+03  0.35192874777E+03  0.00000000000E+00 0. -1.
          6    1    1    2  501    0  0.19037186572E+03  0.48434448840E+02  0.13041592090E+03  0.29185553878E+03  0.17200000000E+03 0. -1.
         -6    1    1    2    0  503 -0.19037186572E+03 -0.48434448840E+02 -0.20836869526E+03  0.33404918239E+03  0.17200000000E+03 0. -1.
</event>
<event>
 4    1  0.5818436E+000  0.1878683E+03  0.7818608E-02  0.1160398E+00
         21   -1    0    0  503  502  0.00000000000E+00  0.00000000000E+00  0.16948991182E+03  0.16948991182E+03  0.00000000000E+00 0.  1.
         21   -1    0    0  501  503 -0.00000000000E+00 -0.00000000000E+00 -0.30632509890E+03  0.30632509890E+03  0.00000000000E+00 0.  1.
          6    1    1    2  501    0  0.67873734930E+02  0.33221137549E+02 -0.20304068596E+03  0.27662250094E+03  0.17200000000E+03 0.  1.
         -6    1    1    2    0  502 -0.67873734930E+02 -0.33221137549E+02  0.66205498877E+02  0.19919250979E+03  0.17200000000E+03 0.  1.
</event>
<event>
 4    1  0.5818436E+000  0.1942673E+03  0.7818608E-02  0.1154668E+00
         21   -1    0    0  503  502  0.00000000000E+00  0.00000000000E+00  0.14870360195E+04  0.14870360195E+04  0.00000000000E+00 0. -1.
         21   -1    0    0  501  503 -0.00000000000E+00 -0.00000000000E+00 -0.31834957979E+02  0.31834957979E+02  0.00000000000E+00 0. -1.
          6    1    1    2  501    0  0.57994624739E+02 -0.69227096479E+02  0.10695900180E+04  0.10870890368E+04  0.17200000000E+03 0. -1.
         -6    1    1    2    0  502 -0.57994624739E+02  0.69227096479E+02  0.38561104349E+03  0.43178194062E+03  0.17200000000E+03 0. -1.
</event>
<event>
 4    1  0.5818436E+000  0.1834736E+03  0.7818608E-02  0.1164483E+00
         21   -1    0    0  503  502  0.00000000000E+00  0.00000000000E+00  0.61239774532E+02  0.61239774532E+02  0.00000000000E+00 0.  1.
         21   -1    0    0  501  503 -0.00000000000E+00 -0.00000000000E+00 -0.85022704631E+03  0.85022704631E+03  0.00000000000E+00 0.  1.
          6    1    1    2  501    0  0.80513926881E+01  0.63354166590E+02 -0.66544799935E+03  0.69027792604E+03  0.17200000000E+03 0.  1.
         -6    1    1    2    0  502 -0.80513926881E+01 -0.63354166590E+02 -0.12353927243E+03  0.22118889479E+03  0.17200000000E+03 0.  1.
</event>
<event>
 4    1  0.5818436E+000  0.2485028E+03  0.7818608E-02  0.1114255E+00
         21   -1    0    0  503  502  0.00000000000E+00  0.00000000000E+00  0.83981913700E+03  0.83981913700E+03  0.00000000000E+00 0. -1.
         21   -1    0    0  501  503 -0.00000000000E+00 -0.00000000000E+00 -0.74165226412E+02  0.74165226412E+02  0.00000000000E+00 0.  1.
          6    1    1    2  501    0  0.15588327014E+03  0.88713252586E+02  0.34060231694E+03  0.42162017670E+03  0.17200000000E+03 0.  1.
         -6    1    1    2    0  502 -0.15588327014E+03 -0.88713252586E+02  0.42505159365E+03  0.49236418671E+03  0.17200000000E+03 0. -1.
</event>
<event>
 4    1  0.5818436E+000  0.1886136E+03  0.7818608E-02  0.1159718E+00
         21   -1    0    0  503  502  0.00000000000E+00  0.00000000000E+00  0.99907217700E+02  0.99907217700E+02  0.00000000000E+00 0. -1.
         21   -1    0    0  501  503 -0.00000000000E+00 -0.00000000000E+00 -0.96642035505E+03  0.96642035505E+03  0.00000000000E+00 0.  1.
          6    1    1    2  501    0  0.50245640917E+02  0.58876721859E+02 -0.85696117617E+03  0.87747225042E+03  0.17200000000E+03 0.  1.
         -6    1    1    2    0  502 -0.50245640917E+02 -0.58876721859E+02 -0.95519611838E+01  0.18885532233E+03  0.17200000000E+03 0. -1.
</event>
<event>
 4    1  0.5818436E+000  0.1766106E+03  0.7818608E-02  0.1171124E+00
         21   -1    0    0  503  502  0.00000000000E+00  0.00000000000E+00  0.89332299680E+03  0.89332299680E+03  0.00000000000E+00 0.  1.
         21   -1    0    0  501  503 -0.00000000000E+00 -0.00000000000E+00 -0.71236487327E+02  0.71236487327E+02  0.00000000000E+00 0.  1.
          6    1    1    2  501    0 -0.73252483035E-01 -0.40091260566E+02  0.66674865790E+02  0.18877725570E+03  0.17200000000E+03 0.  1.
         -6    1    1    2    0  502  0.73252483035E-01  0.40091260566E+02  0.75541164368E+03  0.77578222843E+03  0.17200000000E+03 0.  1.
</event>
<event>
 4    1  0.5818436E+000  0.1888120E+03  0.7818608E-02  0.1159537E+00
         21   -1    0    0  501  502  0.00000000000E+00  0.00000000000E+00  0.38888049820E+03  0.38888049820E+03  0.00000000000E+00 0.  1.
         21   -1    0    0  502  503 -0.00000000000E+00 -0.00000000000E+00 -0.14560219638E+03  0.14560219638E+03  0.00000000000E+00 0.  1.
          6    1    1    2  501    0 -0.69649359471E+02  0.34856073282E+02  0.28428022851E+03  0.34127002131E+03  0.17200000000E+03 0.  1.
         -6    1    1    2    0  503  0.69649359471E+02 -0.34856073282E+02 -0.41001926694E+02  0.19321267327E+03  0.17200000000E+03 0.  1.
</event>
<event>
 4    1  0.5818436E+000  0.1787878E+03  0.7818608E-02  0.1168981E+00
         21   -1    0    0  503  502  0.00000000000E+00  0.00000000000E+00  0.25517442986E+03  0.25517442986E+03  0.00000000000E+00 0. -1.
         21   -1    0    0  501  503 -0.00000000000E+00 -0.00000000000E+00 -0.12583700003E+03  0.12583700003E+03  0.00000000000E+00 0. -1.
          6    1    1    2  501    0 -0.11127814894E+02 -0.47510512906E+02  0.51853394283E+02  0.18615545009E+03  0.17200000000E+03 0. -1.
         -6    1    1    2    0  502  0.11127814894E+02  0.47510512906E+02  0.77484035548E+02  0.19485597980E+03  0.17200000000E+03 0. -1.
</event>
<event>
 4    1  0.5818436E+000  0.2455128E+03  0.7818608E-02  0.1116174E+00
         21   -1    0    0  501  502  0.00000000000E+00  0.00000000000E+00  0.57622217215E+02  0.57622217215E+02  0.00000000000E+00 0.  1.
         21   -1    0    0  502  503 -0.00000000000E+00 -0.00000000000E+00 -0.11762579803E+04  0.11762579803E+04  0.00000000000E+00 0. -1.
          6    1    1    2  501    0  0.43079620083E+02 -0.16981372129E+03 -0.35406635768E+03  0.43085907121E+03  0.17200000000E+03 0.  1.
         -6    1    1    2    0  503 -0.43079620083E+02  0.16981372129E+03 -0.76456940540E+03  0.80302112630E+03  0.17200000000E+03 0. -1.
</event>
<event>
 4    1  0.5818436E+000  0.2385412E+03  0.7818608E-02  0.1120768E+00
         21   -1    0    0  503  502  0.00000000000E+00  0.00000000000E+00  0.13327638565E+04  0.13327638565E+04  0.00000000000E+00 0. -1.
         21   -1    0    0  501  503 -0.00000000000E+00 -0.00000000000E+00 -0.68224692986E+02  0.68224692986E+02  0.00000000000E+00 0.  1.
          6    1    1    2  501    0  0.13178906282E+03 -0.99747395078E+02  0.20376104158E+03  0.31372035632E+03  0.17200000000E+03 0.  1.
         -6    1    1    2    0  502 -0.13178906282E+03  0.99747395078E+02  0.10607781220E+04  0.10872681932E+04  0.17200000000E+03 0. -1.
</event>
<event>
 4    1  0.5818436E+000  0.2956033E+03  0.7818608E-02  0.1087459E+00
         21   -1    0    0  501  502  0.00000000000E+00  0.00000000000E+00  0.87838770000E+02  0.87838770000E+02  0.00000000000E+00 0.  1.
         21   -1    0    0  502  503 -0.00000000000E+00 -0.00000000000E+00 -0.10034772836E+04  0.10034772836E+04  0.00000000000E+00 0.  1.
          6    1    1    2  501    0 -0.23815918211E+03  0.32825551441E+02 -0.50858336223E+03  0.58825024368E+03  0.17200000000E+03 0.  1.
         -6    1    1    2    0  503  0.23815918211E+03 -0.32825551441E+02 -0.40705515135E+03  0.50306580990E+03  0.17200000000E+03 0.  1.
</event>
<event>
 4    1  0.5818436E+000  0.2082880E+03  0.7818608E-02  0.1142929E+00
         21   -1    0    0  501  502  0.00000000000E+00  0.00000000000E+00  0.24571159910E+03  0.24571159910E+03  0.00000000000E+00 0.  1.
         21   -1    0    0  502  503 -0.00000000000E+00 -0.00000000000E+00 -0.17770898592E+03  0.17770898592E+03  0.00000000000E+00 0.  1.
          6    1    1    2  501    0 -0.34679879907E+02  0.11223714556E+03  0.17009083609E+02  0.20898129065E+03  0.17200000000E+03 0.  1.
         -6    1    1    2    0  503  0.34679879907E+02 -0.11223714556E+03  0.50993529563E+02  0.21443929437E+03  0.17200000000E+03 0.  1.
</event>
<event>
 4    1  0.5818436E+000  0.2128655E+03  0.7818608E-02  0.1139317E+00
         21   -1    0    0  501  502  0.00000000000E+00  0.00000000000E+00  0.12947141474E+03  0.12947141474E+03  0.00000000000E+00 0.  1.
         21   -1    0    0  502  503 -0.00000000000E+00 -0.00000000000E+00 -0.35063051871E+03  0.35063051871E+03  0.00000000000E+00 0. -1.
          6    1    1    2  501    0  0.12487951894E+03  0.11525739907E+02 -0.12096023670E+03  0.24483283235E+03  0.17200000000E+03 0. -1.
         -6    1    1    2    0  503 -0.12487951894E+03 -0.11525739907E+02 -0.10019886727E+03  0.23526910111E+03  0.17200000000E+03 0. -1.
</event>
<event>
 4    1  0.5818436E+000  0.2498029E+03  0.7818608E-02  0.1113429E+00
         21   -1    0    0  503  502  0.00000000000E+00  0.00000000000E+00  0.12772285241E+03  0.12772285241E+03  0.00000000000E+00 0. -1.
         21   -1    0    0  501  503 -0.00000000000E+00 -0.00000000000E+00 -0.79382632463E+03  0.79382632463E+03  0.00000000000E+00 0. -1.
          6    1    1    2  501    0 -0.12061398886E+03 -0.13516568946E+03 -0.61878343236E+03  0.66730385439E+03  0.17200000000E+03 0. -1.
         -6    1    1    2    0  502  0.12061398886E+03  0.13516568946E+03 -0.47320039869E+02  0.25424532265E+03  0.17200000000E+03 0. -1.
</event>
<event>
 4    1  0.5818436E+000  0.1760430E+03  0.7818608E-02  0.1171689E+00
         21   -1    0    0  503  502  0.00000000000E+00  0.00000000000E+00  0.47504966245E+02  0.47504966245E+02  0.00000000000E+00 0.  1.
         21   -1    0    0  501  503 -0.00000000000E+00 -0.00000000000E+00 -0.18625709839E+04  0.18625709839E+04  0.00000000000E+00 0.  1.
          6    1    1    2  501    0 -0.25602366943E+02 -0.27416374622E+02 -0.16773575493E+04  0.16865703326E+04  0.17200000000E+03 0.  1.
         -6    1    1    2    0  502  0.25602366943E+02  0.27416374622E+02 -0.13770846834E+03  0.22350561747E+03  0.17200000000E+03 0.  1.
</event>
<event>
 4    1  0.5818436E+000  0.2827577E+03  0.7818608E-02  0.1094192E+00
         21   -1    0    0  503  502  0.00000000000E+00  0.00000000000E+00  0.31034776571E+03  0.31034776571E+03  0.00000000000E+00 0.  1.
         21   -1    0    0  501  503 -0.00000000000E+00 -0.00000000000E+00 -0.51882753547E+03  0.51882753547E+03  0.00000000000E+00 0. -1.
          6    1    1    2  501    0  0.15795899534E+03  0.15942664043E+03 -0.39840923328E+03  0.48855072925E+03  0.17200000000E+03 0. -1.
         -6    1    1    2    0  502 -0.15795899534E+03 -0.15942664043E+03  0.18992946353E+03  0.34062457193E+03  0.17200000000E+03 0.  1.
</event>
<event>
 4    1  0.5818436E+000  0.1729924E+03  0.7818608E-02  0.1174763E+00
         21   -1    0    0  501  502  0.00000000000E+00  0.00000000000E+00  0.98461148467E+02  0.98461148467E+02  0.00000000000E+00 0.  1.
         21   -1    0    0  502  503 -0.00000000000E+00 -0.00000000000E+00 -0.30476164371E+03  0.30476164371E+03  0.00000000000E+00 0.  1.
          6    1    1    2  501    0 -0.92839004993E+01 -0.16005605022E+02 -0.92687677527E+02  0.19625844126E+03  0.17200000000E+03 0.  1.
         -6    1    1    2    0  503  0.92839004993E+01  0.16005605022E+02 -0.11361281772E+03  0.20696435092E+03  0.17200000000E+03 0.  1.
</event>
<event>
 4    1  0.5818436E+000  0.2549456E+03  0.7818608E-02  0.1110219E+00
         21   -1    0    0  501  502  0.00000000000E+00  0.00000000000E+00  0.86435753921E+03  0.86435753921E+03  0.00000000000E+00 0. -1.
         21   -1    0    0  502  503 -0.00000000000E+00 -0.00000000000E+00 -0.83396279172E+02  0.83396279172E+02  0.00000000000E+00 0.  1.
          6    1    1    2  501    0 -0.10646840729E+03 -0.15517010615E+03  0.53906537862E+03  0.59631264117E+03  0.17200000000E+03 0.  1.
         -6    1    1    2    0  503  0.10646840729E+03  0.15517010615E+03  0.24189588143E+03  0.35144117722E+03  0.17200000000E+03 0. -1.
</event>
<event>
 4    1  0.5818436E+000  0.1745207E+03  0.7818608E-02  0.1173214E+00
         21   -1    0    0  503  502  0.00000000000E+00  0.00000000000E+00  0.87214940124E+02  0.87214940124E+02  0.00000000000E+00 0. -1.
         21   -1    0    0  501  503 -0.00000000000E+00 -0.00000000000E+00 -0.35829770323E+03  0.35829770323E+03  0.00000000000E+00 0. -1.
          6    1    1    2  501    0  0.27778160752E+02 -0.10092286843E+02 -0.17099164426E+03  0.24432687711E+03  0.17200000000E+03 0.  1.
         -6    1    1    2    0  502 -0.27778160752E+02  0.10092286843E+02 -0.10009111884E+03  0.20118576624E+03  0.17200000000E+03 0.  1.
</event>
<event>
 4    1  0.5818436E+000  0.2222582E+03  0.7818608E-02  0.1132211E+00
         21   -1    0    0  503  502  0.00000000000E+00  0.00000000000E+00  0.16013583490E+03  0.16013583490E+03  0.00000000000E+00 0. -1.
         21   -1    0    0  501  503 -0.00000000000E+00 -0.00000000000E+00 -0.76932004565E+03  0.76932004565E+03  0.00000000000E+00 0. -1.
          6    1    1    2  501    0  0.72171547350E+02  0.12085525752E+03 -0.66427542416E+03  0.70047167299E+03  0.17200000000E+03 0. -1.
         -6    1    1    2    0  502 -0.72171547350E+02 -0.12085525752E+03  0.55091213411E+02  0.22898420756E+03  0.17200000000E+03 0. -1.
</event>
<event>
 4    1  0.5818436E+000  0.1947575E+03  0.7818608E-02  0.1154239E+00
         21   -1    0    0  501  502  0.00000000000E+00  0.00000000000E+00  0.36630260200E+03  0.36630260200E+03  0.00000000000E+00 0. -1.
         21   -1    0    0  502  503 -0.00000000000E+00 -0.00000000000E+00 -0.24551636634E+03  0.24551636634E+03  0.00000000000E+00 0. -1.
          6    1    1    2  501    0 -0.87167442571E+02 -0.27355569696E+02  0.29301258317E+03  0.35183357449E+03  0.17200000000E+03 0. -1.
         -6    1    1    2    0  503  0.87167442571E+02  0.27355569696E+02 -0.17222634752E+03  0.25998539386E+03  0.17200000000E+03 0. -1.
</event>
<event>
 4    1  0.5818436E+000  0.2410206E+03  0.7818608E-02  0.1119115E+00
         21   -1    0    0  501  502  0.00000000000E+00  0.00000000000E+00  0.48845110020E+03  0.48845110020E+03  0.00000000000E+00 0.  1.
         21   -1    0    0  502  503 -0.00000000000E+00 -0.00000000000E+00 -0.12987489040E+03  0.12987489040E+03  0.00000000000E+00 0. -1.
          6    1    1    2  501    0 -0.82124183741E+02 -0.14752132363E+03  0.89534140245E+02  0.25711336945E+03  0.17200000000E+03 0. -1.
         -6    1    1    2    0  503  0.82124183741E+02  0.14752132363E+03  0.26904206956E+03  0.36121262114E+03  0.17200000000E+03 0.  1.
</event>
<event>
 4    1  0.5818436E+000  0.1766377E+03  0.7818608E-02  0.1171097E+00
         21   -1    0    0  501  502  0.00000000000E+00  0.00000000000E+00  0.63574275051E+03  0.63574275051E+03  0.00000000000E+00 0.  1.
         21   -1    0    0  502  503 -0.00000000000E+00 -0.00000000000E+00 -0.49716824403E+02  0.49716824403E+02  0.00000000000E+00 0.  1.
          6    1    1    2  501    0 -0.10900642653E+02  0.38704570272E+02  0.33186845007E+03  0.37594884748E+03  0.17200000000E+03 0. -1.
         -6    1    1    2    0  503  0.10900642653E+02 -0.38704570272E+02  0.25415747603E+03  0.30951072743E+03  0.17200000000E+03 0. -1.
</event>
<event>
 4    1  0.5818436E+000  0.2091755E+03  0.7818608E-02  0.1142221E+00
         21   -1    0    0  501  502  0.00000000000E+00  0.00000000000E+00  0.28781850784E+04  0.28781850784E+04  0.00000000000E+00 0.  1.
         21   -1    0    0  502  503 -0.00000000000E+00 -0.00000000000E+00 -0.40803735616E+02  0.40803735616E+02  0.00000000000E+00 0. -1.
          6    1    1    2  501    0  0.53783254884E+02 -0.10619666182E+03  0.25747672098E+04  0.25832499984E+04  0.17200000000E+03 0.  1.
         -6    1    1    2    0  503 -0.53783254884E+02  0.10619666182E+03  0.26261413303E+03  0.33573881568E+03  0.17200000000E+03 0. -1.
</event>
<event>
 4    1  0.5818436E+000  0.3498795E+03  0.7818608E-02  0.1062665E+00
         21   -1    0    0  501  502  0.00000000000E+00  0.00000000000E+00  0.17066160445E+03  0.17066160445E+03  0.00000000000E+00 0. -1.
         21   -1    0    0  502  503 -0.00000000000E+00 -0.00000000000E+00 -0.77549932909E+03  0.77549932909E+03  0.00000000000E+00 0. -1.
          6    1    1    2  501    0 -0.23531038659E+03 -0.19354756731E+03 -0.43201789579E+03  0.55592724445E+03  0.17200000000E+03 0. -1.
         -6    1    1    2    0  503  0.23531038659E+03  0.19354756731E+03 -0.17281982886E+03  0.39023368908E+03  0.17200000000E+03 0. -1.
</event>
<event>
 4    1  0.5818436E+000  0.1902321E+03  0.7818608E-02  0.1158252E+00
         21   -1    0    0  503  502  0.00000000000E+00  0.00000000000E+00  0.42464507365E+03  0.42464507365E+03  0.00000000000E+00 0. -1.
         21   -1    0    0  501  503 -0.00000000000E+00 -0.00000000000E+00 -0.95144618923E+02  0.95144618923E+02  0.00000000000E+00 0. -1.
          6    1    1    2  501    0  0.18662976656E+02 -0.79094463849E+02  0.80811360115E+02  0.20668506679E+03  0.17200000000E+03 0. -1.
         -6    1    1    2    0  502 -0.18662976656E+02  0.79094463849E+02  0.24868909461E+03  0.31310462578E+03  0.17200000000E+03 0. -1.
</event>
<event>
 4    1  0.5818436E+000  0.2466051E+03  0.7818608E-02  0.1115469E+00
         21   -1    0    0  501  502  0.00000000000E+00  0.00000000000E+00  0.96839697247E+03  0.96839697247E+03  0.00000000000E+00 0. -1.
         21   -1    0    0  502  503 -0.00000000000E+00 -0.00000000000E+00 -0.62894175536E+02  0.62894175536E+02  0.00000000000E+00 0.  1.
          6    1    1    2  501    0  0.50253872773E+02  0.16942437782E+03  0.47284190028E+03  0.53328560284E+03  0.17200000000E+03 0. -1.
         -6    1    1    2    0  503 -0.50253872773E+02 -0.16942437782E+03  0.43266089665E+03  0.49800554517E+03  0.17200000000E+03 0.  1.
</event>
<event>
 4    1  0.5818436E+000  0.2078926E+03  0.7818608E-02  0.1143246E+00
         21   -1    0    0  501  502  0.00000000000E+00  0.00000000000E+00  0.49385255597E+03  0.49385255597E+03  0.00000000000E+00 0. -1.
         21   -1    0    0  502  503 -0.00000000000E+00 -0.00000000000E+00 -0.11718978486E+03  0.11718978486E+03  0.00000000000E+00 0.  1.
          6    1    1    2  501    0  0.10177092192E+03  0.57253997119E+02  0.34207343827E+03  0.40029186590E+03  0.17200000000E+03 0. -1.
         -6    1    1    2    0  503 -0.10177092192E+03 -0.57253997119E+02  0.34589332837E+02  0.21075047493E+03  0.17200000000E+03 0.  1.
</event>
<event>
 4    1  0.5818436E+000  0.2558878E+03  0.7818608E-02  0.1109639E+00
         21   -1    0    0  501  502  0.00000000000E+00  0.00000000000E+00  0.17378997348E+03  0.17378997348E+03  0.00000000000E+00 0. -1.
         21   -1    0    0  502  503 -0.00000000000E+00 -0.00000000000E+00 -0.37718814108E+03  0.37718814108E+03  0.00000000000E+00 0.  1.
          6    1    1    2  501    0  0.15496162634E+03  0.10900218784E+03 -0.11088831791E+03  0.27888133971E+03  0.17200000000E+03 0.  1.
         -6    1    1    2    0  503 -0.15496162634E+03 -0.10900218784E+03 -0.92509849694E+02  0.27209677484E+03  0.17200000000E+03 0. -1.
</event>
<event>
 4    1  0.5818436E+000  0.2012622E+03  0.7818608E-02  0.1148678E+00
         21   -1    0    0  503  502  0.00000000000E+00  0.00000000000E+00  0.35857045514E+02  0.35857045514E+02  0.00000000000E+00 0.  1.
         21   -1    0    0  501  503 -0.00000000000E+00 -0.00000000000E+00 -0.12390206164E+04  0.12390206164E+04  0.00000000000E+00 0.  1.
          6    1    1    2  501    0 -0.10431368710E+03  0.64121756774E+01 -0.79095525325E+03  0.81615971106E+03  0.17200000000E+03 0. -1.
         -6    1    1    2    0  502  0.10431368710E+03 -0.64121756774E+01 -0.41220831769E+03  0.45871795090E+03  0.17200000000E+03 0. -1.
</event>
<event>
 4    1  0.5818436E+000  0.1817498E+03  0.7818608E-02  0.1166120E+00
         21   -1    0    0  503  502  0.00000000000E+00  0.00000000000E+00  0.20963087033E+03  0.20963087033E+03  0.00000000000E+00 0. -1.
         21   -1    0    0  501  503 -0.00000000000E+00 -0.00000000000E+00 -0.19220922611E+03  0.19220922611E+03  0.00000000000E+00 0. -1.
          6    1    1    2  501    0 -0.50374589829E+02 -0.30189148340E+02 -0.76575021821E+02  0.19722250872E+03  0.17200000000E+03 0. -1.
         -6    1    1    2    0  502  0.50374589829E+02  0.30189148340E+02  0.93996666043E+02  0.20461758772E+03  0.17200000000E+03 0. -1.
</event>
<event>
 4    1  0.5818436E+000  0.3833892E+03  0.7818608E-02  0.1049688E+00
         21   -1    0    0  501  502  0.00000000000E+00  0.00000000000E+00  0.21266030481E+04  0.21266030481E+04  0.00000000000E+00 0.  1.
         21   -1    0    0  502  503 -0.00000000000E+00 -0.00000000000E+00 -0.10157013112E+03  0.10157013112E+03  0.00000000000E+00 0. -1.
          6    1    1    2  501    0 -0.84034942593E+02 -0.33217677640E+03  0.16422477080E+04  0.16864058873E+04  0.17200000000E+03 0.  1.
         -6    1    1    2    0  503  0.84034942593E+02  0.33217677640E+03  0.38278520900E+03  0.54176729191E+03  0.17200000000E+03 0. -1.
</event>
<event>
 4    1  0.5818436E+000  0.2300462E+03  0.7818608E-02  0.1126607E+00
         21   -1    0    0  503  502  0.00000000000E+00  0.00000000000E+00  0.11719027960E+04  0.11719027960E+04  0.00000000000E+00 0. -1.
         21   -1    0    0  501  503 -0.00000000000E+00 -0.00000000000E+00 -0.97250871437E+02  0.97250871437E+02  0.00000000000E+00 0. -1.
          6    1    1    2  501    0  0.31719399303E+02  0.14943604233E+03  0.72890943320E+02  0.24131792444E+03  0.17200000000E+03 0. -1.
         -6    1    1    2    0  502 -0.31719399303E+02 -0.14943604233E+03  0.10017609813E+04  0.10278357430E+04  0.17200000000E+03 0. -1.
</event>
<event>
 4    1  0.5818436E+000  0.1761224E+03  0.7818608E-02  0.1171609E+00
         21   -1    0    0  501  502  0.00000000000E+00  0.00000000000E+00  0.47266271618E+03  0.47266271618E+03  0.00000000000E+00 0. -1.
         21   -1    0    0  502  503 -0.00000000000E+00 -0.00000000000E+00 -0.66317674990E+02  0.66317674990E+02  0.00000000000E+00 0. -1.
          6    1    1    2  501    0  0.25162843540E-01  0.37882915627E+02  0.17565698102E+03  0.24874583597E+03  0.17200000000E+03 0. -1.
         -6    1    1    2    0  503 -0.25162843540E-01 -0.37882915627E+02  0.23068806017E+03  0.29023455520E+03  0.17200000000E+03 0. -1.
</event>
<event>
 4    1  0.5818436E+000  0.1789710E+03  0.7818608E-02  0.1168803E+00
         21   -1    0    0  503  502  0.00000000000E+00  0.00000000000E+00  0.92556995714E+02  0.92556995714E+02  0.00000000000E+00 0.  1.
         21   -1    0    0  501  503 -0.00000000000E+00 -0.00000000000E+00 -0.43794434245E+03  0.43794434245E+03  0.00000000000E+00 0.  1.
          6    1    1    2  501    0 -0.21725328848E+02 -0.44436675636E+02 -0.29418891036E+03  0.34435116239E+03  0.17200000000E+03 0.  1.
         -6    1    1    2    0  502  0.21725328848E+02  0.44436675636E+02 -0.51198436370E+02  0.18615017578E+03  0.17200000000E+03 0.  1.
</event>
<event>
 4    1  0.5818436E+000  0.1768000E+03  0.7818608E-02  0.1170936E+00
         21   -1    0    0  503  502  0.00000000000E+00  0.00000000000E+00  0.81330971167E+02  0.81330971167E+02  0.00000000000E+00 0. -1.
         21   -1    0    0  501  503 -0.00000000000E+00 -0.00000000000E+00 -0.39060103754E+03  0.39060103754E+03  0.00000000000E+00 0. -1.
          6    1    1    2  501    0  0.26660700023E+02 -0.31039519571E+02 -0.18452458006E+03  0.25555344910E+03  0.17200000000E+03 0. -1.
         -6    1    1    2    0  502 -0.26660700023E+02  0.31039519571E+02 -0.12474548631E+03  0.21637855960E+03  0.17200000000E+03 0. -1.
</event>
<event>
 4    1  0.5818436E+000  0.2925829E+03  0.7818608E-02  0.1089008E+00
         21   -1    0    0  503  502  0.00000000000E+00  0.00000000000E+00  0.60463815845E+02  0.60463815845E+02  0.00000000000E+00 0.  1.
         21   -1    0    0  501  503 -0.00000000000E+00 -0.00000000000E+00 -0.15210515480E+04  0.15210515480E+04  0.00000000000E+00 0.  1.
          6    1    1    2  501    0 -0.23455386921E+03 -0.31705697703E+02 -0.93830297011E+03  0.98286175658E+03  0.17200000000E+03 0.  1.
         -6    1    1    2    0  502  0.23455386921E+03  0.31705697703E+02 -0.52228476206E+03  0.59865360728E+03  0.17200000000E+03 0.  1.
</event>
<event>
 4    1  0.5818436E+000  0.1823855E+03  0.7818608E-02  0.1165514E+00
         21   -1    0    0  501  502  0.00000000000E+00  0.00000000000E+00  0.79101504799E+03  0.79101504799E+03  0.00000000000E+00 0.  1.
         21   -1    0    0  502  503 -0.00000000000E+00 -0.00000000000E+00 -0.46449696071E+02  0.46449696071E+02  0.00000000000E+00 0.  1.
          6    1    1    2  501    0  0.51925885455E+02  0.31371252652E+02  0.24345334947E+03  0.30419399475E+03  0.17200000000E+03 0.  1.
         -6    1    1    2    0  503 -0.51925885455E+02 -0.31371252652E+02  0.50111200245E+03  0.53327074931E+03  0.17200000000E+03 0.  1.
</event>
<event>
 4    1  0.5818436E+000  0.1726645E+03  0.7818608E-02  0.1175097E+00
         21   -1    0    0  501  502  0.00000000000E+00  0.00000000000E+00  0.11301598409E+03  0.11301598409E+03  0.00000000000E+00 0. -1.
         21   -1    0    0  502  503 -0.00000000000E+00 -0.00000000000E+00 -0.57800976463E+03  0.57800976463E+03  0.00000000000E+00 0. -1.
          6    1    1    2  501    0 -0.15120391018E+02 -0.64466438676E+00  0.22250650602E+02  0.17409231249E+03  0.17200000000E+03 0. -1.
         -6    1    1    2    0  503  0.15120391018E+02  0.64466438676E+00 -0.48724443114E+03  0.51693343623E+03  0.17200000000E+03 0. -1.
</event>
<event>
 4    1  0.5818436E+000  0.2210030E+03  0.7818608E-02  0.1133137E+00
         21   -1    0    0  501  502  0.00000000000E+00  0.00000000000E+00  0.12228721698E+04  0.12228721698E+04  0.00000000000E+00 0. -1.
         21   -1    0    0  502  503 -0.00000000000E+00 -0.00000000000E+00 -0.50158060711E+02  0.50158060711E+02  0.00000000000E+00 0. -1.
          6    1    1    2  501    0 -0.21749539852E+01  0.13875737942E+03  0.87363893316E+03  0.90115887961E+03  0.17200000000E+03 0. -1.
         -6    1    1    2    0  503  0.21749539852E+01 -0.13875737942E+03  0.29907517595E+03  0.37187135093E+03  0.17200000000E+03 0. -1.
</event>
<event>
 4    1  0.5818436E+000  0.3988420E+03  0.7818608E-02  0.1044181E+00
         21   -1    0    0  503  502  0.00000000000E+00  0.00000000000E+00  0.17822890974E+04  0.17822890974E+04  0.00000000000E+00 0. -1.
         21   -1    0    0  501  503 -0.00000000000E+00 -0.00000000000E+00 -0.28579390014E+03  0.28579390014E+03  0.00000000000E+00 0.  1.
          6    1    1    2  501    0  0.33918124399E+03  0.12019589931E+03  0.16057547722E+04  0.16545462698E+04  0.17200000000E+03 0. -1.
         -6    1    1    2    0  502 -0.33918124399E+03 -0.12019589931E+03 -0.10925957493E+03  0.41353672775E+03  0.17200000000E+03 0.  1.
</event>
<event>
 4    1  0.5818436E+000  0.2584799E+03  0.7818608E-02  0.1108060E+00
         21   -1    0    0  501  502  0.00000000000E+00  0.00000000000E+00  0.44631196218E+03  0.44631196218E+03  0.00000000000E+00 0.  1.
         21   -1    0    0  502  503 -0.00000000000E+00 -0.00000000000E+00 -0.48052837918E+03  0.48052837918E+03  0.00000000000E+00 0. -1.
          6    1    1    2  501    0  0.62315675918E+02  0.18260514564E+03  0.36741121979E+03  0.44922476235E+03  0.17200000000E+03 0.  1.
         -6    1    1    2    0  503 -0.62315675918E+02 -0.18260514564E+03 -0.40162763679E+03  0.47761557901E+03  0.17200000000E+03 0. -1.
</event>
<event>
 4    1  0.5818436E+000  0.2059211E+03  0.7818608E-02  0.1144837E+00
         21   -1    0    0  501  502  0.00000000000E+00  0.00000000000E+00  0.97827473687E+02  0.97827473687E+02  0.00000000000E+00 0. -1.
         21   -1    0    0  502  503 -0.00000000000E+00 -0.00000000000E+00 -0.43760012525E+03  0.43760012525E+03  0.00000000000E+00 0.  1.
          6    1    1    2  501    0  0.78821615835E+02 -0.81281333404E+02 -0.14382093108E+03  0.25117317233E+03  0.17200000000E+03 0.  1.
         -6    1    1    2    0  503 -0.78821615835E+02  0.81281333404E+02 -0.19595172048E+03  0.28425442660E+03  0.17200000000E+03 0. -1.
</event>
<event>
 4    1  0.5818436E+000  0.2358065E+03  0.7818608E-02  0.1122618E+00
         21   -1    0    0  501  502  0.00000000000E+00  0.00000000000E+00  0.41081689387E+03  0.41081689387E+03  0.00000000000E+00 0.  1.
         21   -1    0    0  502  503 -0.00000000000E+00 -0.00000000000E+00 -0.13904519568E+03  0.13904519568E+03  0.00000000000E+00 0. -1.
          6    1    1    2  501    0  0.15566194710E+03  0.42309418805E+02  0.18069531615E+03  0.29707831622E+03  0.17200000000E+03 0. -1.
         -6    1    1    2    0  503 -0.15566194710E+03 -0.42309418805E+02  0.91076382039E+02  0.25278377333E+03  0.17200000000E+03 0. -1.
</event>
<event>
 4    1  0.5818436E+000  0.1944813E+03  0.7818608E-02  0.1154480E+00
         21   -1    0    0  503  502  0.00000000000E+00  0.00000000000E+00  0.11020596231E+03  0.11020596231E+03  0.00000000000E+00 0. -1.
         21   -1    0    0  501  503 -0.00000000000E+00 -0.00000000000E+00 -0.36058841976E+03  0.36058841976E+03  0.00000000000E+00 0. -1.
          6    1    1    2  501    0 -0.18491359975E+02  0.88865391283E+02 -0.17687940798E+03  0.26288650237E+03  0.17200000000E+03 0.  1.
         -6    1    1    2    0  502  0.18491359975E+02 -0.88865391283E+02 -0.73503049463E+02  0.20790787970E+03  0.17200000000E+03 0.  1.
</event>
<event>
 4    1  0.5818436E+000  0.2787138E+03  0.7818608E-02  0.1096394E+00
         21   -1    0    0  501  502  0.00000000000E+00  0.00000000000E+00  0.15577167873E+04  0.15577167873E+04  0.00000000000E+00 0.  1.
         21   -1    0    0  502  503 -0.00000000000E+00 -0.00000000000E+00 -0.55980456306E+02  0.55980456306E+02  0.00000000000E+00 0.  1.
          6    1    1    2  501    0  0.17661551380E+03  0.13001674317E+03  0.10174649992E+04  0.10549485380E+04  0.17200000000E+03 0.  1.
         -6    1    1    2    0  503 -0.17661551380E+03 -0.13001674317E+03  0.48427133176E+03  0.55874870558E+03  0.17200000000E+03 0.  1.
</event>
<event>
 4    1  0.5818436E+000  0.2283485E+03  0.7818608E-02  0.1127808E+00
         21   -1    0    0  503  502  0.00000000000E+00  0.00000000000E+00  0.29050300187E+02  0.29050300187E+02  0.00000000000E+00 0. -1.
         21   -1    0    0  501  503 -0.00000000000E+00 -0.00000000000E+00 -0.18373864072E+04  0.18373864072E+04  0.00000000000E+00 0.  1.
          6    1    1    2  501    0  0.13876146687E+03 -0.57482977348E+02 -0.76229725617E+03  0.79576387461E+03  0.17200000000E+03 0. -1.
         -6    1    1    2    0  502 -0.13876146687E+03  0.57482977348E+02 -0.10460388509E+04  0.10706728328E+04  0.17200000000E+03 0.  1.
</event>
<event>
 4    1  0.5818436E+000  0.2035150E+03  0.7818608E-02  0.1146807E+00
         21   -1    0    0  501  502  0.00000000000E+00  0.00000000000E+00  0.94767512951E+03  0.94767512951E+03  0.00000000000E+00 0.  1.
         21   -1    0    0  502  503 -0.00000000000E+00 -0.00000000000E+00 -0.58214382552E+02  0.58214382552E+02  0.00000000000E+00 0. -1.
          6    1    1    2  501    0 -0.64084538064E+02  0.87906239798E+02  0.69581871422E+03  0.72497035668E+03  0.17200000000E+03 0.  1.
         -6    1    1    2    0  503  0.64084538064E+02 -0.87906239798E+02  0.19364203274E+03  0.28091915538E+03  0.17200000000E+03 0. -1.
</event>
<event>
 4    1  0.5818436E+000  0.1805408E+03  0.7818608E-02  0.1167281E+00
         21   -1    0    0  503  502  0.00000000000E+00  0.00000000000E+00  0.73091297785E+03  0.73091297785E+03  0.00000000000E+00 0. -1.
         21   -1    0    0  501  503 -0.00000000000E+00 -0.00000000000E+00 -0.93982999858E+02  0.93982999858E+02  0.00000000000E+00 0. -1.
          6    1    1    2  501    0  0.78868408881E+01  0.54302673570E+02  0.19475618487E+02  0.18158822190E+03  0.17200000000E+03 0. -1.
         -6    1    1    2    0  502 -0.78868408881E+01 -0.54302673570E+02  0.61745435951E+03  0.64330775582E+03  0.17200000000E+03 0. -1.
</event>
<event>
 4    1  0.5818436E+000  0.1778579E+03  0.7818608E-02  0.1169892E+00
         21   -1    0    0  503  502  0.00000000000E+00  0.00000000000E+00  0.84743577159E+03  0.84743577159E+03  0.00000000000E+00 0. -1.
         21   -1    0    0  501  503 -0.00000000000E+00 -0.00000000000E+00 -0.89309624343E+02  0.89309624343E+02  0.00000000000E+00 0.  1.
          6    1    1    2  501    0  0.44328291362E+02  0.91882409405E+01  0.21736188294E+02  0.17918114596E+03  0.17200000000E+03 0.  1.
         -6    1    1    2    0  502 -0.44328291362E+02 -0.91882409405E+01  0.73638995896E+03  0.75756424997E+03  0.17200000000E+03 0. -1.
</event>
<event>
 4    1  0.5818436E+000  0.1745718E+03  0.7818608E-02  0.1173162E+00
         21   -1    0    0  501  502  0.00000000000E+00  0.00000000000E+00  0.67035015312E+03  0.67035015312E+03  0.00000000000E+00 0.  1.
         21   -1    0    0  502  503 -0.00000000000E+00 -0.00000000000E+00 -0.99860059511E+02  0.99860059511E+02  0.00000000000E+00 0.  1.
          6    1    1    2  501    0  0.28366810990E+02 -0.93087660912E+01  0.56947892606E+03  0.59563543911E+03  0.17200000000E+03 0.  1.
         -6    1    1    2    0  503 -0.28366810990E+02  0.93087660912E+01  0.10111675502E+01  0.17457477353E+03  0.17200000000E+03 0.  1.
</event>
<event>
 4    1  0.5818436E+000  0.1866775E+03  0.7818608E-02  0.1161493E+00
         21   -1    0    0  503  502  0.00000000000E+00  0.00000000000E+00  0.12713122765E+03  0.12713122765E+03  0.00000000000E+00 0. -1.
         21   -1    0    0  501  503 -0.00000000000E+00 -0.00000000000E+00 -0.30734754645E+03  0.30734754645E+03  0.00000000000E+00 0.  1.
          6    1    1    2  501    0 -0.63760763986E+02 -0.34627311208E+02 -0.16154301458E+03  0.24686966453E+03  0.17200000000E+03 0.  1.
         -6    1    1    2    0  502  0.63760763986E+02  0.34627311208E+02 -0.18673304226E+02  0.18760910958E+03  0.17200000000E+03 0. -1.
</event>
<event>
 4    1  0.5818436E+000  0.2595070E+03  0.7818608E-02  0.1107440E+00
         21   -1    0    0  501  502  0.00000000000E+00  0.00000000000E+00  0.90352774730E+02  0.90352774730E+02  0.00000000000E+00 0.  1.
         21   -1    0    0  502  503 -0.00000000000E+00 -0.00000000000E+00 -0.11743393632E+04  0.11743393632E+04  0.00000000000E+00 0. -1.
          6    1    1    2  501    0 -0.82372029179E+02 -0.17599645584E+03 -0.15979892522E+03  0.30476154640E+03  0.17200000000E+03 0.  1.
         -6    1    1    2    0  503  0.82372029179E+02  0.17599645584E+03 -0.92418766321E+03  0.95993059150E+03  0.17200000000E+03 0.  1.
</event>
<event>
 4    1  0.5818436E+000  0.1731166E+03  0.7818608E-02  0.1174636E+00
         21   -1    0    0  503  502  0.00000000000E+00  0.00000000000E+00  0.15272045029E+04  0.15272045029E+04  0.00000000000E+00 0.  1.
         21   -1    0    0  501  503 -0.00000000000E+00 -0.00000000000E+00 -0.20556097025E+02  0.20556097025E+02  0.00000000000E+00 0.  1.
          6    1    1    2  501    0 -0.98356728697E+01  0.16988858383E+02  0.58850409680E+03  0.61343820693E+03  0.17200000000E+03 0.  1.
         -6    1    1    2    0  502  0.98356728697E+01 -0.16988858383E+02  0.91814430912E+03  0.93432239304E+03  0.17200000000E+03 0.  1.
</event>
<event>
 4    1  0.5818436E+000  0.3153392E+03  0.7818608E-02  0.1077815E+00
         21   -1    0    0  503  502  0.00000000000E+00  0.00000000000E+00  0.16791619785E+03  0.16791619785E+03  0.00000000000E+00 0.  1.
         21   -1    0    0  501  503 -0.00000000000E+00 -0.00000000000E+00 -0.12742522475E+04  0.12742522475E+04  0.00000000000E+00 0. -1.
          6    1    1    2  501    0 -0.26202447331E+03 -0.34611579859E+02 -0.10807249891E+04  0.11257909611E+04  0.17200000000E+03 0. -1.
         -6    1    1    2    0  502  0.26202447331E+03  0.34611579859E+02 -0.25611060494E+02  0.31637748418E+03  0.17200000000E+03 0.  1.
</event>
<event>
 4    1  0.5818436E+000  0.1751482E+03  0.7818608E-02  0.1172583E+00
         21   -1    0    0  503  502  0.00000000000E+00  0.00000000000E+00  0.78548559350E+03  0.78548559350E+03  0.00000000000E+00 0. -1.
         21   -1    0    0  501  503 -0.00000000000E+00 -0.00000000000E+00 -0.45400519824E+02  0.45400519824E+02  0.00000000000E+00 0. -1.
          6    1    1    2  501    0  0.14658728508E+02 -0.29631115635E+02  0.21472304635E+03  0.27709721754E+03  0.17200000000E+03 0. -1.
         -6    1    1    2    0  502 -0.14658728508E+02  0.29631115635E+02  0.52536202733E+03  0.55378889579E+03  0.17200000000E+03 0. -1.
</event>
<event>
 4    1  0.5818436E+000  0.1795486E+03  0.7818608E-02  0.1168241E+00
         21   -1    0    0  501  502  0.00000000000E+00  0.00000000000E+00  0.10871481279E+03  0.10871481279E+03  0.00000000000E+00 0. -1.
         21   -1    0    0  502  503 -0.00000000000E+00 -0.00000000000E+00 -0.32037689509E+03  0.32037689509E+03  0.00000000000E+00 0. -1.
          6    1    1    2  501    0 -0.33720579568E+02 -0.38943948205E+02 -0.47303114789E+02  0.18567523598E+03  0.17200000000E+03 0. -1.
         -6    1    1    2    0  503  0.33720579568E+02  0.38943948205E+02 -0.16435896751E+03  0.24341647190E+03  0.17200000000E+03 0. -1.
</event>
<event>
 4    1  0.5818436E+000  0.1813982E+03  0.7818608E-02  0.1166457E+00
         21   -1    0    0  503  502  0.00000000000E+00  0.00000000000E+00  0.49370210313E+03  0.49370210313E+03  0.00000000000E+00 0. -1.
         21   -1    0    0  501  503 -0.00000000000E+00 -0.00000000000E+00 -0.11374523425E+03  0.11374523425E+03  0.00000000000E+00 0. -1.
          6    1    1    2  501    0 -0.28468347405E+02 -0.50108451488E+02 -0.54554959921E+01  0.18148020870E+03  0.17200000000E+03 0. -1.
         -6    1    1    2    0  502  0.28468347405E+02  0.50108451488E+02  0.38541236487E+03  0.42596712867E+03  0.17200000000E+03 0. -1.
</event>
<event>
 4    1  0.5818436E+000  0.1826108E+03  0.7818608E-02  0.1165300E+00
         21   -1    0    0  503  502  0.00000000000E+00  0.00000000000E+00  0.16310614095E+03  0.16310614095E+03  0.00000000000E+00 0.  1.
         21   -1    0    0  501  503 -0.00000000000E+00 -0.00000000000E+00 -0.51192431669E+03  0.51192431669E+03  0.00000000000E+00 0.  1.
          6    1    1    2  501    0 -0.33220457479E+02  0.51566510469E+02 -0.43598419827E+03  0.47268268948E+03  0.17200000000E+03 0.  1.
         -6    1    1    2    0  502  0.33220457479E+02 -0.51566510469E+02  0.87166022527E+02  0.20234776816E+03  0.17200000000E+03 0.  1.
</event>
<event>
 4    1  0.5818436E+000  0.2407608E+03  0.7818608E-02  0.1119287E+00
         21   -1    0    0  501  502  0.00000000000E+00  0.00000000000E+00  0.17185978492E+03  0.17185978492E+03  0.00000000000E+00 0.  1.
         21   -1    0    0  502  503 -0.00000000000E+00 -0.00000000000E+00 -0.45096632825E+03  0.45096632825E+03  0.00000000000E+00 0.  1.
          6    1    1    2  501    0  0.15501092432E+02 -0.16775428197E+03  0.16800626246E+02  0.24134631555E+03  0.17200000000E+03 0.  1.
         -6    1    1    2    0  503 -0.15501092432E+02  0.16775428197E+03 -0.29590716957E+03  0.38147979762E+03  0.17200000000E+03 0.  1.
</event>
<event>
 4    1  0.5818436E+000  0.1791612E+03  0.7818608E-02  0.1168617E+00
         21   -1    0    0  503  502  0.00000000000E+00  0.00000000000E+00  0.30133053924E+02  0.30133053924E+02  0.00000000000E+00 0. -1.
         21   -1    0    0  501  503 -0.00000000000E+00 -0.00000000000E+00 -0.16100118071E+04  0.16100118071E+04  0.00000000000E+00 0. -1.
          6    1    1    2  501    0 -0.56034305768E-01 -0.50147164482E+02 -0.12669714148E+04  0.12795762218E+04  0.17200000000E+03 0. -1.
         -6    1    1    2    0  502  0.56034305768E-01  0.50147164482E+02 -0.31290733836E+03  0.36056863930E+03  0.17200000000E+03 0. -1.
</event>
<event>
 4    1  0.5818436E+000  0.2196857E+03  0.7818608E-02  0.1134118E+00
         21   -1    0    0  503  502  0.00000000000E+00  0.00000000000E+00  0.12368148834E+04  0.12368148834E+04  0.00000000000E+00 0.  1.
         21   -1    0    0  501  503 -0.00000000000E+00 -0.00000000000E+00 -0.58672386128E+02  0.58672386128E+02  0.00000000000E+00 0.  1.
          6    1    1    2  501    0 -0.12775753780E+03 -0.48536694594E+02  0.21419971275E+03  0.30682782815E+03  0.17200000000E+03 0. -1.
         -6    1    1    2    0  502  0.12775753780E+03  0.48536694594E+02  0.96394278453E+03  0.98865944138E+03  0.17200000000E+03 0. -1.
</event>
<event>
 4    1  0.5818436E+000  0.4707691E+03  0.7818608E-02  0.1021703E+00
         21   -1    0    0  503  502  0.00000000000E+00  0.00000000000E+00  0.18345589390E+03  0.18345589390E+03  0.00000000000E+00 0.  1.
         21   -1    0    0  501  503 -0.00000000000E+00 -0.00000000000E+00 -0.19144145148E+04  0.19144145148E+04  0.00000000000E+00 0. -1.
          6    1    1    2  501    0  0.68638141803E+02 -0.43281447117E+03 -0.22832347514E+03  0.52321617928E+03  0.17200000000E+03 0.  1.
         -6    1    1    2    0  502 -0.68638141803E+02  0.43281447117E+03 -0.15026351458E+04  0.15746542295E+04  0.17200000000E+03 0. -1.
</event>
<event>
 4    1  0.5818436E+000  0.1826160E+03  0.7818608E-02  0.1165295E+00
         21   -1    0    0  501  502  0.00000000000E+00  0.00000000000E+00  0.51883756509E+03  0.51883756509E+03  0.00000000000E+00 0.  1.
         21   -1    0    0  502  503 -0.00000000000E+00 -0.00000000000E+00 -0.64307506145E+02  0.64307506145E+02  0.00000000000E+00 0. -1.
          6    1    1    2  501    0 -0.42423622861E+02 -0.44326691440E+02  0.22077504310E+03  0.28651394208E+03  0.17200000000E+03 0.  1.
         -6    1    1    2    0  503  0.42423622861E+02  0.44326691440E+02  0.23375501585E+03  0.29663112916E+03  0.17200000000E+03 0. -1.
</event>
<event>
 4    1  0.5818436E+000  0.1794042E+03  0.7818608E-02  0.1168381E+00
         21   -1    0    0  503  502  0.00000000000E+00  0.00000000000E+00  0.18511075290E+03  0.18511075290E+03  0.00000000000E+00 0.  1.
         21   -1    0    0  501  503 -0.00000000000E+00 -0.00000000000E+00 -0.25668574354E+03  0.25668574354E+03  0.00000000000E+00 0.  1.
          6    1    1    2  501    0  0.50259171807E+02  0.87116366680E+01  0.89682058805E+02  0.20057105633E+03  0.17200000000E+03 0.  1.
         -6    1    1    2    0  502 -0.50259171807E+02 -0.87116366680E+01 -0.16125704944E+03  0.24122544011E+03  0.17200000000E+03 0.  1.
</event>
<event>
 4    1  0.5818436E+000  0.2277937E+03  0.7818608E-02  0.1128202E+00
         21   -1    0    0  501  502  0.00000000000E+00  0.00000000000E+00  0.63693958576E+03  0.63693958576E+03  0.00000000000E+00 0.  1.
         21   -1    0    0  502  503 -0.00000000000E+00 -0.00000000000E+00 -0.83520461004E+02  0.83520461004E+02  0.00000000000E+00 0. -1.
          6    1    1    2  501    0 -0.23232302359E+02 -0.14753376033E+03  0.33318523672E+03  0.40361163546E+03  0.17200000000E+03 0.  1.
         -6    1    1    2    0  503  0.23232302359E+02  0.14753376033E+03  0.22023388804E+03  0.31684841131E+03  0.17200000000E+03 0. -1.
</event>
<event>
 4    1  0.5818436E+000  0.1776088E+03  0.7818608E-02  0.1170137E+00
         21   -1    0    0  503  502  0.00000000000E+00  0.00000000000E+00  0.53014003603E+03  0.53014003603E+03  0.00000000000E+00 0. -1.
         21   -1    0    0  501  503 -0.00000000000E+00 -0.00000000000E+00 -0.84456655269E+02  0.84456655269E+02  0.00000000000E+00 0. -1.
          6    1    1    2  501    0  0.43742216721E+02  0.68930655984E+01  0.55805411401E+02  0.18616965332E+03  0.17200000000E+03 0.  1.
         -6    1    1    2    0  502 -0.43742216721E+02 -0.68930655984E+01  0.38987796936E+03  0.42842703798E+03  0.17200000000E+03 0.  1.
</event>
<event>
 4    1  0.5818436E+000  0.1744437E+03  0.7818608E-02  0.1173291E+00
         21   -1    0    0  503  502  0.00000000000E+00  0.00000000000E+00  0.21677372181E+03  0.21677372181E+03  0.00000000000E+00 0.  1.
         21   -1    0    0  501  503 -0.00000000000E+00 -0.00000000000E+00 -0.14117164643E+03  0.14117164643E+03  0.00000000000E+00 0.  1.
          6    1    1    2  501    0  0.28301634270E+02  0.67537975707E+01  0.24394902261E+02  0.17614115800E+03  0.17200000000E+03 0.  1.
         -6    1    1    2    0  502 -0.28301634270E+02 -0.67537975707E+01  0.51207173124E+02  0.18180421025E+03  0.17200000000E+03 0.  1.
</event>
<event>
 4    1  0.5818436E+000  0.2049732E+03  0.7818608E-02  0.1145610E+00
         21   -1    0    0  503  502  0.00000000000E+00  0.00000000000E+00  0.12844089647E+04  0.12844089647E+04  0.00000000000E+00 0.  1.
         21   -1    0    0  501  503 -0.00000000000E+00 -0.00000000000E+00 -0.32758163376E+02  0.32758163376E+02  0.00000000000E+00 0.  1.
          6    1    1    2  501    0  0.75080222598E+02  0.82419415648E+02  0.60077397130E+03  0.63477820102E+03  0.17200000000E+03 0.  1.
         -6    1    1    2    0  502 -0.75080222598E+02 -0.82419415648E+02  0.65087683000E+03  0.68238892703E+03  0.17200000000E+03 0.  1.
</event>
<event>
 4    1  0.5818436E+000  0.1984060E+03  0.7818608E-02  0.1151091E+00
         21   -1    0    0  503  502  0.00000000000E+00  0.00000000000E+00  0.18050239160E+03  0.18050239160E+03  0.00000000000E+00 0.  1.
         21   -1    0    0  501  503 -0.00000000000E+00 -0.00000000000E+00 -0.25115078534E+03  0.25115078534E+03  0.00000000000E+00 0.  1.
          6    1    1    2  501    0 -0.96358174234E+02 -0.22272374157E+02 -0.11363537144E+03  0.22864372730E+03  0.17200000000E+03 0.  1.
         -6    1    1    2    0  502  0.96358174234E+02  0.22272374157E+02  0.42986977693E+02  0.20300944964E+03  0.17200000000E+03 0.  1.
</event>
<event>
 4    1  0.5818436E+000  0.1832047E+03  0.7818608E-02  0.1164737E+00
         21   -1    0    0  501  502  0.00000000000E+00  0.00000000000E+00  0.28531243502E+02  0.28531243502E+02  0.00000000000E+00 0.  1.
         21   -1    0    0  502  503 -0.00000000000E+00 -0.00000000000E+00 -0.14498142375E+04  0.14498142375E+04  0.00000000000E+00 0.  1.
          6    1    1    2  501    0 -0.59413356116E+02  0.21213829112E+02 -0.38964124351E+03  0.43056273884E+03  0.17200000000E+03 0.  1.
         -6    1    1    2    0  503  0.59413356116E+02 -0.21213829112E+02 -0.10316417505E+04  0.10477827422E+04  0.17200000000E+03 0.  1.
</event>
<event>
 4    1  0.5818436E+000  0.1870511E+03  0.7818608E-02  0.1161148E+00
         21   -1    0    0  503  502  0.00000000000E+00  0.00000000000E+00  0.26413597006E+04  0.26413597006E+04  0.00000000000E+00 0.  1.
         21   -1    0    0  501  503 -0.00000000000E+00 -0.00000000000E+00 -0.14770363284E+02  0.14770363284E+02  0.00000000000E+00 0.  1.
          6    1    1    2  501    0  0.24735040340E+02 -0.69226472706E+02  0.88668418407E+03  0.90619918838E+03  0.17200000000E+03 0.  1.
         -6    1    1    2    0  502 -0.24735040340E+02  0.69226472706E+02  0.17399051533E+04  0.17499308755E+04  0.17200000000E+03 0.  1.
</event>
<event>
 4    1  0.5818436E+000  0.1801104E+03  0.7818608E-02  0.1167696E+00
         21   -1    0    0  503  502  0.00000000000E+00  0.00000000000E+00  0.39299089093E+03  0.39299089093E+03  0.00000000000E+00 0. -1.
         21   -1    0    0  501  503 -0.00000000000E+00 -0.00000000000E+00 -0.14869102119E+03  0.14869102119E+03  0.00000000000E+00 0.  1.
          6    1    1    2  501    0  0.51192644830E+02  0.15331843406E+02 -0.58493075632E+02  0.18937051567E+03  0.17200000000E+03 0.  1.
         -6    1    1    2    0  502 -0.51192644830E+02 -0.15331843406E+02  0.30279294537E+03  0.35231139646E+03  0.17200000000E+03 0. -1.
</event>
<event>
 4    1  0.5818436E+000  0.1992961E+03  0.7818608E-02  0.1150334E+00
         21   -1    0    0  501  502  0.00000000000E+00  0.00000000000E+00  0.96873328280E+02  0.96873328280E+02  0.00000000000E+00 0.  1.
         21   -1    0    0  502  503 -0.00000000000E+00 -0.00000000000E+00 -0.50237968834E+03  0.50237968834E+03  0.00000000000E+00 0. -1.
          6    1    1    2  501    0  0.94255475152E+02  0.35367078285E+02 -0.74274351086E+02  0.21268663346E+03  0.17200000000E+03 0.  1.
         -6    1    1    2    0  503 -0.94255475152E+02 -0.35367078285E+02 -0.33123200897E+03  0.38656638316E+03  0.17200000000E+03 0. -1.
</event>
<event>
 4    1  0.5818436E+000  0.3061681E+03  0.7818608E-02  0.1082197E+00
         21   -1    0    0  503  502  0.00000000000E+00  0.00000000000E+00  0.75836339317E+02  0.75836339317E+02  0.00000000000E+00 0.  1.
         21   -1    0    0  501  503 -0.00000000000E+00 -0.00000000000E+00 -0.23232373146E+04  0.23232373146E+04  0.00000000000E+00 0. -1.
          6    1    1    2  501    0  0.14332316759E+03 -0.20883814994E+03 -0.19442698732E+04  0.19682287070E+04  0.17200000000E+03 0. -1.
         -6    1    1    2    0  502 -0.14332316759E+03  0.20883814994E+03 -0.30313110210E+03  0.43084494693E+03  0.17200000000E+03 0.  1.
</event>
<event>
 4    1  0.5818436E+000  0.1725569E+03  0.7818608E-02  0.1175207E+00
         21   -1    0    0  501  502  0.00000000000E+00  0.00000000000E+00  0.44532257468E+02  0.44532257468E+02  0.00000000000E+00 0. -1.
         21   -1    0    0  502  503 -0.00000000000E+00 -0.00000000000E+00 -0.85878592437E+03  0.85878592437E+03  0.00000000000E+00 0. -1.
          6    1    1    2  501    0 -0.11593977561E+02  0.75811218664E+01 -0.19459901697E+03  0.26008589183E+03  0.17200000000E+03 0. -1.
         -6    1    1    2    0  503  0.11593977561E+02 -0.75811218664E+01 -0.61965464993E+03  0.64323229000E+03  0.17200000000E+03 0. -1.
</event>
<event>
 4    1  0.5818436E+000  0.1764358E+03  0.7818608E-02  0.1171298E+00
         21   -1    0    0  503  502  0.00000000000E+00  0.00000000000E+00  0.25213316651E+03  0.25213316651E+03  0.00000000000E+00 0. -1.
         21   -1    0    0  501  503 -0.00000000000E+00 -0.00000000000E+00 -0.12506059907E+03  0.12506059907E+03  0.00000000000E+00 0. -1.
          6    1    1    2  501    0  0.23158077047E+02 -0.31769553015E+02  0.42232971118E+02  0.18142002337E+03  0.17200000000E+03 0. -1.
         -6    1    1    2    0  502 -0.23158077047E+02  0.31769553015E+02  0.84839596321E+02  0.19577374220E+03  0.17200000000E+03 0. -1.
</event>
<event>
 4    1  0.5818436E+000  0.1786191E+03  0.7818608E-02  0.1169146E+00
         21   -1    0    0  503  502  0.00000000000E+00  0.00000000000E+00  0.24404864056E+02  0.24404864056E+02  0.00000000000E+00 0. -1.
         21   -1    0    0  501  503 -0.00000000000E+00 -0.00000000000E+00 -0.13780761028E+04  0.13780761028E+04  0.00000000000E+00 0. -1.
          6    1    1    2  501    0  0.14442886420E+02  0.45958511523E+02 -0.51793133358E+03  0.54786645093E+03  0.17200000000E+03 0. -1.
         -6    1    1    2    0  502 -0.14442886420E+02 -0.45958511523E+02 -0.83573990521E+03  0.85461451597E+03  0.17200000000E+03 0. -1.
</event>
<event>
 4    1  0.5818436E+000  0.2189454E+03  0.7818608E-02  0.1134672E+00
         21   -1    0    0  503  502  0.00000000000E+00  0.00000000000E+00  0.42738535761E+03  0.42738535761E+03  0.00000000000E+00 0.  1.
         21   -1    0    0  501  503 -0.00000000000E+00 -0.00000000000E+00 -0.12238920362E+03  0.12238920362E+03  0.00000000000E+00 0. -1.
          6    1    1    2  501    0  0.65854432089E+02 -0.11839041886E+03  0.73042074316E+02  0.23080780343E+03  0.17200000000E+03 0. -1.
         -6    1    1    2    0  502 -0.65854432089E+02  0.11839041886E+03  0.23195407968E+03  0.31896675780E+03  0.17200000000E+03 0.  1.
</event>
<event>
 4    1  0.5818436E+000  0.1733815E+03  0.7818608E-02  0.1174367E+00
         21   -1    0    0  503  502  0.00000000000E+00  0.00000000000E+00  0.80397946437E+02  0.80397946437E+02  0.00000000000E+00 0.  1.
         21   -1    0    0  501  503 -0.00000000000E+00 -0.00000000000E+00 -0.43289897724E+03  0.43289897724E+03  0.00000000000E+00 0.  1.
          6    1    1    2  501    0  0.41695960955E+01 -0.21442097141E+02 -0.81506608639E+02  0.19158412333E+03  0.17200000000E+03 0. -1.
         -6    1    1    2    0  502 -0.41695960955E+01  0.21442097141E+02 -0.27099442216E+03  0.32171280034E+03  0.17200000000E+03 0. -1.
</event>
<event>
 4    1  0.5818436E+000  0.2130742E+03  0.7818608E-02  0.1139154E+00
         21   -1    0    0  503  502  0.00000000000E+00  0.00000000000E+00  0.13604725948E+03  0.13604725948E+03  0.00000000000E+00 0.  1.
         21   -1    0    0  501  503 -0.00000000000E+00 -0.00000000000E+00 -0.33372104775E+03  0.33372104775E+03  0.00000000000E+00 0.  1.
          6    1    1    2  501    0 -0.12294361162E+03 -0.26485325792E+02 -0.97614408075E+02  0.23436974375E+03  0.17200000000E+03 0.  1.
         -6    1    1    2    0  502  0.12294361162E+03  0.26485325792E+02 -0.10005938020E+03  0.23539856348E+03  0.17200000000E+03 0.  1.
</event>
<event>
 4    1  0.5818436E+000  0.2501023E+03  0.7818608E-02  0.1113240E+00
         21   -1    0    0  503  502  0.00000000000E+00  0.00000000000E+00  0.11304980423E+03  0.11304980423E+03  0.00000000000E+00 0. -1.
         21   -1    0    0  501  503 -0.00000000000E+00 -0.00000000000E+00 -0.61982355973E+03  0.61982355973E+03  0.00000000000E+00 0. -1.
          6    1    1    2  501    0 -0.18156784032E+03  0.51788667137E+00 -0.37342872113E+03  0.44944427753E+03  0.17200000000E+03 0. -1.
         -6    1    1    2    0  502  0.18156784032E+03 -0.51788667137E+00 -0.13334503437E+03  0.28342908643E+03  0.17200000000E+03 0. -1.
</event>
<event>
 4    1  0.5818436E+000  0.1811462E+03  0.7818608E-02  0.1166698E+00
         21   -1    0    0  501  502  0.00000000000E+00  0.00000000000E+00  0.43008677153E+02  0.43008677153E+02  0.00000000000E+00 0. -1.
         21   -1    0    0  502  503 -0.00000000000E+00 -0.00000000000E+00 -0.76480148482E+03  0.76480148482E+03  0.00000000000E+00 0. -1.
          6    1    1    2  501    0  0.30942711331E+02 -0.47670826551E+02 -0.34108442575E+03  0.38620272472E+03  0.17200000000E+03 0.  1.
         -6    1    1    2    0  503 -0.30942711331E+02  0.47670826551E+02 -0.38070838191E+03  0.42160743725E+03  0.17200000000E+03 0.  1.
</event>
<event>
 4    1  0.5818436E+000  0.1801073E+03  0.7818608E-02  0.1167699E+00
         21   -1    0    0  501  502  0.00000000000E+00  0.00000000000E+00  0.91447557608E+03  0.91447557608E+03  0.00000000000E+00 0. -1.
         21   -1    0    0  502  503 -0.00000000000E+00 -0.00000000000E+00 -0.39407750208E+02  0.39407750208E+02  0.00000000000E+00 0. -1.
          6    1    1    2  501    0 -0.12418426375E+02  0.51965609952E+02  0.58825229530E+03  0.61520679845E+03  0.17200000000E+03 0. -1.
         -6    1    1    2    0  503  0.12418426375E+02 -0.51965609952E+02  0.28681553057E+03  0.33867652784E+03  0.17200000000E+03 0. -1.
</event>
<event>
 4    1  0.5818436E+000  0.1733119E+03  0.7818608E-02  0.1174437E+00
         21   -1    0    0  501  502  0.00000000000E+00  0.00000000000E+00  0.25825793658E+03  0.25825793658E+03  0.00000000000E+00 0. -1.
         21   -1    0    0  502  503 -0.00000000000E+00 -0.00000000000E+00 -0.28481119905E+03  0.28481119905E+03  0.00000000000E+00 0. -1.
          6    1    1    2  501    0  0.21213082282E+02  0.17383470626E+01  0.19558222816E+03  0.26132245346E+03  0.17200000000E+03 0. -1.
         -6    1    1    2    0  503 -0.21213082282E+02 -0.17383470626E+01 -0.22213549064E+03  0.28174668217E+03  0.17200000000E+03 0. -1.
</event>
<event>
 4    1  0.5818436E+000  0.1772873E+03  0.7818608E-02  0.1170455E+00
         21   -1    0    0  501  502  0.00000000000E+00  0.00000000000E+00  0.85953033968E+03  0.85953033968E+03  0.00000000000E+00 0.  1.
         21   -1    0    0  502  503 -0.00000000000E+00 -0.00000000000E+00 -0.79872537814E+02  0.79872537814E+02  0.00000000000E+00 0.  1.
          6    1    1    2  501    0  0.35199556676E+01 -0.42829748906E+02  0.73568300432E+03  0.75674319311E+03  0.17200000000E+03 0.  1.
         -6    1    1    2    0  503 -0.35199556676E+01  0.42829748906E+02  0.43974797548E+02  0.18265968438E+03  0.17200000000E+03 0.  1.
</event>
<event>
 4    1  0.5818436E+000  0.1756445E+03  0.7818608E-02  0.1172086E+00
         21   -1    0    0  501  502  0.00000000000E+00  0.00000000000E+00  0.86129270645E+02  0.86129270645E+02  0.00000000000E+00 0.  1.
         21   -1    0    0  502  503 -0.00000000000E+00 -0.00000000000E+00 -0.80659162037E+03  0.80659162037E+03  0.00000000000E+00 0.  1.
          6    1    1    2  501    0  0.65506111254E+01  0.34987098313E+02 -0.27425756087E+02  0.17777283159E+03  0.17200000000E+03 0.  1.
         -6    1    1    2    0  503 -0.65506111254E+01 -0.34987098313E+02 -0.69303659363E+03  0.71494805942E+03  0.17200000000E+03 0.  1.
</event>
<event>
 4    1  0.5818436E+000  0.2254087E+03  0.7818608E-02  0.1129914E+00
         21   -1    0    0  501  502  0.00000000000E+00  0.00000000000E+00  0.70323257169E+03  0.70323257169E+03  0.00000000000E+00 0.  1.
         21   -1    0    0  502  503 -0.00000000000E+00 -0.00000000000E+00 -0.16804498016E+03  0.16804498016E+03  0.00000000000E+00 0.  1.
          6    1    1    2  501    0 -0.14504132241E+03 -0.13714085364E+02  0.59650865624E+03  0.63767675065E+03  0.17200000000E+03 0.  1.
         -6    1    1    2    0  503  0.14504132241E+03  0.13714085364E+02 -0.61321064707E+02  0.23360080120E+03  0.17200000000E+03 0.  1.
</event>
<event>
 4    1  0.5818436E+000  0.2077294E+03  0.7818608E-02  0.1143377E+00
         21   -1    0    0  501  502  0.00000000000E+00  0.00000000000E+00  0.47996596533E+02  0.47996596533E+02  0.00000000000E+00 0.  1.
         21   -1    0    0  502  503 -0.00000000000E+00 -0.00000000000E+00 -0.94141391969E+03  0.94141391969E+03  0.00000000000E+00 0. -1.
          6    1    1    2  501    0  0.23090397225E+02 -0.11416795228E+03 -0.34176927602E+03  0.39994715376E+03  0.17200000000E+03 0.  1.
         -6    1    1    2    0  503 -0.23090397225E+02  0.11416795228E+03 -0.55164804713E+03  0.58946336246E+03  0.17200000000E+03 0. -1.
</event>
<event>
 4    1  0.5818436E+000  0.2308845E+03  0.7818608E-02  0.1126019E+00
         21   -1    0    0  503  502  0.00000000000E+00  0.00000000000E+00  0.26269561054E+03  0.26269561054E+03  0.00000000000E+00 0. -1.
         21   -1    0    0  501  503 -0.00000000000E+00 -0.00000000000E+00 -0.30880532888E+03  0.30880532888E+03  0.00000000000E+00 0. -1.
          6    1    1    2  501    0  0.13658080255E+03 -0.71199164598E+02 -0.19037614239E+03  0.29925025022E+03  0.17200000000E+03 0. -1.
         -6    1    1    2    0  502 -0.13658080255E+03  0.71199164598E+02  0.14426642405E+03  0.27225068920E+03  0.17200000000E+03 0. -1.
</event>
<event>
 4    1  0.5818436E+000  0.2403506E+03  0.7818608E-02  0.1119559E+00
         21   -1    0    0  503  502  0.00000000000E+00  0.00000000000E+00  0.41012777432E+03  0.41012777432E+03  0.00000000000E+00 0. -1.
         21   -1    0    0  501  503 -0.00000000000E+00 -0.00000000000E+00 -0.14506114814E+03  0.14506114814E+03  0.00000000000E+00 0. -1.
          6    1    1    2  501    0  0.68796516928E+02  0.15313873728E+03  0.17980399639E+03  0.30016314016E+03  0.17200000000E+03 0. -1.
         -6    1    1    2    0  502 -0.68796516928E+02 -0.15313873728E+03  0.85262629794E+02  0.25502578230E+03  0.17200000000E+03 0. -1.
</event>
<event>
 4    1  0.5818436E+000  0.2280412E+03  0.7818608E-02  0.1128026E+00
         21   -1    0    0  501  502  0.00000000000E+00  0.00000000000E+00  0.28675250913E+03  0.28675250913E+03  0.00000000000E+00 0.  1.
         21   -1    0    0  502  503 -0.00000000000E+00 -0.00000000000E+00 -0.35723784754E+03  0.35723784754E+03  0.00000000000E+00 0. -1.
          6    1    1    2  501    0 -0.12247079457E+03 -0.86137551170E+02  0.19069449208E+03  0.29726614767E+03  0.17200000000E+03 0.  1.
         -6    1    1    2    0  503  0.12247079457E+03  0.86137551170E+02 -0.26117983049E+03  0.34672420899E+03  0.17200000000E+03 0. -1.
</event>
<event>
 4    1  0.5818436E+000  0.2324484E+03  0.7818608E-02  0.1124928E+00
         21   -1    0    0  503  502  0.00000000000E+00  0.00000000000E+00  0.48219910168E+02  0.48219910168E+02  0.00000000000E+00 0.  1.
         21   -1    0    0  501  503 -0.00000000000E+00 -0.00000000000E+00 -0.18196483970E+04  0.18196483970E+04  0.00000000000E+00 0.  1.
          6    1    1    2  501    0  0.93736230222E+02  0.12514705718E+03 -0.14646031631E+04  0.14829344868E+04  0.17200000000E+03 0. -1.
         -6    1    1    2    0  502 -0.93736230222E+02 -0.12514705718E+03 -0.30682532371E+03  0.38493382035E+03  0.17200000000E+03 0. -1.
</event>
<event>
 4    1  0.5818436E+000  0.1889424E+03  0.7818608E-02  0.1159419E+00
         21   -1    0    0  501  502  0.00000000000E+00  0.00000000000E+00  0.18043188172E+03  0.18043188172E+03  0.00000000000E+00 0. -1.
         21   -1    0    0  502  503 -0.00000000000E+00 -0.00000000000E+00 -0.93655849195E+03  0.93655849195E+03  0.00000000000E+00 0. -1.
          6    1    1    2  501    0  0.37573891539E+02 -0.68581688487E+02  0.11794303535E+03  0.22273258609E+03  0.17200000000E+03 0. -1.
         -6    1    1    2    0  503 -0.37573891539E+02  0.68581688487E+02 -0.87406964558E+03  0.89425778758E+03  0.17200000000E+03 0. -1.
</event>
<event>
 4    1  0.5818436E+000  0.2310787E+03  0.7818608E-02  0.1125883E+00
         21   -1    0    0  503  502  0.00000000000E+00  0.00000000000E+00  0.46807043120E+03  0.46807043120E+03  0.00000000000E+00 0. -1.
         21   -1    0    0  501  503 -0.00000000000E+00 -0.00000000000E+00 -0.29475630275E+03  0.29475630275E+03  0.00000000000E+00 0.  1.
          6    1    1    2  501    0  0.15424563268E+03 -0.46526735092E+01 -0.21196042845E+03  0.31356751394E+03  0.17200000000E+03 0.  1.
         -6    1    1    2    0  502 -0.15424563268E+03  0.46526735092E+01  0.38527455689E+03  0.44925922001E+03  0.17200000000E+03 0. -1.
</event>
<event>
 4    1  0.5818436E+000  0.2095741E+03  0.7818608E-02  0.1141904E+00
         21   -1    0    0  503  502  0.00000000000E+00  0.00000000000E+00  0.67121709347E+02  0.67121709347E+02  0.00000000000E+00 0. -1.
         21   -1    0    0  501  503 -0.00000000000E+00 -0.00000000000E+00 -0.84629730440E+03  0.84629730440E+03  0.00000000000E+00 0. -1.
          6    1    1    2  501    0  0.31766551309E+02 -0.11544780371E+03 -0.60709112064E+03  0.64224678895E+03  0.17200000000E+03 0. -1.
         -6    1    1    2    0  502 -0.31766551309E+02  0.11544780371E+03 -0.17208447442E+03  0.27117222479E+03  0.17200000000E+03 0. -1.
</event>
<event>
 4    1  0.5818436E+000  0.2240723E+03  0.7818608E-02  0.1130883E+00
         21   -1    0    0  503  502  0.00000000000E+00  0.00000000000E+00  0.72625335222E+02  0.72625335222E+02  0.00000000000E+00 0. -1.
         21   -1    0    0  501  503 -0.00000000000E+00 -0.00000000000E+00 -0.73239002172E+03  0.73239002172E+03  0.00000000000E+00 0. -1.
          6    1    1    2  501    0 -0.50236180927E+02  0.13453898701E+03 -0.42518122289E+03  0.48061157414E+03  0.17200000000E+03 0. -1.
         -6    1    1    2    0  502  0.50236180927E+02 -0.13453898701E+03 -0.23458346361E+03  0.32440378280E+03  0.17200000000E+03 0. -1.
</event>
<event>
 4    1  0.5818436E+000  0.1945371E+03  0.7818608E-02  0.1154432E+00
         21   -1    0    0  501  502  0.00000000000E+00  0.00000000000E+00  0.20607163515E+03  0.20607163515E+03  0.00000000000E+00 0. -1.
         21   -1    0    0  502  503 -0.00000000000E+00 -0.00000000000E+00 -0.21893295083E+03  0.21893295083E+03  0.00000000000E+00 0. -1.
          6    1    1    2  501    0  0.90157691805E+02 -0.11500425171E+02  0.78879756549E+02  0.20992066398E+03  0.17200000000E+03 0.  1.
         -6    1    1    2    0  503 -0.90157691805E+02  0.11500425171E+02 -0.91741072225E+02  0.21508392200E+03  0.17200000000E+03 0.  1.
</event>
<event>
 4    1  0.5818436E+000  0.1721007E+03  0.7818608E-02  0.1175675E+00
         21   -1    0    0  503  502  0.00000000000E+00  0.00000000000E+00  0.10358773483E+04  0.10358773483E+04  0.00000000000E+00 0. -1.
         21   -1    0    0  501  503 -0.00000000000E+00 -0.00000000000E+00 -0.40704343998E+02  0.40704343998E+02  0.00000000000E+00 0. -1.
          6    1    1    2  501    0 -0.29150685546E+01  0.51124408066E+01  0.20395925345E+03  0.26686703008E+03  0.17200000000E+03 0.  1.
         -6    1    1    2    0  502  0.29150685546E+01 -0.51124408066E+01  0.79121375088E+03  0.80971466225E+03  0.17200000000E+03 0.  1.
</event>
<event>
 4    1  0.5818436E+000  0.3188698E+03  0.7818608E-02  0.1076171E+00
         21   -1    0    0  501  502  0.00000000000E+00  0.00000000000E+00  0.76452605539E+03  0.76452605539E+03  0.00000000000E+00 0. -1.
         21   -1    0    0  502  503 -0.00000000000E+00 -0.00000000000E+00 -0.23470248837E+03  0.23470248837E+03  0.00000000000E+00 0.  1.
          6    1    1    2  501    0  0.12761411793E+02  0.26819975352E+03  0.59380351860E+03  0.67400339771E+03  0.17200000000E+03 0.  1.
         -6    1    1    2    0  503 -0.12761411793E+02 -0.26819975352E+03 -0.63979951585E+02  0.32522514605E+03  0.17200000000E+03 0.  1.
</event>
<event>
 4    1  0.5818436E+000  0.1938193E+03  0.7818608E-02  0.1155061E+00
         21   -1    0    0  501  502  0.00000000000E+00  0.00000000000E+00  0.13758852747E+03  0.13758852747E+03  0.00000000000E+00 0. -1.
         21   -1    0    0  502  503 -0.00000000000E+00 -0.00000000000E+00 -0.46787804835E+03  0.46787804835E+03  0.00000000000E+00 0. -1.
          6    1    1    2  501    0 -0.86420392109E+02  0.22659463150E+02  0.30217531042E+02  0.19616073671E+03  0.17200000000E+03 0. -1.
         -6    1    1    2    0  503  0.86420392109E+02 -0.22659463150E+02 -0.36050705192E+03  0.40930583911E+03  0.17200000000E+03 0. -1.
</event>
<event>
 4    1  0.5818436E+000  0.2307302E+03  0.7818608E-02  0.1126127E+00
         21   -1    0    0  503  502  0.00000000000E+00  0.00000000000E+00  0.20391591746E+03  0.20391591746E+03  0.00000000000E+00 0.  1.
         21   -1    0    0  501  503 -0.00000000000E+00 -0.00000000000E+00 -0.35478613249E+03  0.35478613249E+03  0.00000000000E+00 0.  1.
          6    1    1    2  501    0  0.13886298785E+03 -0.66102276002E+02 -0.21900813571E+03  0.31812105211E+03  0.17200000000E+03 0.  1.
         -6    1    1    2    0  502 -0.13886298785E+03  0.66102276002E+02  0.68137920679E+02  0.24058099784E+03  0.17200000000E+03 0.  1.
</event>
<event>
 4    1  0.5818436E+000  0.2661329E+03  0.7818608E-02  0.1103513E+00
         21   -1    0    0  501  502  0.00000000000E+00  0.00000000000E+00  0.13014992486E+03  0.13014992486E+03  0.00000000000E+00 0.  1.
         21   -1    0    0  502  503 -0.00000000000E+00 -0.00000000000E+00 -0.55624640036E+03  0.55624640036E+03  0.00000000000E+00 0.  1.
          6    1    1    2  501    0 -0.61564282507E+02 -0.19352664474E+03 -0.26356783767E+03  0.37455937868E+03  0.17200000000E+03 0.  1.
         -6    1    1    2    0  503  0.61564282507E+02  0.19352664474E+03 -0.16252863783E+03  0.31183694653E+03  0.17200000000E+03 0.  1.
</event>
<event>
 4    1  0.5818436E+000  0.1863514E+03  0.7818608E-02  0.1161794E+00
         21   -1    0    0  501  502  0.00000000000E+00  0.00000000000E+00  0.78951538321E+02  0.78951538321E+02  0.00000000000E+00 0.  1.
         21   -1    0    0  502  503 -0.00000000000E+00 -0.00000000000E+00 -0.82151036580E+03  0.82151036580E+03  0.00000000000E+00 0.  1.
          6    1    1    2  501    0  0.19672111228E+02  0.68962625462E+02 -0.67815853670E+03  0.70329640733E+03  0.17200000000E+03 0.  1.
         -6    1    1    2    0  503 -0.19672111228E+02 -0.68962625462E+02 -0.64400290778E+02  0.19716549679E+03  0.17200000000E+03 0.  1.
</event>
<event>
 4    1  0.5818436E+000  0.2515389E+03  0.7818608E-02  0.1112336E+00
         21   -1    0    0  503  502  0.00000000000E+00  0.00000000000E+00  0.96335895312E+03  0.96335895312E+03  0.00000000000E+00 0.  1.
         21   -1    0    0  501  503 -0.00000000000E+00 -0.00000000000E+00 -0.68234801465E+02  0.68234801465E+02  0.00000000000E+00 0. -1.
          6    1    1    2  501    0  0.15124420560E+03  0.10398572443E+03  0.54739947844E+03  0.60242678361E+03  0.17200000000E+03 0.  1.
         -6    1    1    2    0  502 -0.15124420560E+03 -0.10398572443E+03  0.34772467322E+03  0.42916697098E+03  0.17200000000E+03 0. -1.
</event>
<event>
 4    1  0.5818436E+000  0.1751054E+03  0.7818608E-02  0.1172626E+00
         21   -1    0    0  501  502  0.00000000000E+00  0.00000000000E+00  0.46676983274E+03  0.46676983274E+03  0.00000000000E+00 0. -1.
         21   -1    0    0  502  503 -0.00000000000E+00 -0.00000000000E+00 -0.82162470238E+03  0.82162470238E+03  0.00000000000E+00 0. -1.
          6    1    1    2  501    0  0.26422941113E+02  0.19486975676E+02  0.44048138833E+03  0.47401030316E+03  0.17200000000E+03 0. -1.
         -6    1    1    2    0  503 -0.26422941113E+02 -0.19486975676E+02 -0.79533625797E+03  0.81438423197E+03  0.17200000000E+03 0. -1.
</event>
<event>
 4    1  0.5818436E+000  0.2266328E+03  0.7818608E-02  0.1129032E+00
         21   -1    0    0  501  502  0.00000000000E+00  0.00000000000E+00  0.53386456622E+02  0.53386456622E+02  0.00000000000E+00 0.  1.
         21   -1    0    0  502  503 -0.00000000000E+00 -0.00000000000E+00 -0.10016551401E+04  0.10016551401E+04  0.00000000000E+00 0.  1.
          6    1    1    2  501    0  0.64996838995E+02 -0.13249097235E+03 -0.36928876510E+03  0.43328586275E+03  0.17200000000E+03 0.  1.
         -6    1    1    2    0  503 -0.64996838995E+02  0.13249097235E+03 -0.57897991837E+03  0.62175573396E+03  0.17200000000E+03 0.  1.
</event>
<event>
 4    1  0.5818436E+000  0.4216261E+03  0.7818608E-02  0.1036538E+00
         21   -1    0    0  503  502  0.00000000000E+00  0.00000000000E+00  0.36780683151E+03  0.36780683151E+03  0.00000000000E+00 0. -1.
         21   -1    0    0  501  503 -0.00000000000E+00 -0.00000000000E+00 -0.51769406110E+03  0.51769406110E+03  0.00000000000E+00 0. -1.
          6    1    1    2  501    0 -0.34147454026E+03  0.17770668278E+03  0.39143244306E+02  0.42343915776E+03  0.17200000000E+03 0. -1.
         -6    1    1    2    0  502  0.34147454026E+03 -0.17770668278E+03 -0.18903047390E+03  0.46206173485E+03  0.17200000000E+03 0. -1.
</event>
<event>
 4    1  0.5818436E+000  0.1918683E+03  0.7818608E-02  0.1156787E+00
         21   -1    0    0  501  502  0.00000000000E+00  0.00000000000E+00  0.27377516172E+03  0.27377516172E+03  0.00000000000E+00 0. -1.
         21   -1    0    0  502  503 -0.00000000000E+00 -0.00000000000E+00 -0.13536846424E+03  0.13536846424E+03  0.00000000000E+00 0. -1.
          6    1    1    2  501    0  0.74244248415E+01  0.84701373676E+02  0.85906846113E+02  0.21022233705E+03  0.17200000000E+03 0. -1.
         -6    1    1    2    0  503 -0.74244248415E+01 -0.84701373676E+02  0.52499851374E+02  0.19892128891E+03  0.17200000000E+03 0. -1.
</event>
<event>
 4    1  0.5818436E+000  0.1754845E+03  0.7818608E-02  0.1172246E+00
         21   -1    0    0  503  502  0.00000000000E+00  0.00000000000E+00  0.20631013494E+03  0.20631013494E+03  0.00000000000E+00 0.  1.
         21   -1    0    0  501  503 -0.00000000000E+00 -0.00000000000E+00 -0.18903600434E+03  0.18903600434E+03  0.00000000000E+00 0.  1.
          6    1    1    2  501    0 -0.34694735341E+02  0.26589275466E+01 -0.82032355830E+02  0.19371138831E+03  0.17200000000E+03 0.  1.
         -6    1    1    2    0  502  0.34694735341E+02 -0.26589275466E+01  0.99306486432E+02  0.20163475098E+03  0.17200000000E+03 0.  1.
</event>
<event>
 4    1  0.5818436E+000  0.2750858E+03  0.7818608E-02  0.1098404E+00
         21   -1    0    0  501  502  0.00000000000E+00  0.00000000000E+00  0.27961658450E+03  0.27961658450E+03  0.00000000000E+00 0. -1.
         21   -1    0    0  502  503 -0.00000000000E+00 -0.00000000000E+00 -0.47338922183E+03  0.47338922183E+03  0.00000000000E+00 0. -1.
          6    1    1    2  501    0 -0.10020657498E+03  0.18986011198E+03  0.14951955131E+03  0.31309473968E+03  0.17200000000E+03 0. -1.
         -6    1    1    2    0  503  0.10020657498E+03 -0.18986011198E+03 -0.34329218863E+03  0.43991106665E+03  0.17200000000E+03 0. -1.
</event>
<event>
 4    1  0.5818436E+000  0.1892242E+03  0.7818608E-02  0.1159163E+00
         21   -1    0    0  503  502  0.00000000000E+00  0.00000000000E+00  0.11841619841E+03  0.11841619841E+03  0.00000000000E+00 0.  1.
         21   -1    0    0  501  503 -0.00000000000E+00 -0.00000000000E+00 -0.59771544344E+03  0.59771544344E+03  0.00000000000E+00 0.  1.
          6    1    1    2  501    0 -0.61195145773E+02  0.49768969353E+02 -0.49134715867E+03  0.52652428862E+03  0.17200000000E+03 0.  1.
         -6    1    1    2    0  502  0.61195145773E+02 -0.49768969353E+02  0.12047913638E+02  0.18960735323E+03  0.17200000000E+03 0.  1.
</event>
<event>
 4    1  0.5818436E+000  0.2104530E+03  0.7818608E-02  0.1141208E+00
         21   -1    0    0  503  502  0.00000000000E+00  0.00000000000E+00  0.51907124532E+03  0.51907124532E+03  0.00000000000E+00 0.  1.
         21   -1    0    0  501  503 -0.00000000000E+00 -0.00000000000E+00 -0.88761340916E+02  0.88761340916E+02  0.00000000000E+00 0.  1.
          6    1    1    2  501    0 -0.98000780436E+02  0.71430514246E+02  0.15536849298E+03  0.26159097832E+03  0.17200000000E+03 0.  1.
         -6    1    1    2    0  502  0.98000780436E+02 -0.71430514246E+02  0.27494141143E+03  0.34624160791E+03  0.17200000000E+03 0.  1.
</event>
<event>
 4    1  0.5818436E+000  0.1922500E+03  0.7818608E-02  0.1156447E+00
         21   -1    0    0  503  502  0.00000000000E+00  0.00000000000E+00  0.10347029334E+03  0.10347029334E+03  0.00000000000E+00 0.  1.
         21   -1    0    0  501  503 -0.00000000000E+00 -0.00000000000E+00 -0.35751678566E+03  0.35751678566E+03  0.00000000000E+00 0.  1.
          6    1    1    2  501    0  0.78258439366E+02  0.35379203291E+02 -0.13383364494E+03  0.23424669875E+03  0.17200000000E+03 0.  1.
         -6    1    1    2    0  502 -0.78258439366E+02 -0.35379203291E+02 -0.12021284738E+03  0.22674038025E+03  0.17200000000E+03 0.  1.
</event>
<event>
 4    1  0.5818436E+000  0.2522829E+03  0.7818608E-02  0.1111871E+00
         21   -1    0    0  501  502  0.00000000000E+00  0.00000000000E+00  0.89113497754E+03  0.89113497754E+03  0.00000000000E+00 0.  1.
         21   -1    0    0  502  503 -0.00000000000E+00 -0.00000000000E+00 -0.86776290019E+02  0.86776290019E+02  0.00000000000E+00 0. -1.
          6    1    1    2  501    0 -0.47926185896E+02  0.17822943586E+03  0.60785535736E+03  0.65812976424E+03  0.17200000000E+03 0.  1.
         -6    1    1    2    0  503  0.47926185896E+02 -0.17822943586E+03  0.19650333016E+03  0.31978150332E+03  0.17200000000E+03 0. -1.
</event>
<event>
 4    1  0.5818436E+000  0.1882899E+03  0.7818608E-02  0.1160013E+00
         21   -1    0    0  503  502  0.00000000000E+00  0.00000000000E+00  0.13992768667E+03  0.13992768667E+03  0.00000000000E+00 0. -1.
         21   -1    0    0  501  503 -0.00000000000E+00 -0.00000000000E+00 -0.37833526249E+03  0.37833526249E+03  0.00000000000E+00 0. -1.
          6    1    1    2  501    0  0.53733853953E+02 -0.54605427550E+02 -0.26813350120E+03  0.32764104481E+03  0.17200000000E+03 0. -1.
         -6    1    1    2    0  502 -0.53733853953E+02  0.54605427550E+02  0.29725925380E+02  0.19062190435E+03  0.17200000000E+03 0. -1.
</event>
<event>
 4    1  0.5818436E+000  0.2387800E+03  0.7818608E-02  0.1120608E+00
         21   -1    0    0  503  502  0.00000000000E+00  0.00000000000E+00  0.99918025932E+02  0.99918025932E+02  0.00000000000E+00 0. -1.
         21   -1    0    0  501  503 -0.00000000000E+00 -0.00000000000E+00 -0.61539945850E+03  0.61539945850E+03  0.00000000000E+00 0. -1.
          6    1    1    2  501    0 -0.16432893565E+03 -0.20685353699E+02 -0.16126950667E+03  0.28813839857E+03  0.17200000000E+03 0. -1.
         -6    1    1    2    0  502  0.16432893565E+03  0.20685353699E+02 -0.35421192590E+03  0.42717908586E+03  0.17200000000E+03 0. -1.
</event>
<event>
 4    1  0.5818436E+000  0.1892163E+03  0.7818608E-02  0.1159170E+00
         21   -1    0    0  501  502  0.00000000000E+00  0.00000000000E+00  0.10514838165E+03  0.10514838165E+03  0.00000000000E+00 0. -1.
         21   -1    0    0  502  503 -0.00000000000E+00 -0.00000000000E+00 -0.11625426454E+04  0.11625426454E+04  0.00000000000E+00 0. -1.
          6    1    1    2  501    0 -0.96800454513E+00 -0.78853503971E+02  0.43022193605E+01  0.18926521395E+03  0.17200000000E+03 0. -1.
         -6    1    1    2    0  503  0.96800454513E+00  0.78853503971E+02 -0.10616964831E+04  0.10784258131E+04  0.17200000000E+03 0. -1.
</event>
<event>
 4    1  0.5818436E+000  0.1953653E+03  0.7818608E-02  0.1153709E+00
         21   -1    0    0  503  502  0.00000000000E+00  0.00000000000E+00  0.26709943558E+03  0.26709943558E+03  0.00000000000E+00 0. -1.
         21   -1    0    0  501  503 -0.00000000000E+00 -0.00000000000E+00 -0.25837297809E+03  0.25837297809E+03  0.00000000000E+00 0.  1.
          6    1    1    2  501    0  0.53799853854E+02 -0.75426570851E+02 -0.17128469590E+03  0.25981924277E+03  0.17200000000E+03 0.  1.
         -6    1    1    2    0  502 -0.53799853854E+02  0.75426570851E+02  0.18001115338E+03  0.26565317090E+03  0.17200000000E+03 0. -1.
</event>
<event>
 4    1  0.5818436E+000  0.2519680E+03  0.7818608E-02  0.1112067E+00
         21   -1    0    0  503  502  0.00000000000E+00  0.00000000000E+00  0.21140902493E+03  0.21140902493E+03  0.00000000000E+00 0.  1.
         21   -1    0    0  501  503 -0.00000000000E+00 -0.00000000000E+00 -0.33464251368E+03  0.33464251368E+03  0.00000000000E+00 0.  1.
          6    1    1    2  501    0 -0.42453735837E+02  0.17916902162E+03 -0.14907029362E+03  0.29276237879E+03  0.17200000000E+03 0.  1.
         -6    1    1    2    0  502  0.42453735837E+02 -0.17916902162E+03  0.25836804872E+02  0.25328915982E+03  0.17200000000E+03 0.  1.
</event>
<event>
 4    1  0.5818436E+000  0.4038505E+03  0.7818608E-02  0.1042454E+00
         21   -1    0    0  501  502  0.00000000000E+00  0.00000000000E+00  0.68999976554E+03  0.68999976554E+03  0.00000000000E+00 0. -1.
         21   -1    0    0  502  503 -0.00000000000E+00 -0.00000000000E+00 -0.32512603827E+03  0.32512603827E+03  0.00000000000E+00 0. -1.
          6    1    1    2  501    0 -0.35229477748E+03  0.96951425984E+02  0.44763052921E+03  0.60288330539E+03  0.17200000000E+03 0. -1.
         -6    1    1    2    0  503  0.35229477748E+03 -0.96951425984E+02 -0.82756801941E+02  0.41224249842E+03  0.17200000000E+03 0. -1.
</event>
<event>
 4    1  0.5818436E+000  0.1906067E+03  0.7818608E-02  0.1157915E+00
         21   -1    0    0  503  502  0.00000000000E+00  0.00000000000E+00  0.40782910928E+02  0.40782910928E+02  0.00000000000E+00 0. -1.
         21   -1    0    0  501  503 -0.00000000000E+00 -0.00000000000E+00 -0.10557045752E+04  0.10557045752E+04  0.00000000000E+00 0.  1.
          6    1    1    2  501    0  0.81353035451E+02  0.11340041388E+02 -0.72411673725E+03  0.74878298731E+03  0.17200000000E+03 0.  1.
         -6    1    1    2    0  502 -0.81353035451E+02 -0.11340041388E+02 -0.29080492699E+03  0.34770449878E+03  0.17200000000E+03 0. -1.
</event>
<event>
 4    1  0.5818436E+000  0.2399193E+03  0.7818608E-02  0.1119847E+00
         21   -1    0    0  501  502  0.00000000000E+00  0.00000000000E+00  0.83006539417E+03  0.83006539417E+03  0.00000000000E+00 0.  1.
         21   -1    0    0  502  503 -0.00000000000E+00 -0.00000000000E+00 -0.87332074183E+02  0.87332074183E+02  0.00000000000E+00 0.  1.
          6    1    1    2  501    0  0.16694812434E+03 -0.10275802933E+02  0.16319800407E+03  0.29016350025E+03  0.17200000000E+03 0.  1.
         -6    1    1    2    0  503 -0.16694812434E+03  0.10275802933E+02  0.57953531592E+03  0.62723396811E+03  0.17200000000E+03 0.  1.
</event>
<event>
 4    1  0.5818436E+000  0.1736644E+03  0.7818608E-02  0.1174079E+00
         21   -1    0    0  503  502  0.00000000000E+00  0.00000000000E+00  0.48471909752E+03  0.48471909752E+03  0.00000000000E+00 0. -1.
         21   -1    0    0  501  503 -0.00000000000E+00 -0.00000000000E+00 -0.16490090403E+03  0.16490090403E+03  0.00000000000E+00 0. -1.
          6    1    1    2  501    0 -0.23702080679E+02  0.36802074961E+01 -0.96398946349E+02  0.19862550041E+03  0.17200000000E+03 0. -1.
         -6    1    1    2    0  502  0.23702080679E+02 -0.36802074961E+01  0.41621713984E+03  0.45099450114E+03  0.17200000000E+03 0. -1.
</event>
<event>
 4    1  0.5818436E+000  0.2064319E+03  0.7818608E-02  0.1144423E+00
         21   -1    0    0  501  502  0.00000000000E+00  0.00000000000E+00  0.45302930970E+03  0.45302930970E+03  0.00000000000E+00 0.  1.
         21   -1    0    0  502  503 -0.00000000000E+00 -0.00000000000E+00 -0.94864107457E+02  0.94864107457E+02  0.00000000000E+00 0. -1.
          6    1    1    2  501    0 -0.22110951550E+02 -0.11198771950E+03  0.15393753309E+03  0.25750904370E+03  0.17200000000E+03 0.  1.
         -6    1    1    2    0  503  0.22110951550E+02  0.11198771950E+03  0.20422766916E+03  0.29038437345E+03  0.17200000000E+03 0.  1.
</event>
<event>
 4    1  0.5818436E+000  0.1769999E+03  0.7818608E-02  0.1170739E+00
         21   -1    0    0  503  502  0.00000000000E+00  0.00000000000E+00  0.23999975434E+02  0.23999975434E+02  0.00000000000E+00 0.  1.
         21   -1    0    0  501  503 -0.00000000000E+00 -0.00000000000E+00 -0.13385980949E+04  0.13385980949E+04  0.00000000000E+00 0.  1.
          6    1    1    2  501    0 -0.35584219272E+02 -0.21879705336E+02 -0.76463258059E+03  0.78485154104E+03  0.17200000000E+03 0.  1.
         -6    1    1    2    0  502  0.35584219272E+02  0.21879705336E+02 -0.54996553892E+03  0.57774652934E+03  0.17200000000E+03 0.  1.
</event>
<event>
 4    1  0.5818436E+000  0.3023521E+03  0.7818608E-02  0.1084071E+00
         21   -1    0    0  501  502  0.00000000000E+00  0.00000000000E+00  0.73607427707E+03  0.73607427707E+03  0.00000000000E+00 0.  1.
         21   -1    0    0  502  503 -0.00000000000E+00 -0.00000000000E+00 -0.15475863293E+03  0.15475863293E+03  0.00000000000E+00 0.  1.
          6    1    1    2  501    0 -0.19974784443E+03 -0.14809996401E+03  0.48860110245E+03  0.57458492671E+03  0.17200000000E+03 0.  1.
         -6    1    1    2    0  503  0.19974784443E+03  0.14809996401E+03  0.92714541683E+02  0.31624798329E+03  0.17200000000E+03 0.  1.
</event>
<event>
 4    1  0.5818436E+000  0.2530845E+03  0.7818608E-02  0.1111371E+00
         21   -1    0    0  503  502  0.00000000000E+00  0.00000000000E+00  0.43003252101E+02  0.43003252101E+02  0.00000000000E+00 0.  1.
         21   -1    0    0  501  503 -0.00000000000E+00 -0.00000000000E+00 -0.15731558922E+04  0.15731558922E+04  0.00000000000E+00 0.  1.
          6    1    1    2  501    0 -0.35937750834E+01  0.18562015559E+03 -0.95146188068E+03  0.98454632586E+03  0.17200000000E+03 0.  1.
         -6    1    1    2    0  502  0.35937750834E+01 -0.18562015559E+03 -0.57869075942E+03  0.63161281844E+03  0.17200000000E+03 0.  1.
</event>
<event>
 4    1  0.5818436E+000  0.1836443E+03  0.7818608E-02  0.1164322E+00
         21   -1    0    0  503  502  0.00000000000E+00  0.00000000000E+00  0.11683038496E+03  0.11683038496E+03  0.00000000000E+00 0.  1.
         21   -1    0    0  501  503 -0.00000000000E+00 -0.00000000000E+00 -0.33701842322E+03  0.33701842322E+03  0.00000000000E+00 0. -1.
          6    1    1    2  501    0 -0.53678622599E+02  0.35494072705E+02 -0.19604549993E+03  0.26862438788E+03  0.17200000000E+03 0. -1.
         -6    1    1    2    0  502  0.53678622599E+02 -0.35494072705E+02 -0.24142538332E+02  0.18522442031E+03  0.17200000000E+03 0.  1.
</event>
<event>
 4    1  0.5818436E+000  0.1988128E+03  0.7818608E-02  0.1150745E+00
         21   -1    0    0  503  502  0.00000000000E+00  0.00000000000E+00  0.49549336523E+03  0.49549336523E+03  0.00000000000E+00 0. -1.
         21   -1    0    0  501  503 -0.00000000000E+00 -0.00000000000E+00 -0.14736885213E+03  0.14736885213E+03  0.00000000000E+00 0. -1.
          6    1    1    2  501    0 -0.29224638906E+02 -0.95333368105E+02 -0.43632551990E+02  0.20354441822E+03  0.17200000000E+03 0. -1.
         -6    1    1    2    0  502  0.29224638906E+02  0.95333368105E+02  0.39175706509E+03  0.43931779914E+03  0.17200000000E+03 0. -1.
</event>
<event>
 4    1  0.5818436E+000  0.2030367E+03  0.7818608E-02  0.1147202E+00
         21   -1    0    0  501  502  0.00000000000E+00  0.00000000000E+00  0.20175682307E+03  0.20175682307E+03  0.00000000000E+00 0. -1.
         21   -1    0    0  502  503 -0.00000000000E+00 -0.00000000000E+00 -0.24078732347E+03  0.24078732347E+03  0.00000000000E+00 0. -1.
          6    1    1    2  501    0  0.75979089150E+02  0.76596805639E+02  0.66590873531E+02  0.21367788154E+03  0.17200000000E+03 0. -1.
         -6    1    1    2    0  503 -0.75979089150E+02 -0.76596805639E+02 -0.10562137393E+03  0.22886626500E+03  0.17200000000E+03 0. -1.
</event>
<event>
 4    1  0.5818436E+000  0.1864570E+03  0.7818608E-02  0.1161696E+00
         21   -1    0    0  501  502  0.00000000000E+00  0.00000000000E+00  0.65245512605E+02  0.65245512605E+02  0.00000000000E+00 0.  1.
         21   -1    0    0  502  503 -0.00000000000E+00 -0.00000000000E+00 -0.64548495980E+03  0.64548495980E+03  0.00000000000E+00 0.  1.
          6    1    1    2  501    0 -0.15362116099E+02  0.70329264866E+02 -0.14167503001E+03  0.23417517852E+03  0.17200000000E+03 0.  1.
         -6    1    1    2    0  503  0.15362116099E+02 -0.70329264866E+02 -0.43856441718E+03  0.47655529388E+03  0.17200000000E+03 0.  1.
</event>
<event>
 4    1  0.5818436E+000  0.2281622E+03  0.7818608E-02  0.1127940E+00
         21   -1    0    0  503  502  0.00000000000E+00  0.00000000000E+00  0.18543967556E+03  0.18543967556E+03  0.00000000000E+00 0.  1.
         21   -1    0    0  501  503 -0.00000000000E+00 -0.00000000000E+00 -0.28160944443E+03  0.28160944443E+03  0.00000000000E+00 0.  1.
          6    1    1    2  501    0 -0.70380034050E+02 -0.13236549905E+03 -0.61155177046E+02  0.23621585512E+03  0.17200000000E+03 0.  1.
         -6    1    1    2    0  502  0.70380034050E+02  0.13236549905E+03 -0.35014591822E+02  0.23083326487E+03  0.17200000000E+03 0.  1.
</event>
<event>
 4    1  0.5818436E+000  0.2063546E+03  0.7818608E-02  0.1144486E+00
         21   -1    0    0  503  502  0.00000000000E+00  0.00000000000E+00  0.35030907632E+03  0.35030907632E+03  0.00000000000E+00 0. -1.
         21   -1    0    0  501  503 -0.00000000000E+00 -0.00000000000E+00 -0.12155633675E+03  0.12155633675E+03  0.00000000000E+00 0. -1.
          6    1    1    2  501    0 -0.11375503419E+03  0.76167480878E+01  0.11408399467E+03  0.23579096780E+03  0.17200000000E+03 0. -1.
         -6    1    1    2    0  502  0.11375503419E+03 -0.76167480878E+01  0.11466874490E+03  0.23607444527E+03  0.17200000000E+03 0. -1.
</event>
<event>
 4    1  0.5818436E+000  0.2557553E+03  0.7818608E-02  0.1109721E+00
         21   -1    0    0  503  502  0.00000000000E+00  0.00000000000E+00  0.14178483544E+03  0.14178483544E+03  0.00000000000E+00 0. -1.
         21   -1    0    0  501  503 -0.00000000000E+00 -0.00000000000E+00 -0.48422390888E+03  0.48422390888E+03  0.00000000000E+00 0.  1.
          6    1    1    2  501    0  0.63496739210E+02  0.17831135967E+03 -0.10317262872E+03  0.27578137753E+03  0.17200000000E+03 0. -1.
         -6    1    1    2    0  502 -0.63496739210E+02 -0.17831135967E+03 -0.23926644472E+03  0.35022736679E+03  0.17200000000E+03 0.  1.
</event>
<event>
 4    1  0.5818436E+000  0.2004477E+03  0.7818608E-02  0.1149362E+00
         21   -1    0    0  503  502  0.00000000000E+00  0.00000000000E+00  0.23951409728E+02  0.23951409728E+02  0.00000000000E+00 0. -1.
         21   -1    0    0  501  503 -0.00000000000E+00 -0.00000000000E+00 -0.17266574749E+04  0.17266574749E+04  0.00000000000E+00 0. -1.
          6    1    1    2  501    0  0.75359322297E+02 -0.70115872753E+02 -0.99899443470E+03  0.10189058561E+04  0.17200000000E+03 0.  1.
         -6    1    1    2    0  502 -0.75359322297E+02  0.70115872753E+02 -0.70371163046E+03  0.73170302849E+03  0.17200000000E+03 0.  1.
</event>
<event>
 4    1  0.5818436E+000  0.2402520E+03  0.7818608E-02  0.1119625E+00
         21   -1    0    0  503  502  0.00000000000E+00  0.00000000000E+00  0.14362780992E+04  0.14362780992E+04  0.00000000000E+00 0.  1.
         21   -1    0    0  501  503 -0.00000000000E+00 -0.00000000000E+00 -0.52631318118E+02  0.52631318118E+02  0.00000000000E+00 0. -1.
          6    1    1    2  501    0 -0.85117425404E+01 -0.16752483701E+03  0.32984240337E+03  0.40806498482E+03  0.17200000000E+03 0. -1.
         -6    1    1    2    0  502  0.85117425404E+01  0.16752483701E+03  0.10538043777E+04  0.10808444325E+04  0.17200000000E+03 0.  1.
</event>
<event>
 4    1  0.5818436E+000  0.1816348E+03  0.7818608E-02  0.1166230E+00
         21   -1    0    0  501  502  0.00000000000E+00  0.00000000000E+00  0.80100769031E+02  0.80100769031E+02  0.00000000000E+00 0.  1.
         21   -1    0    0  502  503 -0.00000000000E+00 -0.00000000000E+00 -0.45162155159E+03  0.45162155159E+03  0.00000000000E+00 0.  1.
          6    1    1    2  501    0  0.41294023492E+02  0.41255374615E+02 -0.10688566108E+03  0.21075043738E+03  0.17200000000E+03 0.  1.
         -6    1    1    2    0  503 -0.41294023492E+02 -0.41255374615E+02 -0.26463512148E+03  0.32097188324E+03  0.17200000000E+03 0.  1.
</event>
<event>
 4    1  0.5818436E+000  0.2116406E+03  0.7818608E-02  0.1140273E+00
         21   -1    0    0  501  502  0.00000000000E+00  0.00000000000E+00  0.12968324951E+03  0.12968324951E+03  0.00000000000E+00 0. -1.
         21   -1    0    0  502  503 -0.00000000000E+00 -0.00000000000E+00 -0.65010115985E+03  0.65010115985E+03  0.00000000000E+00 0.  1.
          6    1    1    2  501    0 -0.12322962705E+03 -0.47135443505E+01  0.67200260880E+01  0.21174729569E+03  0.17200000000E+03 0. -1.
         -6    1    1    2    0  503  0.12322962705E+03  0.47135443505E+01 -0.52713793643E+03  0.56803711367E+03  0.17200000000E+03 0.  1.
</event>
<event>
 4    1  0.5818436E+000  0.2625949E+03  0.7818608E-02  0.1105594E+00
         21   -1    0    0  503  502  0.00000000000E+00  0.00000000000E+00  0.18639889712E+03  0.18639889712E+03  0.00000000000E+00 0.  1.
         21   -1    0    0  501  503 -0.00000000000E+00 -0.00000000000E+00 -0.42149175414E+03  0.42149175414E+03  0.00000000000E+00 0. -1.
          6    1    1    2  501    0  0.19795640425E+03  0.13614482336E+02 -0.22384557793E+03  0.34505497370E+03  0.17200000000E+03 0. -1.
         -6    1    1    2    0  502 -0.19795640425E+03 -0.13614482336E+02 -0.11247279093E+02  0.26283567756E+03  0.17200000000E+03 0.  1.
</event>
<event>
 4    1  0.5818436E+000  0.3210916E+03  0.7818608E-02  0.1075148E+00
         21   -1    0    0  503  502  0.00000000000E+00  0.00000000000E+00  0.99117582123E+03  0.99117582123E+03  0.00000000000E+00 0.  1.
         21   -1    0    0  501  503 -0.00000000000E+00 -0.00000000000E+00 -0.15845097719E+03  0.15845097719E+03  0.00000000000E+00 0.  1.
          6    1    1    2  501    0 -0.10038816691E+03  0.25186910059E+03  0.79454154298E+02  0.33077604285E+03  0.17200000000E+03 0.  1.
         -6    1    1    2    0  502  0.10038816691E+03 -0.25186910059E+03  0.75327068974E+03  0.81885075558E+03  0.17200000000E+03 0.  1.
</event>
<event>
 4    1  0.5818436E+000  0.1796538E+03  0.7818608E-02  0.1168139E+00
         21   -1    0    0  501  502  0.00000000000E+00  0.00000000000E+00  0.11764015919E+03  0.11764015919E+03  0.00000000000E+00 0.  1.
         21   -1    0    0  502  503 -0.00000000000E+00 -0.00000000000E+00 -0.47509967652E+03  0.47509967652E+03  0.00000000000E+00 0.  1.
          6    1    1    2  501    0 -0.16153569237E+02 -0.49300512450E+02  0.13916641452E+02  0.18019198438E+03  0.17200000000E+03 0.  1.
         -6    1    1    2    0  503  0.16153569237E+02  0.49300512450E+02 -0.37137615878E+03  0.41254785133E+03  0.17200000000E+03 0.  1.
</event>
<event>
 4    1  0.5818436E+000  0.2405646E+03  0.7818608E-02  0.1119417E+00
         21   -1    0    0  503  502  0.00000000000E+00  0.00000000000E+00  0.77151865798E+03  0.77151865798E+03  0.00000000000E+00 0. -1.
         21   -1    0    0  501  503 -0.00000000000E+00 -0.00000000000E+00 -0.23543386521E+03  0.23543386521E+03  0.00000000000E+00 0.  1.
          6    1    1    2  501    0 -0.12057501639E+03  0.11725603284E+03 -0.14756144357E+03  0.28221568249E+03  0.17200000000E+03 0.  1.
         -6    1    1    2    0  502  0.12057501639E+03 -0.11725603284E+03  0.68364623634E+03  0.72473684071E+03  0.17200000000E+03 0. -1.
</event>
<event>
 4    1  0.5818436E+000  0.1937708E+03  0.7818608E-02  0.1155104E+00
         21   -1    0    0  501  502  0.00000000000E+00  0.00000000000E+00  0.42760568388E+03  0.42760568388E+03  0.00000000000E+00 0. -1.
         21   -1    0    0  502  503 -0.00000000000E+00 -0.00000000000E+00 -0.17565196526E+03  0.17565196526E+03  0.00000000000E+00 0. -1.
          6    1    1    2  501    0  0.76262702647E+02  0.46336933178E+02 -0.87329013921E+02  0.21254050876E+03  0.17200000000E+03 0. -1.
         -6    1    1    2    0  503 -0.76262702647E+02 -0.46336933178E+02  0.33928273254E+03  0.39071714038E+03  0.17200000000E+03 0. -1.
</event>
<event>
 4    1  0.5818436E+000  0.4387158E+03  0.7818608E-02  0.1031142E+00
         21   -1    0    0  503  502  0.00000000000E+00  0.00000000000E+00  0.46130752519E+03  0.46130752519E+03  0.00000000000E+00 0. -1.
         21   -1    0    0  501  503 -0.00000000000E+00 -0.00000000000E+00 -0.74728419224E+03  0.74728419224E+03  0.00000000000E+00 0.  1.
          6    1    1    2  501    0  0.34030369560E+03  0.21698142853E+03 -0.54459327881E+03  0.69932351948E+03  0.17200000000E+03 0.  1.
         -6    1    1    2    0  502 -0.34030369560E+03 -0.21698142853E+03  0.25861661176E+03  0.50926819795E+03  0.17200000000E+03 0. -1.
</event>
<event>
 4    1  0.5818436E+000  0.2651780E+03  0.7818608E-02  0.1104072E+00
         21   -1    0    0  503  502  0.00000000000E+00  0.00000000000E+00  0.52918096113E+03  0.52918096113E+03  0.00000000000E+00 0. -1.
         21   -1    0    0  501  503 -0.00000000000E+00 -0.00000000000E+00 -0.13352987092E+03  0.13352987092E+03  0.00000000000E+00 0.  1.
          6    1    1    2  501    0  0.19744032989E+03  0.41864803923E+02  0.17476912728E+03  0.31759029192E+03  0.17200000000E+03 0.  1.
         -6    1    1    2    0  502 -0.19744032989E+03 -0.41864803923E+02  0.22088196293E+03  0.34512054013E+03  0.17200000000E+03 0.  1.
</event>
<event>
 4    1  0.5818436E+000  0.1766339E+03  0.7818608E-02  0.1171101E+00
         21   -1    0    0  501  502  0.00000000000E+00  0.00000000000E+00  0.63752555374E+02  0.63752555374E+02  0.00000000000E+00 0. -1.
         21   -1    0    0  502  503 -0.00000000000E+00 -0.00000000000E+00 -0.56018320767E+03  0.56018320767E+03  0.00000000000E+00 0. -1.
          6    1    1    2  501    0 -0.39639797868E+02  0.66505340982E+01 -0.13730907466E+03  0.22372600466E+03  0.17200000000E+03 0.  1.
         -6    1    1    2    0  503  0.39639797868E+02 -0.66505340982E+01 -0.35912157763E+03  0.40020975838E+03  0.17200000000E+03 0.  1.
</event>
<event>
 4    1  0.5818436E+000  0.2424362E+03  0.7818608E-02  0.1118180E+00
         21   -1    0    0  501  502  0.00000000000E+00  0.00000000000E+00  0.67729497708E+03  0.67729497708E+03  0.00000000000E+00 0.  1.
         21   -1    0    0  502  503 -0.00000000000E+00 -0.00000000000E+00 -0.33533516259E+03  0.33533516259E+03  0.00000000000E+00 0. -1.
          6    1    1    2  501    0  0.18428805195E+02 -0.16985788171E+03  0.60688619677E+03  0.65351830630E+03  0.17200000000E+03 0.  1.
         -6    1    1    2    0  503 -0.18428805195E+02  0.16985788171E+03 -0.26492638228E+03  0.35911183337E+03  0.17200000000E+03 0. -1.
</event>
<event>
 4    1  0.5818436E+000  0.1785661E+03  0.7818608E-02  0.1169198E+00
         21   -1    0    0  503  502  0.00000000000E+00  0.00000000000E+00  0.19235533500E+03  0.19235533500E+03  0.00000000000E+00 0. -1.
         21   -1    0    0  501  503 -0.00000000000E+00 -0.00000000000E+00 -0.18492450779E+03  0.18492450779E+03  0.00000000000E+00 0. -1.
          6    1    1    2  501    0  0.27917438741E+02  0.39019001862E+02 -0.57003446270E+02  0.18744401505E+03  0.17200000000E+03 0. -1.
         -6    1    1    2    0  502 -0.27917438741E+02 -0.39019001862E+02  0.64434273478E+02  0.18983582773E+03  0.17200000000E+03 0. -1.
</event>
<event>
 4    1  0.5818436E+000  0.2953501E+03  0.7818608E-02  0.1087588E+00
         21   -1    0    0  503  502  0.00000000000E+00  0.00000000000E+00  0.10410901712E+03  0.10410901712E+03  0.00000000000E+00 0.  1.
         21   -1    0    0  501  503 -0.00000000000E+00 -0.00000000000E+00 -0.84600737462E+03  0.84600737462E+03  0.00000000000E+00 0. -1.
          6    1    1    2  501    0 -0.13114181123E+03 -0.20112058504E+03 -0.41748947975E+03  0.51139918858E+03  0.17200000000E+03 0.  1.
         -6    1    1    2    0  502  0.13114181123E+03  0.20112058504E+03 -0.32440887776E+03  0.43871720316E+03  0.17200000000E+03 0. -1.
</event>
<event>
 4    1  0.5818436E+000  0.2261893E+03  0.7818608E-02  0.1129351E+00
         21   -1    0    0  501  502  0.00000000000E+00  0.00000000000E+00  0.33206174734E+03  0.33206174734E+03  0.00000000000E+00 0.  1.
         21   -1    0    0  502  503 -0.00000000000E+00 -0.00000000000E+00 -0.16942431629E+03  0.16942431629E+03  0.00000000000E+00 0.  1.
          6    1    1    2  501    0 -0.14522303224E+03 -0.22088009308E+02  0.15679661237E+03  0.27522134165E+03  0.17200000000E+03 0.  1.
         -6    1    1    2    0  503  0.14522303224E+03  0.22088009308E+02  0.58408186897E+01  0.22626472198E+03  0.17200000000E+03 0.  1.
</event>
<event>
 4    1  0.5818436E+000  0.2620951E+03  0.7818608E-02  0.1105891E+00
         21   -1    0    0  501  502  0.00000000000E+00  0.00000000000E+00  0.35711328145E+03  0.35711328145E+03  0.00000000000E+00 0.  1.
         21   -1    0    0  502  503 -0.00000000000E+00 -0.00000000000E+00 -0.19636172148E+03  0.19636172148E+03  0.00000000000E+00 0.  1.
          6    1    1    2  501    0  0.18035631846E+03 -0.81125984961E+02  0.11988846359E+03  0.28821358529E+03  0.17200000000E+03 0.  1.
         -6    1    1    2    0  503 -0.18035631846E+03  0.81125984961E+02  0.40863096382E+02  0.26526141764E+03  0.17200000000E+03 0.  1.
</event>
<event>
 4    1  0.5818436E+000  0.3236217E+03  0.7818608E-02  0.1073994E+00
         21   -1    0    0  501  502  0.00000000000E+00  0.00000000000E+00  0.21546543085E+03  0.21546543085E+03  0.00000000000E+00 0. -1.
         21   -1    0    0  502  503 -0.00000000000E+00 -0.00000000000E+00 -0.60606336093E+03  0.60606336093E+03  0.00000000000E+00 0.  1.
          6    1    1    2  501    0 -0.27349263730E+03  0.18675954798E+02 -0.12524871806E+02  0.32386399362E+03  0.17200000000E+03 0. -1.
         -6    1    1    2    0  503  0.27349263730E+03 -0.18675954798E+02 -0.37807305827E+03  0.49766479817E+03  0.17200000000E+03 0.  1.
</event>
<event>
 4    1  0.5818436E+000  0.1846856E+03  0.7818608E-02  0.1163344E+00
         21   -1    0    0  501  502  0.00000000000E+00  0.00000000000E+00  0.79068521044E+02  0.79068521044E+02  0.00000000000E+00 0.  1.
         21   -1    0    0  502  503 -0.00000000000E+00 -0.00000000000E+00 -0.44787446765E+03  0.44787446765E+03  0.00000000000E+00 0.  1.
          6    1    1    2  501    0  0.25287172895E+02  0.62332293566E+02 -0.23496158118E+03  0.29885732476E+03  0.17200000000E+03 0.  1.
         -6    1    1    2    0  503 -0.25287172895E+02 -0.62332293566E+02 -0.13384436543E+03  0.22808566393E+03  0.17200000000E+03 0.  1.
</event>
<event>
 4    1  0.5818436E+000  0.1899697E+03  0.7818608E-02  0.1158489E+00
         21   -1    0    0  503  502  0.00000000000E+00  0.00000000000E+00  0.50972561070E+03  0.50972561070E+03  0.00000000000E+00 0.  1.
         21   -1    0    0  501  503 -0.00000000000E+00 -0.00000000000E+00 -0.19689670142E+03  0.19689670142E+03  0.00000000000E+00 0. -1.
          6    1    1    2  501    0  0.42423994906E+02  0.68590840918E+02 -0.12632749283E+03  0.22813841028E+03  0.17200000000E+03 0. -1.
         -6    1    1    2    0  502 -0.42423994906E+02 -0.68590840918E+02  0.43915640211E+03  0.47848390184E+03  0.17200000000E+03 0.  1.
</event>
<event>
 4    1  0.5818436E+000  0.1773498E+03  0.7818608E-02  0.1170393E+00
         21   -1    0    0  503  502  0.00000000000E+00  0.00000000000E+00  0.10870327242E+04  0.10870327242E+04  0.00000000000E+00 0. -1.
         21   -1    0    0  501  503 -0.00000000000E+00 -0.00000000000E+00 -0.37707740068E+02  0.37707740068E+02  0.00000000000E+00 0. -1.
          6    1    1    2  501    0  0.31131510904E+02 -0.29996375908E+02  0.25340458495E+03  0.30930056128E+03  0.17200000000E+03 0. -1.
         -6    1    1    2    0  502 -0.31131510904E+02  0.29996375908E+02  0.79592039917E+03  0.81543990297E+03  0.17200000000E+03 0. -1.
</event>
<event>
 4    1  0.5818436E+000  0.1929422E+03  0.7818608E-02  0.1155834E+00
         21   -1    0    0  501  502  0.00000000000E+00  0.00000000000E+00  0.22217205906E+02  0.22217205906E+02  0.00000000000E+00 0.  1.
         21   -1    0    0  502  503 -0.00000000000E+00 -0.00000000000E+00 -0.19621251148E+04  0.19621251148E+04  0.00000000000E+00 0.  1.
          6    1    1    2  501    0 -0.77919874088E+02  0.39638122977E+02 -0.59079581855E+03  0.62150332806E+03  0.17200000000E+03 0.  1.
         -6    1    1    2    0  503  0.77919874088E+02 -0.39638122977E+02 -0.13491120904E+04  0.13628389927E+04  0.17200000000E+03 0.  1.
</event>
<event>
 4    1  0.5818436E+000  0.1844735E+03  0.7818608E-02  0.1163543E+00
         21   -1    0    0  501  502  0.00000000000E+00  0.00000000000E+00  0.51412029492E+03  0.51412029492E+03  0.00000000000E+00 0. -1.
         21   -1    0    0  502  503 -0.00000000000E+00 -0.00000000000E+00 -0.72505727767E+02  0.72505727767E+02  0.00000000000E+00 0. -1.
          6    1    1    2  501    0 -0.66043356075E+02 -0.92048450943E+01  0.30736409350E+03  0.35847334633E+03  0.17200000000E+03 0. -1.
         -6    1    1    2    0  503  0.66043356075E+02  0.92048450943E+01  0.13425047366E+03  0.22815267637E+03  0.17200000000E+03 0. -1.
</event>
<event>
 4    1  0.5818436E+000  0.1877925E+03  0.7818608E-02  0.1160468E+00
         21   -1    0    0  503  502  0.00000000000E+00  0.00000000000E+00  0.20124616877E+03  0.20124616877E+03  0.00000000000E+00 0. -1.
         21   -1    0    0  501  503 -0.00000000000E+00 -0.00000000000E+00 -0.30913199207E+03  0.30913199207E+03  0.00000000000E+00 0. -1.
          6    1    1    2  501    0  0.70805351604E+01  0.75046006952E+02 -0.22188910480E+03  0.29069023370E+03  0.17200000000E+03 0. -1.
         -6    1    1    2    0  502 -0.70805351604E+01 -0.75046006952E+02  0.11400328151E+03  0.21968792714E+03  0.17200000000E+03 0. -1.
</event>
<event>
 4    1  0.5818436E+000  0.3051621E+03  0.7818608E-02  0.1082688E+00
         21   -1    0    0  501  502  0.00000000000E+00  0.00000000000E+00  0.19216618800E+03  0.19216618800E+03  0.00000000000E+00 0. -1.
         21   -1    0    0  502  503 -0.00000000000E+00 -0.00000000000E+00 -0.58580852908E+03  0.58580852908E+03  0.00000000000E+00 0.  1.
          6    1    1    2  501    0  0.37925255104E+02 -0.24920186434E+03 -0.35850419279E+03  0.47079629396E+03  0.17200000000E+03 0.  1.
         -6    1    1    2    0  503 -0.37925255104E+02  0.24920186434E+03 -0.35138148293E+02  0.30717842312E+03  0.17200000000E+03 0. -1.
</event>
<event>
 4    1  0.5818436E+000  0.1995005E+03  0.7818608E-02  0.1150161E+00
         21   -1    0    0  503  502  0.00000000000E+00  0.00000000000E+00  0.43836535238E+03  0.43836535238E+03  0.00000000000E+00 0. -1.
         21   -1    0    0  501  503 -0.00000000000E+00 -0.00000000000E+00 -0.16049608228E+03  0.16049608228E+03  0.00000000000E+00 0.  1.
          6    1    1    2  501    0 -0.94994725074E+02  0.34531634285E+02 -0.58394244274E+02  0.20787091986E+03  0.17200000000E+03 0.  1.
         -6    1    1    2    0  502  0.94994725074E+02 -0.34531634285E+02  0.33626351438E+03  0.39099051479E+03  0.17200000000E+03 0. -1.
</event>
<event>
 4    1  0.5818436E+000  0.2004388E+03  0.7818608E-02  0.1149369E+00
         21   -1    0    0  501  502  0.00000000000E+00  0.00000000000E+00  0.30412464811E+04  0.30412464811E+04  0.00000000000E+00 0.  1.
         21   -1    0    0  502  503 -0.00000000000E+00 -0.00000000000E+00 -0.15356554930E+02  0.15356554930E+02  0.00000000000E+00 0.  1.
          6    1    1    2  501    0  0.96482148389E+02 -0.35817969512E+02  0.20842977435E+04  0.20939132780E+04  0.17200000000E+03 0.  1.
         -6    1    1    2    0  503 -0.96482148389E+02  0.35817969512E+02  0.94159218260E+03  0.96268975804E+03  0.17200000000E+03 0.  1.
</event>
<event>
 4    1  0.5818436E+000  0.1850167E+03  0.7818608E-02  0.1163034E+00
         21   -1    0    0  503  502  0.00000000000E+00  0.00000000000E+00  0.37606965232E+03  0.37606965232E+03  0.00000000000E+00 0. -1.
         21   -1    0    0  501  503 -0.00000000000E+00 -0.00000000000E+00 -0.27597936493E+03  0.27597936493E+03  0.00000000000E+00 0. -1.
          6    1    1    2  501    0  0.66020695705E+02  0.16983870656E+02 -0.21685325726E+03  0.28505529167E+03  0.17200000000E+03 0. -1.
         -6    1    1    2    0  502 -0.66020695705E+02 -0.16983870656E+02  0.31694354465E+03  0.36699372558E+03  0.17200000000E+03 0. -1.
</event>
<event>
 4    1  0.5818436E+000  0.2153402E+03  0.7818608E-02  0.1137406E+00
         21   -1    0    0  501  502  0.00000000000E+00  0.00000000000E+00  0.18282675671E+03  0.18282675671E+03  0.00000000000E+00 0. -1.
         21   -1    0    0  502  503 -0.00000000000E+00 -0.00000000000E+00 -0.28308813371E+03  0.28308813371E+03  0.00000000000E+00 0. -1.
          6    1    1    2  501    0  0.45426312398E+02  0.12134194366E+03  0.25010032588E+02  0.21678772769E+03  0.17200000000E+03 0. -1.
         -6    1    1    2    0  503 -0.45426312398E+02 -0.12134194366E+03 -0.12527140959E+03  0.24912716273E+03  0.17200000000E+03 0. -1.
</event>
<event>
 4    1  0.5818436E+000  0.2297581E+03  0.7818608E-02  0.1126810E+00
         21   -1    0    0  501  502  0.00000000000E+00  0.00000000000E+00  0.13363098862E+03  0.13363098862E+03  0.00000000000E+00 0.  1.
         21   -1    0    0  502  503 -0.00000000000E+00 -0.00000000000E+00 -0.63827557019E+03  0.63827557019E+03  0.00000000000E+00 0.  1.
          6    1    1    2  501    0 -0.15100242449E+03  0.20075978455E+02 -0.14063151173E+02  0.23018807383E+03  0.17200000000E+03 0.  1.
         -6    1    1    2    0  503  0.15100242449E+03 -0.20075978455E+02 -0.49058143040E+03  0.54171848498E+03  0.17200000000E+03 0.  1.
</event>
<event>
 4    1  0.5818436E+000  0.1823018E+03  0.7818608E-02  0.1165594E+00
         21   -1    0    0  501  502  0.00000000000E+00  0.00000000000E+00  0.43052424154E+03  0.43052424154E+03  0.00000000000E+00 0.  1.
         21   -1    0    0  502  503 -0.00000000000E+00 -0.00000000000E+00 -0.83202991049E+02  0.83202991049E+02  0.00000000000E+00 0.  1.
          6    1    1    2  501    0  0.48112176227E+02  0.36539977225E+02  0.24268915162E+03  0.30353249538E+03  0.17200000000E+03 0.  1.
         -6    1    1    2    0  503 -0.48112176227E+02 -0.36539977225E+02  0.10463209887E+03  0.21019473721E+03  0.17200000000E+03 0.  1.
</event>
<event>
 4    1  0.5818436E+000  0.1745291E+03  0.7818608E-02  0.1173205E+00
         21   -1    0    0  503  502  0.00000000000E+00  0.00000000000E+00  0.15992509293E+03  0.15992509293E+03  0.00000000000E+00 0.  1.
         21   -1    0    0  501  503 -0.00000000000E+00 -0.00000000000E+00 -0.30974380148E+03  0.30974380148E+03  0.00000000000E+00 0.  1.
          6    1    1    2  501    0  0.23017829070E+02 -0.18617184278E+02 -0.22063596182E+03  0.28131947614E+03  0.17200000000E+03 0. -1.
         -6    1    1    2    0  502 -0.23017829070E+02  0.18617184278E+02  0.70817253270E+02  0.18834941828E+03  0.17200000000E+03 0. -1.
</event>
<event>
 4    1  0.5818436E+000  0.1821401E+03  0.7818608E-02  0.1165748E+00
         21   -1    0    0  503  502  0.00000000000E+00  0.00000000000E+00  0.58016205356E+02  0.58016205356E+02  0.00000000000E+00 0. -1.
         21   -1    0    0  501  503 -0.00000000000E+00 -0.00000000000E+00 -0.69462052640E+03  0.69462052640E+03  0.00000000000E+00 0.  1.
          6    1    1    2  501    0  0.46166015341E+02 -0.38206026527E+02 -0.47652762946E+03  0.51015054942E+03  0.17200000000E+03 0.  1.
         -6    1    1    2    0  502 -0.46166015341E+02  0.38206026527E+02 -0.16007669158E+03  0.24248618234E+03  0.17200000000E+03 0. -1.
</event>
<event>
 4    1  0.5818436E+000  0.1867108E+03  0.7818608E-02  0.1161462E+00
         21   -1    0    0  503  502  0.00000000000E+00  0.00000000000E+00  0.42796900823E+02  0.42796900823E+02  0.00000000000E+00 0.  1.
         21   -1    0    0  501  503 -0.00000000000E+00 -0.00000000000E+00 -0.91327367638E+03  0.91327367638E+03  0.00000000000E+00 0.  1.
          6    1    1    2  501    0  0.51776465840E+02  0.50952188552E+02 -0.59239531620E+03  0.62112248276E+03  0.17200000000E+03 0.  1.
         -6    1    1    2    0  502 -0.51776465840E+02 -0.50952188552E+02 -0.27808145935E+03  0.33494809444E+03  0.17200000000E+03 0.  1.
</event>
<event>
 4    1  0.5818436E+000  0.1897508E+03  0.7818608E-02  0.1158686E+00
         21   -1    0    0  503  502  0.00000000000E+00  0.00000000000E+00  0.89634435398E+03  0.89634435398E+03  0.00000000000E+00 0. -1.
         21   -1    0    0  501  503 -0.00000000000E+00 -0.00000000000E+00 -0.15624972122E+03  0.15624972122E+03  0.00000000000E+00 0.  1.
          6    1    1    2  501    0  0.14627513547E+02  0.78786947585E+02  0.82367668022E+03  0.84525062602E+03  0.17200000000E+03 0. -1.
         -6    1    1    2    0  502 -0.14627513547E+02 -0.78786947585E+02 -0.83582047454E+02  0.20734344918E+03  0.17200000000E+03 0.  1.
</event>
<event>
 4    1  0.5818436E+000  0.1777491E+03  0.7818608E-02  0.1169999E+00
         21   -1    0    0  503  502  0.00000000000E+00  0.00000000000E+00  0.28741246609E+03  0.28741246609E+03  0.00000000000E+00 0.  1.
         21   -1    0    0  501  503 -0.00000000000E+00 -0.00000000000E+00 -0.12586251024E+03  0.12586251024E+03  0.00000000000E+00 0.  1.
          6    1    1    2  501    0 -0.42162820318E+02  0.15265198174E+02  0.72512011166E+01  0.17789690725E+03  0.17200000000E+03 0.  1.
         -6    1    1    2    0  502  0.42162820318E+02 -0.15265198174E+02  0.15429875473E+03  0.23537806908E+03  0.17200000000E+03 0.  1.
</event>
<event>
 4    1  0.5818436E+000  0.2558352E+03  0.7818608E-02  0.1109672E+00
         21   -1    0    0  503  502  0.00000000000E+00  0.00000000000E+00  0.52817626399E+03  0.52817626399E+03  0.00000000000E+00 0.  1.
         21   -1    0    0  501  503 -0.00000000000E+00 -0.00000000000E+00 -0.19577817901E+03  0.19577817901E+03  0.00000000000E+00 0.  1.
          6    1    1    2  501    0 -0.15214356220E+03 -0.11278289051E+03 -0.53100117072E+02  0.26128770798E+03  0.17200000000E+03 0.  1.
         -6    1    1    2    0  502  0.15214356220E+03  0.11278289051E+03  0.38549820205E+03  0.46266673502E+03  0.17200000000E+03 0.  1.
</event>
<event>
 4    1  0.5818436E+000  0.2975032E+03  0.7818608E-02  0.1086495E+00
         21   -1    0    0  503  502  0.00000000000E+00  0.00000000000E+00  0.11253686183E+04  0.11253686183E+04  0.00000000000E+00 0.  1.
         21   -1    0    0  501  503 -0.00000000000E+00 -0.00000000000E+00 -0.86657914556E+02  0.86657914556E+02  0.00000000000E+00 0.  1.
          6    1    1    2  501    0  0.29662464169E+01  0.24272483811E+03  0.33511352425E+03  0.44811741741E+03  0.17200000000E+03 0.  1.
         -6    1    1    2    0  502 -0.29662464169E+01 -0.24272483811E+03  0.70359717946E+03  0.76390911541E+03  0.17200000000E+03 0.  1.
</event>
<event>
 4    1  0.5818436E+000  0.2629542E+03  0.7818608E-02  0.1105381E+00
         21   -1    0    0  501  502  0.00000000000E+00  0.00000000000E+00  0.81142693332E+03  0.81142693332E+03  0.00000000000E+00 0. -1.
         21   -1    0    0  502  503 -0.00000000000E+00 -0.00000000000E+00 -0.89253757260E+02  0.89253757260E+02  0.00000000000E+00 0. -1.
          6    1    1    2  501    0  0.10724135487E+03 -0.16751180601E+03  0.45689566409E+03  0.52716084947E+03  0.17200000000E+03 0. -1.
         -6    1    1    2    0  503 -0.10724135487E+03  0.16751180601E+03  0.26527751197E+03  0.37351984112E+03  0.17200000000E+03 0. -1.
</event>
<event>
 4    1  0.5818436E+000  0.1855326E+03  0.7818608E-02  0.1162553E+00
         21   -1    0    0  503  502  0.00000000000E+00  0.00000000000E+00  0.10309718468E+03  0.10309718468E+03  0.00000000000E+00 0.  1.
         21   -1    0    0  501  503 -0.00000000000E+00 -0.00000000000E+00 -0.39488747168E+03  0.39488747168E+03  0.00000000000E+00 0.  1.
          6    1    1    2  501    0 -0.60987767513E+02 -0.33448955257E+02 -0.24376119996E+03  0.30633619277E+03  0.17200000000E+03 0. -1.
         -6    1    1    2    0  502  0.60987767513E+02  0.33448955257E+02 -0.48029087048E+02  0.19164846359E+03  0.17200000000E+03 0. -1.
</event>
<event>
 4    1  0.5818436E+000  0.1721940E+03  0.7818608E-02  0.1175579E+00
         21   -1    0    0  501  502  0.00000000000E+00  0.00000000000E+00  0.17491588157E+03  0.17491588157E+03  0.00000000000E+00 0. -1.
         21   -1    0    0  502  503 -0.00000000000E+00 -0.00000000000E+00 -0.10588023039E+04  0.10588023039E+04  0.00000000000E+00 0. -1.
          6    1    1    2  501    0 -0.57449333985E+01  0.58116220267E+01  0.12338375088E+03  0.21183561833E+03  0.17200000000E+03 0. -1.
         -6    1    1    2    0  503  0.57449333985E+01 -0.58116220267E+01 -0.10072701732E+04  0.10218825671E+04  0.17200000000E+03 0. -1.
</event>
<event>
 4    1  0.5818436E+000  0.2229577E+03  0.7818608E-02  0.1131697E+00
         21   -1    0    0  503  502  0.00000000000E+00  0.00000000000E+00  0.27913529121E+03  0.27913529121E+03  0.00000000000E+00 0.  1.
         21   -1    0    0  501  503 -0.00000000000E+00 -0.00000000000E+00 -0.19187432858E+03  0.19187432858E+03  0.00000000000E+00 0.  1.
          6    1    1    2  501    0  0.13372548522E+03 -0.47366908281E+02  0.10676178990E+03  0.24720074673E+03  0.17200000000E+03 0.  1.
         -6    1    1    2    0  502 -0.13372548522E+03  0.47366908281E+02 -0.19500827275E+02  0.22380887307E+03  0.17200000000E+03 0.  1.
</event>
<event>
 4    1  0.5818436E+000  0.1849931E+03  0.7818608E-02  0.1163056E+00
         21   -1    0    0  503  502  0.00000000000E+00  0.00000000000E+00  0.43530597965E+02  0.43530597965E+02  0.00000000000E+00 0.  1.
         21   -1    0    0  501  503 -0.00000000000E+00 -0.00000000000E+00 -0.89164921781E+03  0.89164921781E+03  0.00000000000E+00 0.  1.
          6    1    1    2  501    0 -0.33113269016E+02  0.59514384862E+02 -0.58488356356E+03  0.61344211913E+03  0.17200000000E+03 0.  1.
         -6    1    1    2    0  502  0.33113269016E+02 -0.59514384862E+02 -0.26323505629E+03  0.32173769665E+03  0.17200000000E+03 0.  1.
</event>
<event>
 4    1  0.5818436E+000  0.1755618E+03  0.7818608E-02  0.1172169E+00
         21   -1    0    0  503  502  0.00000000000E+00  0.00000000000E+00  0.26275846312E+02  0.26275846312E+02  0.00000000000E+00 0.  1.
         21   -1    0    0  501  503 -0.00000000000E+00 -0.00000000000E+00 -0.16097844147E+04  0.16097844147E+04  0.00000000000E+00 0.  1.
          6    1    1    2  501    0  0.17696707891E+02  0.30410094748E+02 -0.12178545699E+04  0.12304437007E+04  0.17200000000E+03 0.  1.
         -6    1    1    2    0  502 -0.17696707891E+02 -0.30410094748E+02 -0.36565399848E+03  0.40561656024E+03  0.17200000000E+03 0.  1.
</event>
<event>
 4    1  0.5818436E+000  0.1786486E+03  0.7818608E-02  0.1169117E+00
         21   -1    0    0  503  502  0.00000000000E+00  0.00000000000E+00  0.64501632897E+02  0.64501632897E+02  0.00000000000E+00 0.  1.
         21   -1    0    0  501  503 -0.00000000000E+00 -0.00000000000E+00 -0.65306982863E+03  0.65306982863E+03  0.00000000000E+00 0.  1.
          6    1    1    2  501    0  0.24587007742E+02  0.41554595964E+02 -0.47091089756E+03  0.50365899062E+03  0.17200000000E+03 0.  1.
         -6    1    1    2    0  502 -0.24587007742E+02 -0.41554595964E+02 -0.11765729818E+03  0.21391247091E+03  0.17200000000E+03 0.  1.
</event>
<event>
 4    1  0.5818436E+000  0.3114257E+03  0.7818608E-02  0.1079664E+00
         21   -1    0    0  503  502  0.00000000000E+00  0.00000000000E+00  0.15103264482E+03  0.15103264482E+03  0.00000000000E+00 0.  1.
         21   -1    0    0  501  503 -0.00000000000E+00 -0.00000000000E+00 -0.74996678692E+03  0.74996678692E+03  0.00000000000E+00 0.  1.
          6    1    1    2  501    0 -0.14760314215E+03  0.21357740204E+03 -0.47027641046E+03  0.56404423272E+03  0.17200000000E+03 0.  1.
         -6    1    1    2    0  502  0.14760314215E+03 -0.21357740204E+03 -0.12865773164E+03  0.33695519902E+03  0.17200000000E+03 0.  1.
</event>
<event>
 4    1  0.5818436E+000  0.1985201E+03  0.7818608E-02  0.1150994E+00
         21   -1    0    0  503  502  0.00000000000E+00  0.00000000000E+00  0.66480320787E+03  0.66480320787E+03  0.00000000000E+00 0. -1.
         21   -1    0    0  501  503 -0.00000000000E+00 -0.00000000000E+00 -0.18176628287E+03  0.18176628287E+03  0.00000000000E+00 0.  1.
          6    1    1    2  501    0 -0.80112586767E+02 -0.58379864702E+02 -0.10595193621E+03  0.22502454965E+03  0.17200000000E+03 0.  1.
         -6    1    1    2    0  502  0.80112586767E+02  0.58379864702E+02  0.58898886121E+03  0.62154494109E+03  0.17200000000E+03 0. -1.
</event>
<event>
 4    1  0.5818436E+000  0.1925898E+03  0.7818608E-02  0.1156146E+00
         21   -1    0    0  501  502  0.00000000000E+00  0.00000000000E+00  0.11169941696E+03  0.11169941696E+03  0.00000000000E+00 0.  1.
         21   -1    0    0  502  503 -0.00000000000E+00 -0.00000000000E+00 -0.62836702237E+03  0.62836702237E+03  0.00000000000E+00 0.  1.
          6    1    1    2  501    0  0.80156616112E+02  0.32889667470E+02 -0.42332451053E+01  0.19263627306E+03  0.17200000000E+03 0.  1.
         -6    1    1    2    0  503 -0.80156616112E+02 -0.32889667470E+02 -0.51243436030E+03  0.54743016628E+03  0.17200000000E+03 0.  1.
</event>
<event>
 4    1  0.5818436E+000  0.1867495E+03  0.7818608E-02  0.1161426E+00
         21   -1    0    0  501  502  0.00000000000E+00  0.00000000000E+00  0.14760010545E+02  0.14760010545E+02  0.00000000000E+00 0. -1.
         21   -1    0    0  502  503 -0.00000000000E+00 -0.00000000000E+00 -0.23833154927E+04  0.23833154927E+04  0.00000000000E+00 0. -1.
          6    1    1    2  501    0  0.44720080245E+02  0.57371475081E+02 -0.10731090426E+04  0.10892375264E+04  0.17200000000E+03 0. -1.
         -6    1    1    2    0  503 -0.44720080245E+02 -0.57371475081E+02 -0.12954464396E+04  0.13088379768E+04  0.17200000000E+03 0. -1.
</event>
<event>
 4    1  0.5818436E+000  0.1832577E+03  0.7818608E-02  0.1164687E+00
         21   -1    0    0  503  502  0.00000000000E+00  0.00000000000E+00  0.18599297956E+04  0.18599297956E+04  0.00000000000E+00 0.  1.
         21   -1    0    0  501  503 -0.00000000000E+00 -0.00000000000E+00 -0.50995858999E+02  0.50995858999E+02  0.00000000000E+00 0.  1.
          6    1    1    2  501    0 -0.60042624470E+02  0.19856068185E+02  0.13656553463E+03  0.22854654984E+03  0.17200000000E+03 0.  1.
         -6    1    1    2    0  502  0.60042624470E+02 -0.19856068185E+02  0.16723684020E+04  0.16823791048E+04  0.17200000000E+03 0.  1.
</event>
<event>
 4    1  0.5818436E+000  0.2494109E+03  0.7818608E-02  0.1113678E+00
         21   -1    0    0  501  502  0.00000000000E+00  0.00000000000E+00  0.55953716640E+03  0.55953716640E+03  0.00000000000E+00 0.  1.
         21   -1    0    0  502  503 -0.00000000000E+00 -0.00000000000E+00 -0.25457445957E+03  0.25457445957E+03  0.00000000000E+00 0. -1.
          6    1    1    2  501    0  0.94084453703E+02 -0.15417488112E+03  0.45798920518E+03  0.52149773773E+03  0.17200000000E+03 0.  1.
         -6    1    1    2    0  503 -0.94084453703E+02  0.15417488112E+03 -0.15302649834E+03  0.29261388824E+03  0.17200000000E+03 0. -1.
</event>
<event>
 4    1  0.5818436E+000  0.2004806E+03  0.7818608E-02  0.1149334E+00
         21   -1    0    0  503  502  0.00000000000E+00  0.00000000000E+00  0.16998302962E+03  0.16998302962E+03  0.00000000000E+00 0.  1.
         21   -1    0    0  501  503 -0.00000000000E+00 -0.00000000000E+00 -0.44300309736E+03  0.44300309736E+03  0.00000000000E+00 0. -1.
          6    1    1    2  501    0 -0.53583059718E+02  0.87962176539E+02 -0.34579263081E+03  0.39970618248E+03  0.17200000000E+03 0. -1.
         -6    1    1    2    0  502  0.53583059718E+02 -0.87962176539E+02  0.72772563067E+02  0.21327994450E+03  0.17200000000E+03 0.  1.
</event>
<event>
 4    1  0.5818436E+000  0.1891634E+03  0.7818608E-02  0.1159218E+00
         21   -1    0    0  503  502  0.00000000000E+00  0.00000000000E+00  0.15690958283E+03  0.15690958283E+03  0.00000000000E+00 0.  1.
         21   -1    0    0  501  503 -0.00000000000E+00 -0.00000000000E+00 -0.24278781536E+03  0.24278781536E+03  0.00000000000E+00 0. -1.
          6    1    1    2  501    0  0.57862348564E+02  0.53392440552E+02 -0.92182111557E+02  0.21042895661E+03  0.17200000000E+03 0. -1.
         -6    1    1    2    0  502 -0.57862348564E+02 -0.53392440552E+02  0.63038790295E+01  0.18926844159E+03  0.17200000000E+03 0.  1.
</event>
<event>
 4    1  0.5818436E+000  0.2382874E+03  0.7818608E-02  0.1120939E+00
         21   -1    0    0  501  502  0.00000000000E+00  0.00000000000E+00  0.42249713987E+03  0.42249713987E+03  0.00000000000E+00 0.  1.
         21   -1    0    0  502  503 -0.00000000000E+00 -0.00000000000E+00 -0.29367535039E+03  0.29367535039E+03  0.00000000000E+00 0. -1.
          6    1    1    2  501    0  0.12347738355E+03 -0.10931696689E+03  0.32812724487E+03  0.40552232037E+03  0.17200000000E+03 0.  1.
         -6    1    1    2    0  503 -0.12347738355E+03  0.10931696689E+03 -0.19930545539E+03  0.31065016988E+03  0.17200000000E+03 0. -1.
</event>
<event>
 4    1  0.5818436E+000  0.2356929E+03  0.7818608E-02  0.1122696E+00
         21   -1    0    0  501  502  0.00000000000E+00  0.00000000000E+00  0.72019082889E+03  0.72019082889E+03  0.00000000000E+00 0. -1.
         21   -1    0    0  502  503 -0.00000000000E+00 -0.00000000000E+00 -0.77243102119E+02  0.77243102119E+02  0.00000000000E+00 0. -1.
          6    1    1    2  501    0  0.15041866669E+03  0.57804692079E+02  0.33646265476E+03  0.41080199094E+03  0.17200000000E+03 0. -1.
         -6    1    1    2    0  503 -0.15041866669E+03 -0.57804692079E+02  0.30648507201E+03  0.38663194007E+03  0.17200000000E+03 0. -1.
</event>
<event>
 4    1  0.5818436E+000  0.1796154E+03  0.7818608E-02  0.1168176E+00
         21   -1    0    0  503  502  0.00000000000E+00  0.00000000000E+00  0.50596517442E+02  0.50596517442E+02  0.00000000000E+00 0. -1.
         21   -1    0    0  501  503 -0.00000000000E+00 -0.00000000000E+00 -0.73748194229E+03  0.73748194229E+03  0.00000000000E+00 0.  1.
          6    1    1    2  501    0 -0.40004297501E+02  0.32822795865E+02 -0.48843658888E+03  0.52041520068E+03  0.17200000000E+03 0.  1.
         -6    1    1    2    0  502  0.40004297501E+02 -0.32822795865E+02 -0.19844883597E+03  0.26766325905E+03  0.17200000000E+03 0. -1.
</event>
<event>
 4    1  0.5818436E+000  0.3605060E+03  0.7818608E-02  0.1058384E+00
         21   -1    0    0  503  502  0.00000000000E+00  0.00000000000E+00  0.55419332048E+03  0.55419332048E+03  0.00000000000E+00 0.  1.
         21   -1    0    0  501  503 -0.00000000000E+00 -0.00000000000E+00 -0.28176791964E+03  0.28176791964E+03  0.00000000000E+00 0. -1.
          6    1    1    2  501    0  0.94163412106E+02 -0.30251257714E+03 -0.34962799257E+02  0.36219746664E+03  0.17200000000E+03 0. -1.
         -6    1    1    2    0  502 -0.94163412106E+02  0.30251257714E+03  0.30738820010E+03  0.47376377349E+03  0.17200000000E+03 0.  1.
</event>
<event>
 4    1  0.5818436E+000  0.1801919E+03  0.7818608E-02  0.1167617E+00
         21   -1    0    0  501  502  0.00000000000E+00  0.00000000000E+00  0.65397109263E+03  0.65397109263E+03  0.00000000000E+00 0. -1.
         21   -1    0    0  502  503 -0.00000000000E+00 -0.00000000000E+00 -0.25731469089E+03  0.25731469089E+03  0.00000000000E+00 0. -1.
          6    1    1    2  501    0 -0.52748518454E+02 -0.10134772351E+02  0.60765908141E+03  0.63381281072E+03  0.17200000000E+03 0. -1.
         -6    1    1    2    0  503  0.52748518454E+02  0.10134772351E+02 -0.21100267966E+03  0.27747297280E+03  0.17200000000E+03 0. -1.
</event>
<event>
 4    1  0.5818436E+000  0.2127253E+03  0.7818608E-02  0.1139426E+00
         21   -1    0    0  501  502  0.00000000000E+00  0.00000000000E+00  0.13124987624E+03  0.13124987624E+03  0.00000000000E+00 0. -1.
         21   -1    0    0  502  503 -0.00000000000E+00 -0.00000000000E+00 -0.42071015662E+03  0.42071015662E+03  0.00000000000E+00 0.  1.
          6    1    1    2  501    0 -0.86350373641E+02  0.90618238582E+02 -0.27483774520E+02  0.21449337998E+03  0.17200000000E+03 0. -1.
         -6    1    1    2    0  503  0.86350373641E+02 -0.90618238582E+02 -0.26197650586E+03  0.33746665289E+03  0.17200000000E+03 0.  1.
</event>
<event>
 4    1  0.5818436E+000  0.2345945E+03  0.7818608E-02  0.1123447E+00
         21   -1    0    0  503  502  0.00000000000E+00  0.00000000000E+00  0.53963721672E+02  0.53963721672E+02  0.00000000000E+00 0.  1.
         21   -1    0    0  501  503 -0.00000000000E+00 -0.00000000000E+00 -0.10732645032E+04  0.10732645032E+04  0.00000000000E+00 0.  1.
          6    1    1    2  501    0  0.79476181065E+02  0.13832605333E+03 -0.63539337768E+03  0.67731772809E+03  0.17200000000E+03 0.  1.
         -6    1    1    2    0  502 -0.79476181065E+02 -0.13832605333E+03 -0.38390740385E+03  0.44991049679E+03  0.17200000000E+03 0.  1.
</event>
<event>
 4    1  0.5818436E+000  0.1979354E+03  0.7818608E-02  0.1151493E+00
         21   -1    0    0  503  502  0.00000000000E+00  0.00000000000E+00  0.95674697540E+02  0.95674697540E+02  0.00000000000E+00 0.  1.
         21   -1    0    0  501  503 -0.00000000000E+00 -0.00000000000E+00 -0.51607165334E+03  0.51607165334E+03  0.00000000000E+00 0. -1.
          6    1    1    2  501    0 -0.82469999138E+02 -0.52850079291E+02 -0.71198463916E+02  0.21035126076E+03  0.17200000000E+03 0.  1.
         -6    1    1    2    0  502  0.82469999138E+02  0.52850079291E+02 -0.34919849188E+03  0.40139509012E+03  0.17200000000E+03 0. -1.
</event>
<event>
 4    1  0.5818436E+000  0.2225935E+03  0.7818608E-02  0.1131964E+00
         21   -1    0    0  503  502  0.00000000000E+00  0.00000000000E+00  0.81338853244E+02  0.81338853244E+02  0.00000000000E+00 0. -1.
         21   -1    0    0  501  503 -0.00000000000E+00 -0.00000000000E+00 -0.14274927499E+04  0.14274927499E+04  0.00000000000E+00 0. -1.
          6    1    1    2  501    0  0.11744207375E+03 -0.78557178850E+02 -0.12442798877E+04  0.12640333500E+04  0.17200000000E+03 0. -1.
         -6    1    1    2    0  502 -0.11744207375E+03  0.78557178850E+02 -0.10187400897E+03  0.24479825314E+03  0.17200000000E+03 0. -1.
</event>
<event>
 4    1  0.5818436E+000  0.1892492E+03  0.7818608E-02  0.1159140E+00
         21   -1    0    0  503  502  0.00000000000E+00  0.00000000000E+00  0.24007028920E+03  0.24007028920E+03  0.00000000000E+00 0.  1.
         21   -1    0    0  501  503 -0.00000000000E+00 -0.00000000000E+00 -0.22924521717E+03  0.22924521717E+03  0.00000000000E+00 0. -1.
          6    1    1    2  501    0  0.21142507892E+02 -0.76054367013E+02  0.14408453750E+03  0.23785631446E+03  0.17200000000E+03 0.  1.
         -6    1    1    2    0  502 -0.21142507892E+02  0.76054367013E+02 -0.13325946547E+03  0.23145919191E+03  0.17200000000E+03 0. -1.
</event>
<event>
 4    1  0.5818436E+000  0.3270732E+03  0.7818608E-02  0.1072439E+00
         21   -1    0    0  501  502  0.00000000000E+00  0.00000000000E+00  0.13711891236E+04  0.13711891236E+04  0.00000000000E+00 0.  1.
         21   -1    0    0  502  503 -0.00000000000E+00 -0.00000000000E+00 -0.79128697550E+02  0.79128697550E+02  0.00000000000E+00 0.  1.
          6    1    1    2  501    0  0.22489186158E+03 -0.16375749444E+03  0.73196022357E+03  0.80171231453E+03  0.17200000000E+03 0.  1.
         -6    1    1    2    0  503 -0.22489186158E+03  0.16375749444E+03  0.56010020248E+03  0.64860550661E+03  0.17200000000E+03 0.  1.
</event>
<event>
 4    1  0.5818436E+000  0.1745079E+03  0.7818608E-02  0.1173227E+00
         21   -1    0    0  503  502  0.00000000000E+00  0.00000000000E+00  0.26817194965E+03  0.26817194965E+03  0.00000000000E+00 0. -1.
         21   -1    0    0  501  503 -0.00000000000E+00 -0.00000000000E+00 -0.18097449282E+03  0.18097449282E+03  0.00000000000E+00 0. -1.
          6    1    1    2  501    0 -0.21368964967E+02 -0.20307249049E+02 -0.93468301283E+02  0.19796297728E+03  0.17200000000E+03 0. -1.
         -6    1    1    2    0  502  0.21368964967E+02  0.20307249049E+02  0.18066575811E+03  0.25118346519E+03  0.17200000000E+03 0. -1.
</event>
<event>
 4    1  0.5818436E+000  0.1818687E+03  0.7818608E-02  0.1166007E+00
         21   -1    0    0  503  502  0.00000000000E+00  0.00000000000E+00  0.24345590106E+03  0.24345590106E+03  0.00000000000E+00 0.  1.
         21   -1    0    0  501  503 -0.00000000000E+00 -0.00000000000E+00 -0.16064950941E+03  0.16064950941E+03  0.00000000000E+00 0.  1.
          6    1    1    2  501    0 -0.26267732946E+01 -0.59036543160E+02  0.12077172495E+03  0.21831633680E+03  0.17200000000E+03 0.  1.
         -6    1    1    2    0  502  0.26267732946E+01  0.59036543160E+02 -0.37965333295E+02  0.18578907368E+03  0.17200000000E+03 0.  1.
</event>
<event>
 4    1  0.5818436E+000  0.2093133E+03  0.7818608E-02  0.1142111E+00
         21   -1    0    0  501  502  0.00000000000E+00  0.00000000000E+00  0.29441619305E+02  0.29441619305E+02  0.00000000000E+00 0. -1.
         21   -1    0    0  502  503 -0.00000000000E+00 -0.00000000000E+00 -0.14921392415E+04  0.14921392415E+04  0.00000000000E+00 0. -1.
          6    1    1    2  501    0 -0.22832459772E+02  0.11707585904E+03 -0.77093123837E+03  0.79884106823E+03  0.17200000000E+03 0. -1.
         -6    1    1    2    0  503  0.22832459772E+02 -0.11707585904E+03 -0.69176638384E+03  0.72273979259E+03  0.17200000000E+03 0. -1.
</event>
<event>
 4    1  0.5818436E+000  0.2123073E+03  0.7818608E-02  0.1139752E+00
         21   -1    0    0  501  502  0.00000000000E+00  0.00000000000E+00  0.10243432705E+03  0.10243432705E+03  0.00000000000E+00 0. -1.
         21   -1    0    0  502  503 -0.00000000000E+00 -0.00000000000E+00 -0.47463257579E+03  0.47463257579E+03  0.00000000000E+00 0. -1.
          6    1    1    2  501    0  0.99552649466E+02  0.74697178789E+02 -0.10819543286E+03  0.23828690738E+03  0.17200000000E+03 0. -1.
         -6    1    1    2    0  503 -0.99552649466E+02 -0.74697178789E+02 -0.26400281588E+03  0.33877999547E+03  0.17200000000E+03 0. -1.
</event>
<event>
 4    1  0.5818436E+000  0.2011406E+03  0.7818608E-02  0.1148780E+00
         21   -1    0    0  501  502  0.00000000000E+00  0.00000000000E+00  0.54219979157E+02  0.54219979157E+02  0.00000000000E+00 0. -1.
         21   -1    0    0  502  503 -0.00000000000E+00 -0.00000000000E+00 -0.11157561218E+04  0.11157561218E+04  0.00000000000E+00 0.  1.
          6    1    1    2  501    0  0.91067618807E+02 -0.50795959396E+02 -0.19408768899E+03  0.27951309755E+03  0.17200000000E+03 0. -1.
         -6    1    1    2    0  503 -0.91067618807E+02  0.50795959396E+02 -0.86744845365E+03  0.89046300340E+03  0.17200000000E+03 0.  1.
</event>
<event>
 4    1  0.5818436E+000  0.2088637E+03  0.7818608E-02  0.1142469E+00
         21   -1    0    0  503  502  0.00000000000E+00  0.00000000000E+00  0.46238489257E+03  0.46238489257E+03  0.00000000000E+00 0.  1.
         21   -1    0    0  501  503 -0.00000000000E+00 -0.00000000000E+00 -0.10840796737E+03  0.10840796737E+03  0.00000000000E+00 0.  1.
          6    1    1    2  501    0 -0.18999294158E+02 -0.11695764337E+03  0.74200000104E+02  0.22165221302E+03  0.17200000000E+03 0.  1.
         -6    1    1    2    0  502  0.18999294158E+02  0.11695764337E+03  0.27977692509E+03  0.34914064692E+03  0.17200000000E+03 0.  1.
</event>
<event>
 4    1  0.5818436E+000  0.3404618E+03  0.7818608E-02  0.1066599E+00
         21   -1    0    0  501  502  0.00000000000E+00  0.00000000000E+00  0.32815688787E+03  0.32815688787E+03  0.00000000000E+00 0. -1.
         21   -1    0    0  502  503 -0.00000000000E+00 -0.00000000000E+00 -0.44237666242E+03  0.44237666242E+03  0.00000000000E+00 0.  1.
          6    1    1    2  501    0  0.14123960619E+03 -0.25764633500E+03  0.11584085523E+03  0.35962948160E+03  0.17200000000E+03 0. -1.
         -6    1    1    2    0  503 -0.14123960619E+03  0.25764633500E+03 -0.23006062978E+03  0.41090406869E+03  0.17200000000E+03 0.  1.
</event>
<event>
 4    1  0.5818436E+000  0.2172158E+03  0.7818608E-02  0.1135976E+00
         21   -1    0    0  503  502  0.00000000000E+00  0.00000000000E+00  0.21669425531E+03  0.21669425531E+03  0.00000000000E+00 0. -1.
         21   -1    0    0  501  503 -0.00000000000E+00 -0.00000000000E+00 -0.59322154749E+03  0.59322154749E+03  0.00000000000E+00 0.  1.
          6    1    1    2  501    0  0.70476407540E+02  0.11239120973E+03 -0.51044211721E+03  0.55473765247E+03  0.17200000000E+03 0.  1.
         -6    1    1    2    0  502 -0.70476407540E+02 -0.11239120973E+03  0.13391482503E+03  0.25517815033E+03  0.17200000000E+03 0. -1.
</event>
<event>
 4    1  0.5818436E+000  0.5941237E+03  0.7818608E-02  0.9917673E-01
         21   -1    0    0  501  502  0.00000000000E+00  0.00000000000E+00  0.28089255989E+03  0.28089255989E+03  0.00000000000E+00 0.  1.
         21   -1    0    0  502  503 -0.00000000000E+00 -0.00000000000E+00 -0.14806388742E+04  0.14806388742E+04  0.00000000000E+00 0. -1.
          6    1    1    2  501    0  0.27141102782E+03 -0.49973493604E+03 -0.25730151544E+03  0.64744654001E+03  0.17200000000E+03 0. -1.
         -6    1    1    2    0  503 -0.27141102782E+03  0.49973493604E+03 -0.94244479889E+03  0.11140848941E+04  0.17200000000E+03 0.  1.
</event>
<event>
 4    1  0.5818436E+000  0.1944735E+03  0.7818608E-02  0.1154487E+00
         21   -1    0    0  503  502  0.00000000000E+00  0.00000000000E+00  0.19365144481E+02  0.19365144481E+02  0.00000000000E+00 0.  1.
         21   -1    0    0  501  503 -0.00000000000E+00 -0.00000000000E+00 -0.19835796109E+04  0.19835796109E+04  0.00000000000E+00 0.  1.
          6    1    1    2  501    0 -0.87711339802E+02  0.23295302472E+02 -0.11064713249E+04  0.11234316815E+04  0.17200000000E+03 0.  1.
         -6    1    1    2    0  502  0.87711339802E+02 -0.23295302472E+02 -0.85774314155E+03  0.87951307388E+03  0.17200000000E+03 0.  1.
</event>
<event>
 4    1  0.5818436E+000  0.2479694E+03  0.7818608E-02  0.1114595E+00
         21   -1    0    0  501  502  0.00000000000E+00  0.00000000000E+00  0.17260107917E+03  0.17260107917E+03  0.00000000000E+00 0. -1.
         21   -1    0    0  502  503 -0.00000000000E+00 -0.00000000000E+00 -0.37426665881E+03  0.37426665881E+03  0.00000000000E+00 0. -1.
          6    1    1    2  501    0  0.14816414782E+03 -0.99760719949E+02 -0.40836954436E+02  0.25130951592E+03  0.17200000000E+03 0. -1.
         -6    1    1    2    0  503 -0.14816414782E+03  0.99760719949E+02 -0.16082862520E+03  0.29555822206E+03  0.17200000000E+03 0. -1.
</event>
<event>
 4    1  0.5818436E+000  0.1734609E+03  0.7818608E-02  0.1174286E+00
         21   -1    0    0  501  502  0.00000000000E+00  0.00000000000E+00  0.93523112323E+02  0.93523112323E+02  0.00000000000E+00 0. -1.
         21   -1    0    0  502  503 -0.00000000000E+00 -0.00000000000E+00 -0.48152175323E+03  0.48152175323E+03  0.00000000000E+00 0. -1.
          6    1    1    2  501    0 -0.22459496417E+02  0.51066745205E+00 -0.28365796576E+02  0.17576492305E+03  0.17200000000E+03 0. -1.
         -6    1    1    2    0  503  0.22459496417E+02 -0.51066745205E+00 -0.35963284433E+03  0.39927994250E+03  0.17200000000E+03 0. -1.
</event>
<event>
 4    1  0.5818436E+000  0.1790504E+03  0.7818608E-02  0.1168725E+00
         21   -1    0    0  503  502  0.00000000000E+00  0.00000000000E+00  0.45077688276E+03  0.45077688276E+03  0.00000000000E+00 0. -1.
         21   -1    0    0  501  503 -0.00000000000E+00 -0.00000000000E+00 -0.73296364484E+02  0.73296364484E+02  0.00000000000E+00 0. -1.
          6    1    1    2  501    0  0.33409118288E+02  0.36862950354E+02  0.23389798861E+03  0.29456292260E+03  0.17200000000E+03 0. -1.
         -6    1    1    2    0  502 -0.33409118288E+02 -0.36862950354E+02  0.14358252967E+03  0.22951032464E+03  0.17200000000E+03 0. -1.
</event>
<event>
 4    1  0.5818436E+000  0.2427362E+03  0.7818608E-02  0.1117983E+00
         21   -1    0    0  501  502  0.00000000000E+00  0.00000000000E+00  0.14323820967E+03  0.14323820967E+03  0.00000000000E+00 0. -1.
         21   -1    0    0  502  503 -0.00000000000E+00 -0.00000000000E+00 -0.93347924292E+03  0.93347924292E+03  0.00000000000E+00 0.  1.
          6    1    1    2  501    0  0.10747518644E+03  0.13336402214E+03  0.75120466844E+01  0.24285244275E+03  0.17200000000E+03 0. -1.
         -6    1    1    2    0  503 -0.10747518644E+03 -0.13336402214E+03 -0.79775307993E+03  0.83386500985E+03  0.17200000000E+03 0.  1.
</event>
<event>
 4    1  0.5818436E+000  0.2519238E+03  0.7818608E-02  0.1112095E+00
         21   -1    0    0  503  502  0.00000000000E+00  0.00000000000E+00  0.96397084322E+02  0.96397084322E+02  0.00000000000E+00 0.  1.
         21   -1    0    0  501  503 -0.00000000000E+00 -0.00000000000E+00 -0.72606784712E+03  0.72606784712E+03  0.00000000000E+00 0. -1.
          6    1    1    2  501    0 -0.93366725492E+02 -0.15863249533E+03 -0.44039907176E+03  0.50736274638E+03  0.17200000000E+03 0. -1.
         -6    1    1    2    0  502  0.93366725492E+02  0.15863249533E+03 -0.18927169104E+03  0.31510218507E+03  0.17200000000E+03 0.  1.
</event>
<event>
 4    1  0.5818436E+000  0.2361620E+03  0.7818608E-02  0.1122376E+00
         21   -1    0    0  503  502  0.00000000000E+00  0.00000000000E+00  0.74006733725E+02  0.74006733725E+02  0.00000000000E+00 0. -1.
         21   -1    0    0  501  503 -0.00000000000E+00 -0.00000000000E+00 -0.89503643317E+03  0.89503643317E+03  0.00000000000E+00 0. -1.
          6    1    1    2  501    0 -0.13342926477E+03 -0.91570350922E+02 -0.60311303387E+03  0.64770196039E+03  0.17200000000E+03 0. -1.
         -6    1    1    2    0  502  0.13342926477E+03  0.91570350922E+02 -0.21791666557E+03  0.32134120651E+03  0.17200000000E+03 0. -1.
</event>
<event>
 4    1  0.5818436E+000  0.1842950E+03  0.7818608E-02  0.1163710E+00
         21   -1    0    0  501  502  0.00000000000E+00  0.00000000000E+00  0.26893462316E+03  0.26893462316E+03  0.00000000000E+00 0.  1.
         21   -1    0    0  502  503 -0.00000000000E+00 -0.00000000000E+00 -0.16339178369E+03  0.16339178369E+03  0.00000000000E+00 0.  1.
          6    1    1    2  501    0 -0.51251651138E+02 -0.41879804400E+02  0.15577315722E+03  0.24130877786E+03  0.17200000000E+03 0.  1.
         -6    1    1    2    0  503  0.51251651138E+02  0.41879804400E+02 -0.50230317756E+02  0.19101762898E+03  0.17200000000E+03 0.  1.
</event>
<event>
 4    1  0.5818436E+000  0.2576178E+03  0.7818608E-02  0.1108583E+00
         21   -1    0    0  503  502  0.00000000000E+00  0.00000000000E+00  0.49518736315E+03  0.49518736315E+03  0.00000000000E+00 0.  1.
         21   -1    0    0  501  503 -0.00000000000E+00 -0.00000000000E+00 -0.19037379044E+03  0.19037379044E+03  0.00000000000E+00 0. -1.
          6    1    1    2  501    0  0.14730623180E+03 -0.12281610678E+03 -0.34084831880E+02  0.25986284416E+03  0.17200000000E+03 0. -1.
         -6    1    1    2    0  502 -0.14730623180E+03  0.12281610678E+03  0.33889840459E+03  0.42569830942E+03  0.17200000000E+03 0.  1.
</event>
<event>
 4    1  0.5818436E+000  0.1724869E+03  0.7818608E-02  0.1175279E+00
         21   -1    0    0  503  502  0.00000000000E+00  0.00000000000E+00  0.34936504169E+03  0.34936504169E+03  0.00000000000E+00 0. -1.
         21   -1    0    0  501  503 -0.00000000000E+00 -0.00000000000E+00 -0.87180724147E+02  0.87180724147E+02  0.00000000000E+00 0. -1.
          6    1    1    2  501    0  0.27608319669E+01  0.12653771320E+02  0.97856788423E+02  0.19831210544E+03  0.17200000000E+03 0.  1.
         -6    1    1    2    0  502 -0.27608319669E+01 -0.12653771320E+02  0.16432752912E+03  0.23823366040E+03  0.17200000000E+03 0.  1.
</event>
<event>
 4    1  0.5818436E+000  0.2056600E+03  0.7818608E-02  0.1145050E+00
         21   -1    0    0  503  502  0.00000000000E+00  0.00000000000E+00  0.33242033201E+03  0.33242033201E+03  0.00000000000E+00 0. -1.
         21   -1    0    0  501  503 -0.00000000000E+00 -0.00000000000E+00 -0.31469683950E+03  0.31469683950E+03  0.00000000000E+00 0.  1.
          6    1    1    2  501    0  0.38595684755E+02 -0.10593578312E+03 -0.24086288276E+03  0.31671903214E+03  0.17200000000E+03 0.  1.
         -6    1    1    2    0  502 -0.38595684755E+02  0.10593578312E+03  0.25858637527E+03  0.33039813938E+03  0.17200000000E+03 0. -1.
</event>
<event>
 4    1  0.5818436E+000  0.2525250E+03  0.7818608E-02  0.1111719E+00
         21   -1    0    0  503  502  0.00000000000E+00  0.00000000000E+00  0.30812941950E+03  0.30812941950E+03  0.00000000000E+00 0. -1.
         21   -1    0    0  501  503 -0.00000000000E+00 -0.00000000000E+00 -0.33102995401E+03  0.33102995401E+03  0.00000000000E+00 0. -1.
          6    1    1    2  501    0 -0.15355112402E+03  0.10298983813E+03 -0.20710392726E+03  0.32658979031E+03  0.17200000000E+03 0. -1.
         -6    1    1    2    0  502  0.15355112402E+03 -0.10298983813E+03  0.18420339274E+03  0.31256958320E+03  0.17200000000E+03 0. -1.
</event>
<event>
 4    1  0.5818436E+000  0.1866308E+03  0.7818608E-02  0.1161536E+00
         21   -1    0    0  503  502  0.00000000000E+00  0.00000000000E+00  0.52601145326E+03  0.52601145326E+03  0.00000000000E+00 0.  1.
         21   -1    0    0  501  503 -0.00000000000E+00 -0.00000000000E+00 -0.70170255274E+02  0.70170255274E+02  0.00000000000E+00 0.  1.
          6    1    1    2  501    0 -0.12164436252E+02 -0.71407970976E+02  0.15716975078E+03  0.24399467697E+03  0.17200000000E+03 0.  1.
         -6    1    1    2    0  502  0.12164436252E+02  0.71407970976E+02  0.29867144721E+03  0.35218703157E+03  0.17200000000E+03 0.  1.
</event>
<event>
 4    1  0.5818436E+000  0.2832910E+03  0.7818608E-02  0.1093905E+00
         21   -1    0    0  503  502  0.00000000000E+00  0.00000000000E+00  0.91183320340E+03  0.91183320340E+03  0.00000000000E+00 0. -1.
         21   -1    0    0  501  503 -0.00000000000E+00 -0.00000000000E+00 -0.88460610969E+02  0.88460610969E+02  0.00000000000E+00 0. -1.
          6    1    1    2  501    0 -0.11177023789E+03  0.19538990456E+03  0.44723633889E+03  0.52940924029E+03  0.17200000000E+03 0. -1.
         -6    1    1    2    0  502  0.11177023789E+03 -0.19538990456E+03  0.37613625354E+03  0.47088457408E+03  0.17200000000E+03 0. -1.
</event>
<event>
 4    1  0.5818436E+000  0.1973763E+03  0.7818608E-02  0.1151972E+00
         21   -1    0    0  501  502  0.00000000000E+00  0.00000000000E+00  0.16255694356E+03  0.16255694356E+03  0.00000000000E+00 0. -1.
         21   -1    0    0  502  503 -0.00000000000E+00 -0.00000000000E+00 -0.95042502292E+03  0.95042502292E+03  0.00000000000E+00 0. -1.
          6    1    1    2  501    0 -0.94532596999E+02  0.20904459641E+02  0.87308580983E+02  0.21582445793E+03  0.17200000000E+03 0. -1.
         -6    1    1    2    0  503  0.94532596999E+02 -0.20904459641E+02 -0.87517666035E+03  0.89715750855E+03  0.17200000000E+03 0. -1.
</event>
<event>
 4    1  0.5818436E+000  0.2133559E+03  0.7818608E-02  0.1138936E+00
         21   -1    0    0  501  502  0.00000000000E+00  0.00000000000E+00  0.13424484315E+03  0.13424484315E+03  0.00000000000E+00 0.  1.
         21   -1    0    0  502  503 -0.00000000000E+00 -0.00000000000E+00 -0.82989990728E+03  0.82989990728E+03  0.00000000000E+00 0.  1.
          6    1    1    2  501    0  0.12562032346E+03  0.12500452674E+02  0.22902034747E+02  0.21458152339E+03  0.17200000000E+03 0.  1.
         -6    1    1    2    0  503 -0.12562032346E+03 -0.12500452674E+02 -0.71855709888E+03  0.74956322705E+03  0.17200000000E+03 0.  1.
</event>
<event>
 4    1  0.5818436E+000  0.2558553E+03  0.7818608E-02  0.1109659E+00
         21   -1    0    0  503  502  0.00000000000E+00  0.00000000000E+00  0.32218363508E+03  0.32218363508E+03  0.00000000000E+00 0. -1.
         21   -1    0    0  501  503 -0.00000000000E+00 -0.00000000000E+00 -0.44822991419E+03  0.44822991419E+03  0.00000000000E+00 0. -1.
          6    1    1    2  501    0  0.16154051406E+03 -0.98906951727E+02 -0.34784215605E+03  0.43180561403E+03  0.17200000000E+03 0. -1.
         -6    1    1    2    0  502 -0.16154051406E+03  0.98906951727E+02  0.22179587694E+03  0.33860793524E+03  0.17200000000E+03 0. -1.
</event>
<event>
 4    1  0.5818436E+000  0.2198534E+03  0.7818608E-02  0.1133992E+00
         21   -1    0    0  503  502  0.00000000000E+00  0.00000000000E+00  0.17075005467E+03  0.17075005467E+03  0.00000000000E+00 0. -1.
         21   -1    0    0  501  503 -0.00000000000E+00 -0.00000000000E+00 -0.29487316761E+03  0.29487316761E+03  0.00000000000E+00 0. -1.
          6    1    1    2  501    0 -0.13598183608E+03 -0.16138412939E+02 -0.10862523110E+03  0.24522428295E+03  0.17200000000E+03 0. -1.
         -6    1    1    2    0  502  0.13598183608E+03  0.16138412939E+02 -0.15497881844E+02  0.22039893933E+03  0.17200000000E+03 0. -1.
</event>
<event>
 4    1  0.5818436E+000  0.2235872E+03  0.7818608E-02  0.1131237E+00
         21   -1    0    0  503  502  0.00000000000E+00  0.00000000000E+00  0.28355579852E+03  0.28355579852E+03  0.00000000000E+00 0. -1.
         21   -1    0    0  501  503 -0.00000000000E+00 -0.00000000000E+00 -0.22813572707E+03  0.22813572707E+03  0.00000000000E+00 0. -1.
          6    1    1    2  501    0 -0.13576025330E+03 -0.44456592072E+02 -0.94242557040E+02  0.24263737246E+03  0.17200000000E+03 0. -1.
         -6    1    1    2    0  502  0.13576025330E+03  0.44456592072E+02  0.14966262849E+03  0.26905415314E+03  0.17200000000E+03 0. -1.
</event>
<event>
 4    1  0.5818436E+000  0.1927979E+03  0.7818608E-02  0.1155962E+00
         21   -1    0    0  503  502  0.00000000000E+00  0.00000000000E+00  0.40811946771E+03  0.40811946771E+03  0.00000000000E+00 0. -1.
         21   -1    0    0  501  503 -0.00000000000E+00 -0.00000000000E+00 -0.19241329149E+03  0.19241329149E+03  0.00000000000E+00 0.  1.
          6    1    1    2  501    0  0.24995261089E+02  0.83440090132E+02 -0.11005227668E+03  0.22199665610E+03  0.17200000000E+03 0.  1.
         -6    1    1    2    0  502 -0.24995261089E+02 -0.83440090132E+02  0.32575845290E+03  0.37853610311E+03  0.17200000000E+03 0. -1.
</event>
<event>
 4    1  0.5818436E+000  0.2018012E+03  0.7818608E-02  0.1148228E+00
         21   -1    0    0  501  502  0.00000000000E+00  0.00000000000E+00  0.10231695701E+03  0.10231695701E+03  0.00000000000E+00 0. -1.
         21   -1    0    0  502  503 -0.00000000000E+00 -0.00000000000E+00 -0.56134830121E+03  0.56134830121E+03  0.00000000000E+00 0. -1.
          6    1    1    2  501    0 -0.94241629300E+02  0.47520886067E+02 -0.50521130195E+02  0.20802909388E+03  0.17200000000E+03 0. -1.
         -6    1    1    2    0  503  0.94241629300E+02 -0.47520886067E+02 -0.40851021400E+03  0.45563616433E+03  0.17200000000E+03 0. -1.
</event>
<event>
 4    1  0.5818436E+000  0.1942368E+03  0.7818608E-02  0.1154695E+00
         21   -1    0    0  503  502  0.00000000000E+00  0.00000000000E+00  0.68400342025E+03  0.68400342025E+03  0.00000000000E+00 0. -1.
         21   -1    0    0  501  503 -0.00000000000E+00 -0.00000000000E+00 -0.55701132554E+02  0.55701132554E+02  0.00000000000E+00 0. -1.
          6    1    1    2  501    0 -0.89600208061E+02  0.10758391352E+02  0.27761384923E+03  0.33881763465E+03  0.17200000000E+03 0. -1.
         -6    1    1    2    0  502  0.89600208061E+02 -0.10758391352E+02  0.35068843847E+03  0.40088691815E+03  0.17200000000E+03 0. -1.
</event>
<event>
 4    1  0.5818436E+000  0.1793363E+03  0.7818608E-02  0.1168447E+00
         21   -1    0    0  501  502  0.00000000000E+00  0.00000000000E+00  0.10450852441E+03  0.10450852441E+03  0.00000000000E+00 0. -1.
         21   -1    0    0  502  503 -0.00000000000E+00 -0.00000000000E+00 -0.30898332371E+03  0.30898332371E+03  0.00000000000E+00 0. -1.
          6    1    1    2  501    0 -0.40420040264E+02 -0.30720144381E+02 -0.89125309928E+02  0.20026189801E+03  0.17200000000E+03 0. -1.
         -6    1    1    2    0  503  0.40420040264E+02  0.30720144381E+02 -0.11534948937E+03  0.21322995011E+03  0.17200000000E+03 0. -1.
</event>
<event>
 4    1  0.5818436E+000  0.2007308E+03  0.7818608E-02  0.1149124E+00
         21   -1    0    0  503  502  0.00000000000E+00  0.00000000000E+00  0.10908261256E+04  0.10908261256E+04  0.00000000000E+00 0.  1.
         21   -1    0    0  501  503 -0.00000000000E+00 -0.00000000000E+00 -0.44663864598E+02  0.44663864598E+02  0.00000000000E+00 0. -1.
          6    1    1    2  501    0  0.31796469573E+02  0.98477506067E+02  0.75921120678E+03  0.78529898203E+03  0.17200000000E+03 0.  1.
         -6    1    1    2    0  502 -0.31796469573E+02 -0.98477506067E+02  0.28695105420E+03  0.35019100814E+03  0.17200000000E+03 0. -1.
</event>
<event>
 4    1  0.5818436E+000  0.2495123E+03  0.7818608E-02  0.1113613E+00
         21   -1    0    0  503  502  0.00000000000E+00  0.00000000000E+00  0.22706551180E+03  0.22706551180E+03  0.00000000000E+00 0. -1.
         21   -1    0    0  501  503 -0.00000000000E+00 -0.00000000000E+00 -0.43507244643E+03  0.43507244643E+03  0.00000000000E+00 0. -1.
          6    1    1    2  501    0  0.63312958134E+02  0.16930404021E+03  0.97326351634E+02  0.26782234302E+03  0.17200000000E+03 0. -1.
         -6    1    1    2    0  502 -0.63312958134E+02 -0.16930404021E+03 -0.30533328627E+03  0.39431561521E+03  0.17200000000E+03 0. -1.
</event>
<event>
 4    1  0.5818436E+000  0.1740930E+03  0.7818608E-02  0.1173646E+00
         21   -1    0    0  503  502  0.00000000000E+00  0.00000000000E+00  0.24495075840E+03  0.24495075840E+03  0.00000000000E+00 0. -1.
         21   -1    0    0  501  503 -0.00000000000E+00 -0.00000000000E+00 -0.20474338642E+03  0.20474338642E+03  0.00000000000E+00 0. -1.
          6    1    1    2  501    0 -0.18105713897E+02 -0.19913279328E+02 -0.12133041788E+03  0.21220138047E+03  0.17200000000E+03 0. -1.
         -6    1    1    2    0  502  0.18105713897E+02  0.19913279328E+02  0.16153778985E+03  0.23749276435E+03  0.17200000000E+03 0. -1.
</event>
<event>
 4    1  0.5818436E+000  0.1993029E+03  0.7818608E-02  0.1150328E+00
         21   -1    0    0  503  502  0.00000000000E+00  0.00000000000E+00  0.29948824557E+03  0.29948824557E+03  0.00000000000E+00 0.  1.
         21   -1    0    0  501  503 -0.00000000000E+00 -0.00000000000E+00 -0.13673646209E+03  0.13673646209E+03  0.00000000000E+00 0.  1.
          6    1    1    2  501    0  0.97055116398E+02 -0.26794615544E+02  0.11916616117E+03  0.23221158673E+03  0.17200000000E+03 0.  1.
         -6    1    1    2    0  502 -0.97055116398E+02  0.26794615544E+02  0.43585622312E+02  0.20401312093E+03  0.17200000000E+03 0.  1.
</event>
<event>
 4    1  0.5818436E+000  0.5013088E+03  0.7818608E-02  0.1013438E+00
         21   -1    0    0  501  502  0.00000000000E+00  0.00000000000E+00  0.44771018653E+03  0.44771018653E+03  0.00000000000E+00 0.  1.
         21   -1    0    0  502  503 -0.00000000000E+00 -0.00000000000E+00 -0.75699186666E+03  0.75699186666E+03  0.00000000000E+00 0. -1.
          6    1    1    2  501    0  0.28879161127E+03  0.37192192720E+03  0.15160041731E+03  0.52373008430E+03  0.17200000000E+03 0.  1.
         -6    1    1    2    0  503 -0.28879161127E+03 -0.37192192720E+03 -0.46088209743E+03  0.68097196889E+03  0.17200000000E+03 0. -1.
</event>
<event>
 4    1  0.5818436E+000  0.6509269E+03  0.7818608E-02  0.9805041E-01
         21   -1    0    0  503  502  0.00000000000E+00  0.00000000000E+00  0.16572627962E+04  0.16572627962E+04  0.00000000000E+00 0. -1.
         21   -1    0    0  501  503 -0.00000000000E+00 -0.00000000000E+00 -0.26962981522E+03  0.26962981522E+03  0.00000000000E+00 0.  1.
          6    1    1    2  501    0  0.44747225288E+03  0.44032991436E+03  0.47456393593E+03  0.80555371011E+03  0.17200000000E+03 0.  1.
         -6    1    1    2    0  502 -0.44747225288E+03 -0.44032991436E+03  0.91306904508E+03  0.11213389013E+04  0.17200000000E+03 0. -1.
</event>
<event>
 4    1  0.5818436E+000  0.1999044E+03  0.7818608E-02  0.1149820E+00
         21   -1    0    0  501  502  0.00000000000E+00  0.00000000000E+00  0.19480146507E+03  0.19480146507E+03  0.00000000000E+00 0.  1.
         21   -1    0    0  502  503 -0.00000000000E+00 -0.00000000000E+00 -0.27072431437E+03  0.27072431437E+03  0.00000000000E+00 0.  1.
          6    1    1    2  501    0  0.81019346892E+02  0.61754789929E+02  0.76602115998E+02  0.21407866037E+03  0.17200000000E+03 0.  1.
         -6    1    1    2    0  503 -0.81019346892E+02 -0.61754789929E+02 -0.15252496530E+03  0.25144711907E+03  0.17200000000E+03 0.  1.
</event>
<event>
 4    1  0.5818436E+000  0.1898946E+03  0.7818608E-02  0.1158556E+00
         21   -1    0    0  503  502  0.00000000000E+00  0.00000000000E+00  0.17822177050E+03  0.17822177050E+03  0.00000000000E+00 0.  1.
         21   -1    0    0  501  503 -0.00000000000E+00 -0.00000000000E+00 -0.20328221795E+03  0.20328221795E+03  0.00000000000E+00 0.  1.
          6    1    1    2  501    0  0.73852155742E+02 -0.31965678411E+02 -0.25572665695E+02  0.19160873345E+03  0.17200000000E+03 0.  1.
         -6    1    1    2    0  502 -0.73852155742E+02  0.31965678411E+02  0.51221824509E+00  0.18989525500E+03  0.17200000000E+03 0.  1.
</event>
<event>
 4    1  0.5818436E+000  0.2124459E+03  0.7818608E-02  0.1139644E+00
         21   -1    0    0  501  502  0.00000000000E+00  0.00000000000E+00  0.10204308293E+03  0.10204308293E+03  0.00000000000E+00 0. -1.
         21   -1    0    0  502  503 -0.00000000000E+00 -0.00000000000E+00 -0.65666783719E+03  0.65666783719E+03  0.00000000000E+00 0. -1.
          6    1    1    2  501    0 -0.12144959928E+03 -0.28271224603E+02 -0.60563361458E+02  0.22090990937E+03  0.17200000000E+03 0. -1.
         -6    1    1    2    0  503  0.12144959928E+03  0.28271224603E+02 -0.49406139281E+03  0.53780101075E+03  0.17200000000E+03 0. -1.
</event>
<event>
 4    1  0.5818436E+000  0.1863127E+03  0.7818608E-02  0.1161830E+00
         21   -1    0    0  503  502  0.00000000000E+00  0.00000000000E+00  0.76800770542E+03  0.76800770542E+03  0.00000000000E+00 0. -1.
         21   -1    0    0  501  503 -0.00000000000E+00 -0.00000000000E+00 -0.75459851531E+02  0.75459851531E+02  0.00000000000E+00 0. -1.
          6    1    1    2  501    0 -0.71441773806E+02 -0.49480350459E+01  0.79202035506E+02  0.20244844411E+03  0.17200000000E+03 0. -1.
         -6    1    1    2    0  502  0.71441773806E+02  0.49480350459E+01  0.61334581839E+03  0.64101911284E+03  0.17200000000E+03 0. -1.
</event>
<event>
 4    1  0.5818436E+000  0.1746263E+03  0.7818608E-02  0.1173107E+00
         21   -1    0    0  501  502  0.00000000000E+00  0.00000000000E+00  0.12253061924E+03  0.12253061924E+03  0.00000000000E+00 0.  1.
         21   -1    0    0  502  503 -0.00000000000E+00 -0.00000000000E+00 -0.38925077249E+03  0.38925077249E+03  0.00000000000E+00 0.  1.
          6    1    1    2  501    0 -0.20542208179E+02 -0.22099057298E+02  0.20310812976E+02  0.17580352606E+03  0.17200000000E+03 0.  1.
         -6    1    1    2    0  503  0.20542208179E+02  0.22099057298E+02 -0.28703096623E+03  0.33597786567E+03  0.17200000000E+03 0.  1.
</event>
<event>
 4    1  0.5818436E+000  0.1829807E+03  0.7818608E-02  0.1164949E+00
         21   -1    0    0  503  502  0.00000000000E+00  0.00000000000E+00  0.26186982488E+02  0.26186982488E+02  0.00000000000E+00 0.  1.
         21   -1    0    0  501  503 -0.00000000000E+00 -0.00000000000E+00 -0.13851760600E+04  0.13851760600E+04  0.00000000000E+00 0.  1.
          6    1    1    2  501    0 -0.60974158282E+02  0.13419668902E+02 -0.48372564796E+03  0.51717737575E+03  0.17200000000E+03 0.  1.
         -6    1    1    2    0  502  0.60974158282E+02 -0.13419668902E+02 -0.87526342955E+03  0.89418566673E+03  0.17200000000E+03 0.  1.
</event>
<event>
 4    1  0.5818436E+000  0.2517476E+03  0.7818608E-02  0.1112205E+00
         21   -1    0    0  503  502  0.00000000000E+00  0.00000000000E+00  0.18687110395E+03  0.18687110395E+03  0.00000000000E+00 0.  1.
         21   -1    0    0  501  503 -0.00000000000E+00 -0.00000000000E+00 -0.44789959099E+03  0.44789959099E+03  0.00000000000E+00 0. -1.
          6    1    1    2  501    0  0.68519855979E+02 -0.17058102260E+03 -0.28690658221E+03  0.38169653241E+03  0.17200000000E+03 0. -1.
         -6    1    1    2    0  502 -0.68519855979E+02  0.17058102260E+03  0.25878095166E+02  0.25307416254E+03  0.17200000000E+03 0.  1.
</event>
<event>
 4    1  0.5818436E+000  0.1744514E+03  0.7818608E-02  0.1173284E+00
         21   -1    0    0  501  502  0.00000000000E+00  0.00000000000E+00  0.77656017148E+03  0.77656017148E+03  0.00000000000E+00 0. -1.
         21   -1    0    0  502  503 -0.00000000000E+00 -0.00000000000E+00 -0.74423072934E+02  0.74423072934E+02  0.00000000000E+00 0. -1.
          6    1    1    2  501    0 -0.18314812776E+02 -0.22668582950E+02  0.58307538140E+02  0.18393766886E+03  0.17200000000E+03 0. -1.
         -6    1    1    2    0  503  0.18314812776E+02  0.22668582950E+02  0.64382956040E+03  0.66704557556E+03  0.17200000000E+03 0. -1.
</event>
<event>
 4    1  0.5818436E+000  0.1735727E+03  0.7818608E-02  0.1174172E+00
         21   -1    0    0  501  502  0.00000000000E+00  0.00000000000E+00  0.96352560213E+02  0.96352560213E+02  0.00000000000E+00 0. -1.
         21   -1    0    0  502  503 -0.00000000000E+00 -0.00000000000E+00 -0.36096745954E+03  0.36096745954E+03  0.00000000000E+00 0. -1.
          6    1    1    2  501    0  0.13901518129E+02  0.18714891189E+02 -0.48675106510E+02  0.18026859225E+03  0.17200000000E+03 0.  1.
         -6    1    1    2    0  503 -0.13901518129E+02 -0.18714891189E+02 -0.21593979282E+03  0.27705142750E+03  0.17200000000E+03 0.  1.
</event>
<event>
 4    1  0.5818436E+000  0.2430507E+03  0.7818608E-02  0.1117777E+00
         21   -1    0    0  503  502  0.00000000000E+00  0.00000000000E+00  0.12345353729E+04  0.12345353729E+04  0.00000000000E+00 0.  1.
         21   -1    0    0  501  503 -0.00000000000E+00 -0.00000000000E+00 -0.20667629321E+03  0.20667629321E+03  0.00000000000E+00 0. -1.
          6    1    1    2  501    0 -0.71191893165E+02 -0.15627328396E+03 -0.11777269759E+03  0.27008153071E+03  0.17200000000E+03 0. -1.
         -6    1    1    2    0  502  0.71191893165E+02  0.15627328396E+03  0.11456317773E+04  0.11711301354E+04  0.17200000000E+03 0.  1.
</event>
<event>
 4    1  0.5818436E+000  0.2146454E+03  0.7818608E-02  0.1137939E+00
         21   -1    0    0  501  502  0.00000000000E+00  0.00000000000E+00  0.55853995527E+03  0.55853995527E+03  0.00000000000E+00 0. -1.
         21   -1    0    0  502  503 -0.00000000000E+00 -0.00000000000E+00 -0.18413463297E+03  0.18413463297E+03  0.00000000000E+00 0.  1.
          6    1    1    2  501    0 -0.78677983869E+02  0.10148109353E+03  0.46310038403E+03  0.51042590371E+03  0.17200000000E+03 0. -1.
         -6    1    1    2    0  503  0.78677983869E+02 -0.10148109353E+03 -0.88695061731E+02  0.23224868453E+03  0.17200000000E+03 0.  1.
</event>
<event>
 4    1  0.5818436E+000  0.1800830E+03  0.7818608E-02  0.1167723E+00
         21   -1    0    0  503  502  0.00000000000E+00  0.00000000000E+00  0.12316330427E+04  0.12316330427E+04  0.00000000000E+00 0. -1.
         21   -1    0    0  501  503 -0.00000000000E+00 -0.00000000000E+00 -0.33963690684E+02  0.33963690684E+02  0.00000000000E+00 0. -1.
          6    1    1    2  501    0 -0.37300836902E+02  0.38138288172E+02  0.29884764805E+03  0.34891230733E+03  0.17200000000E+03 0. -1.
         -6    1    1    2    0  502  0.37300836902E+02 -0.38138288172E+02  0.89882170396E+03  0.91668442605E+03  0.17200000000E+03 0. -1.
</event>
<event>
 4    1  0.5818436E+000  0.1771036E+03  0.7818608E-02  0.1170636E+00
         21   -1    0    0  501  502  0.00000000000E+00  0.00000000000E+00  0.20604999767E+02  0.20604999767E+02  0.00000000000E+00 0. -1.
         21   -1    0    0  502  503 -0.00000000000E+00 -0.00000000000E+00 -0.24350940761E+04  0.24350940761E+04  0.00000000000E+00 0. -1.
          6    1    1    2  501    0 -0.37595142952E+02  0.19190599268E+02 -0.45546778276E+03  0.48868862787E+03  0.17200000000E+03 0. -1.
         -6    1    1    2    0  503  0.37595142952E+02 -0.19190599268E+02 -0.19590212936E+04  0.19670104480E+04  0.17200000000E+03 0. -1.
</event>
<event>
 4    1  0.5818436E+000  0.4243369E+03  0.7818608E-02  0.1035664E+00
         21   -1    0    0  503  502  0.00000000000E+00  0.00000000000E+00  0.12712444497E+04  0.12712444497E+04  0.00000000000E+00 0. -1.
         21   -1    0    0  501  503 -0.00000000000E+00 -0.00000000000E+00 -0.28916028751E+03  0.28916028751E+03  0.00000000000E+00 0.  1.
          6    1    1    2  501    0 -0.32660447153E+03 -0.20930194898E+03 -0.66221501650E+02  0.42947301889E+03  0.17200000000E+03 0.  1.
         -6    1    1    2    0  502  0.32660447153E+03  0.20930194898E+03  0.10483056638E+04  0.11309317183E+04  0.17200000000E+03 0. -1.
</event>
<event>
 4    1  0.5818436E+000  0.1723653E+03  0.7818608E-02  0.1175403E+00
         21   -1    0    0  503  502  0.00000000000E+00  0.00000000000E+00  0.96737258049E+02  0.96737258049E+02  0.00000000000E+00 0. -1.
         21   -1    0    0  501  503 -0.00000000000E+00 -0.00000000000E+00 -0.59700087457E+03  0.59700087457E+03  0.00000000000E+00 0. -1.
          6    1    1    2  501    0  0.10423122824E+02  0.41425551173E+01 -0.49183867442E+03  0.52116704031E+03  0.17200000000E+03 0. -1.
         -6    1    1    2    0  502 -0.10423122824E+02 -0.41425551173E+01 -0.84249421069E+01  0.17257109231E+03  0.17200000000E+03 0. -1.
</event>
<event>
 4    1  0.5818436E+000  0.1808377E+03  0.7818608E-02  0.1166995E+00
         21   -1    0    0  503  502  0.00000000000E+00  0.00000000000E+00  0.61459160158E+03  0.61459160158E+03  0.00000000000E+00 0.  1.
         21   -1    0    0  501  503 -0.00000000000E+00 -0.00000000000E+00 -0.94850533542E+02  0.94850533542E+02  0.00000000000E+00 0.  1.
          6    1    1    2  501    0  0.53067182980E+01 -0.55588732836E+02  0.24838794618E+02  0.18253556967E+03  0.17200000000E+03 0.  1.
         -6    1    1    2    0  502 -0.53067182980E+01  0.55588732836E+02  0.49490227342E+03  0.52690656544E+03  0.17200000000E+03 0.  1.
</event>
<event>
 4    1  0.5818436E+000  0.1936361E+03  0.7818608E-02  0.1155222E+00
         21   -1    0    0  503  502  0.00000000000E+00  0.00000000000E+00  0.10378541760E+04  0.10378541760E+04  0.00000000000E+00 0. -1.
         21   -1    0    0  501  503 -0.00000000000E+00 -0.00000000000E+00 -0.24391417568E+03  0.24391417568E+03  0.00000000000E+00 0. -1.
          6    1    1    2  501    0 -0.72878371591E+02 -0.50987136459E+02 -0.19455078260E+03  0.27449034981E+03  0.17200000000E+03 0. -1.
         -6    1    1    2    0  502  0.72878371591E+02  0.50987136459E+02  0.98849078295E+03  0.10072780019E+04  0.17200000000E+03 0. -1.
</event>
<event>
 4    1  0.5818436E+000  0.2082427E+03  0.7818608E-02  0.1142965E+00
         21   -1    0    0  503  502  0.00000000000E+00  0.00000000000E+00  0.13281382387E+03  0.13281382387E+03  0.00000000000E+00 0. -1.
         21   -1    0    0  501  503 -0.00000000000E+00 -0.00000000000E+00 -0.47315410342E+03  0.47315410342E+03  0.00000000000E+00 0. -1.
          6    1    1    2  501    0 -0.11484363427E+03 -0.24330277867E+02 -0.33884519076E+03  0.39771985876E+03  0.17200000000E+03 0.  1.
         -6    1    1    2    0  502  0.11484363427E+03  0.24330277867E+02 -0.14950887926E+01  0.20824806852E+03  0.17200000000E+03 0.  1.
</event>
<event>
 4    1  0.5818436E+000  0.2176185E+03  0.7818608E-02  0.1135671E+00
         21   -1    0    0  501  502  0.00000000000E+00  0.00000000000E+00  0.12614323134E+04  0.12614323134E+04  0.00000000000E+00 0. -1.
         21   -1    0    0  502  503 -0.00000000000E+00 -0.00000000000E+00 -0.13669192418E+03  0.13669192418E+03  0.00000000000E+00 0. -1.
          6    1    1    2  501    0 -0.10040394260E+03 -0.87708993615E+02  0.11577424279E+04  0.11780175503E+04  0.17200000000E+03 0. -1.
         -6    1    1    2    0  503  0.10040394260E+03  0.87708993615E+02 -0.33002038717E+02  0.22010668734E+03  0.17200000000E+03 0. -1.
</event>
<event>
 4    1  0.5818436E+000  0.1815342E+03  0.7818608E-02  0.1166326E+00
         21   -1    0    0  501  502  0.00000000000E+00  0.00000000000E+00  0.16463780456E+03  0.16463780456E+03  0.00000000000E+00 0. -1.
         21   -1    0    0  502  503 -0.00000000000E+00 -0.00000000000E+00 -0.20873537914E+03  0.20873537914E+03  0.00000000000E+00 0. -1.
          6    1    1    2  501    0  0.33904546087E+02  0.47129217726E+02  0.15779963271E+02  0.18221879335E+03  0.17200000000E+03 0.  1.
         -6    1    1    2    0  503 -0.33904546087E+02 -0.47129217726E+02 -0.59877537855E+02  0.19115439035E+03  0.17200000000E+03 0.  1.
</event>
<event>
 4    1  0.5818436E+000  0.3068000E+03  0.7818608E-02  0.1081890E+00
         21   -1    0    0  503  502  0.00000000000E+00  0.00000000000E+00  0.46523386592E+03  0.46523386592E+03  0.00000000000E+00 0.  1.
         21   -1    0    0  501  503 -0.00000000000E+00 -0.00000000000E+00 -0.98943503323E+03  0.98943503323E+03  0.00000000000E+00 0.  1.
          6    1    1    2  501    0  0.15905706520E+03  0.19809871835E+03  0.38662277955E+03  0.49356197774E+03  0.17200000000E+03 0.  1.
         -6    1    1    2    0  502 -0.15905706520E+03 -0.19809871835E+03 -0.91082394686E+03  0.96110692141E+03  0.17200000000E+03 0.  1.
</event>
<event>
 4    1  0.5818436E+000  0.2228240E+03  0.7818608E-02  0.1131795E+00
         21   -1    0    0  503  502  0.00000000000E+00  0.00000000000E+00  0.34571580155E+03  0.34571580155E+03  0.00000000000E+00 0.  1.
         21   -1    0    0  501  503 -0.00000000000E+00 -0.00000000000E+00 -0.23331144023E+03  0.23331144023E+03  0.00000000000E+00 0. -1.
          6    1    1    2  501    0  0.13099990272E+03  0.53903426996E+02 -0.12330611857E+03  0.25466635591E+03  0.17200000000E+03 0. -1.
         -6    1    1    2    0  502 -0.13099990272E+03 -0.53903426996E+02  0.23571047989E+03  0.32436088588E+03  0.17200000000E+03 0.  1.
</event>
<event>
 4    1  0.5818436E+000  0.1918460E+03  0.7818608E-02  0.1156807E+00
         21   -1    0    0  501  502  0.00000000000E+00  0.00000000000E+00  0.18431642370E+03  0.18431642370E+03  0.00000000000E+00 0.  1.
         21   -1    0    0  502  503 -0.00000000000E+00 -0.00000000000E+00 -0.44426846837E+03  0.44426846837E+03  0.00000000000E+00 0.  1.
          6    1    1    2  501    0 -0.72191560523E+02  0.44824896207E+02  0.10322279743E+03  0.21785279122E+03  0.17200000000E+03 0.  1.
         -6    1    1    2    0  503  0.72191560523E+02 -0.44824896207E+02 -0.36317484211E+03  0.41073210085E+03  0.17200000000E+03 0.  1.
</event>
<event>
 4    1  0.5818436E+000  0.2217183E+03  0.7818608E-02  0.1132608E+00
         21   -1    0    0  503  502  0.00000000000E+00  0.00000000000E+00  0.65754381195E+03  0.65754381195E+03  0.00000000000E+00 0.  1.
         21   -1    0    0  501  503 -0.00000000000E+00 -0.00000000000E+00 -0.15454784893E+03  0.15454784893E+03  0.00000000000E+00 0.  1.
          6    1    1    2  501    0  0.13634456893E+03  0.31387160814E+02 -0.40249912383E+02  0.22534207505E+03  0.17200000000E+03 0.  1.
         -6    1    1    2    0  502 -0.13634456893E+03 -0.31387160814E+02  0.54324587540E+03  0.58674958584E+03  0.17200000000E+03 0.  1.
</event>
<event>
 4    1  0.5818436E+000  0.1842447E+03  0.7818608E-02  0.1163757E+00
         21   -1    0    0  501  502  0.00000000000E+00  0.00000000000E+00  0.22488249195E+03  0.22488249195E+03  0.00000000000E+00 0. -1.
         21   -1    0    0  502  503 -0.00000000000E+00 -0.00000000000E+00 -0.15791191074E+03  0.15791191074E+03  0.00000000000E+00 0.  1.
          6    1    1    2  501    0  0.90671584844E+01  0.65421013329E+02  0.73671503501E+02  0.19842785282E+03  0.17200000000E+03 0.  1.
         -6    1    1    2    0  503 -0.90671584844E+01 -0.65421013329E+02 -0.67009222878E+01  0.18436654986E+03  0.17200000000E+03 0.  1.
</event>
<event>
 4    1  0.5818436E+000  0.1773937E+03  0.7818608E-02  0.1170349E+00
         21   -1    0    0  501  502  0.00000000000E+00  0.00000000000E+00  0.12943535664E+03  0.12943535664E+03  0.00000000000E+00 0. -1.
         21   -1    0    0  502  503 -0.00000000000E+00 -0.00000000000E+00 -0.39484014777E+03  0.39484014777E+03  0.00000000000E+00 0.  1.
          6    1    1    2  501    0  0.39598131800E+02 -0.17791132205E+02  0.29791928915E+02  0.17987800159E+03  0.17200000000E+03 0. -1.
         -6    1    1    2    0  503 -0.39598131800E+02  0.17791132205E+02 -0.29519672005E+03  0.34439750283E+03  0.17200000000E+03 0.  1.
</event>
<event>
 4    1  0.5818436E+000  0.1981494E+03  0.7818608E-02  0.1151310E+00
         21   -1    0    0  503  502  0.00000000000E+00  0.00000000000E+00  0.13539972163E+03  0.13539972163E+03  0.00000000000E+00 0.  1.
         21   -1    0    0  501  503 -0.00000000000E+00 -0.00000000000E+00 -0.30479643796E+03  0.30479643796E+03  0.00000000000E+00 0.  1.
          6    1    1    2  501    0 -0.88739322239E+02  0.42479839213E+02 -0.36171296468E+02  0.20142384849E+03  0.17200000000E+03 0.  1.
         -6    1    1    2    0  502  0.88739322239E+02 -0.42479839213E+02 -0.13322541986E+03  0.23877231110E+03  0.17200000000E+03 0.  1.
</event>
<event>
 4    1  0.5818436E+000  0.1893089E+03  0.7818608E-02  0.1159086E+00
         21   -1    0    0  501  502  0.00000000000E+00  0.00000000000E+00  0.10196463984E+03  0.10196463984E+03  0.00000000000E+00 0. -1.
         21   -1    0    0  502  503 -0.00000000000E+00 -0.00000000000E+00 -0.35835973624E+03  0.35835973624E+03  0.00000000000E+00 0. -1.
          6    1    1    2  501    0 -0.31016449502E+01 -0.79020532096E+02 -0.96291970397E+02  0.21239116803E+03  0.17200000000E+03 0. -1.
         -6    1    1    2    0  503  0.31016449502E+01  0.79020532096E+02 -0.16010312601E+03  0.24793320804E+03  0.17200000000E+03 0. -1.
</event>
<event>
 4    1  0.5818436E+000  0.2221313E+03  0.7818608E-02  0.1132304E+00
         21   -1    0    0  501  502  0.00000000000E+00  0.00000000000E+00  0.34735076709E+03  0.34735076709E+03  0.00000000000E+00 0.  1.
         21   -1    0    0  502  503 -0.00000000000E+00 -0.00000000000E+00 -0.14228907368E+03  0.14228907368E+03  0.00000000000E+00 0.  1.
          6    1    1    2  501    0  0.33074949128E+02 -0.13661753161E+03  0.11249781399E+03  0.24899409703E+03  0.17200000000E+03 0.  1.
         -6    1    1    2    0  503 -0.33074949128E+02  0.13661753161E+03  0.92563879423E+02  0.24064574374E+03  0.17200000000E+03 0.  1.
</event>
<event>
 4    1  0.5818436E+000  0.2062310E+03  0.7818608E-02  0.1144586E+00
         21   -1    0    0  501  502  0.00000000000E+00  0.00000000000E+00  0.24956681575E+03  0.24956681575E+03  0.00000000000E+00 0.  1.
         21   -1    0    0  502  503 -0.00000000000E+00 -0.00000000000E+00 -0.40302179128E+03  0.40302179128E+03  0.00000000000E+00 0.  1.
          6    1    1    2  501    0 -0.38934691683E+02  0.10691733827E+03  0.17115826432E+03  0.26800443818E+03  0.17200000000E+03 0.  1.
         -6    1    1    2    0  503  0.38934691683E+02 -0.10691733827E+03 -0.32461323985E+03  0.38458416884E+03  0.17200000000E+03 0.  1.
</event>
<event>
 4    1  0.5818436E+000  0.1881397E+03  0.7818608E-02  0.1160150E+00
         21   -1    0    0  503  502  0.00000000000E+00  0.00000000000E+00  0.50533635665E+02  0.50533635665E+02  0.00000000000E+00 0. -1.
         21   -1    0    0  501  503 -0.00000000000E+00 -0.00000000000E+00 -0.72877823723E+03  0.72877823723E+03  0.00000000000E+00 0. -1.
          6    1    1    2  501    0 -0.67933339320E+02  0.34606645745E+02 -0.26230626406E+03  0.32280200539E+03  0.17200000000E+03 0.  1.
         -6    1    1    2    0  502  0.67933339320E+02 -0.34606645745E+02 -0.41593833750E+03  0.45650986750E+03  0.17200000000E+03 0.  1.
</event>
<event>
 4    1  0.5818436E+000  0.1772315E+03  0.7818608E-02  0.1170510E+00
         21   -1    0    0  503  502  0.00000000000E+00  0.00000000000E+00  0.37195523364E+02  0.37195523364E+02  0.00000000000E+00 0. -1.
         21   -1    0    0  501  503 -0.00000000000E+00 -0.00000000000E+00 -0.10339618718E+04  0.10339618718E+04  0.00000000000E+00 0. -1.
          6    1    1    2  501    0  0.39026650143E+02 -0.17433450736E+02 -0.26911124277E+03  0.32222952318E+03  0.17200000000E+03 0. -1.
         -6    1    1    2    0  502 -0.39026650143E+02  0.17433450736E+02 -0.72765510566E+03  0.74892787197E+03  0.17200000000E+03 0. -1.
</event>
<event>
 4    1  0.5818436E+000  0.1725344E+03  0.7818608E-02  0.1175230E+00
         21   -1    0    0  503  502  0.00000000000E+00  0.00000000000E+00  0.15530058084E+03  0.15530058084E+03  0.00000000000E+00 0.  1.
         21   -1    0    0  501  503 -0.00000000000E+00 -0.00000000000E+00 -0.24031973001E+03  0.24031973001E+03  0.00000000000E+00 0.  1.
          6    1    1    2  501    0  0.51913110279E+00  0.13559071138E+02  0.46481509963E+02  0.17868589389E+03  0.17200000000E+03 0.  1.
         -6    1    1    2    0  502 -0.51913110279E+00 -0.13559071138E+02 -0.13150065913E+03  0.21693441695E+03  0.17200000000E+03 0.  1.
</event>
<event>
 4    1  0.5818436E+000  0.2906389E+03  0.7818608E-02  0.1090016E+00
         21   -1    0    0  501  502  0.00000000000E+00  0.00000000000E+00  0.42425860831E+03  0.42425860831E+03  0.00000000000E+00 0.  1.
         21   -1    0    0  502  503 -0.00000000000E+00 -0.00000000000E+00 -0.25207634195E+03  0.25207634195E+03  0.00000000000E+00 0.  1.
          6    1    1    2  501    0  0.15475457091E+03  0.17589193256E+03 -0.68932007284E+02  0.29870147436E+03  0.17200000000E+03 0.  1.
         -6    1    1    2    0  503 -0.15475457091E+03 -0.17589193256E+03  0.24111427365E+03  0.37763347589E+03  0.17200000000E+03 0.  1.
</event>
<event>
 4    1  0.5818436E+000  0.1781034E+03  0.7818608E-02  0.1169651E+00
         21   -1    0    0  501  502  0.00000000000E+00  0.00000000000E+00  0.49681965008E+02  0.49681965008E+02  0.00000000000E+00 0.  1.
         21   -1    0    0  502  503 -0.00000000000E+00 -0.00000000000E+00 -0.91167159721E+03  0.91167159721E+03  0.00000000000E+00 0.  1.
          6    1    1    2  501    0 -0.33011156290E+02  0.32358959490E+02 -0.16786549969E+03  0.24474407998E+03  0.17200000000E+03 0.  1.
         -6    1    1    2    0  503  0.33011156290E+02 -0.32358959490E+02 -0.69412413251E+03  0.71660948224E+03  0.17200000000E+03 0.  1.
</event>
<event>
 4    1  0.5818436E+000  0.1791672E+03  0.7818608E-02  0.1168611E+00
         21   -1    0    0  501  502  0.00000000000E+00  0.00000000000E+00  0.37074999535E+03  0.37074999535E+03  0.00000000000E+00 0. -1.
         21   -1    0    0  502  503 -0.00000000000E+00 -0.00000000000E+00 -0.20172542254E+03  0.20172542254E+03  0.00000000000E+00 0. -1.
          6    1    1    2  501    0 -0.48655433591E+02  0.12229110037E+02  0.30076567024E+03  0.35008697597E+03  0.17200000000E+03 0. -1.
         -6    1    1    2    0  503  0.48655433591E+02 -0.12229110037E+02 -0.13174109742E+03  0.22238844192E+03  0.17200000000E+03 0. -1.
</event>
<event>
 4    1  0.5818436E+000  0.2039938E+03  0.7818608E-02  0.1146413E+00
         21   -1    0    0  503  502  0.00000000000E+00  0.00000000000E+00  0.10460540751E+03  0.10460540751E+03  0.00000000000E+00 0.  1.
         21   -1    0    0  501  503 -0.00000000000E+00 -0.00000000000E+00 -0.58058589966E+03  0.58058589966E+03  0.00000000000E+00 0.  1.
          6    1    1    2  501    0 -0.31034410052E+02  0.10519656693E+03 -0.43021256459E+03  0.47612635196E+03  0.17200000000E+03 0.  1.
         -6    1    1    2    0  502  0.31034410052E+02 -0.10519656693E+03 -0.45767927566E+02  0.20906495521E+03  0.17200000000E+03 0.  1.
</event>
<event>
 4    1  0.5818436E+000  0.1862286E+03  0.7818608E-02  0.1161907E+00
         21   -1    0    0  501  502  0.00000000000E+00  0.00000000000E+00  0.62172721617E+03  0.62172721617E+03  0.00000000000E+00 0.  1.
         21   -1    0    0  502  503 -0.00000000000E+00 -0.00000000000E+00 -0.67258532070E+02  0.67258532070E+02  0.00000000000E+00 0.  1.
          6    1    1    2  501    0 -0.71356781514E+02  0.23057982435E+01  0.41953743540E+03  0.45901281755E+03  0.17200000000E+03 0.  1.
         -6    1    1    2    0  503  0.71356781514E+02 -0.23057982435E+01  0.13493124869E+03  0.22997293069E+03  0.17200000000E+03 0.  1.
</event>
<event>
 4    1  0.5818436E+000  0.2388282E+03  0.7818608E-02  0.1120576E+00
         21   -1    0    0  501  502  0.00000000000E+00  0.00000000000E+00  0.37871811669E+02  0.37871811669E+02  0.00000000000E+00 0. -1.
         21   -1    0    0  502  503 -0.00000000000E+00 -0.00000000000E+00 -0.17407449159E+04  0.17407449159E+04  0.00000000000E+00 0.  1.
          6    1    1    2  501    0 -0.63904285115E+02 -0.15287633997E+03 -0.52493476770E+03  0.57671088365E+03  0.17200000000E+03 0. -1.
         -6    1    1    2    0  503  0.63904285115E+02  0.15287633997E+03 -0.11779383365E+04  0.12019058439E+04  0.17200000000E+03 0.  1.
</event>
<event>
 4    1  0.5818436E+000  0.1852867E+03  0.7818608E-02  0.1162782E+00
         21   -1    0    0  503  502  0.00000000000E+00  0.00000000000E+00  0.23611508516E+03  0.23611508516E+03  0.00000000000E+00 0.  1.
         21   -1    0    0  501  503 -0.00000000000E+00 -0.00000000000E+00 -0.55858373104E+03  0.55858373104E+03  0.00000000000E+00 0.  1.
          6    1    1    2  501    0 -0.68891117299E+02 -0.10800766326E+01 -0.50297761037E+03  0.53602017605E+03  0.17200000000E+03 0.  1.
         -6    1    1    2    0  502  0.68891117299E+02  0.10800766326E+01  0.18050896449E+03  0.25867864015E+03  0.17200000000E+03 0.  1.
</event>
<event>
 4    1  0.5818436E+000  0.2187529E+03  0.7818608E-02  0.1134816E+00
         21   -1    0    0  501  502  0.00000000000E+00  0.00000000000E+00  0.43995596182E+02  0.43995596182E+02  0.00000000000E+00 0. -1.
         21   -1    0    0  502  503 -0.00000000000E+00 -0.00000000000E+00 -0.11543231646E+04  0.11543231646E+04  0.00000000000E+00 0.  1.
          6    1    1    2  501    0 -0.11465951484E+03 -0.71568204433E+02 -0.69913643483E+03  0.73256028198E+03  0.17200000000E+03 0.  1.
         -6    1    1    2    0  503  0.11465951484E+03  0.71568204433E+02 -0.41119113357E+03  0.46575847878E+03  0.17200000000E+03 0. -1.
</event>
<event>
 4    1  0.5818436E+000  0.2391376E+03  0.7818608E-02  0.1120369E+00
         21   -1    0    0  503  502  0.00000000000E+00  0.00000000000E+00  0.34882877133E+03  0.34882877133E+03  0.00000000000E+00 0.  1.
         21   -1    0    0  501  503 -0.00000000000E+00 -0.00000000000E+00 -0.46906065583E+03  0.46906065583E+03  0.00000000000E+00 0. -1.
          6    1    1    2  501    0 -0.28776701686E+02 -0.16362979700E+03 -0.38994298929E+03  0.45743015196E+03  0.17200000000E+03 0. -1.
         -6    1    1    2    0  502  0.28776701686E+02  0.16362979700E+03  0.26971110480E+03  0.36045927520E+03  0.17200000000E+03 0.  1.
</event>
<event>
 4    1  0.5818436E+000  0.1857703E+03  0.7818608E-02  0.1162333E+00
         21   -1    0    0  501  502  0.00000000000E+00  0.00000000000E+00  0.29342560591E+03  0.29342560591E+03  0.00000000000E+00 0. -1.
         21   -1    0    0  502  503 -0.00000000000E+00 -0.00000000000E+00 -0.11968519041E+03  0.11968519041E+03  0.00000000000E+00 0.  1.
          6    1    1    2  501    0 -0.19869812438E+01 -0.70161519006E+02  0.59689587494E+02  0.19512414945E+03  0.17200000000E+03 0.  1.
         -6    1    1    2    0  503  0.19869812438E+01  0.70161519006E+02  0.11405082801E+03  0.21798664687E+03  0.17200000000E+03 0.  1.
</event>
<event>
 4    1  0.5818436E+000  0.1732470E+03  0.7818608E-02  0.1174503E+00
         21   -1    0    0  501  502  0.00000000000E+00  0.00000000000E+00  0.29846276788E+02  0.29846276788E+02  0.00000000000E+00 0. -1.
         21   -1    0    0  502  503 -0.00000000000E+00 -0.00000000000E+00 -0.10311081449E+04  0.10311081449E+04  0.00000000000E+00 0. -1.
          6    1    1    2  501    0 -0.19377487162E+02 -0.74187284224E+01 -0.41725559155E+03  0.45179282112E+03  0.17200000000E+03 0.  1.
         -6    1    1    2    0  503  0.19377487162E+02  0.74187284224E+01 -0.58400627661E+03  0.60916160062E+03  0.17200000000E+03 0.  1.
</event>
<event>
 4    1  0.5818436E+000  0.1750892E+03  0.7818608E-02  0.1172642E+00
         21   -1    0    0  501  502  0.00000000000E+00  0.00000000000E+00  0.29300962574E+02  0.29300962574E+02  0.00000000000E+00 0.  1.
         21   -1    0    0  502  503 -0.00000000000E+00 -0.00000000000E+00 -0.13589362269E+04  0.13589362269E+04  0.00000000000E+00 0.  1.
          6    1    1    2  501    0 -0.24833258073E+02  0.21343054227E+02 -0.33186188770E+03  0.37521797555E+03  0.17200000000E+03 0.  1.
         -6    1    1    2    0  503  0.24833258073E+02 -0.21343054227E+02 -0.99777337663E+03  0.10130192139E+04  0.17200000000E+03 0.  1.
</event>
<event>
 4    1  0.5818436E+000  0.2091393E+03  0.7818608E-02  0.1142249E+00
         21   -1    0    0  501  502  0.00000000000E+00  0.00000000000E+00  0.26362629819E+03  0.26362629819E+03  0.00000000000E+00 0. -1.
         21   -1    0    0  502  503 -0.00000000000E+00 -0.00000000000E+00 -0.16770077095E+03  0.16770077095E+03  0.00000000000E+00 0.  1.
          6    1    1    2  501    0  0.11882567649E+03  0.59753699441E+01  0.25700701620E+02  0.21071253523E+03  0.17200000000E+03 0. -1.
         -6    1    1    2    0  503 -0.11882567649E+03 -0.59753699441E+01  0.70224825613E+02  0.22061453391E+03  0.17200000000E+03 0. -1.
</event>
<event>
 4    1  0.5818436E+000  0.3062244E+03  0.7818608E-02  0.1082170E+00
         21   -1    0    0  503  502  0.00000000000E+00  0.00000000000E+00  0.38405493472E+03  0.38405493472E+03  0.00000000000E+00 0.  1.
         21   -1    0    0  501  503 -0.00000000000E+00 -0.00000000000E+00 -0.25646732392E+03  0.25646732392E+03  0.00000000000E+00 0.  1.
          6    1    1    2  501    0 -0.22691567937E+03 -0.11268837751E+03 -0.63441598562E+01  0.30629013097E+03  0.17200000000E+03 0.  1.
         -6    1    1    2    0  502  0.22691567937E+03  0.11268837751E+03  0.13393177066E+03  0.33423212766E+03  0.17200000000E+03 0.  1.
</event>
<event>
 4    1  0.5818436E+000  0.2460698E+03  0.7818608E-02  0.1115814E+00
         21   -1    0    0  503  502  0.00000000000E+00  0.00000000000E+00  0.21445766839E+03  0.21445766839E+03  0.00000000000E+00 0. -1.
         21   -1    0    0  501  503 -0.00000000000E+00 -0.00000000000E+00 -0.29235281146E+03  0.29235281146E+03  0.00000000000E+00 0.  1.
          6    1    1    2  501    0 -0.16220681822E+03 -0.68229592477E+02 -0.85840188255E+02  0.26061248452E+03  0.17200000000E+03 0.  1.
         -6    1    1    2    0  502  0.16220681822E+03  0.68229592477E+02  0.79450451856E+01  0.24619799534E+03  0.17200000000E+03 0. -1.
</event>
<event>
 4    1  0.5818436E+000  0.1815925E+03  0.7818608E-02  0.1166271E+00
         21   -1    0    0  503  502  0.00000000000E+00  0.00000000000E+00  0.44833268694E+03  0.44833268694E+03  0.00000000000E+00 0. -1.
         21   -1    0    0  501  503 -0.00000000000E+00 -0.00000000000E+00 -0.74005467547E+02  0.74005467547E+02  0.00000000000E+00 0. -1.
          6    1    1    2  501    0 -0.34388221665E+02 -0.47003190534E+02  0.16672396677E+03  0.24652125832E+03  0.17200000000E+03 0. -1.
         -6    1    1    2    0  502  0.34388221665E+02  0.47003190534E+02  0.20760325262E+03  0.27581689616E+03  0.17200000000E+03 0. -1.
</event>
<event>
 4    1  0.5818436E+000  0.1726275E+03  0.7818608E-02  0.1175135E+00
         21   -1    0    0  503  502  0.00000000000E+00  0.00000000000E+00  0.65901308085E+02  0.65901308085E+02  0.00000000000E+00 0. -1.
         21   -1    0    0  501  503 -0.00000000000E+00 -0.00000000000E+00 -0.45601261139E+03  0.45601261139E+03  0.00000000000E+00 0. -1.
          6    1    1    2  501    0  0.12644604353E+02 -0.75081920590E+01 -0.21893165765E+03  0.27880338895E+03  0.17200000000E+03 0. -1.
         -6    1    1    2    0  502 -0.12644604353E+02  0.75081920590E+01 -0.17117964566E+03  0.24311053053E+03  0.17200000000E+03 0. -1.
</event>
<event>
 4    1  0.5818436E+000  0.1934927E+03  0.7818608E-02  0.1155348E+00
         21   -1    0    0  503  502  0.00000000000E+00  0.00000000000E+00  0.59052780100E+02  0.59052780100E+02  0.00000000000E+00 0.  1.
         21   -1    0    0  501  503 -0.00000000000E+00 -0.00000000000E+00 -0.11772925654E+04  0.11772925654E+04  0.00000000000E+00 0.  1.
          6    1    1    2  501    0 -0.32597823007E+02  0.82418567471E+02 -0.97905738158E+03  0.99799438613E+03  0.17200000000E+03 0.  1.
         -6    1    1    2    0  502  0.32597823007E+02 -0.82418567471E+02 -0.13918240374E+03  0.23835095938E+03  0.17200000000E+03 0.  1.
</event>
<event>
 4    1  0.5818436E+000  0.1907463E+03  0.7818608E-02  0.1157790E+00
         21   -1    0    0  503  502  0.00000000000E+00  0.00000000000E+00  0.84928436052E+02  0.84928436052E+02  0.00000000000E+00 0.  1.
         21   -1    0    0  501  503 -0.00000000000E+00 -0.00000000000E+00 -0.45453674511E+03  0.45453674511E+03  0.00000000000E+00 0.  1.
          6    1    1    2  501    0 -0.81118101681E+02  0.14833003963E+02 -0.24947286599E+03  0.31403960784E+03  0.17200000000E+03 0.  1.
         -6    1    1    2    0  502  0.81118101681E+02 -0.14833003963E+02 -0.12013544307E+03  0.22542557332E+03  0.17200000000E+03 0.  1.
</event>
<event>
 4    1  0.5818436E+000  0.1923077E+03  0.7818608E-02  0.1156396E+00
         21   -1    0    0  501  502  0.00000000000E+00  0.00000000000E+00  0.23145397857E+03  0.23145397857E+03  0.00000000000E+00 0.  1.
         21   -1    0    0  502  503 -0.00000000000E+00 -0.00000000000E+00 -0.15979362943E+03  0.15979362943E+03  0.00000000000E+00 0.  1.
          6    1    1    2  501    0 -0.60658015368E+02  0.60982456157E+02  0.34184781494E+02  0.19532243617E+03  0.17200000000E+03 0.  1.
         -6    1    1    2    0  503  0.60658015368E+02 -0.60982456157E+02  0.37475567645E+02  0.19592517183E+03  0.17200000000E+03 0.  1.
</event>
<event>
 4    1  0.5818436E+000  0.2033522E+03  0.7818608E-02  0.1146941E+00
         21   -1    0    0  501  502  0.00000000000E+00  0.00000000000E+00  0.65392801194E+02  0.65392801194E+02  0.00000000000E+00 0.  1.
         21   -1    0    0  502  503 -0.00000000000E+00 -0.00000000000E+00 -0.68337701781E+03  0.68337701781E+03  0.00000000000E+00 0. -1.
          6    1    1    2  501    0 -0.89700939303E+02 -0.61006955339E+02 -0.20670399741E+03  0.28996318672E+03  0.17200000000E+03 0.  1.
         -6    1    1    2    0  503  0.89700939303E+02  0.61006955339E+02 -0.41128021921E+03  0.45880663229E+03  0.17200000000E+03 0.  1.
</event>
<event>
 4    1  0.5818436E+000  0.3517873E+03  0.7818608E-02  0.1061884E+00
         21   -1    0    0  503  502  0.00000000000E+00  0.00000000000E+00  0.34811278001E+03  0.34811278001E+03  0.00000000000E+00 0.  1.
         21   -1    0    0  501  503 -0.00000000000E+00 -0.00000000000E+00 -0.67865646105E+03  0.67865646105E+03  0.00000000000E+00 0.  1.
          6    1    1    2  501    0 -0.52783266401E+02  0.30229830015E+03 -0.51953322417E+03  0.62743055911E+03  0.17200000000E+03 0.  1.
         -6    1    1    2    0  502  0.52783266401E+02 -0.30229830015E+03  0.18898954313E+03  0.39933868195E+03  0.17200000000E+03 0.  1.
</event>
<event>
 4    1  0.5818436E+000  0.1891152E+03  0.7818608E-02  0.1159262E+00
         21   -1    0    0  503  502  0.00000000000E+00  0.00000000000E+00  0.36501191821E+03  0.36501191821E+03  0.00000000000E+00 0.  1.
         21   -1    0    0  501  503 -0.00000000000E+00 -0.00000000000E+00 -0.30403506578E+03  0.30403506578E+03  0.00000000000E+00 0. -1.
          6    1    1    2  501    0  0.13812047555E+02  0.77393826040E+02 -0.24490551675E+03  0.30942412495E+03  0.17200000000E+03 0. -1.
         -6    1    1    2    0  502 -0.13812047555E+02 -0.77393826040E+02  0.30588236918E+03  0.35962285904E+03  0.17200000000E+03 0.  1.
</event>
<event>
 4    1  0.5818436E+000  0.2125715E+03  0.7818608E-02  0.1139546E+00
         21   -1    0    0  503  502  0.00000000000E+00  0.00000000000E+00  0.14433626521E+03  0.14433626521E+03  0.00000000000E+00 0.  1.
         21   -1    0    0  501  503 -0.00000000000E+00 -0.00000000000E+00 -0.69255169472E+03  0.69255169472E+03  0.00000000000E+00 0.  1.
          6    1    1    2  501    0 -0.82984270415E+02 -0.93360914034E+02 -0.58385637544E+03  0.62134927098E+03  0.17200000000E+03 0.  1.
         -6    1    1    2    0  502  0.82984270415E+02  0.93360914034E+02  0.35640945932E+02  0.21553868895E+03  0.17200000000E+03 0.  1.
</event>
<event>
 4    1  0.5818436E+000  0.3040043E+03  0.7818608E-02  0.1083256E+00
         21   -1    0    0  501  502  0.00000000000E+00  0.00000000000E+00  0.51506102326E+03  0.51506102326E+03  0.00000000000E+00 0. -1.
         21   -1    0    0  502  503 -0.00000000000E+00 -0.00000000000E+00 -0.17993372218E+03  0.17993372218E+03  0.00000000000E+00 0.  1.
          6    1    1    2  501    0 -0.25671515857E+02  0.24935029525E+03  0.14921996609E+03  0.33865202605E+03  0.17200000000E+03 0. -1.
         -6    1    1    2    0  503  0.25671515857E+02 -0.24935029525E+03  0.18590733498E+03  0.35634271940E+03  0.17200000000E+03 0. -1.
</event>
<event>
 4    1  0.5818436E+000  0.2326133E+03  0.7818608E-02  0.1124814E+00
         21   -1    0    0  503  502  0.00000000000E+00  0.00000000000E+00  0.18452233282E+03  0.18452233282E+03  0.00000000000E+00 0. -1.
         21   -1    0    0  501  503 -0.00000000000E+00 -0.00000000000E+00 -0.44393143829E+03  0.44393143829E+03  0.00000000000E+00 0. -1.
          6    1    1    2  501    0  0.80249043267E+02  0.13448054754E+03 -0.31278114518E+03  0.38979606385E+03  0.17200000000E+03 0. -1.
         -6    1    1    2    0  502 -0.80249043267E+02 -0.13448054754E+03  0.53372039706E+02  0.23865770726E+03  0.17200000000E+03 0. -1.
</event>
<event>
 4    1  0.5818436E+000  0.2887354E+03  0.7818608E-02  0.1091011E+00
         21   -1    0    0  501  502  0.00000000000E+00  0.00000000000E+00  0.37679575211E+03  0.37679575211E+03  0.00000000000E+00 0. -1.
         21   -1    0    0  502  503 -0.00000000000E+00 -0.00000000000E+00 -0.28158860254E+03  0.28158860254E+03  0.00000000000E+00 0.  1.
          6    1    1    2  501    0  0.20014796164E+03  0.11715354591E+03  0.19998061672E+03  0.35122700200E+03  0.17200000000E+03 0.  1.
         -6    1    1    2    0  503 -0.20014796164E+03 -0.11715354591E+03 -0.10477346715E+03  0.30715735265E+03  0.17200000000E+03 0. -1.
</event>
<event>
 4    1  0.5818436E+000  0.1743769E+03  0.7818608E-02  0.1173359E+00
         21   -1    0    0  501  502  0.00000000000E+00  0.00000000000E+00  0.10227204889E+04  0.10227204889E+04  0.00000000000E+00 0. -1.
         21   -1    0    0  502  503 -0.00000000000E+00 -0.00000000000E+00 -0.31382069742E+03  0.31382069742E+03  0.00000000000E+00 0. -1.
          6    1    1    2  501    0  0.26209710774E+02 -0.11676763494E+02  0.99027651880E+03  0.10055122473E+04  0.17200000000E+03 0. -1.
         -6    1    1    2    0  503 -0.26209710774E+02  0.11676763494E+02 -0.28137672737E+03  0.33102893900E+03  0.17200000000E+03 0. -1.
</event>
<event>
 4    1  0.5818436E+000  0.1930406E+03  0.7818608E-02  0.1155747E+00
         21   -1    0    0  503  502  0.00000000000E+00  0.00000000000E+00  0.17343745155E+03  0.17343745155E+03  0.00000000000E+00 0.  1.
         21   -1    0    0  501  503 -0.00000000000E+00 -0.00000000000E+00 -0.30776701818E+03  0.30776701818E+03  0.00000000000E+00 0.  1.
          6    1    1    2  501    0 -0.32891051986E+01  0.87577817400E+02 -0.19935945108E+03  0.27750474419E+03  0.17200000000E+03 0.  1.
         -6    1    1    2    0  502  0.32891051986E+01 -0.87577817400E+02  0.65029884449E+02  0.20369972554E+03  0.17200000000E+03 0.  1.
</event>
<event>
 4    1  0.5818436E+000  0.2075495E+03  0.7818608E-02  0.1143521E+00
         21   -1    0    0  501  502  0.00000000000E+00  0.00000000000E+00  0.18589734786E+03  0.18589734786E+03  0.00000000000E+00 0. -1.
         21   -1    0    0  502  503 -0.00000000000E+00 -0.00000000000E+00 -0.36346327581E+03  0.36346327581E+03  0.00000000000E+00 0.  1.
          6    1    1    2  501    0 -0.89142014272E+02 -0.74474751979E+02  0.76586642998E+02  0.22122906969E+03  0.17200000000E+03 0. -1.
         -6    1    1    2    0  503  0.89142014272E+02  0.74474751979E+02 -0.25415257095E+03  0.32813155397E+03  0.17200000000E+03 0.  1.
</event>
<event>
 4    1  0.5818436E+000  0.2524696E+03  0.7818608E-02  0.1111754E+00
         21   -1    0    0  501  502  0.00000000000E+00  0.00000000000E+00  0.23394942386E+03  0.23394942386E+03  0.00000000000E+00 0. -1.
         21   -1    0    0  502  503 -0.00000000000E+00 -0.00000000000E+00 -0.34302428922E+03  0.34302428922E+03  0.00000000000E+00 0. -1.
          6    1    1    2  501    0  0.10348932989E+03 -0.15312365834E+03  0.76311070469E+02  0.26375040402E+03  0.17200000000E+03 0. -1.
         -6    1    1    2    0  503 -0.10348932989E+03  0.15312365834E+03 -0.18538593583E+03  0.31322330907E+03  0.17200000000E+03 0. -1.
</event>
<event>
 4    1  0.5818436E+000  0.2080876E+03  0.7818608E-02  0.1143089E+00
         21   -1    0    0  503  502  0.00000000000E+00  0.00000000000E+00  0.82012526003E+02  0.82012526003E+02  0.00000000000E+00 0. -1.
         21   -1    0    0  501  503 -0.00000000000E+00 -0.00000000000E+00 -0.52920728270E+03  0.52920728270E+03  0.00000000000E+00 0.  1.
          6    1    1    2  501    0  0.20886904621E+02  0.11523963871E+03 -0.20884096198E+03  0.29481347411E+03  0.17200000000E+03 0.  1.
         -6    1    1    2    0  502 -0.20886904621E+02 -0.11523963871E+03 -0.23835379472E+03  0.31640633459E+03  0.17200000000E+03 0. -1.
</event>
<event>
 4    1  0.5818436E+000  0.1941374E+03  0.7818608E-02  0.1154782E+00
         21   -1    0    0  501  502  0.00000000000E+00  0.00000000000E+00  0.11836256443E+03  0.11836256443E+03  0.00000000000E+00 0. -1.
         21   -1    0    0  502  503 -0.00000000000E+00 -0.00000000000E+00 -0.33959413302E+03  0.33959413302E+03  0.00000000000E+00 0.  1.
          6    1    1    2  501    0 -0.89875761748E+02  0.52602083687E+01 -0.53442927836E+02  0.20135905462E+03  0.17200000000E+03 0. -1.
         -6    1    1    2    0  503  0.89875761748E+02 -0.52602083687E+01 -0.16778864075E+03  0.25659764283E+03  0.17200000000E+03 0.  1.
</event>
<event>
 4    1  0.5818436E+000  0.2164854E+03  0.7818608E-02  0.1136531E+00
         21   -1    0    0  503  502  0.00000000000E+00  0.00000000000E+00  0.40383041115E+03  0.40383041115E+03  0.00000000000E+00 0.  1.
         21   -1    0    0  501  503 -0.00000000000E+00 -0.00000000000E+00 -0.13164820177E+03  0.13164820177E+03  0.00000000000E+00 0.  1.
          6    1    1    2  501    0 -0.93766346733E+02  0.92140020790E+02  0.22824080846E+03  0.31457873078E+03  0.17200000000E+03 0.  1.
         -6    1    1    2    0  502  0.93766346733E+02 -0.92140020790E+02  0.43941400915E+02  0.22089988213E+03  0.17200000000E+03 0.  1.
</event>
<event>
 4    1  0.5818436E+000  0.2022121E+03  0.7818608E-02  0.1147886E+00
         21   -1    0    0  501  502  0.00000000000E+00  0.00000000000E+00  0.15802521949E+03  0.15802521949E+03  0.00000000000E+00 0.  1.
         21   -1    0    0  502  503 -0.00000000000E+00 -0.00000000000E+00 -0.28425748850E+03  0.28425748850E+03  0.00000000000E+00 0.  1.
          6    1    1    2  501    0  0.35738749499E+01  0.10626835398E+03  0.31222297964E+01  0.20223620833E+03  0.17200000000E+03 0.  1.
         -6    1    1    2    0  503 -0.35738749499E+01 -0.10626835398E+03 -0.12935449881E+03  0.24004649966E+03  0.17200000000E+03 0.  1.
</event>
<event>
 4    1  0.5818436E+000  0.2307220E+03  0.7818608E-02  0.1126133E+00
         21   -1    0    0  503  502  0.00000000000E+00  0.00000000000E+00  0.22358751542E+04  0.22358751542E+04  0.00000000000E+00 0. -1.
         21   -1    0    0  501  503 -0.00000000000E+00 -0.00000000000E+00 -0.51144225913E+02  0.51144225913E+02  0.00000000000E+00 0.  1.
          6    1    1    2  501    0 -0.15376458046E+03  0.22525920591E+01  0.25636290385E+03  0.34489789626E+03  0.17200000000E+03 0.  1.
         -6    1    1    2    0  502  0.15376458046E+03 -0.22525920591E+01  0.19283680245E+04  0.19421214839E+04  0.17200000000E+03 0. -1.
</event>
<event>
 4    1  0.5818436E+000  0.2303879E+03  0.7818608E-02  0.1126367E+00
         21   -1    0    0  503  502  0.00000000000E+00  0.00000000000E+00  0.55167960213E+03  0.55167960213E+03  0.00000000000E+00 0. -1.
         21   -1    0    0  501  503 -0.00000000000E+00 -0.00000000000E+00 -0.30284806745E+03  0.30284806745E+03  0.00000000000E+00 0.  1.
          6    1    1    2  501    0  0.15327334807E+03 -0.13621494293E+01 -0.22851220175E+03  0.32449406933E+03  0.17200000000E+03 0.  1.
         -6    1    1    2    0  502 -0.15327334807E+03  0.13621494293E+01  0.47734373644E+03  0.53003360025E+03  0.17200000000E+03 0. -1.
</event>
<event>
 4    1  0.5818436E+000  0.1847386E+03  0.7818608E-02  0.1163294E+00
         21   -1    0    0  503  502  0.00000000000E+00  0.00000000000E+00  0.63430833129E+02  0.63430833129E+02  0.00000000000E+00 0.  1.
         21   -1    0    0  501  503 -0.00000000000E+00 -0.00000000000E+00 -0.15842378722E+04  0.15842378722E+04  0.00000000000E+00 0.  1.
          6    1    1    2  501    0  0.31124905212E+02 -0.59796095925E+02 -0.14298819572E+04  0.14417665360E+04  0.17200000000E+03 0. -1.
         -6    1    1    2    0  502 -0.31124905212E+02  0.59796095925E+02 -0.90925081838E+02  0.20590216929E+03  0.17200000000E+03 0. -1.
</event>
<event>
 4    1  0.5818436E+000  0.1903248E+03  0.7818608E-02  0.1158169E+00
         21   -1    0    0  503  502  0.00000000000E+00  0.00000000000E+00  0.79146505962E+02  0.79146505962E+02  0.00000000000E+00 0.  1.
         21   -1    0    0  501  503 -0.00000000000E+00 -0.00000000000E+00 -0.13195836606E+04  0.13195836606E+04  0.00000000000E+00 0.  1.
          6    1    1    2  501    0  0.12362008352E+02 -0.80540137476E+02 -0.11854360870E+04  0.12006174450E+04  0.17200000000E+03 0.  1.
         -6    1    1    2    0  502 -0.12362008352E+02  0.80540137476E+02 -0.55001067678E+02  0.19811272155E+03  0.17200000000E+03 0.  1.
</event>
<event>
 4    1  0.5818436E+000  0.2081629E+03  0.7818608E-02  0.1143029E+00
         21   -1    0    0  503  502  0.00000000000E+00  0.00000000000E+00  0.85230043344E+02  0.85230043344E+02  0.00000000000E+00 0. -1.
         21   -1    0    0  501  503 -0.00000000000E+00 -0.00000000000E+00 -0.56178844619E+03  0.56178844619E+03  0.00000000000E+00 0.  1.
          6    1    1    2  501    0 -0.89253875702E+02 -0.76036448477E+02 -0.33799954353E+03  0.39695779027E+03  0.17200000000E+03 0. -1.
         -6    1    1    2    0  502  0.89253875702E+02  0.76036448477E+02 -0.13855885932E+03  0.25006069927E+03  0.17200000000E+03 0. -1.
</event>
<event>
 4    1  0.5818436E+000  0.2514817E+03  0.7818608E-02  0.1112372E+00
         21   -1    0    0  503  502  0.00000000000E+00  0.00000000000E+00  0.33715541781E+03  0.33715541781E+03  0.00000000000E+00 0.  1.
         21   -1    0    0  501  503 -0.00000000000E+00 -0.00000000000E+00 -0.35125183022E+03  0.35125183022E+03  0.00000000000E+00 0. -1.
          6    1    1    2  501    0 -0.48758630897E+02  0.17686613477E+03 -0.24200899454E+03  0.34901488099E+03  0.17200000000E+03 0. -1.
         -6    1    1    2    0  502  0.48758630897E+02 -0.17686613477E+03  0.22791258213E+03  0.33939236705E+03  0.17200000000E+03 0.  1.
</event>
<event>
 4    1  0.5818436E+000  0.1980915E+03  0.7818608E-02  0.1151359E+00
         21   -1    0    0  501  502  0.00000000000E+00  0.00000000000E+00  0.37563458534E+03  0.37563458534E+03  0.00000000000E+00 0.  1.
         21   -1    0    0  502  503 -0.00000000000E+00 -0.00000000000E+00 -0.10543141933E+03  0.10543141933E+03  0.00000000000E+00 0.  1.
          6    1    1    2  501    0 -0.93040256395E+02 -0.31618841102E+02  0.15814396858E+03  0.25347535427E+03  0.17200000000E+03 0.  1.
         -6    1    1    2    0  503  0.93040256395E+02  0.31618841102E+02  0.11205919743E+03  0.22759065040E+03  0.17200000000E+03 0.  1.
</event>
<event>
 4    1  0.5818436E+000  0.2040780E+03  0.7818608E-02  0.1146343E+00
         21   -1    0    0  501  502  0.00000000000E+00  0.00000000000E+00  0.21824137306E+03  0.21824137306E+03  0.00000000000E+00 0.  1.
         21   -1    0    0  502  503 -0.00000000000E+00 -0.00000000000E+00 -0.34504325772E+03  0.34504325772E+03  0.00000000000E+00 0.  1.
          6    1    1    2  501    0 -0.10977233717E+03  0.37212067186E+01  0.12488450257E+03  0.23925708426E+03  0.17200000000E+03 0.  1.
         -6    1    1    2    0  503  0.10977233717E+03 -0.37212067186E+01 -0.25168638722E+03  0.32402754652E+03  0.17200000000E+03 0.  1.
</event>
<event>
 4    1  0.5818436E+000  0.2081385E+03  0.7818608E-02  0.1143049E+00
         21   -1    0    0  503  502  0.00000000000E+00  0.00000000000E+00  0.33298086858E+03  0.33298086858E+03  0.00000000000E+00 0. -1.
         21   -1    0    0  501  503 -0.00000000000E+00 -0.00000000000E+00 -0.26261024810E+03  0.26261024810E+03  0.00000000000E+00 0.  1.
          6    1    1    2  501    0 -0.26991447136E+02 -0.11405749217E+03 -0.17635005598E+03  0.27280211140E+03  0.17200000000E+03 0.  1.
         -6    1    1    2    0  502  0.26991447136E+02  0.11405749217E+03  0.24672067646E+03  0.32278900528E+03  0.17200000000E+03 0. -1.
</event>
<event>
 4    1  0.5818436E+000  0.2627581E+03  0.7818608E-02  0.1105497E+00
         21   -1    0    0  501  502  0.00000000000E+00  0.00000000000E+00  0.58988251027E+02  0.58988251027E+02  0.00000000000E+00 0.  1.
         21   -1    0    0  502  503 -0.00000000000E+00 -0.00000000000E+00 -0.19474243853E+04  0.19474243853E+04  0.00000000000E+00 0. -1.
          6    1    1    2  501    0 -0.88344191066E+02  0.17791321901E+03 -0.31054099690E+03  0.40678928249E+03  0.17200000000E+03 0.  1.
         -6    1    1    2    0  503  0.88344191066E+02 -0.17791321901E+03 -0.15778951374E+04  0.15996233538E+04  0.17200000000E+03 0. -1.
</event>
<event>
 4    1  0.5818436E+000  0.1811291E+03  0.7818608E-02  0.1166715E+00
         21   -1    0    0  501  502  0.00000000000E+00  0.00000000000E+00  0.80919277199E+03  0.80919277199E+03  0.00000000000E+00 0.  1.
         21   -1    0    0  502  503 -0.00000000000E+00 -0.00000000000E+00 -0.17790947318E+03  0.17790947318E+03  0.00000000000E+00 0. -1.
          6    1    1    2  501    0  0.34451575771E+02 -0.45131286566E+02  0.74932397981E+03  0.77090477416E+03  0.17200000000E+03 0.  1.
         -6    1    1    2    0  503 -0.34451575771E+02  0.45131286566E+02 -0.11804068100E+03  0.21619747101E+03  0.17200000000E+03 0. -1.
</event>
<event>
 4    1  0.5818436E+000  0.1879683E+03  0.7818608E-02  0.1160307E+00
         21   -1    0    0  501  502  0.00000000000E+00  0.00000000000E+00  0.63184857359E+03  0.63184857359E+03  0.00000000000E+00 0.  1.
         21   -1    0    0  502  503 -0.00000000000E+00 -0.00000000000E+00 -0.74733378806E+02  0.74733378806E+02  0.00000000000E+00 0. -1.
          6    1    1    2  501    0 -0.68137322750E+02  0.33247406590E+02  0.45582335308E+03  0.49305883423E+03  0.17200000000E+03 0. -1.
         -6    1    1    2    0  503  0.68137322750E+02 -0.33247406590E+02  0.10129184170E+03  0.21352311817E+03  0.17200000000E+03 0. -1.
</event>
<event>
 4    1  0.5818436E+000  0.1770034E+03  0.7818608E-02  0.1170735E+00
         21   -1    0    0  503  502  0.00000000000E+00  0.00000000000E+00  0.10743328858E+03  0.10743328858E+03  0.00000000000E+00 0. -1.
         21   -1    0    0  501  503 -0.00000000000E+00 -0.00000000000E+00 -0.32908379884E+03  0.32908379884E+03  0.00000000000E+00 0. -1.
          6    1    1    2  501    0 -0.18188549121E+02  0.37621641576E+02 -0.18446225537E+03  0.25564924192E+03  0.17200000000E+03 0. -1.
         -6    1    1    2    0  502  0.18188549121E+02 -0.37621641576E+02 -0.37188254889E+02  0.18086784550E+03  0.17200000000E+03 0. -1.
</event>
<event>
 4    1  0.5818436E+000  0.2347404E+03  0.7818608E-02  0.1123347E+00
         21   -1    0    0  501  502  0.00000000000E+00  0.00000000000E+00  0.72030084327E+03  0.72030084327E+03  0.00000000000E+00 0. -1.
         21   -1    0    0  502  503 -0.00000000000E+00 -0.00000000000E+00 -0.23224735929E+03  0.23224735929E+03  0.00000000000E+00 0.  1.
          6    1    1    2  501    0 -0.14474910786E+03 -0.67577668904E+02  0.63405121589E+03  0.67610945115E+03  0.17200000000E+03 0. -1.
         -6    1    1    2    0  503  0.14474910786E+03  0.67577668904E+02 -0.14599773190E+03  0.27643875141E+03  0.17200000000E+03 0.  1.
</event>
<event>
 4    1  0.5818436E+000  0.3012251E+03  0.7818608E-02  0.1084630E+00
         21   -1    0    0  503  502  0.00000000000E+00  0.00000000000E+00  0.40736314179E+03  0.40736314179E+03  0.00000000000E+00 0.  1.
         21   -1    0    0  501  503 -0.00000000000E+00 -0.00000000000E+00 -0.24190215083E+03  0.24190215083E+03  0.00000000000E+00 0.  1.
          6    1    1    2  501    0 -0.14898823144E+03 -0.19737035285E+03 -0.86347478622E+01  0.30134881476E+03  0.17200000000E+03 0.  1.
         -6    1    1    2    0  502  0.14898823144E+03  0.19737035285E+03  0.17409573882E+03  0.34791647786E+03  0.17200000000E+03 0.  1.
</event>
<event>
 4    1  0.5818436E+000  0.2224865E+03  0.7818608E-02  0.1132043E+00
         21   -1    0    0  501  502  0.00000000000E+00  0.00000000000E+00  0.83016171777E+02  0.83016171777E+02  0.00000000000E+00 0. -1.
         21   -1    0    0  502  503 -0.00000000000E+00 -0.00000000000E+00 -0.81223158728E+03  0.81223158728E+03  0.00000000000E+00 0. -1.
          6    1    1    2  501    0 -0.10907072755E+03 -0.89553318366E+02 -0.59542031868E+03  0.63563006249E+03  0.17200000000E+03 0. -1.
         -6    1    1    2    0  503  0.10907072755E+03  0.89553318366E+02 -0.13379509682E+03  0.25961769657E+03  0.17200000000E+03 0. -1.
</event>
<event>
 4    1  0.5818436E+000  0.2231961E+03  0.7818608E-02  0.1131522E+00
         21   -1    0    0  501  502  0.00000000000E+00  0.00000000000E+00  0.15215511550E+03  0.15215511550E+03  0.00000000000E+00 0.  1.
         21   -1    0    0  502  503 -0.00000000000E+00 -0.00000000000E+00 -0.33024929117E+03  0.33024929117E+03  0.00000000000E+00 0. -1.
          6    1    1    2  501    0  0.11827480781E+03  0.79016380779E+02 -0.66667064922E+02  0.23293994106E+03  0.17200000000E+03 0. -1.
         -6    1    1    2    0  503 -0.11827480781E+03 -0.79016380779E+02 -0.11142711074E+03  0.24946446561E+03  0.17200000000E+03 0.  1.
</event>
<event>
 4    1  0.5818436E+000  0.1791498E+03  0.7818608E-02  0.1168628E+00
         21   -1    0    0  501  502  0.00000000000E+00  0.00000000000E+00  0.49707421376E+02  0.49707421376E+02  0.00000000000E+00 0.  1.
         21   -1    0    0  502  503 -0.00000000000E+00 -0.00000000000E+00 -0.67005687543E+03  0.67005687543E+03  0.00000000000E+00 0.  1.
          6    1    1    2  501    0  0.11703283323E+02 -0.48720337457E+02 -0.24151942752E+03  0.30070961407E+03  0.17200000000E+03 0. -1.
         -6    1    1    2    0  503 -0.11703283323E+02  0.48720337457E+02 -0.37883002653E+03  0.41905468273E+03  0.17200000000E+03 0. -1.
</event>
<event>
 4    1  0.5818436E+000  0.2763668E+03  0.7818608E-02  0.1097690E+00
         21   -1    0    0  501  502  0.00000000000E+00  0.00000000000E+00  0.13522637118E+03  0.13522637118E+03  0.00000000000E+00 0.  1.
         21   -1    0    0  502  503 -0.00000000000E+00 -0.00000000000E+00 -0.58617080951E+03  0.58617080951E+03  0.00000000000E+00 0.  1.
          6    1    1    2  501    0  0.71721881113E+02 -0.20408480030E+03 -0.15663332498E+03  0.31766748722E+03  0.17200000000E+03 0.  1.
         -6    1    1    2    0  503 -0.71721881113E+02  0.20408480030E+03 -0.29431111336E+03  0.40372969347E+03  0.17200000000E+03 0.  1.
</event>
<event>
 4    1  0.5818436E+000  0.2397754E+03  0.7818608E-02  0.1119943E+00
         21   -1    0    0  503  502  0.00000000000E+00  0.00000000000E+00  0.89531542617E+02  0.89531542617E+02  0.00000000000E+00 0. -1.
         21   -1    0    0  501  503 -0.00000000000E+00 -0.00000000000E+00 -0.67456084808E+03  0.67456084808E+03  0.00000000000E+00 0.  1.
          6    1    1    2  501    0 -0.14930672957E+03  0.74938114613E+02 -0.37626466888E+03  0.44616961075E+03  0.17200000000E+03 0. -1.
         -6    1    1    2    0  502  0.14930672957E+03 -0.74938114613E+02 -0.20876463658E+03  0.31792277994E+03  0.17200000000E+03 0. -1.
</event>
<event>
 4    1  0.5818436E+000  0.1879693E+03  0.7818608E-02  0.1160306E+00
         21   -1    0    0  503  502  0.00000000000E+00  0.00000000000E+00  0.59576930727E+02  0.59576930727E+02  0.00000000000E+00 0. -1.
         21   -1    0    0  501  503 -0.00000000000E+00 -0.00000000000E+00 -0.64086992079E+03  0.64086992079E+03  0.00000000000E+00 0. -1.
          6    1    1    2  501    0 -0.71872889793E+02  0.24140438683E+02 -0.38630776518E+03  0.42961164149E+03  0.17200000000E+03 0. -1.
         -6    1    1    2    0  502  0.71872889793E+02 -0.24140438683E+02 -0.19498522489E+03  0.27083521003E+03  0.17200000000E+03 0. -1.
</event>
<event>
 4    1  0.5818436E+000  0.1910324E+03  0.7818608E-02  0.1157533E+00
         21   -1    0    0  503  502  0.00000000000E+00  0.00000000000E+00  0.47433622683E+02  0.47433622683E+02  0.00000000000E+00 0.  1.
         21   -1    0    0  501  503 -0.00000000000E+00 -0.00000000000E+00 -0.16934391683E+04  0.16934391683E+04  0.00000000000E+00 0. -1.
          6    1    1    2  501    0  0.52962261215E+02  0.64065448684E+02 -0.18000781057E+03  0.26248084634E+03  0.17200000000E+03 0.  1.
         -6    1    1    2    0  502 -0.52962261215E+02 -0.64065448684E+02 -0.14659977351E+04  0.14783919447E+04  0.17200000000E+03 0. -1.
</event>
<event>
 4    1  0.5818436E+000  0.1802581E+03  0.7818608E-02  0.1167553E+00
         21   -1    0    0  501  502  0.00000000000E+00  0.00000000000E+00  0.21127645940E+02  0.21127645940E+02  0.00000000000E+00 0.  1.
         21   -1    0    0  502  503 -0.00000000000E+00 -0.00000000000E+00 -0.15411424519E+04  0.15411424519E+04  0.00000000000E+00 0.  1.
          6    1    1    2  501    0  0.21787525949E+02  0.49338490829E+02 -0.72438142155E+03  0.74647265646E+03  0.17200000000E+03 0. -1.
         -6    1    1    2    0  503 -0.21787525949E+02 -0.49338490829E+02 -0.79563338438E+03  0.81579744134E+03  0.17200000000E+03 0. -1.
</event>
<event>
 4    1  0.5818436E+000  0.2086575E+03  0.7818608E-02  0.1142634E+00
         21   -1    0    0  501  502  0.00000000000E+00  0.00000000000E+00  0.45161231084E+02  0.45161231084E+02  0.00000000000E+00 0.  1.
         21   -1    0    0  502  503 -0.00000000000E+00 -0.00000000000E+00 -0.10700553790E+04  0.10700553790E+04  0.00000000000E+00 0.  1.
          6    1    1    2  501    0 -0.44418895818E+02  0.10945743769E+03 -0.68794709342E+03  0.71889440971E+03  0.17200000000E+03 0.  1.
         -6    1    1    2    0  503  0.44418895818E+02 -0.10945743769E+03 -0.33694705448E+03  0.39632220036E+03  0.17200000000E+03 0.  1.
</event>
<event>
 4    1  0.5818436E+000  0.2122403E+03  0.7818608E-02  0.1139804E+00
         21   -1    0    0  501  502  0.00000000000E+00  0.00000000000E+00  0.23473960246E+03  0.23473960246E+03  0.00000000000E+00 0. -1.
         21   -1    0    0  502  503 -0.00000000000E+00 -0.00000000000E+00 -0.20254693051E+03  0.20254693051E+03  0.00000000000E+00 0. -1.
          6    1    1    2  501    0 -0.57508484695E+02 -0.11024836091E+03  0.66230970481E+02  0.22233413671E+03  0.17200000000E+03 0. -1.
         -6    1    1    2    0  503  0.57508484695E+02  0.11024836091E+03 -0.34038298526E+02  0.21495239627E+03  0.17200000000E+03 0. -1.
</event>
<event>
 4    1  0.5818436E+000  0.2763099E+03  0.7818608E-02  0.1097722E+00
         21   -1    0    0  503  502  0.00000000000E+00  0.00000000000E+00  0.15086973909E+03  0.15086973909E+03  0.00000000000E+00 0.  1.
         21   -1    0    0  501  503 -0.00000000000E+00 -0.00000000000E+00 -0.55737666210E+03  0.55737666210E+03  0.00000000000E+00 0.  1.
          6    1    1    2  501    0  0.82477292819E+02 -0.19990164789E+03 -0.31071779931E+03  0.41580370786E+03  0.17200000000E+03 0.  1.
         -6    1    1    2    0  502 -0.82477292819E+02  0.19990164789E+03 -0.95789123704E+02  0.29244269333E+03  0.17200000000E+03 0.  1.
</event>
<event>
 4    1  0.5818436E+000  0.2657221E+03  0.7818608E-02  0.1103753E+00
         21   -1    0    0  503  502  0.00000000000E+00  0.00000000000E+00  0.16392394946E+03  0.16392394946E+03  0.00000000000E+00 0.  1.
         21   -1    0    0  501  503 -0.00000000000E+00 -0.00000000000E+00 -0.44235365311E+03  0.44235365311E+03  0.00000000000E+00 0.  1.
          6    1    1    2  501    0 -0.57648880140E+02 -0.19416704415E+03 -0.90092057075E+02  0.28057942399E+03  0.17200000000E+03 0.  1.
         -6    1    1    2    0  502  0.57648880140E+02  0.19416704415E+03 -0.18833764657E+03  0.32569817858E+03  0.17200000000E+03 0.  1.
</event>
<event>
 4    1  0.5818436E+000  0.3136145E+03  0.7818608E-02  0.1078626E+00
         21   -1    0    0  503  502  0.00000000000E+00  0.00000000000E+00  0.31128437932E+04  0.31128437932E+04  0.00000000000E+00 0.  1.
         21   -1    0    0  501  503 -0.00000000000E+00 -0.00000000000E+00 -0.46929221969E+02  0.46929221969E+02  0.00000000000E+00 0. -1.
          6    1    1    2  501    0  0.24532688246E+03  0.92654104301E+02  0.24360201176E+04  0.24561246051E+04  0.17200000000E+03 0.  1.
         -6    1    1    2    0  502 -0.24532688246E+03 -0.92654104301E+02  0.62989445356E+03  0.70364841002E+03  0.17200000000E+03 0. -1.
</event>
<event>
 4    1  0.5818436E+000  0.3704333E+03  0.7818608E-02  0.1054527E+00
         21   -1    0    0  503  502  0.00000000000E+00  0.00000000000E+00  0.26596114957E+03  0.26596114957E+03  0.00000000000E+00 0. -1.
         21   -1    0    0  501  503 -0.00000000000E+00 -0.00000000000E+00 -0.52666243980E+03  0.52666243980E+03  0.00000000000E+00 0.  1.
          6    1    1    2  501    0 -0.41403515708E+02 -0.32545749423E+03 -0.73810886012E+02  0.37771534065E+03  0.17200000000E+03 0. -1.
         -6    1    1    2    0  502  0.41403515708E+02  0.32545749423E+03 -0.18689040422E+03  0.41490824872E+03  0.17200000000E+03 0.  1.
</event>
<event>
 4    1  0.5818436E+000  0.1758142E+03  0.7818608E-02  0.1171917E+00
         21   -1    0    0  503  502  0.00000000000E+00  0.00000000000E+00  0.13249574935E+03  0.13249574935E+03  0.00000000000E+00 0.  1.
         21   -1    0    0  501  503 -0.00000000000E+00 -0.00000000000E+00 -0.33836952629E+03  0.33836952629E+03  0.00000000000E+00 0.  1.
          6    1    1    2  501    0  0.27699049530E+01  0.36317599597E+02 -0.23413242867E+03  0.29279452619E+03  0.17200000000E+03 0.  1.
         -6    1    1    2    0  502 -0.27699049530E+01 -0.36317599597E+02  0.28258651722E+02  0.17807074945E+03  0.17200000000E+03 0.  1.
</event>
<event>
 4    1  0.5818436E+000  0.1897302E+03  0.7818608E-02  0.1158705E+00
         21   -1    0    0  503  502  0.00000000000E+00  0.00000000000E+00  0.86491575007E+03  0.86491575007E+03  0.00000000000E+00 0. -1.
         21   -1    0    0  501  503 -0.00000000000E+00 -0.00000000000E+00 -0.42100015399E+02  0.42100015399E+02  0.00000000000E+00 0. -1.
          6    1    1    2  501    0 -0.12606603697E+02 -0.79086101784E+02  0.45984795548E+03  0.49745118364E+03  0.17200000000E+03 0. -1.
         -6    1    1    2    0  502  0.12606603697E+02  0.79086101784E+02  0.36296777920E+03  0.40956458183E+03  0.17200000000E+03 0. -1.
</event>
<event>
 4    1  0.5818436E+000  0.1851140E+03  0.7818608E-02  0.1162944E+00
         21   -1    0    0  501  502  0.00000000000E+00  0.00000000000E+00  0.20120604670E+03  0.20120604670E+03  0.00000000000E+00 0.  1.
         21   -1    0    0  502  503 -0.00000000000E+00 -0.00000000000E+00 -0.22364012592E+03  0.22364012592E+03  0.00000000000E+00 0.  1.
          6    1    1    2  501    0 -0.60955818673E+02 -0.31105789537E+02  0.92516119399E+02  0.20694543803E+03  0.17200000000E+03 0.  1.
         -6    1    1    2    0  503  0.60955818673E+02  0.31105789537E+02 -0.11495019862E+03  0.21790073459E+03  0.17200000000E+03 0.  1.
</event>
<event>
 4    1  0.5818436E+000  0.2259717E+03  0.7818608E-02  0.1129508E+00
         21   -1    0    0  503  502  0.00000000000E+00  0.00000000000E+00  0.13568204328E+03  0.13568204328E+03  0.00000000000E+00 0. -1.
         21   -1    0    0  501  503 -0.00000000000E+00 -0.00000000000E+00 -0.38115323913E+03  0.38115323913E+03  0.00000000000E+00 0. -1.
          6    1    1    2  501    0 -0.14470442758E+03  0.23234414180E+02 -0.15176123499E+03  0.27220338317E+03  0.17200000000E+03 0. -1.
         -6    1    1    2    0  502  0.14470442758E+03 -0.23234414180E+02 -0.93709960859E+02  0.24463189924E+03  0.17200000000E+03 0. -1.
</event>
<event>
 4    1  0.5818436E+000  0.1794919E+03  0.7818608E-02  0.1168296E+00
         21   -1    0    0  501  502  0.00000000000E+00  0.00000000000E+00  0.53920510501E+02  0.53920510501E+02  0.00000000000E+00 0.  1.
         21   -1    0    0  502  503 -0.00000000000E+00 -0.00000000000E+00 -0.68613151187E+03  0.68613151187E+03  0.00000000000E+00 0.  1.
          6    1    1    2  501    0 -0.30488587609E+02 -0.41277121874E+02 -0.18311228798E+03  0.25641268450E+03  0.17200000000E+03 0. -1.
         -6    1    1    2    0  503  0.30488587609E+02  0.41277121874E+02 -0.44909871339E+03  0.48363933787E+03  0.17200000000E+03 0. -1.
</event>
<event>
 4    1  0.5818436E+000  0.2078625E+03  0.7818608E-02  0.1143270E+00
         21   -1    0    0  501  502  0.00000000000E+00  0.00000000000E+00  0.24980863907E+03  0.24980863907E+03  0.00000000000E+00 0.  1.
         21   -1    0    0  502  503 -0.00000000000E+00 -0.00000000000E+00 -0.57208243648E+03  0.57208243648E+03  0.00000000000E+00 0.  1.
          6    1    1    2  501    0  0.11669723935E+03  0.21386164268E+01  0.18211125764E+03  0.27635363126E+03  0.17200000000E+03 0.  1.
         -6    1    1    2    0  503 -0.11669723935E+03 -0.21386164268E+01 -0.50438505506E+03  0.54553744429E+03  0.17200000000E+03 0.  1.
</event>
<event>
 4    1  0.5818436E+000  0.2588007E+03  0.7818608E-02  0.1107866E+00
         21   -1    0    0  501  502  0.00000000000E+00  0.00000000000E+00  0.31404169560E+03  0.31404169560E+03  0.00000000000E+00 0. -1.
         21   -1    0    0  502  503 -0.00000000000E+00 -0.00000000000E+00 -0.25100489274E+03  0.25100489274E+03  0.00000000000E+00 0. -1.
          6    1    1    2  501    0 -0.85387420593E+02  0.17350150512E+03  0.14105166651E+03  0.29474286505E+03  0.17200000000E+03 0. -1.
         -6    1    1    2    0  503  0.85387420593E+02 -0.17350150512E+03 -0.78014863657E+02  0.27030372329E+03  0.17200000000E+03 0. -1.
</event>
<event>
 4    1  0.5818436E+000  0.1826018E+03  0.7818608E-02  0.1165309E+00
         21   -1    0    0  501  502  0.00000000000E+00  0.00000000000E+00  0.34153346294E+02  0.34153346294E+02  0.00000000000E+00 0.  1.
         21   -1    0    0  502  503 -0.00000000000E+00 -0.00000000000E+00 -0.11303618856E+04  0.11303618856E+04  0.00000000000E+00 0.  1.
          6    1    1    2  501    0  0.16582773211E+02 -0.59028976002E+02 -0.33313577645E+03  0.37989847844E+03  0.17200000000E+03 0.  1.
         -6    1    1    2    0  503 -0.16582773211E+02  0.59028976002E+02 -0.76307276284E+03  0.78461675343E+03  0.17200000000E+03 0.  1.
</event>
<event>
 4    1  0.5818436E+000  0.1818658E+03  0.7818608E-02  0.1166009E+00
         21   -1    0    0  503  502  0.00000000000E+00  0.00000000000E+00  0.62853570622E+03  0.62853570622E+03  0.00000000000E+00 0. -1.
         21   -1    0    0  501  503 -0.00000000000E+00 -0.00000000000E+00 -0.52803177258E+02  0.52803177258E+02  0.00000000000E+00 0. -1.
          6    1    1    2  501    0  0.53014984529E+02  0.26087814140E+02  0.30779013669E+03  0.35750514804E+03  0.17200000000E+03 0.  1.
         -6    1    1    2    0  502 -0.53014984529E+02 -0.26087814140E+02  0.26794239228E+03  0.32383373544E+03  0.17200000000E+03 0.  1.
</event>
<event>
 4    1  0.5818436E+000  0.2362715E+03  0.7818608E-02  0.1122302E+00
         21   -1    0    0  501  502  0.00000000000E+00  0.00000000000E+00  0.13887149000E+03  0.13887149000E+03  0.00000000000E+00 0. -1.
         21   -1    0    0  502  503 -0.00000000000E+00 -0.00000000000E+00 -0.74669809105E+03  0.74669809105E+03  0.00000000000E+00 0. -1.
          6    1    1    2  501    0  0.15258298138E+03  0.54393522214E+02 -0.30638527030E+01  0.23629136391E+03  0.17200000000E+03 0. -1.
         -6    1    1    2    0  503 -0.15258298138E+03 -0.54393522214E+02 -0.60476274834E+03  0.64927821714E+03  0.17200000000E+03 0. -1.
</event>
<event>
 4    1  0.5818436E+000  0.2197696E+03  0.7818608E-02  0.1134055E+00
         21   -1    0    0  501  502  0.00000000000E+00  0.00000000000E+00  0.68314590983E+02  0.68314590983E+02  0.00000000000E+00 0. -1.
         21   -1    0    0  502  503 -0.00000000000E+00 -0.00000000000E+00 -0.11596999085E+04  0.11596999085E+04  0.00000000000E+00 0.  1.
          6    1    1    2  501    0 -0.11224291011E+03  0.78206145875E+02 -0.16207014103E+03  0.27306666354E+03  0.17200000000E+03 0. -1.
         -6    1    1    2    0  503  0.11224291011E+03 -0.78206145875E+02 -0.92931517646E+03  0.95494783591E+03  0.17200000000E+03 0.  1.
</event>
<event>
 4    1  0.5818436E+000  0.2417650E+03  0.7818608E-02  0.1118623E+00
         21   -1    0    0  503  502  0.00000000000E+00  0.00000000000E+00  0.54832945594E+03  0.54832945594E+03  0.00000000000E+00 0.  1.
         21   -1    0    0  501  503 -0.00000000000E+00 -0.00000000000E+00 -0.11908037788E+03  0.11908037788E+03  0.00000000000E+00 0.  1.
          6    1    1    2  501    0 -0.13413964405E+02  0.16937047746E+03  0.10657871422E+03  0.26421452534E+03  0.17200000000E+03 0.  1.
         -6    1    1    2    0  502  0.13413964405E+02 -0.16937047746E+03  0.32267036384E+03  0.40319530848E+03  0.17200000000E+03 0.  1.
</event>
<event>
 4    1  0.5818436E+000  0.2351277E+03  0.7818608E-02  0.1123082E+00
         21   -1    0    0  501  502  0.00000000000E+00  0.00000000000E+00  0.87988615640E+02  0.87988615640E+02  0.00000000000E+00 0. -1.
         21   -1    0    0  502  503 -0.00000000000E+00 -0.00000000000E+00 -0.66229938084E+03  0.66229938084E+03  0.00000000000E+00 0.  1.
          6    1    1    2  501    0 -0.87651017100E+02  0.13423242718E+03 -0.20218339539E+03  0.31010187145E+03  0.17200000000E+03 0. -1.
         -6    1    1    2    0  503  0.87651017100E+02 -0.13423242718E+03 -0.37212736980E+03  0.44018612502E+03  0.17200000000E+03 0. -1.
</event>
<event>
 4    1  0.5818436E+000  0.1748946E+03  0.7818608E-02  0.1172838E+00
         21   -1    0    0  503  502  0.00000000000E+00  0.00000000000E+00  0.79725526323E+03  0.79725526323E+03  0.00000000000E+00 0. -1.
         21   -1    0    0  501  503 -0.00000000000E+00 -0.00000000000E+00 -0.67256601159E+02  0.67256601159E+02  0.00000000000E+00 0. -1.
          6    1    1    2  501    0  0.12797324768E+02 -0.28988548266E+02  0.81699690515E+02  0.19303612844E+03  0.17200000000E+03 0. -1.
         -6    1    1    2    0  502 -0.12797324768E+02  0.28988548266E+02  0.64829897155E+03  0.67147573595E+03  0.17200000000E+03 0. -1.
</event>
<event>
 4    1  0.5818436E+000  0.2462261E+03  0.7818608E-02  0.1115713E+00
         21   -1    0    0  503  502  0.00000000000E+00  0.00000000000E+00  0.21174591888E+03  0.21174591888E+03  0.00000000000E+00 0. -1.
         21   -1    0    0  501  503 -0.00000000000E+00 -0.00000000000E+00 -0.28640062547E+03  0.28640062547E+03  0.00000000000E+00 0.  1.
          6    1    1    2  501    0  0.88968622900E+02  0.15207856215E+03 -0.41480185789E+02  0.24969563620E+03  0.17200000000E+03 0. -1.
         -6    1    1    2    0  502 -0.88968622900E+02 -0.15207856215E+03 -0.33174520805E+02  0.24845090814E+03  0.17200000000E+03 0.  1.
</event>
<event>
 4    1  0.5818436E+000  0.1760798E+03  0.7818608E-02  0.1171652E+00
         21   -1    0    0  503  502  0.00000000000E+00  0.00000000000E+00  0.32339683272E+02  0.32339683272E+02  0.00000000000E+00 0. -1.
         21   -1    0    0  501  503 -0.00000000000E+00 -0.00000000000E+00 -0.96034724515E+03  0.96034724515E+03  0.00000000000E+00 0. -1.
          6    1    1    2  501    0 -0.90032196105E+01  0.36593088613E+02 -0.48454904706E+03  0.51555008593E+03  0.17200000000E+03 0.  1.
         -6    1    1    2    0  502  0.90032196105E+01 -0.36593088613E+02 -0.44345851482E+03  0.47713684249E+03  0.17200000000E+03 0.  1.
</event>
<event>
 4    1  0.5818436E+000  0.1799402E+03  0.7818608E-02  0.1167861E+00
         21   -1    0    0  501  502  0.00000000000E+00  0.00000000000E+00  0.74346945325E+03  0.74346945325E+03  0.00000000000E+00 0.  1.
         21   -1    0    0  502  503 -0.00000000000E+00 -0.00000000000E+00 -0.48726810799E+02  0.48726810799E+02  0.00000000000E+00 0.  1.
          6    1    1    2  501    0 -0.16143832344E+02  0.50337313794E+02  0.47647209840E+03  0.50931731665E+03  0.17200000000E+03 0. -1.
         -6    1    1    2    0  503  0.16143832344E+02 -0.50337313794E+02  0.21827054405E+03  0.28287894740E+03  0.17200000000E+03 0. -1.
</event>
<event>
 4    1  0.5818436E+000  0.1939656E+03  0.7818608E-02  0.1154933E+00
         21   -1    0    0  503  502  0.00000000000E+00  0.00000000000E+00  0.64000627282E+03  0.64000627282E+03  0.00000000000E+00 0.  1.
         21   -1    0    0  501  503 -0.00000000000E+00 -0.00000000000E+00 -0.65987481126E+02  0.65987481126E+02  0.00000000000E+00 0.  1.
          6    1    1    2  501    0  0.81364128237E+02  0.37663159215E+02  0.17038552389E+03  0.25817409180E+03  0.17200000000E+03 0.  1.
         -6    1    1    2    0  502 -0.81364128237E+02 -0.37663159215E+02  0.40363326781E+03  0.44781966215E+03  0.17200000000E+03 0.  1.
</event>
<event>
 4    1  0.5818436E+000  0.1901649E+03  0.7818608E-02  0.1158313E+00
         21   -1    0    0  501  502  0.00000000000E+00  0.00000000000E+00  0.12111590202E+03  0.12111590202E+03  0.00000000000E+00 0.  1.
         21   -1    0    0  502  503 -0.00000000000E+00 -0.00000000000E+00 -0.49095521225E+03  0.49095521225E+03  0.00000000000E+00 0.  1.
          6    1    1    2  501    0 -0.29211591282E+02  0.75666132220E+02  0.66498993481E+01  0.19028111255E+03  0.17200000000E+03 0.  1.
         -6    1    1    2    0  503  0.29211591282E+02 -0.75666132220E+02 -0.37648920958E+03  0.42179000173E+03  0.17200000000E+03 0.  1.
</event>
<event>
 4    1  0.5818436E+000  0.2211927E+03  0.7818608E-02  0.1132997E+00
         21   -1    0    0  501  502  0.00000000000E+00  0.00000000000E+00  0.53325493714E+03  0.53325493714E+03  0.00000000000E+00 0.  1.
         21   -1    0    0  502  503 -0.00000000000E+00 -0.00000000000E+00 -0.14817216222E+03  0.14817216222E+03  0.00000000000E+00 0. -1.
          6    1    1    2  501    0 -0.58281777779E+02 -0.12627525619E+03  0.40278871594E+03  0.45952688238E+03  0.17200000000E+03 0.  1.
         -6    1    1    2    0  503  0.58281777779E+02  0.12627525619E+03 -0.17705941022E+02  0.22190021698E+03  0.17200000000E+03 0. -1.
</event>
<event>
 4    1  0.5818436E+000  0.2138535E+03  0.7818608E-02  0.1138550E+00
         21   -1    0    0  503  502  0.00000000000E+00  0.00000000000E+00  0.18942929450E+03  0.18942929450E+03  0.00000000000E+00 0. -1.
         21   -1    0    0  501  503 -0.00000000000E+00 -0.00000000000E+00 -0.24417407479E+03  0.24417407479E+03  0.00000000000E+00 0. -1.
          6    1    1    2  501    0 -0.11433585917E+03 -0.55467527306E+02 -0.50368411930E+02  0.21970505729E+03  0.17200000000E+03 0. -1.
         -6    1    1    2    0  502  0.11433585917E+03  0.55467527306E+02 -0.43763683692E+01  0.21389831200E+03  0.17200000000E+03 0. -1.
</event>
<event>
 4    1  0.5818436E+000  0.2236997E+03  0.7818608E-02  0.1131154E+00
         21   -1    0    0  503  502  0.00000000000E+00  0.00000000000E+00  0.16092879576E+03  0.16092879576E+03  0.00000000000E+00 0. -1.
         21   -1    0    0  501  503 -0.00000000000E+00 -0.00000000000E+00 -0.32553699423E+03  0.32553699423E+03  0.00000000000E+00 0.  1.
          6    1    1    2  501    0  0.41923646494E+02 -0.13674775775E+03 -0.13378395072E+03  0.26065242538E+03  0.17200000000E+03 0. -1.
         -6    1    1    2    0  502 -0.41923646494E+02  0.13674775775E+03 -0.30824247758E+02  0.22581336461E+03  0.17200000000E+03 0. -1.
</event>
<event>
 4    1  0.5818436E+000  0.2138394E+03  0.7818608E-02  0.1138561E+00
         21   -1    0    0  503  502  0.00000000000E+00  0.00000000000E+00  0.29878939183E+02  0.29878939183E+02  0.00000000000E+00 0. -1.
         21   -1    0    0  501  503 -0.00000000000E+00 -0.00000000000E+00 -0.21993566721E+04  0.21993566721E+04  0.00000000000E+00 0.  1.
          6    1    1    2  501    0 -0.10056470216E+03 -0.77653317007E+02 -0.47002789693E+03  0.51638505096E+03  0.17200000000E+03 0. -1.
         -6    1    1    2    0  502  0.10056470216E+03  0.77653317007E+02 -0.16994498360E+04  0.17128505603E+04  0.17200000000E+03 0.  1.
</event>
<event>
 4    1  0.5818436E+000  0.4250789E+03  0.7818608E-02  0.1035426E+00
         21   -1    0    0  503  502  0.00000000000E+00  0.00000000000E+00  0.13516389013E+04  0.13516389013E+04  0.00000000000E+00 0. -1.
         21   -1    0    0  501  503 -0.00000000000E+00 -0.00000000000E+00 -0.14055403959E+03  0.14055403959E+03  0.00000000000E+00 0.  1.
          6    1    1    2  501    0 -0.24907643692E+03  0.29844435024E+03  0.44058870266E+03  0.61221769537E+03  0.17200000000E+03 0.  1.
         -6    1    1    2    0  502  0.24907643692E+03 -0.29844435024E+03  0.77049615908E+03  0.87997524555E+03  0.17200000000E+03 0. -1.
</event>
<event>
 4    1  0.5818436E+000  0.1895500E+03  0.7818608E-02  0.1158868E+00
         21   -1    0    0  501  502  0.00000000000E+00  0.00000000000E+00  0.53027553576E+03  0.53027553576E+03  0.00000000000E+00 0.  1.
         21   -1    0    0  502  503 -0.00000000000E+00 -0.00000000000E+00 -0.93654074171E+02  0.93654074171E+02  0.00000000000E+00 0. -1.
          6    1    1    2  501    0  0.43019561742E+02  0.67041190303E+02  0.38236150949E+03  0.42676636211E+03  0.17200000000E+03 0. -1.
         -6    1    1    2    0  503 -0.43019561742E+02 -0.67041190303E+02  0.54259952100E+02  0.19716324782E+03  0.17200000000E+03 0.  1.
</event>
<event>
 4    1  0.5818436E+000  0.1957093E+03  0.7818608E-02  0.1153410E+00
         21   -1    0    0  501  502  0.00000000000E+00  0.00000000000E+00  0.14603027149E+03  0.14603027149E+03  0.00000000000E+00 0.  1.
         21   -1    0    0  502  503 -0.00000000000E+00 -0.00000000000E+00 -0.32276233142E+03  0.32276233142E+03  0.00000000000E+00 0. -1.
          6    1    1    2  501    0 -0.86384261344E+02  0.35438711510E+02  0.13093082392E+02  0.19614681157E+03  0.17200000000E+03 0.  1.
         -6    1    1    2    0  503  0.86384261344E+02 -0.35438711510E+02 -0.18982514232E+03  0.27264579134E+03  0.17200000000E+03 0.  1.
</event>
<event>
 4    1  0.5818436E+000  0.1728406E+03  0.7818608E-02  0.1174918E+00
         21   -1    0    0  501  502  0.00000000000E+00  0.00000000000E+00  0.74475830195E+03  0.74475830195E+03  0.00000000000E+00 0. -1.
         21   -1    0    0  502  503 -0.00000000000E+00 -0.00000000000E+00 -0.10031014438E+03  0.10031014438E+03  0.00000000000E+00 0. -1.
          6    1    1    2  501    0  0.13750880320E+02 -0.10039627319E+02  0.64954996844E+03  0.67215254394E+03  0.17200000000E+03 0. -1.
         -6    1    1    2    0  503 -0.13750880320E+02  0.10039627319E+02 -0.51018108637E+01  0.17291590239E+03  0.17200000000E+03 0. -1.
</event>
<event>
 4    1  0.5818436E+000  0.1729520E+03  0.7818608E-02  0.1174804E+00
         21   -1    0    0  501  502  0.00000000000E+00  0.00000000000E+00  0.82737668995E+02  0.82737668995E+02  0.00000000000E+00 0.  1.
         21   -1    0    0  502  503 -0.00000000000E+00 -0.00000000000E+00 -0.43788021468E+03  0.43788021468E+03  0.00000000000E+00 0.  1.
          6    1    1    2  501    0 -0.63663325945E+01  0.16966843172E+02 -0.68876712865E+02  0.18616230965E+03  0.17200000000E+03 0.  1.
         -6    1    1    2    0  503  0.63663325945E+01 -0.16966843172E+02 -0.28626583282E+03  0.33445557402E+03  0.17200000000E+03 0.  1.
</event>
<event>
 4    1  0.5818436E+000  0.1767854E+03  0.7818608E-02  0.1170951E+00
         21   -1    0    0  503  502  0.00000000000E+00  0.00000000000E+00  0.82907882363E+02  0.82907882363E+02  0.00000000000E+00 0.  1.
         21   -1    0    0  501  503 -0.00000000000E+00 -0.00000000000E+00 -0.45569103082E+03  0.45569103082E+03  0.00000000000E+00 0.  1.
          6    1    1    2  501    0  0.39074748575E+02 -0.11926894524E+02 -0.29832732912E+03  0.34677410816E+03  0.17200000000E+03 0.  1.
         -6    1    1    2    0  502 -0.39074748575E+02  0.11926894524E+02 -0.74455819337E+02  0.19182480502E+03  0.17200000000E+03 0.  1.
</event>
<event>
 4    1  0.5818436E+000  0.2145009E+03  0.7818608E-02  0.1138051E+00
         21   -1    0    0  501  502  0.00000000000E+00  0.00000000000E+00  0.21435454736E+03  0.21435454736E+03  0.00000000000E+00 0. -1.
         21   -1    0    0  502  503 -0.00000000000E+00 -0.00000000000E+00 -0.47753615071E+03  0.47753615071E+03  0.00000000000E+00 0. -1.
          6    1    1    2  501    0 -0.12774230649E+03  0.10418695634E+02  0.12508821748E+03  0.24830970226E+03  0.17200000000E+03 0. -1.
         -6    1    1    2    0  503  0.12774230649E+03 -0.10418695634E+02 -0.38826982082E+03  0.44358099581E+03  0.17200000000E+03 0. -1.
</event>
<event>
 4    1  0.5818436E+000  0.2474089E+03  0.7818608E-02  0.1114953E+00
         21   -1    0    0  503  502  0.00000000000E+00  0.00000000000E+00  0.40943212927E+03  0.40943212927E+03  0.00000000000E+00 0. -1.
         21   -1    0    0  501  503 -0.00000000000E+00 -0.00000000000E+00 -0.16280412271E+03  0.16280412271E+03  0.00000000000E+00 0.  1.
          6    1    1    2  501    0  0.11564463232E+03 -0.13510541564E+03  0.41530842322E+02  0.25087041512E+03  0.17200000000E+03 0.  1.
         -6    1    1    2    0  502 -0.11564463232E+03  0.13510541564E+03  0.20509716424E+03  0.32136583686E+03  0.17200000000E+03 0. -1.
</event>
<event>
 4    1  0.5818436E+000  0.2393249E+03  0.7818608E-02  0.1120243E+00
         21   -1    0    0  503  502  0.00000000000E+00  0.00000000000E+00  0.75054585195E+03  0.75054585195E+03  0.00000000000E+00 0. -1.
         21   -1    0    0  501  503 -0.00000000000E+00 -0.00000000000E+00 -0.76490375970E+02  0.76490375970E+02  0.00000000000E+00 0. -1.
          6    1    1    2  501    0 -0.13492178425E+03 -0.97409109307E+02  0.35693956275E+03  0.42974675554E+03  0.17200000000E+03 0. -1.
         -6    1    1    2    0  502  0.13492178425E+03  0.97409109307E+02  0.31711591322E+03  0.39728947237E+03  0.17200000000E+03 0. -1.
</event>
<event>
 4    1  0.5818436E+000  0.1974404E+03  0.7818608E-02  0.1151917E+00
         21   -1    0    0  501  502  0.00000000000E+00  0.00000000000E+00  0.31822799611E+03  0.31822799611E+03  0.00000000000E+00 0. -1.
         21   -1    0    0  502  503 -0.00000000000E+00 -0.00000000000E+00 -0.12422490992E+03  0.12422490992E+03  0.00000000000E+00 0. -1.
          6    1    1    2  501    0  0.63953191902E+02 -0.72860812135E+02  0.12307527883E+03  0.23265904873E+03  0.17200000000E+03 0. -1.
         -6    1    1    2    0  503 -0.63953191902E+02  0.72860812135E+02  0.70927807364E+02  0.20979385729E+03  0.17200000000E+03 0. -1.
</event>
<event>
 4    1  0.5818436E+000  0.1790689E+03  0.7818608E-02  0.1168707E+00
         21   -1    0    0  501  502  0.00000000000E+00  0.00000000000E+00  0.23909480861E+02  0.23909480861E+02  0.00000000000E+00 0.  1.
         21   -1    0    0  502  503 -0.00000000000E+00 -0.00000000000E+00 -0.18320742203E+04  0.18320742203E+04  0.00000000000E+00 0.  1.
          6    1    1    2  501    0 -0.13101392406E+02  0.48062776013E+02 -0.42369725537E+03  0.45998374007E+03  0.17200000000E+03 0.  1.
         -6    1    1    2    0  503  0.13101392406E+02 -0.48062776013E+02 -0.13844674841E+04  0.13959999611E+04  0.17200000000E+03 0.  1.
</event>
<event>
 4    1  0.5818436E+000  0.3486187E+03  0.7818608E-02  0.1063183E+00
         21   -1    0    0  501  502  0.00000000000E+00  0.00000000000E+00  0.32227592896E+03  0.32227592896E+03  0.00000000000E+00 0. -1.
         21   -1    0    0  502  503 -0.00000000000E+00 -0.00000000000E+00 -0.37790424456E+03  0.37790424456E+03  0.00000000000E+00 0.  1.
          6    1    1    2  501    0  0.28474391830E+03 -0.10426831899E+03 -0.43816548117E+02  0.35136145383E+03  0.17200000000E+03 0.  1.
         -6    1    1    2    0  503 -0.28474391830E+03  0.10426831899E+03 -0.11811767480E+02  0.34881871968E+03  0.17200000000E+03 0. -1.
</event>
<event>
 4    1  0.5818436E+000  0.1754339E+03  0.7818608E-02  0.1172297E+00
         21   -1    0    0  503  502  0.00000000000E+00  0.00000000000E+00  0.51332195023E+03  0.51332195023E+03  0.00000000000E+00 0.  1.
         21   -1    0    0  501  503 -0.00000000000E+00 -0.00000000000E+00 -0.69495606180E+02  0.69495606180E+02  0.00000000000E+00 0.  1.
          6    1    1    2  501    0 -0.45296328026E+01 -0.34242278373E+02  0.11395016474E+03  0.20919295219E+03  0.17200000000E+03 0. -1.
         -6    1    1    2    0  502  0.45296328026E+01  0.34242278373E+02  0.32987617931E+03  0.37362460422E+03  0.17200000000E+03 0. -1.
</event>
<event>
 4    1  0.5818436E+000  0.2074048E+03  0.7818608E-02  0.1143638E+00
         21   -1    0    0  503  502  0.00000000000E+00  0.00000000000E+00  0.90295265677E+02  0.90295265677E+02  0.00000000000E+00 0.  1.
         21   -1    0    0  501  503 -0.00000000000E+00 -0.00000000000E+00 -0.95947168567E+03  0.95947168567E+03  0.00000000000E+00 0.  1.
          6    1    1    2  501    0  0.84856921010E+01  0.11558864582E+03 -0.80702469992E+03  0.83325002748E+03  0.17200000000E+03 0.  1.
         -6    1    1    2    0  502 -0.84856921010E+01 -0.11558864582E+03 -0.62151720075E+02  0.21651692387E+03  0.17200000000E+03 0.  1.
</event>
<event>
 4    1  0.5818436E+000  0.1748317E+03  0.7818608E-02  0.1172901E+00
         21   -1    0    0  503  502  0.00000000000E+00  0.00000000000E+00  0.15574271229E+03  0.15574271229E+03  0.00000000000E+00 0.  1.
         21   -1    0    0  501  503 -0.00000000000E+00 -0.00000000000E+00 -0.21041456314E+03  0.21041456314E+03  0.00000000000E+00 0.  1.
          6    1    1    2  501    0  0.11100897559E+02 -0.29306849467E+02 -0.74819393437E+02  0.19016851208E+03  0.17200000000E+03 0.  1.
         -6    1    1    2    0  502 -0.11100897559E+02  0.29306849467E+02  0.20147542594E+02  0.17598876335E+03  0.17200000000E+03 0.  1.
</event>
<event>
 4    1  0.5818436E+000  0.1856858E+03  0.7818608E-02  0.1162411E+00
         21   -1    0    0  503  502  0.00000000000E+00  0.00000000000E+00  0.82726938386E+02  0.82726938386E+02  0.00000000000E+00 0. -1.
         21   -1    0    0  501  503 -0.00000000000E+00 -0.00000000000E+00 -0.41857680338E+03  0.41857680338E+03  0.00000000000E+00 0. -1.
          6    1    1    2  501    0  0.23232932467E+02  0.65995905131E+02 -0.15151896367E+03  0.23966064549E+03  0.17200000000E+03 0. -1.
         -6    1    1    2    0  502 -0.23232932467E+02 -0.65995905131E+02 -0.18433090132E+03  0.26164309627E+03  0.17200000000E+03 0. -1.
</event>
<event>
 4    1  0.5818436E+000  0.3061614E+03  0.7818608E-02  0.1082201E+00
         21   -1    0    0  501  502  0.00000000000E+00  0.00000000000E+00  0.23707887447E+03  0.23707887447E+03  0.00000000000E+00 0.  1.
         21   -1    0    0  502  503 -0.00000000000E+00 -0.00000000000E+00 -0.41438141961E+03  0.41438141961E+03  0.00000000000E+00 0. -1.
          6    1    1    2  501    0 -0.18494129604E+03 -0.17305354355E+03 -0.18889110885E+02  0.30674355809E+03  0.17200000000E+03 0. -1.
         -6    1    1    2    0  503  0.18494129604E+03  0.17305354355E+03 -0.15841343426E+03  0.34471673599E+03  0.17200000000E+03 0. -1.
</event>
<event>
 4    1  0.5818436E+000  0.2172973E+03  0.7818608E-02  0.1135914E+00
         21   -1    0    0  501  502  0.00000000000E+00  0.00000000000E+00  0.27101253081E+03  0.27101253081E+03  0.00000000000E+00 0.  1.
         21   -1    0    0  502  503 -0.00000000000E+00 -0.00000000000E+00 -0.93402293183E+03  0.93402293183E+03  0.00000000000E+00 0.  1.
          6    1    1    2  501    0 -0.33718058194E+02  0.12844141498E+03  0.21191917907E+03  0.30352568753E+03  0.17200000000E+03 0.  1.
         -6    1    1    2    0  503  0.33718058194E+02 -0.12844141498E+03 -0.87492958009E+03  0.90150977512E+03  0.17200000000E+03 0.  1.
</event>
<event>
 4    1  0.5818436E+000  0.2124995E+03  0.7818608E-02  0.1139602E+00
         21   -1    0    0  501  502  0.00000000000E+00  0.00000000000E+00  0.63291256309E+02  0.63291256309E+02  0.00000000000E+00 0. -1.
         21   -1    0    0  502  503 -0.00000000000E+00 -0.00000000000E+00 -0.82418366190E+03  0.82418366190E+03  0.00000000000E+00 0. -1.
          6    1    1    2  501    0 -0.12280290408E+03  0.22169746947E+02 -0.21780674862E+03  0.30429563039E+03  0.17200000000E+03 0. -1.
         -6    1    1    2    0  503  0.12280290408E+03 -0.22169746947E+02 -0.54308565697E+03  0.58317928782E+03  0.17200000000E+03 0. -1.
</event>
<event>
 4    1  0.5818436E+000  0.2009303E+03  0.7818608E-02  0.1148957E+00
         21   -1    0    0  501  502  0.00000000000E+00  0.00000000000E+00  0.50209920107E+03  0.50209920107E+03  0.00000000000E+00 0. -1.
         21   -1    0    0  502  503 -0.00000000000E+00 -0.00000000000E+00 -0.98283454465E+02  0.98283454465E+02  0.00000000000E+00 0.  1.
          6    1    1    2  501    0 -0.51348135164E+02 -0.90290315891E+02  0.32992914500E+03  0.38629808807E+03  0.17200000000E+03 0. -1.
         -6    1    1    2    0  503  0.51348135164E+02  0.90290315891E+02  0.73886601606E+02  0.21408456746E+03  0.17200000000E+03 0. -1.
</event>
<event>
 4    1  0.5818436E+000  0.1875152E+03  0.7818608E-02  0.1160722E+00
         21   -1    0    0  501  502  0.00000000000E+00  0.00000000000E+00  0.51230854320E+03  0.51230854320E+03  0.00000000000E+00 0. -1.
         21   -1    0    0  502  503 -0.00000000000E+00 -0.00000000000E+00 -0.76036382335E+02  0.76036382335E+02  0.00000000000E+00 0. -1.
          6    1    1    2  501    0 -0.57188459568E+02 -0.48035564106E+02  0.30992038389E+03  0.36223277002E+03  0.17200000000E+03 0. -1.
         -6    1    1    2    0  503  0.57188459568E+02  0.48035564106E+02  0.12635177698E+03  0.22611215552E+03  0.17200000000E+03 0. -1.
</event>
<event>
 4    1  0.5818436E+000  0.2548821E+03  0.7818608E-02  0.1110258E+00
         21   -1    0    0  501  502  0.00000000000E+00  0.00000000000E+00  0.26724852246E+03  0.26724852246E+03  0.00000000000E+00 0.  1.
         21   -1    0    0  502  503 -0.00000000000E+00 -0.00000000000E+00 -0.39290494553E+03  0.39290494553E+03  0.00000000000E+00 0. -1.
          6    1    1    2  501    0 -0.16449155025E+03 -0.91232690681E+02  0.14099414766E+03  0.29128031795E+03  0.17200000000E+03 0.  1.
         -6    1    1    2    0  503  0.16449155025E+03  0.91232690681E+02 -0.26665057072E+03  0.36887315004E+03  0.17200000000E+03 0. -1.
</event>
<event>
 4    1  0.5818436E+000  0.1972304E+03  0.7818608E-02  0.1152097E+00
         21   -1    0    0  503  502  0.00000000000E+00  0.00000000000E+00  0.22248616168E+03  0.22248616168E+03  0.00000000000E+00 0. -1.
         21   -1    0    0  501  503 -0.00000000000E+00 -0.00000000000E+00 -0.75137122193E+03  0.75137122193E+03  0.00000000000E+00 0. -1.
          6    1    1    2  501    0 -0.25801802619E+02  0.93005991502E+02 -0.69097184149E+03  0.71856936562E+03  0.17200000000E+03 0. -1.
         -6    1    1    2    0  502  0.25801802619E+02 -0.93005991502E+02  0.16208678125E+03  0.25528801799E+03  0.17200000000E+03 0. -1.
</event>
<event>
 4    1  0.5818436E+000  0.1731037E+03  0.7818608E-02  0.1174649E+00
         21   -1    0    0  503  502  0.00000000000E+00  0.00000000000E+00  0.31684086550E+03  0.31684086550E+03  0.00000000000E+00 0. -1.
         21   -1    0    0  501  503 -0.00000000000E+00 -0.00000000000E+00 -0.10920431621E+03  0.10920431621E+03  0.00000000000E+00 0. -1.
          6    1    1    2  501    0 -0.97565832487E+01  0.16902860317E+02  0.25847274585E+02  0.17502279625E+03  0.17200000000E+03 0. -1.
         -6    1    1    2    0  502  0.97565832487E+01 -0.16902860317E+02  0.18178927471E+03  0.25102238546E+03  0.17200000000E+03 0. -1.
</event>
<event>
 4    1  0.5818436E+000  0.2463835E+03  0.7818608E-02  0.1115612E+00
         21   -1    0    0  503  502  0.00000000000E+00  0.00000000000E+00  0.69642786956E+02  0.69642786956E+02  0.00000000000E+00 0.  1.
         21   -1    0    0  501  503 -0.00000000000E+00 -0.00000000000E+00 -0.10431918531E+04  0.10431918531E+04  0.00000000000E+00 0.  1.
          6    1    1    2  501    0  0.17598202540E+03  0.12294525166E+02 -0.71240149328E+03  0.75380416305E+03  0.17200000000E+03 0.  1.
         -6    1    1    2    0  502 -0.17598202540E+03 -0.12294525166E+02 -0.26114757290E+03  0.35903047704E+03  0.17200000000E+03 0.  1.
</event>
<event>
 4    1  0.5818436E+000  0.1959853E+03  0.7818608E-02  0.1153171E+00
         21   -1    0    0  503  502  0.00000000000E+00  0.00000000000E+00  0.29724322018E+03  0.29724322018E+03  0.00000000000E+00 0.  1.
         21   -1    0    0  501  503 -0.00000000000E+00 -0.00000000000E+00 -0.16291538607E+03  0.16291538607E+03  0.00000000000E+00 0.  1.
          6    1    1    2  501    0  0.36638660618E+02  0.86509133028E+02 -0.37469861034E+02  0.19953498950E+03  0.17200000000E+03 0.  1.
         -6    1    1    2    0  502 -0.36638660618E+02 -0.86509133028E+02  0.17179769515E+03  0.26062361675E+03  0.17200000000E+03 0.  1.
</event>
<event>
 4    1  0.5818436E+000  0.3314293E+03  0.7818608E-02  0.1070506E+00
         21   -1    0    0  501  502  0.00000000000E+00  0.00000000000E+00  0.47340163340E+03  0.47340163340E+03  0.00000000000E+00 0.  1.
         21   -1    0    0  502  503 -0.00000000000E+00 -0.00000000000E+00 -0.27076639304E+03  0.27076639304E+03  0.00000000000E+00 0. -1.
          6    1    1    2  501    0  0.26963966520E+03 -0.86924162044E+02  0.24204538721E+03  0.41040386020E+03  0.17200000000E+03 0.  1.
         -6    1    1    2    0  503 -0.26963966520E+03  0.86924162044E+02 -0.39410146849E+02  0.33376416625E+03  0.17200000000E+03 0. -1.
</event>
<event>
 4    1  0.5818436E+000  0.2675697E+03  0.7818608E-02  0.1102679E+00
         21   -1    0    0  503  502  0.00000000000E+00  0.00000000000E+00  0.89080804408E+03  0.89080804408E+03  0.00000000000E+00 0.  1.
         21   -1    0    0  501  503 -0.00000000000E+00 -0.00000000000E+00 -0.89228309025E+02  0.89228309025E+02  0.00000000000E+00 0. -1.
          6    1    1    2  501    0 -0.19010042654E+02  0.20407880134E+03  0.24638690338E+03  0.36373073149E+03  0.17200000000E+03 0. -1.
         -6    1    1    2    0  502  0.19010042654E+02 -0.20407880134E+03  0.55519283168E+03  0.61630562161E+03  0.17200000000E+03 0.  1.
</event>
<event>
 4    1  0.5818436E+000  0.2012753E+03  0.7818608E-02  0.1148668E+00
         21   -1    0    0  501  502  0.00000000000E+00  0.00000000000E+00  0.81870168231E+02  0.81870168231E+02  0.00000000000E+00 0.  1.
         21   -1    0    0  502  503 -0.00000000000E+00 -0.00000000000E+00 -0.68342416809E+03  0.68342416809E+03  0.00000000000E+00 0.  1.
          6    1    1    2  501    0  0.82247368415E+02 -0.64522088158E+02 -0.99766532087E+02  0.22464436427E+03  0.17200000000E+03 0.  1.
         -6    1    1    2    0  503 -0.82247368415E+02  0.64522088158E+02 -0.50178746777E+03  0.54064997206E+03  0.17200000000E+03 0.  1.
</event>
<event>
 4    1  0.5818436E+000  0.2068679E+03  0.7818608E-02  0.1144071E+00
         21   -1    0    0  501  502  0.00000000000E+00  0.00000000000E+00  0.74793702238E+03  0.74793702238E+03  0.00000000000E+00 0. -1.
         21   -1    0    0  502  503 -0.00000000000E+00 -0.00000000000E+00 -0.73085275951E+02  0.73085275951E+02  0.00000000000E+00 0. -1.
          6    1    1    2  501    0  0.29645660522E+02  0.11104705653E+03  0.52871142898E+03  0.56774121665E+03  0.17200000000E+03 0. -1.
         -6    1    1    2    0  503 -0.29645660522E+02 -0.11104705653E+03  0.14614031744E+03  0.25328108167E+03  0.17200000000E+03 0. -1.
</event>
<event>
 4    1  0.5818436E+000  0.2529796E+03  0.7818608E-02  0.1111436E+00
         21   -1    0    0  503  502  0.00000000000E+00  0.00000000000E+00  0.31922756486E+03  0.31922756486E+03  0.00000000000E+00 0. -1.
         21   -1    0    0  501  503 -0.00000000000E+00 -0.00000000000E+00 -0.21223340350E+03  0.21223340350E+03  0.00000000000E+00 0.  1.
          6    1    1    2  501    0 -0.10673588453E+03  0.15173047101E+03  0.11603157612E+03  0.27831998048E+03  0.17200000000E+03 0. -1.
         -6    1    1    2    0  502  0.10673588453E+03 -0.15173047101E+03 -0.90374147649E+01  0.25314098788E+03  0.17200000000E+03 0.  1.
</event>
<event>
 4    1  0.5818436E+000  0.2090426E+03  0.7818608E-02  0.1142326E+00
         21   -1    0    0  501  502  0.00000000000E+00  0.00000000000E+00  0.91600177666E+03  0.91600177666E+03  0.00000000000E+00 0. -1.
         21   -1    0    0  502  503 -0.00000000000E+00 -0.00000000000E+00 -0.48177080250E+02  0.48177080250E+02  0.00000000000E+00 0. -1.
          6    1    1    2  501    0  0.11880510457E+03  0.37135776446E+00  0.38624184073E+03  0.43918282106E+03  0.17200000000E+03 0. -1.
         -6    1    1    2    0  503 -0.11880510457E+03 -0.37135776446E+00  0.48158285568E+03  0.52499603586E+03  0.17200000000E+03 0. -1.
</event>
<event>
 4    1  0.5818436E+000  0.1746534E+03  0.7818608E-02  0.1173080E+00
         21   -1    0    0  503  502  0.00000000000E+00  0.00000000000E+00  0.35261783443E+03  0.35261783443E+03  0.00000000000E+00 0.  1.
         21   -1    0    0  501  503 -0.00000000000E+00 -0.00000000000E+00 -0.19172413755E+03  0.19172413755E+03  0.00000000000E+00 0.  1.
          6    1    1    2  501    0  0.11608031259E+02  0.28019029815E+02 -0.12117948309E+03  0.21257535027E+03  0.17200000000E+03 0.  1.
         -6    1    1    2    0  502 -0.11608031259E+02 -0.28019029815E+02  0.28207317997E+03  0.33176662171E+03  0.17200000000E+03 0.  1.
</event>
<event>
 4    1  0.5818436E+000  0.2606907E+03  0.7818608E-02  0.1106729E+00
         21   -1    0    0  503  502  0.00000000000E+00  0.00000000000E+00  0.58542887321E+02  0.58542887321E+02  0.00000000000E+00 0.  1.
         21   -1    0    0  501  503 -0.00000000000E+00 -0.00000000000E+00 -0.11935810372E+04  0.11935810372E+04  0.00000000000E+00 0. -1.
          6    1    1    2  501    0 -0.16417513557E+03 -0.10687460495E+03 -0.46384868097E+03  0.53208575922E+03  0.17200000000E+03 0.  1.
         -6    1    1    2    0  502  0.16417513557E+03  0.10687460495E+03 -0.67118946889E+03  0.72003816529E+03  0.17200000000E+03 0.  1.
</event>
<event>
 4    1  0.5818436E+000  0.1844962E+03  0.7818608E-02  0.1163521E+00
         21   -1    0    0  503  502  0.00000000000E+00  0.00000000000E+00  0.39812062514E+02  0.39812062514E+02  0.00000000000E+00 0. -1.
         21   -1    0    0  501  503 -0.00000000000E+00 -0.00000000000E+00 -0.86571829497E+03  0.86571829497E+03  0.00000000000E+00 0. -1.
          6    1    1    2  501    0 -0.65818774766E+02  0.11078758355E+02 -0.36254699430E+03  0.40679131391E+03  0.17200000000E+03 0. -1.
         -6    1    1    2    0  502  0.65818774766E+02 -0.11078758355E+02 -0.46335923816E+03  0.49873904357E+03  0.17200000000E+03 0. -1.
</event>
<event>
 4    1  0.5818436E+000  0.2049818E+03  0.7818608E-02  0.1145603E+00
         21   -1    0    0  503  502  0.00000000000E+00  0.00000000000E+00  0.11842918352E+04  0.11842918352E+04  0.00000000000E+00 0. -1.
         21   -1    0    0  501  503 -0.00000000000E+00 -0.00000000000E+00 -0.39060015996E+02  0.39060015996E+02  0.00000000000E+00 0. -1.
          6    1    1    2  501    0  0.77653500608E+00 -0.11150300770E+03  0.38740925640E+03  0.43829608221E+03  0.17200000000E+03 0. -1.
         -6    1    1    2    0  502 -0.77653500608E+00  0.11150300770E+03  0.75782256285E+03  0.78505576903E+03  0.17200000000E+03 0. -1.
</event>
<event>
 4    1  0.5818436E+000  0.1992908E+03  0.7818608E-02  0.1150339E+00
         21   -1    0    0  503  502  0.00000000000E+00  0.00000000000E+00  0.58890750719E+02  0.58890750719E+02  0.00000000000E+00 0. -1.
         21   -1    0    0  501  503 -0.00000000000E+00 -0.00000000000E+00 -0.74481290743E+03  0.74481290743E+03  0.00000000000E+00 0. -1.
          6    1    1    2  501    0 -0.90036371315E+02 -0.45013978500E+02 -0.46650522864E+03  0.50729077930E+03  0.17200000000E+03 0. -1.
         -6    1    1    2    0  502  0.90036371315E+02  0.45013978500E+02 -0.21941692807E+03  0.29641287884E+03  0.17200000000E+03 0. -1.
</event>
<event>
 4    1  0.5818436E+000  0.4531015E+03  0.7818608E-02  0.1026801E+00
         21   -1    0    0  503  502  0.00000000000E+00  0.00000000000E+00  0.15364676170E+03  0.15364676170E+03  0.00000000000E+00 0.  1.
         21   -1    0    0  501  503 -0.00000000000E+00 -0.00000000000E+00 -0.14441207653E+04  0.14441207653E+04  0.00000000000E+00 0. -1.
          6    1    1    2  501    0 -0.33084314532E+03 -0.25740970478E+03 -0.86364005422E+03  0.97528205468E+03  0.17200000000E+03 0. -1.
         -6    1    1    2    0  502  0.33084314532E+03  0.25740970478E+03 -0.42683394943E+03  0.62248547236E+03  0.17200000000E+03 0.  1.
</event>
<event>
 4    1  0.5818436E+000  0.2657129E+03  0.7818608E-02  0.1103759E+00
         21   -1    0    0  503  502  0.00000000000E+00  0.00000000000E+00  0.72281904488E+03  0.72281904488E+03  0.00000000000E+00 0. -1.
         21   -1    0    0  501  503 -0.00000000000E+00 -0.00000000000E+00 -0.98459011183E+02  0.98459011183E+02  0.00000000000E+00 0. -1.
          6    1    1    2  501    0 -0.16577479795E+03 -0.11635326160E+03  0.27560199900E+03  0.38283132967E+03  0.17200000000E+03 0. -1.
         -6    1    1    2    0  502  0.16577479795E+03  0.11635326160E+03  0.34875803469E+03  0.43844672639E+03  0.17200000000E+03 0. -1.
</event>
<event>
 4    1  0.5818436E+000  0.1753310E+03  0.7818608E-02  0.1172400E+00
         21   -1    0    0  501  502  0.00000000000E+00  0.00000000000E+00  0.14996343565E+03  0.14996343565E+03  0.00000000000E+00 0.  1.
         21   -1    0    0  502  503 -0.00000000000E+00 -0.00000000000E+00 -0.22743813870E+03  0.22743813870E+03  0.00000000000E+00 0.  1.
          6    1    1    2  501    0  0.33648895460E+02 -0.49715496836E+01 -0.98020986884E+02  0.20087080012E+03  0.17200000000E+03 0.  1.
         -6    1    1    2    0  503 -0.33648895460E+02  0.49715496836E+01  0.20546283831E+02  0.17653077423E+03  0.17200000000E+03 0.  1.
</event>
<event>
 4    1  0.5818436E+000  0.2447888E+03  0.7818608E-02  0.1116643E+00
         21   -1    0    0  503  502  0.00000000000E+00  0.00000000000E+00  0.54299971130E+03  0.54299971130E+03  0.00000000000E+00 0. -1.
         21   -1    0    0  501  503 -0.00000000000E+00 -0.00000000000E+00 -0.11083704805E+03  0.11083704805E+03  0.00000000000E+00 0.  1.
          6    1    1    2  501    0  0.65886218344E+02 -0.16123456045E+03  0.23768854868E+03  0.34119997571E+03  0.17200000000E+03 0. -1.
         -6    1    1    2    0  502 -0.65886218344E+02  0.16123456045E+03  0.19447411457E+03  0.31263678365E+03  0.17200000000E+03 0.  1.
</event>
<event>
 4    1  0.5818436E+000  0.2561172E+03  0.7818608E-02  0.1109499E+00
         21   -1    0    0  501  502  0.00000000000E+00  0.00000000000E+00  0.35307563595E+02  0.35307563595E+02  0.00000000000E+00 0.  1.
         21   -1    0    0  502  503 -0.00000000000E+00 -0.00000000000E+00 -0.25729993553E+04  0.25729993553E+04  0.00000000000E+00 0. -1.
          6    1    1    2  501    0  0.91255792350E+02  0.16638632818E+03 -0.19564022951E+04  0.19730955299E+04  0.17200000000E+03 0. -1.
         -6    1    1    2    0  503 -0.91255792350E+02 -0.16638632818E+03 -0.58128949660E+03  0.63521138899E+03  0.17200000000E+03 0.  1.
</event>
<event>
 4    1  0.5818436E+000  0.2349039E+03  0.7818608E-02  0.1123235E+00
         21   -1    0    0  503  502  0.00000000000E+00  0.00000000000E+00  0.16594600585E+03  0.16594600585E+03  0.00000000000E+00 0. -1.
         21   -1    0    0  501  503 -0.00000000000E+00 -0.00000000000E+00 -0.97088828429E+03  0.97088828429E+03  0.00000000000E+00 0. -1.
          6    1    1    2  501    0 -0.12241917196E+02  0.15951795658E+03 -0.86338446188E+03  0.89476956364E+03  0.17200000000E+03 0. -1.
         -6    1    1    2    0  502  0.12241917196E+02 -0.15951795658E+03  0.58442183435E+02  0.24206472649E+03  0.17200000000E+03 0. -1.
</event>
<event>
 4    1  0.5818436E+000  0.1796565E+03  0.7818608E-02  0.1168136E+00
         21   -1    0    0  501  502  0.00000000000E+00  0.00000000000E+00  0.21405350299E+02  0.21405350299E+02  0.00000000000E+00 0.  1.
         21   -1    0    0  502  503 -0.00000000000E+00 -0.00000000000E+00 -0.17923268922E+04  0.17923268922E+04  0.00000000000E+00 0.  1.
          6    1    1    2  501    0  0.47762793170E+02 -0.20277153462E+02 -0.52418057169E+03  0.55411345328E+03  0.17200000000E+03 0.  1.
         -6    1    1    2    0  503 -0.47762793170E+02  0.20277153462E+02 -0.12467409702E+04  0.12596187892E+04  0.17200000000E+03 0.  1.
</event>
<event>
 4    1  0.5818436E+000  0.1815114E+03  0.7818608E-02  0.1166348E+00
         21   -1    0    0  501  502  0.00000000000E+00  0.00000000000E+00  0.10040648106E+04  0.10040648106E+04  0.00000000000E+00 0.  1.
         21   -1    0    0  502  503 -0.00000000000E+00 -0.00000000000E+00 -0.68922280174E+02  0.68922280174E+02  0.00000000000E+00 0.  1.
          6    1    1    2  501    0 -0.59068390132E+01 -0.57684360059E+02  0.85589515858E+03  0.87493022500E+03  0.17200000000E+03 0.  1.
         -6    1    1    2    0  503  0.59068390132E+01  0.57684360059E+02  0.79247371879E+02  0.19805686580E+03  0.17200000000E+03 0.  1.
</event>
<event>
 4    1  0.5818436E+000  0.2960378E+03  0.7818608E-02  0.1087238E+00
         21   -1    0    0  503  502  0.00000000000E+00  0.00000000000E+00  0.23525976896E+03  0.23525976896E+03  0.00000000000E+00 0.  1.
         21   -1    0    0  501  503 -0.00000000000E+00 -0.00000000000E+00 -0.37878497256E+03  0.37878497256E+03  0.00000000000E+00 0. -1.
          6    1    1    2  501    0 -0.21664726792E+03 -0.10544365470E+03 -0.11125528362E+03  0.31625328638E+03  0.17200000000E+03 0. -1.
         -6    1    1    2    0  502  0.21664726792E+03  0.10544365470E+03 -0.32269919976E+02  0.29779145513E+03  0.17200000000E+03 0.  1.
</event>
<event>
 4    1  0.5818436E+000  0.1968777E+03  0.7818608E-02  0.1152400E+00
         21   -1    0    0  501  502  0.00000000000E+00  0.00000000000E+00  0.55334766798E+02  0.55334766798E+02  0.00000000000E+00 0.  1.
         21   -1    0    0  502  503 -0.00000000000E+00 -0.00000000000E+00 -0.83556586951E+03  0.83556586951E+03  0.00000000000E+00 0. -1.
          6    1    1    2  501    0  0.70709672112E+02 -0.64629482003E+02 -0.56922393542E+03  0.60230948550E+03  0.17200000000E+03 0. -1.
         -6    1    1    2    0  503 -0.70709672112E+02  0.64629482003E+02 -0.21100716730E+03  0.28859115081E+03  0.17200000000E+03 0.  1.
</event>
<event>
 4    1  0.5818436E+000  0.1948927E+03  0.7818608E-02  0.1154121E+00
         21   -1    0    0  501  502  0.00000000000E+00  0.00000000000E+00  0.12158529111E+03  0.12158529111E+03  0.00000000000E+00 0. -1.
         21   -1    0    0  502  503 -0.00000000000E+00 -0.00000000000E+00 -0.65370409402E+03  0.65370409402E+03  0.00000000000E+00 0. -1.
          6    1    1    2  501    0  0.80193455045E+02 -0.44364210834E+02  0.14041407335E+02  0.19539788780E+03  0.17200000000E+03 0. -1.
         -6    1    1    2    0  503 -0.80193455045E+02  0.44364210834E+02 -0.54616021024E+03  0.57989149734E+03  0.17200000000E+03 0. -1.
</event>
<event>
 4    1  0.5818436E+000  0.2186704E+03  0.7818608E-02  0.1134878E+00
         21   -1    0    0  501  502  0.00000000000E+00  0.00000000000E+00  0.85197585952E+03  0.85197585952E+03  0.00000000000E+00 0. -1.
         21   -1    0    0  502  503 -0.00000000000E+00 -0.00000000000E+00 -0.71297493771E+02  0.71297493771E+02  0.00000000000E+00 0. -1.
          6    1    1    2  501    0  0.65832727906E+02  0.11789320891E+03  0.60329925309E+03  0.64170612086E+03  0.17200000000E+03 0. -1.
         -6    1    1    2    0  503 -0.65832727906E+02 -0.11789320891E+03  0.17737911265E+03  0.28156723242E+03  0.17200000000E+03 0. -1.
</event>
<event>
 4    1  0.5818436E+000  0.3126131E+03  0.7818608E-02  0.1079100E+00
         21   -1    0    0  501  502  0.00000000000E+00  0.00000000000E+00  0.49251497883E+03  0.49251497883E+03  0.00000000000E+00 0.  1.
         21   -1    0    0  502  503 -0.00000000000E+00 -0.00000000000E+00 -0.27750380676E+03  0.27750380676E+03  0.00000000000E+00 0.  1.
          6    1    1    2  501    0  0.19367024462E+03  0.17502804179E+03  0.31303245677E+03  0.44239834771E+03  0.17200000000E+03 0.  1.
         -6    1    1    2    0  503 -0.19367024462E+03 -0.17502804179E+03 -0.98021284694E+02  0.32762043788E+03  0.17200000000E+03 0.  1.
</event>
<event>
 4    1  0.5818436E+000  0.1954787E+03  0.7818608E-02  0.1153611E+00
         21   -1    0    0  501  502  0.00000000000E+00  0.00000000000E+00  0.91677669900E+02  0.91677669900E+02  0.00000000000E+00 0.  1.
         21   -1    0    0  502  503 -0.00000000000E+00 -0.00000000000E+00 -0.62397760112E+03  0.62397760112E+03  0.00000000000E+00 0.  1.
          6    1    1    2  501    0 -0.55624468740E+02 -0.74389911110E+02 -0.59966935597E+02  0.20446998255E+03  0.17200000000E+03 0.  1.
         -6    1    1    2    0  503  0.55624468740E+02  0.74389911110E+02 -0.47233299563E+03  0.51118528848E+03  0.17200000000E+03 0.  1.
</event>
<event>
 4    1  0.5818436E+000  0.2202540E+03  0.7818608E-02  0.1133694E+00
         21   -1    0    0  501  502  0.00000000000E+00  0.00000000000E+00  0.78634355861E+03  0.78634355861E+03  0.00000000000E+00 0. -1.
         21   -1    0    0  502  503 -0.00000000000E+00 -0.00000000000E+00 -0.78929579130E+02  0.78929579130E+02  0.00000000000E+00 0. -1.
          6    1    1    2  501    0  0.13754597234E+03  0.29868549457E+01  0.55588322726E+03  0.59792807106E+03  0.17200000000E+03 0. -1.
         -6    1    1    2    0  503 -0.13754597234E+03 -0.29868549457E+01  0.15153075222E+03  0.26734506668E+03  0.17200000000E+03 0. -1.
</event>
<event>
 4    1  0.5818436E+000  0.1885836E+03  0.7818608E-02  0.1159745E+00
         21   -1    0    0  501  502  0.00000000000E+00  0.00000000000E+00  0.11869895861E+03  0.11869895861E+03  0.00000000000E+00 0. -1.
         21   -1    0    0  502  503 -0.00000000000E+00 -0.00000000000E+00 -0.15457447097E+04  0.15457447097E+04  0.00000000000E+00 0. -1.
          6    1    1    2  501    0  0.75390134130E+02 -0.17208083762E+02  0.33703403743E+02  0.19157168344E+03  0.17200000000E+03 0. -1.
         -6    1    1    2    0  503 -0.75390134130E+02  0.17208083762E+02 -0.14607491548E+04  0.14728719848E+04  0.17200000000E+03 0. -1.
</event>
<event>
 4    1  0.5818436E+000  0.1910546E+03  0.7818608E-02  0.1157514E+00
         21   -1    0    0  501  502  0.00000000000E+00  0.00000000000E+00  0.38567199073E+03  0.38567199073E+03  0.00000000000E+00 0.  1.
         21   -1    0    0  502  503 -0.00000000000E+00 -0.00000000000E+00 -0.16165568857E+03  0.16165568857E+03  0.00000000000E+00 0. -1.
          6    1    1    2  501    0 -0.83164717723E+02 -0.12247528234E+01  0.28820349383E+03  0.34577901057E+03  0.17200000000E+03 0.  1.
         -6    1    1    2    0  503  0.83164717723E+02  0.12247528234E+01 -0.64187191667E+02  0.20154866873E+03  0.17200000000E+03 0. -1.
</event>
<event>
 4    1  0.5818436E+000  0.2379547E+03  0.7818608E-02  0.1121163E+00
         21   -1    0    0  503  502  0.00000000000E+00  0.00000000000E+00  0.26313057575E+03  0.26313057575E+03  0.00000000000E+00 0.  1.
         21   -1    0    0  501  503 -0.00000000000E+00 -0.00000000000E+00 -0.22149072431E+03  0.22149072431E+03  0.00000000000E+00 0. -1.
          6    1    1    2  501    0 -0.60015547959E+02 -0.15309004671E+03  0.61696435258E+02  0.24582286005E+03  0.17200000000E+03 0.  1.
         -6    1    1    2    0  502  0.60015547959E+02  0.15309004671E+03 -0.20056583813E+02  0.23879844001E+03  0.17200000000E+03 0. -1.
</event>
<event>
 4    1  0.5818436E+000  0.1953359E+03  0.7818608E-02  0.1153735E+00
         21   -1    0    0  503  502  0.00000000000E+00  0.00000000000E+00  0.96321372454E+03  0.96321372454E+03  0.00000000000E+00 0.  1.
         21   -1    0    0  501  503 -0.00000000000E+00 -0.00000000000E+00 -0.42314713753E+02  0.42314713753E+02  0.00000000000E+00 0.  1.
          6    1    1    2  501    0 -0.33129581797E+02  0.86455543345E+02  0.33341855594E+03  0.38642471920E+03  0.17200000000E+03 0.  1.
         -6    1    1    2    0  502  0.33129581797E+02 -0.86455543345E+02  0.58748045485E+03  0.61910371910E+03  0.17200000000E+03 0.  1.
</event>
<event>
 4    1  0.5818436E+000  0.3501479E+03  0.7818608E-02  0.1062554E+00
         21   -1    0    0  501  502  0.00000000000E+00  0.00000000000E+00  0.81637705169E+03  0.81637705169E+03  0.00000000000E+00 0. -1.
         21   -1    0    0  502  503 -0.00000000000E+00 -0.00000000000E+00 -0.31147686475E+03  0.31147686475E+03  0.00000000000E+00 0.  1.
          6    1    1    2  501    0 -0.16608978861E+03  0.25580024219E+03  0.65826014165E+03  0.74559372038E+03  0.17200000000E+03 0. -1.
         -6    1    1    2    0  503  0.16608978861E+03 -0.25580024219E+03 -0.15335995471E+03  0.38226019606E+03  0.17200000000E+03 0.  1.
</event>
<event>
 4    1  0.5818436E+000  0.2645827E+03  0.7818608E-02  0.1104421E+00
         21   -1    0    0  503  502  0.00000000000E+00  0.00000000000E+00  0.19114792094E+03  0.19114792094E+03  0.00000000000E+00 0. -1.
         21   -1    0    0  501  503 -0.00000000000E+00 -0.00000000000E+00 -0.54717965938E+03  0.54717965938E+03  0.00000000000E+00 0. -1.
          6    1    1    2  501    0 -0.15973736162E+03  0.12208187889E+03 -0.39030785239E+03  0.47153391129E+03  0.17200000000E+03 0. -1.
         -6    1    1    2    0  502  0.15973736162E+03 -0.12208187889E+03  0.34276113952E+02  0.26679366904E+03  0.17200000000E+03 0. -1.
</event>
<event>
 4    1  0.5818436E+000  0.1845326E+03  0.7818608E-02  0.1163487E+00
         21   -1    0    0  503  502  0.00000000000E+00  0.00000000000E+00  0.58388735708E+03  0.58388735708E+03  0.00000000000E+00 0.  1.
         21   -1    0    0  501  503 -0.00000000000E+00 -0.00000000000E+00 -0.81993243550E+02  0.81993243550E+02  0.00000000000E+00 0.  1.
          6    1    1    2  501    0 -0.43876974390E+02  0.50429058247E+02  0.72048549345E+02  0.19809914755E+03  0.17200000000E+03 0.  1.
         -6    1    1    2    0  502  0.43876974390E+02 -0.50429058247E+02  0.42984556419E+03  0.46778145309E+03  0.17200000000E+03 0.  1.
</event>
<event>
 4    1  0.5818436E+000  0.2134954E+03  0.7818608E-02  0.1138828E+00
         21   -1    0    0  503  502  0.00000000000E+00  0.00000000000E+00  0.53884102304E+02  0.53884102304E+02  0.00000000000E+00 0.  1.
         21   -1    0    0  501  503 -0.00000000000E+00 -0.00000000000E+00 -0.12576240553E+04  0.12576240553E+04  0.00000000000E+00 0.  1.
          6    1    1    2  501    0 -0.47696423539E+02  0.11713808235E+03 -0.97707744413E+03  0.10001302970E+04  0.17200000000E+03 0.  1.
         -6    1    1    2    0  502  0.47696423539E+02 -0.11713808235E+03 -0.22666250890E+03  0.31137786064E+03  0.17200000000E+03 0.  1.
</event>
<event>
 4    1  0.5818436E+000  0.3421792E+03  0.7818608E-02  0.1065872E+00
         21   -1    0    0  503  502  0.00000000000E+00  0.00000000000E+00  0.84447932897E+03  0.84447932897E+03  0.00000000000E+00 0. -1.
         21   -1    0    0  501  503 -0.00000000000E+00 -0.00000000000E+00 -0.28411083876E+03  0.28411083876E+03  0.00000000000E+00 0.  1.
          6    1    1    2  501    0 -0.24827771300E+03 -0.16081298534E+03 -0.12358771085E+03  0.36381391026E+03  0.17200000000E+03 0.  1.
         -6    1    1    2    0  502  0.24827771300E+03  0.16081298534E+03  0.68395620106E+03  0.76477625747E+03  0.17200000000E+03 0. -1.
</event>
<event>
 4    1  0.5818436E+000  0.1814665E+03  0.7818608E-02  0.1166391E+00
         21   -1    0    0  503  502  0.00000000000E+00  0.00000000000E+00  0.53596607744E+03  0.53596607744E+03  0.00000000000E+00 0. -1.
         21   -1    0    0  501  503 -0.00000000000E+00 -0.00000000000E+00 -0.79951934443E+02  0.79951934443E+02  0.00000000000E+00 0. -1.
          6    1    1    2  501    0 -0.30416306417E+02 -0.49202900790E+02  0.79824444450E+02  0.19824736839E+03  0.17200000000E+03 0. -1.
         -6    1    1    2    0  502  0.30416306417E+02  0.49202900790E+02  0.37618969855E+03  0.41767064350E+03  0.17200000000E+03 0. -1.
</event>
<event>
 4    1  0.5818436E+000  0.1784190E+03  0.7818608E-02  0.1169342E+00
         21   -1    0    0  503  502  0.00000000000E+00  0.00000000000E+00  0.12749349358E+03  0.12749349358E+03  0.00000000000E+00 0.  1.
         21   -1    0    0  501  503 -0.00000000000E+00 -0.00000000000E+00 -0.31447509735E+03  0.31447509735E+03  0.00000000000E+00 0.  1.
          6    1    1    2  501    0 -0.67651403493E+01 -0.46942189074E+02 -0.19379505676E+03  0.26341955179E+03  0.17200000000E+03 0.  1.
         -6    1    1    2    0  502  0.67651403493E+01  0.46942189074E+02  0.68134529908E+01  0.17854903915E+03  0.17200000000E+03 0.  1.
</event>
<event>
 4    1  0.5818436E+000  0.2825146E+03  0.7818608E-02  0.1094323E+00
         21   -1    0    0  503  502  0.00000000000E+00  0.00000000000E+00  0.49479062837E+03  0.49479062837E+03  0.00000000000E+00 0.  1.
         21   -1    0    0  501  503 -0.00000000000E+00 -0.00000000000E+00 -0.18415296902E+03  0.18415296902E+03  0.00000000000E+00 0. -1.
          6    1    1    2  501    0  0.62549776923E+02 -0.21521618903E+03  0.35756509340E+02  0.28476834545E+03  0.17200000000E+03 0. -1.
         -6    1    1    2    0  502 -0.62549776923E+02  0.21521618903E+03  0.27488115000E+03  0.39417525194E+03  0.17200000000E+03 0.  1.
</event>
<event>
 4    1  0.5818436E+000  0.1781724E+03  0.7818608E-02  0.1169584E+00
         21   -1    0    0  501  502  0.00000000000E+00  0.00000000000E+00  0.21539240468E+03  0.21539240468E+03  0.00000000000E+00 0. -1.
         21   -1    0    0  502  503 -0.00000000000E+00 -0.00000000000E+00 -0.24189381036E+03  0.24189381036E+03  0.00000000000E+00 0.  1.
          6    1    1    2  501    0 -0.30272741959E+02 -0.35283947587E+02  0.12966638692E+03  0.22036054039E+03  0.17200000000E+03 0. -1.
         -6    1    1    2    0  503  0.30272741959E+02  0.35283947587E+02 -0.15616779260E+03  0.23692567465E+03  0.17200000000E+03 0.  1.
</event>
<event>
 4    1  0.5818436E+000  0.1963704E+03  0.7818608E-02  0.1152838E+00
         21   -1    0    0  503  502  0.00000000000E+00  0.00000000000E+00  0.17098569280E+03  0.17098569280E+03  0.00000000000E+00 0. -1.
         21   -1    0    0  501  503 -0.00000000000E+00 -0.00000000000E+00 -0.28753472154E+03  0.28753472154E+03  0.00000000000E+00 0. -1.
          6    1    1    2  501    0 -0.94532741544E+02 -0.63960563375E+01 -0.16474212585E+03  0.25632268099E+03  0.17200000000E+03 0. -1.
         -6    1    1    2    0  502  0.94532741544E+02  0.63960563375E+01  0.48193097113E+02  0.20219773334E+03  0.17200000000E+03 0. -1.
</event>
<event>
 4    1  0.5818436E+000  0.1905235E+03  0.7818608E-02  0.1157990E+00
         21   -1    0    0  503  502  0.00000000000E+00  0.00000000000E+00  0.83225430711E+03  0.83225430711E+03  0.00000000000E+00 0. -1.
         21   -1    0    0  501  503 -0.00000000000E+00 -0.00000000000E+00 -0.79477963249E+02  0.79477963249E+02  0.00000000000E+00 0. -1.
          6    1    1    2  501    0  0.61598139272E+02  0.54045140576E+02  0.70167942671E+02  0.20303385964E+03  0.17200000000E+03 0. -1.
         -6    1    1    2    0  502 -0.61598139272E+02 -0.54045140576E+02  0.68260840119E+03  0.70869841072E+03  0.17200000000E+03 0. -1.
</event>
<event>
 4    1  0.5818436E+000  0.1921602E+03  0.7818608E-02  0.1156527E+00
         21   -1    0    0  501  502  0.00000000000E+00  0.00000000000E+00  0.37165098239E+03  0.37165098239E+03  0.00000000000E+00 0.  1.
         21   -1    0    0  502  503 -0.00000000000E+00 -0.00000000000E+00 -0.11038561240E+03  0.11038561240E+03  0.00000000000E+00 0.  1.
          6    1    1    2  501    0  0.74868795828E+02  0.41667657928E+02  0.20682055054E+03  0.28231236323E+03  0.17200000000E+03 0.  1.
         -6    1    1    2    0  503 -0.74868795828E+02 -0.41667657928E+02  0.54444819455E+02  0.19972423156E+03  0.17200000000E+03 0.  1.
</event>
<event>
 4    1  0.5818436E+000  0.2258154E+03  0.7818608E-02  0.1129620E+00
         21   -1    0    0  501  502  0.00000000000E+00  0.00000000000E+00  0.10141160675E+04  0.10141160675E+04  0.00000000000E+00 0. -1.
         21   -1    0    0  502  503 -0.00000000000E+00 -0.00000000000E+00 -0.27716356559E+03  0.27716356559E+03  0.00000000000E+00 0. -1.
          6    1    1    2  501    0  0.13158474805E+03 -0.63984715938E+02  0.95262181138E+03  0.97902038044E+03  0.17200000000E+03 0. -1.
         -6    1    1    2    0  503 -0.13158474805E+03  0.63984715938E+02 -0.21566930950E+03  0.31225925263E+03  0.17200000000E+03 0. -1.
</event>
<event>
 4    1  0.5818436E+000  0.1901389E+03  0.7818608E-02  0.1158336E+00
         21   -1    0    0  501  502  0.00000000000E+00  0.00000000000E+00  0.35032174213E+02  0.35032174213E+02  0.00000000000E+00 0.  1.
         21   -1    0    0  502  503 -0.00000000000E+00 -0.00000000000E+00 -0.10693302599E+04  0.10693302599E+04  0.00000000000E+00 0.  1.
          6    1    1    2  501    0  0.92614554074E+01 -0.80517141310E+02 -0.41396184933E+03  0.45554055506E+03  0.17200000000E+03 0. -1.
         -6    1    1    2    0  503 -0.92614554074E+01  0.80517141310E+02 -0.62033623632E+03  0.64882187902E+03  0.17200000000E+03 0. -1.
</event>
<event>
 4    1  0.5818436E+000  0.1910176E+03  0.7818608E-02  0.1157547E+00
         21   -1    0    0  501  502  0.00000000000E+00  0.00000000000E+00  0.12804389561E+04  0.12804389561E+04  0.00000000000E+00 0.  1.
         21   -1    0    0  502  503 -0.00000000000E+00 -0.00000000000E+00 -0.28777777786E+02  0.28777777786E+02  0.00000000000E+00 0. -1.
          6    1    1    2  501    0 -0.82639489570E+02 -0.86273836689E+01  0.69057592805E+03  0.71650738265E+03  0.17200000000E+03 0. -1.
         -6    1    1    2    0  503  0.82639489570E+02  0.86273836689E+01  0.56108525030E+03  0.59270935128E+03  0.17200000000E+03 0.  1.
</event>
<event>
 4    1  0.5818436E+000  0.1876030E+03  0.7818608E-02  0.1160641E+00
         21   -1    0    0  501  502  0.00000000000E+00  0.00000000000E+00  0.55349402914E+03  0.55349402914E+03  0.00000000000E+00 0.  1.
         21   -1    0    0  502  503 -0.00000000000E+00 -0.00000000000E+00 -0.68236967091E+02  0.68236967091E+02  0.00000000000E+00 0.  1.
          6    1    1    2  501    0  0.52332332740E+02  0.53592999695E+02  0.32378060060E+03  0.37420416886E+03  0.17200000000E+03 0.  1.
         -6    1    1    2    0  503 -0.52332332740E+02 -0.53592999695E+02  0.16147646144E+03  0.24752682737E+03  0.17200000000E+03 0.  1.
</event>
<event>
 4    1  0.5818436E+000  0.3056084E+03  0.7818608E-02  0.1082470E+00
         21   -1    0    0  501  502  0.00000000000E+00  0.00000000000E+00  0.82815886291E+03  0.82815886291E+03  0.00000000000E+00 0.  1.
         21   -1    0    0  502  503 -0.00000000000E+00 -0.00000000000E+00 -0.12316199730E+03  0.12316199730E+03  0.00000000000E+00 0. -1.
          6    1    1    2  501    0  0.78925141711E+02  0.23996518449E+03  0.49062657272E+03  0.57802327083E+03  0.17200000000E+03 0. -1.
         -6    1    1    2    0  503 -0.78925141711E+02 -0.23996518449E+03  0.21437029289E+03  0.37329758938E+03  0.17200000000E+03 0. -1.
</event>
<event>
 4    1  0.5818436E+000  0.1751238E+03  0.7818608E-02  0.1172607E+00
         21   -1    0    0  503  502  0.00000000000E+00  0.00000000000E+00  0.88019846377E+02  0.88019846377E+02  0.00000000000E+00 0.  1.
         21   -1    0    0  501  503 -0.00000000000E+00 -0.00000000000E+00 -0.35337807427E+03  0.35337807427E+03  0.00000000000E+00 0.  1.
          6    1    1    2  501    0 -0.19790715915E+02 -0.26318904870E+02 -0.15880655518E+03  0.23640617411E+03  0.17200000000E+03 0. -1.
         -6    1    1    2    0  502  0.19790715915E+02  0.26318904870E+02 -0.10655167271E+03  0.20499174654E+03  0.17200000000E+03 0. -1.
</event>
<event>
 4    1  0.5818436E+000  0.1819228E+03  0.7818608E-02  0.1165955E+00
         21   -1    0    0  503  502  0.00000000000E+00  0.00000000000E+00  0.66987533838E+03  0.66987533838E+03  0.00000000000E+00 0.  1.
         21   -1    0    0  501  503 -0.00000000000E+00 -0.00000000000E+00 -0.51700340444E+02  0.51700340444E+02  0.00000000000E+00 0.  1.
          6    1    1    2  501    0 -0.33495516449E+02  0.48887021902E+02  0.38509036030E+03  0.42589960804E+03  0.17200000000E+03 0.  1.
         -6    1    1    2    0  502  0.33495516449E+02 -0.48887021902E+02  0.23308463764E+03  0.29567607079E+03  0.17200000000E+03 0.  1.
</event>
<event>
 4    1  0.5818436E+000  0.1772094E+03  0.7818608E-02  0.1170531E+00
         21   -1    0    0  503  502  0.00000000000E+00  0.00000000000E+00  0.21334370550E+03  0.21334370550E+03  0.00000000000E+00 0.  1.
         21   -1    0    0  501  503 -0.00000000000E+00 -0.00000000000E+00 -0.16516916528E+03  0.16516916528E+03  0.00000000000E+00 0.  1.
          6    1    1    2  501    0 -0.37184110904E+02 -0.20892953913E+02 -0.38344820610E+02  0.18131050409E+03  0.17200000000E+03 0.  1.
         -6    1    1    2    0  502  0.37184110904E+02  0.20892953913E+02  0.86519360838E+02  0.19720236669E+03  0.17200000000E+03 0.  1.
</event>
<event>
 4    1  0.5818436E+000  0.1766870E+03  0.7818608E-02  0.1171048E+00
         21   -1    0    0  501  502  0.00000000000E+00  0.00000000000E+00  0.43283024950E+03  0.43283024950E+03  0.00000000000E+00 0.  1.
         21   -1    0    0  502  503 -0.00000000000E+00 -0.00000000000E+00 -0.45342197099E+03  0.45342197099E+03  0.00000000000E+00 0.  1.
          6    1    1    2  501    0 -0.27388092753E+02 -0.29735376869E+02  0.39606061713E+03  0.43368457743E+03  0.17200000000E+03 0.  1.
         -6    1    1    2    0  503  0.27388092753E+02  0.29735376869E+02 -0.41665233862E+03  0.45256764305E+03  0.17200000000E+03 0.  1.
</event>
<event>
 4    1  0.5818436E+000  0.1776342E+03  0.7818608E-02  0.1170112E+00
         21   -1    0    0  501  502  0.00000000000E+00  0.00000000000E+00  0.43340944859E+02  0.43340944859E+02  0.00000000000E+00 0. -1.
         21   -1    0    0  502  503 -0.00000000000E+00 -0.00000000000E+00 -0.10510404831E+04  0.10510404831E+04  0.00000000000E+00 0. -1.
          6    1    1    2  501    0  0.42959871692E+02  0.11152169436E+02 -0.20050892336E+03  0.26787637038E+03  0.17200000000E+03 0.  1.
         -6    1    1    2    0  503 -0.42959871692E+02 -0.11152169436E+02 -0.80719061486E+03  0.82650505757E+03  0.17200000000E+03 0.  1.
</event>
<event>
 4    1  0.5818436E+000  0.2032279E+03  0.7818608E-02  0.1147044E+00
         21   -1    0    0  503  502  0.00000000000E+00  0.00000000000E+00  0.10393641820E+03  0.10393641820E+03  0.00000000000E+00 0.  1.
         21   -1    0    0  501  503 -0.00000000000E+00 -0.00000000000E+00 -0.53137355116E+03  0.53137355116E+03  0.00000000000E+00 0.  1.
          6    1    1    2  501    0  0.10009361586E+03  0.41216925873E+02 -0.37323607839E+03  0.42497851372E+03  0.17200000000E+03 0.  1.
         -6    1    1    2    0  502 -0.10009361586E+03 -0.41216925873E+02 -0.54201054574E+02  0.21033145564E+03  0.17200000000E+03 0.  1.
</event>
<event>
 4    1  0.5818436E+000  0.2603790E+03  0.7818608E-02  0.1106916E+00
         21   -1    0    0  503  502  0.00000000000E+00  0.00000000000E+00  0.23683225340E+03  0.23683225340E+03  0.00000000000E+00 0.  1.
         21   -1    0    0  501  503 -0.00000000000E+00 -0.00000000000E+00 -0.80417622243E+03  0.80417622243E+03  0.00000000000E+00 0.  1.
          6    1    1    2  501    0  0.16901575856E+03 -0.98218720925E+02 -0.70138259254E+03  0.74815425207E+03  0.17200000000E+03 0.  1.
         -6    1    1    2    0  502 -0.16901575856E+03  0.98218720925E+02  0.13403862350E+03  0.29285422375E+03  0.17200000000E+03 0.  1.
</event>
<event>
 4    1  0.5818436E+000  0.1877853E+03  0.7818608E-02  0.1160474E+00
         21   -1    0    0  501  502  0.00000000000E+00  0.00000000000E+00  0.19169930432E+04  0.19169930432E+04  0.00000000000E+00 0. -1.
         21   -1    0    0  502  503 -0.00000000000E+00 -0.00000000000E+00 -0.95157809936E+02  0.95157809936E+02  0.00000000000E+00 0. -1.
          6    1    1    2  501    0  0.23074800209E+02  0.71741773266E+02  0.18145325470E+04  0.18242235862E+04  0.17200000000E+03 0. -1.
         -6    1    1    2    0  503 -0.23074800209E+02 -0.71741773266E+02  0.73026863082E+01  0.18792726695E+03  0.17200000000E+03 0. -1.
</event>
<event>
 4    1  0.5818436E+000  0.1733719E+03  0.7818608E-02  0.1174376E+00
         21   -1    0    0  501  502  0.00000000000E+00  0.00000000000E+00  0.41418300059E+03  0.41418300059E+03  0.00000000000E+00 0. -1.
         21   -1    0    0  502  503 -0.00000000000E+00 -0.00000000000E+00 -0.16413641760E+03  0.16413641760E+03  0.00000000000E+00 0. -1.
          6    1    1    2  501    0 -0.17657335059E+02  0.12729670855E+02  0.34099664754E+03  0.38253959225E+03  0.17200000000E+03 0. -1.
         -6    1    1    2    0  503  0.17657335059E+02 -0.12729670855E+02 -0.90950064556E+02  0.19577982594E+03  0.17200000000E+03 0. -1.
</event>
<event>
 4    1  0.5818436E+000  0.2021595E+03  0.7818608E-02  0.1147930E+00
         21   -1    0    0  503  502  0.00000000000E+00  0.00000000000E+00  0.59068463022E+02  0.59068463022E+02  0.00000000000E+00 0.  1.
         21   -1    0    0  501  503 -0.00000000000E+00 -0.00000000000E+00 -0.73678876606E+03  0.73678876606E+03  0.00000000000E+00 0.  1.
          6    1    1    2  501    0 -0.25324346200E+02 -0.10316563080E+03 -0.43709924797E+03  0.48158511445E+03  0.17200000000E+03 0.  1.
         -6    1    1    2    0  502  0.25324346200E+02  0.10316563080E+03 -0.24062105507E+03  0.31427211463E+03  0.17200000000E+03 0.  1.
</event>
<event>
 4    1  0.5818436E+000  0.1736615E+03  0.7818608E-02  0.1174082E+00
         21   -1    0    0  503  502  0.00000000000E+00  0.00000000000E+00  0.98105180007E+03  0.98105180007E+03  0.00000000000E+00 0. -1.
         21   -1    0    0  501  503 -0.00000000000E+00 -0.00000000000E+00 -0.32198498389E+02  0.32198498389E+02  0.00000000000E+00 0. -1.
          6    1    1    2  501    0 -0.21280249235E+02  0.11021310980E+02  0.36663066191E+03  0.40568012098E+03  0.17200000000E+03 0. -1.
         -6    1    1    2    0  502  0.21280249235E+02 -0.11021310980E+02  0.58222263978E+03  0.60757017749E+03  0.17200000000E+03 0. -1.
</event>
<event>
 4    1  0.5818436E+000  0.2160295E+03  0.7818608E-02  0.1136878E+00
         21   -1    0    0  503  502  0.00000000000E+00  0.00000000000E+00  0.41757120976E+03  0.41757120976E+03  0.00000000000E+00 0. -1.
         21   -1    0    0  501  503 -0.00000000000E+00 -0.00000000000E+00 -0.11372002853E+03  0.11372002853E+03  0.00000000000E+00 0. -1.
          6    1    1    2  501    0 -0.11146308563E+03 -0.68269455278E+02  0.18677980689E+03  0.28557912081E+03  0.17200000000E+03 0. -1.
         -6    1    1    2    0  502  0.11146308563E+03  0.68269455278E+02  0.11707137435E+03  0.24571211748E+03  0.17200000000E+03 0. -1.
</event>
<event>
 4    1  0.5818436E+000  0.1855487E+03  0.7818608E-02  0.1162538E+00
         21   -1    0    0  501  502  0.00000000000E+00  0.00000000000E+00  0.32844712742E+03  0.32844712742E+03  0.00000000000E+00 0. -1.
         21   -1    0    0  502  503 -0.00000000000E+00 -0.00000000000E+00 -0.11508782382E+03  0.11508782382E+03  0.00000000000E+00 0. -1.
          6    1    1    2  501    0  0.46628211276E+02 -0.51673418363E+02  0.17291501022E+03  0.25362951920E+03  0.17200000000E+03 0. -1.
         -6    1    1    2    0  503 -0.46628211276E+02  0.51673418363E+02  0.40444293382E+02  0.18990543204E+03  0.17200000000E+03 0. -1.
</event>
<event>
 4    1  0.5818436E+000  0.2094402E+03  0.7818608E-02  0.1142010E+00
         21   -1    0    0  501  502  0.00000000000E+00  0.00000000000E+00  0.20357027648E+04  0.20357027648E+04  0.00000000000E+00 0. -1.
         21   -1    0    0  502  503 -0.00000000000E+00 -0.00000000000E+00 -0.54133978444E+02  0.54133978444E+02  0.00000000000E+00 0. -1.
          6    1    1    2  501    0 -0.35240203497E+02 -0.11418977442E+03  0.18014901466E+04  0.18136239756E+04  0.17200000000E+03 0. -1.
         -6    1    1    2    0  503  0.35240203497E+02  0.11418977442E+03  0.18007863978E+03  0.27621276768E+03  0.17200000000E+03 0. -1.
</event>
<event>
 4    1  0.5818436E+000  0.1861582E+03  0.7818608E-02  0.1161973E+00
         21   -1    0    0  503  502  0.00000000000E+00  0.00000000000E+00  0.21187558678E+03  0.21187558678E+03  0.00000000000E+00 0. -1.
         21   -1    0    0  501  503 -0.00000000000E+00 -0.00000000000E+00 -0.17440846746E+03  0.17440846746E+03  0.00000000000E+00 0. -1.
          6    1    1    2  501    0 -0.66476922090E+02 -0.25527950335E+02 -0.29431404007E+02  0.18847032913E+03  0.17200000000E+03 0. -1.
         -6    1    1    2    0  502  0.66476922090E+02  0.25527950335E+02  0.66898523329E+02  0.19781372511E+03  0.17200000000E+03 0. -1.
</event>
<event>
 4    1  0.5818436E+000  0.2087122E+03  0.7818608E-02  0.1142590E+00
         21   -1    0    0  501  502  0.00000000000E+00  0.00000000000E+00  0.11244660244E+03  0.11244660244E+03  0.00000000000E+00 0. -1.
         21   -1    0    0  502  503 -0.00000000000E+00 -0.00000000000E+00 -0.40274913919E+03  0.40274913919E+03  0.00000000000E+00 0. -1.
          6    1    1    2  501    0 -0.87268632715E+02  0.79755709822E+02 -0.19545451910E+03  0.28594275046E+03  0.17200000000E+03 0. -1.
         -6    1    1    2    0  503  0.87268632715E+02 -0.79755709822E+02 -0.94848017653E+02  0.22925299116E+03  0.17200000000E+03 0. -1.
</event>
<event>
 4    1  0.5818436E+000  0.2201568E+03  0.7818608E-02  0.1133766E+00
         21   -1    0    0  501  502  0.00000000000E+00  0.00000000000E+00  0.37489555685E+03  0.37489555685E+03  0.00000000000E+00 0.  1.
         21   -1    0    0  502  503 -0.00000000000E+00 -0.00000000000E+00 -0.26211857032E+03  0.26211857032E+03  0.00000000000E+00 0.  1.
          6    1    1    2  501    0 -0.50108038442E+02  0.12796177795E+03  0.28312487801E+03  0.35864847508E+03  0.17200000000E+03 0.  1.
         -6    1    1    2    0  503  0.50108038442E+02 -0.12796177795E+03 -0.17034789147E+03  0.27836565209E+03  0.17200000000E+03 0.  1.
</event>
<event>
 4    1  0.5818436E+000  0.1986913E+03  0.7818608E-02  0.1150848E+00
         21   -1    0    0  501  502  0.00000000000E+00  0.00000000000E+00  0.33332993967E+03  0.33332993967E+03  0.00000000000E+00 0.  1.
         21   -1    0    0  502  503 -0.00000000000E+00 -0.00000000000E+00 -0.11989097504E+03  0.11989097504E+03  0.00000000000E+00 0.  1.
          6    1    1    2  501    0 -0.54948832139E+02 -0.82914852095E+02  0.13168395974E+03  0.23836717917E+03  0.17200000000E+03 0.  1.
         -6    1    1    2    0  503  0.54948832139E+02  0.82914852095E+02  0.81755004884E+02  0.21485373554E+03  0.17200000000E+03 0.  1.
</event>
<event>
 4    1  0.5818436E+000  0.1743793E+03  0.7818608E-02  0.1173356E+00
         21   -1    0    0  501  502  0.00000000000E+00  0.00000000000E+00  0.38366004017E+03  0.38366004017E+03  0.00000000000E+00 0.  1.
         21   -1    0    0  502  503 -0.00000000000E+00 -0.00000000000E+00 -0.12081025909E+03  0.12081025909E+03  0.00000000000E+00 0.  1.
          6    1    1    2  501    0  0.28250963905E+02 -0.51025408620E+01  0.27935298828E+03  0.32931177469E+03  0.17200000000E+03 0.  1.
         -6    1    1    2    0  503 -0.28250963905E+02  0.51025408620E+01 -0.16503207198E+02  0.17515852458E+03  0.17200000000E+03 0.  1.
</event>
<event>
 4    1  0.5818436E+000  0.2494448E+03  0.7818608E-02  0.1113656E+00
         21   -1    0    0  503  502  0.00000000000E+00  0.00000000000E+00  0.16815798844E+03  0.16815798844E+03  0.00000000000E+00 0. -1.
         21   -1    0    0  501  503 -0.00000000000E+00 -0.00000000000E+00 -0.60884215653E+03  0.60884215653E+03  0.00000000000E+00 0. -1.
          6    1    1    2  501    0 -0.13188355111E+03  0.12347247030E+03 -0.46365836575E+03  0.52649957464E+03  0.17200000000E+03 0. -1.
         -6    1    1    2    0  502  0.13188355111E+03 -0.12347247030E+03  0.22974197654E+02  0.25050057032E+03  0.17200000000E+03 0. -1.
</event>
<event>
 4    1  0.5818436E+000  0.3677758E+03  0.7818608E-02  0.1055547E+00
         21   -1    0    0  501  502  0.00000000000E+00  0.00000000000E+00  0.36087973706E+03  0.36087973706E+03  0.00000000000E+00 0. -1.
         21   -1    0    0  502  503 -0.00000000000E+00 -0.00000000000E+00 -0.59201085003E+03  0.59201085003E+03  0.00000000000E+00 0.  1.
          6    1    1    2  501    0 -0.53309723746E+02 -0.32067605340E+03  0.17302709915E+03  0.40644487315E+03  0.17200000000E+03 0. -1.
         -6    1    1    2    0  503  0.53309723746E+02  0.32067605340E+03 -0.40415821212E+03  0.54644571395E+03  0.17200000000E+03 0.  1.
</event>
<event>
 4    1  0.5818436E+000  0.1844810E+03  0.7818608E-02  0.1163535E+00
         21   -1    0    0  503  502  0.00000000000E+00  0.00000000000E+00  0.49464336337E+03  0.49464336337E+03  0.00000000000E+00 0. -1.
         21   -1    0    0  501  503 -0.00000000000E+00 -0.00000000000E+00 -0.11752553158E+03  0.11752553158E+03  0.00000000000E+00 0. -1.
          6    1    1    2  501    0  0.63754380666E+02 -0.19611830447E+02 -0.85187419636E+01  0.18467759451E+03  0.17200000000E+03 0. -1.
         -6    1    1    2    0  502 -0.63754380666E+02  0.19611830447E+02  0.38563657375E+03  0.42749130045E+03  0.17200000000E+03 0. -1.
</event>
<event>
 4    1  0.5818436E+000  0.2383547E+03  0.7818608E-02  0.1120894E+00
         21   -1    0    0  501  502  0.00000000000E+00  0.00000000000E+00  0.38632756427E+02  0.38632756427E+02  0.00000000000E+00 0. -1.
         21   -1    0    0  502  503 -0.00000000000E+00 -0.00000000000E+00 -0.14710230875E+04  0.14710230875E+04  0.00000000000E+00 0. -1.
          6    1    1    2  501    0  0.27645082032E+02 -0.16267976591E+03 -0.72914238314E+03  0.76711248959E+03  0.17200000000E+03 0. -1.
         -6    1    1    2    0  503 -0.27645082032E+02  0.16267976591E+03 -0.70324794793E+03  0.74254335434E+03  0.17200000000E+03 0. -1.
</event>
<event>
 4    1  0.5818436E+000  0.2342502E+03  0.7818608E-02  0.1123684E+00
         21   -1    0    0  503  502  0.00000000000E+00  0.00000000000E+00  0.53168222066E+03  0.53168222066E+03  0.00000000000E+00 0.  1.
         21   -1    0    0  501  503 -0.00000000000E+00 -0.00000000000E+00 -0.11293028319E+03  0.11293028319E+03  0.00000000000E+00 0. -1.
          6    1    1    2  501    0  0.63775819193E+02 -0.14567710778E+03  0.11480096277E+03  0.26086861808E+03  0.17200000000E+03 0. -1.
         -6    1    1    2    0  502 -0.63775819193E+02  0.14567710778E+03  0.30395097470E+03  0.38374388577E+03  0.17200000000E+03 0. -1.
</event>
<event>
 4    1  0.5818436E+000  0.1786514E+03  0.7818608E-02  0.1169115E+00
         21   -1    0    0  503  502  0.00000000000E+00  0.00000000000E+00  0.23214658842E+03  0.23214658842E+03  0.00000000000E+00 0.  1.
         21   -1    0    0  501  503 -0.00000000000E+00 -0.00000000000E+00 -0.22273309126E+03  0.22273309126E+03  0.00000000000E+00 0.  1.
          6    1    1    2  501    0  0.48226908701E+02 -0.25497452896E+01 -0.13600171041E+03  0.22452795184E+03  0.17200000000E+03 0.  1.
         -6    1    1    2    0  502 -0.48226908701E+02  0.25497452896E+01  0.14541520757E+03  0.23035172784E+03  0.17200000000E+03 0.  1.
</event>
<event>
 4    1  0.5818436E+000  0.3787702E+03  0.7818608E-02  0.1051389E+00
         21   -1    0    0  503  502  0.00000000000E+00  0.00000000000E+00  0.25608865073E+03  0.25608865073E+03  0.00000000000E+00 0. -1.
         21   -1    0    0  501  503 -0.00000000000E+00 -0.00000000000E+00 -0.79744732837E+03  0.79744732837E+03  0.00000000000E+00 0.  1.
          6    1    1    2  501    0 -0.27128158306E+03 -0.20072165175E+03 -0.55798721557E+03  0.67440092788E+03  0.17200000000E+03 0.  1.
         -6    1    1    2    0  502  0.27128158306E+03  0.20072165175E+03  0.16628537919E+02  0.37913505122E+03  0.17200000000E+03 0. -1.
</event>
<event>
 4    1  0.5818436E+000  0.2008490E+03  0.7818608E-02  0.1149025E+00
         21   -1    0    0  503  502  0.00000000000E+00  0.00000000000E+00  0.72675779052E+03  0.72675779052E+03  0.00000000000E+00 0.  1.
         21   -1    0    0  501  503 -0.00000000000E+00 -0.00000000000E+00 -0.13674439176E+03  0.13674439176E+03  0.00000000000E+00 0.  1.
          6    1    1    2  501    0 -0.10330677250E+03 -0.91679174709E+01 -0.37772328958E+02  0.20436998016E+03  0.17200000000E+03 0.  1.
         -6    1    1    2    0  502  0.10330677250E+03  0.91679174709E+01  0.62778572772E+03  0.65913220213E+03  0.17200000000E+03 0.  1.
</event>
<event>
 4    1  0.5818436E+000  0.2662382E+03  0.7818608E-02  0.1103452E+00
         21   -1    0    0  503  502  0.00000000000E+00  0.00000000000E+00  0.66173236091E+03  0.66173236091E+03  0.00000000000E+00 0. -1.
         21   -1    0    0  501  503 -0.00000000000E+00 -0.00000000000E+00 -0.12257798960E+03  0.12257798960E+03  0.00000000000E+00 0.  1.
          6    1    1    2  501    0 -0.19808491743E+03 -0.45400050793E+02  0.13030318391E+03  0.29641477504E+03  0.17200000000E+03 0.  1.
         -6    1    1    2    0  502  0.19808491743E+03  0.45400050793E+02  0.40885118740E+03  0.48789557547E+03  0.17200000000E+03 0. -1.
</event>
<event>
 4    1  0.5818436E+000  0.1896753E+03  0.7818608E-02  0.1158755E+00
         21   -1    0    0  503  502  0.00000000000E+00  0.00000000000E+00  0.97197685223E+02  0.97197685223E+02  0.00000000000E+00 0. -1.
         21   -1    0    0  501  503 -0.00000000000E+00 -0.00000000000E+00 -0.49039787729E+03  0.49039787729E+03  0.00000000000E+00 0. -1.
          6    1    1    2  501    0 -0.77699356351E+02 -0.18855459031E+02 -0.34208957844E+03  0.39115469828E+03  0.17200000000E+03 0. -1.
         -6    1    1    2    0  502  0.77699356351E+02  0.18855459031E+02 -0.51110613625E+02  0.19644086423E+03  0.17200000000E+03 0. -1.
</event>
<event>
 4    1  0.5818436E+000  0.3314013E+03  0.7818608E-02  0.1070519E+00
         21   -1    0    0  501  502  0.00000000000E+00  0.00000000000E+00  0.51013093276E+03  0.51013093276E+03  0.00000000000E+00 0. -1.
         21   -1    0    0  502  503 -0.00000000000E+00 -0.00000000000E+00 -0.49068609816E+03  0.49068609816E+03  0.00000000000E+00 0.  1.
          6    1    1    2  501    0  0.13477569116E+03  0.24915525686E+03  0.38460957341E+03  0.50769218322E+03  0.17200000000E+03 0. -1.
         -6    1    1    2    0  503 -0.13477569116E+03 -0.24915525686E+03 -0.36516473881E+03  0.49312484770E+03  0.17200000000E+03 0.  1.
</event>
<event>
 4    1  0.5818436E+000  0.1780250E+03  0.7818608E-02  0.1169728E+00
         21   -1    0    0  503  502  0.00000000000E+00  0.00000000000E+00  0.39261212656E+03  0.39261212656E+03  0.00000000000E+00 0. -1.
         21   -1    0    0  501  503 -0.00000000000E+00 -0.00000000000E+00 -0.17135175841E+03  0.17135175841E+03  0.00000000000E+00 0. -1.
          6    1    1    2  501    0 -0.37508570807E+02  0.26495275500E+02 -0.94443361853E+02  0.20152528652E+03  0.17200000000E+03 0. -1.
         -6    1    1    2    0  502  0.37508570807E+02 -0.26495275500E+02  0.31570373001E+03  0.36243859845E+03  0.17200000000E+03 0. -1.
</event>
<event>
 4    1  0.5818436E+000  0.2421842E+03  0.7818608E-02  0.1118346E+00
         21   -1    0    0  503  502  0.00000000000E+00  0.00000000000E+00  0.92003719907E+02  0.92003719907E+02  0.00000000000E+00 0.  1.
         21   -1    0    0  501  503 -0.00000000000E+00 -0.00000000000E+00 -0.10528878720E+04  0.10528878720E+04  0.00000000000E+00 0.  1.
          6    1    1    2  501    0  0.16676461431E+03  0.35478578482E+02 -0.83999737991E+03  0.87421322592E+03  0.17200000000E+03 0.  1.
         -6    1    1    2    0  502 -0.16676461431E+03 -0.35478578482E+02 -0.12088677216E+03  0.27067836597E+03  0.17200000000E+03 0.  1.
</event>
<event>
 4    1  0.5818436E+000  0.1992850E+03  0.7818608E-02  0.1150344E+00
         21   -1    0    0  501  502  0.00000000000E+00  0.00000000000E+00  0.15540313649E+03  0.15540313649E+03  0.00000000000E+00 0. -1.
         21   -1    0    0  502  503 -0.00000000000E+00 -0.00000000000E+00 -0.47790043709E+03  0.47790043709E+03  0.00000000000E+00 0. -1.
          6    1    1    2  501    0  0.29128239328E+02  0.96343499732E+02  0.54736727372E+02  0.20666551137E+03  0.17200000000E+03 0. -1.
         -6    1    1    2    0  503 -0.29128239328E+02 -0.96343499732E+02 -0.37723402797E+03  0.42663806221E+03  0.17200000000E+03 0. -1.
</event>
<event>
 4    1  0.5818436E+000  0.2347623E+03  0.7818608E-02  0.1123332E+00
         21   -1    0    0  503  502  0.00000000000E+00  0.00000000000E+00  0.47278478751E+02  0.47278478751E+02  0.00000000000E+00 0. -1.
         21   -1    0    0  501  503 -0.00000000000E+00 -0.00000000000E+00 -0.11837571079E+04  0.11837571079E+04  0.00000000000E+00 0. -1.
          6    1    1    2  501    0 -0.61029641456E+02 -0.14766417543E+03 -0.49225411246E+03  0.54536908335E+03  0.17200000000E+03 0. -1.
         -6    1    1    2    0  502  0.61029641456E+02  0.14766417543E+03 -0.64422451666E+03  0.68566650327E+03  0.17200000000E+03 0. -1.
</event>
<event>
 4    1  0.5818436E+000  0.2607600E+03  0.7818608E-02  0.1106687E+00
         21   -1    0    0  503  502  0.00000000000E+00  0.00000000000E+00  0.28854108697E+03  0.28854108697E+03  0.00000000000E+00 0.  1.
         21   -1    0    0  501  503 -0.00000000000E+00 -0.00000000000E+00 -0.34366940340E+03  0.34366940340E+03  0.00000000000E+00 0.  1.
          6    1    1    2  501    0 -0.85691224207E+02 -0.17626336213E+03 -0.20478093295E+03  0.33155842507E+03  0.17200000000E+03 0.  1.
         -6    1    1    2    0  502  0.85691224207E+02  0.17626336213E+03  0.14965261652E+03  0.30065206530E+03  0.17200000000E+03 0.  1.
</event>
<event>
 4    1  0.5818436E+000  0.1906046E+03  0.7818608E-02  0.1157917E+00
         21   -1    0    0  503  502  0.00000000000E+00  0.00000000000E+00  0.42585818616E+03  0.42585818616E+03  0.00000000000E+00 0.  1.
         21   -1    0    0  501  503 -0.00000000000E+00 -0.00000000000E+00 -0.13126447570E+03  0.13126447570E+03  0.00000000000E+00 0.  1.
          6    1    1    2  501    0 -0.82013041763E+02  0.44711097508E+01 -0.17522901397E+02  0.19140841652E+03  0.17200000000E+03 0.  1.
         -6    1    1    2    0  502  0.82013041763E+02 -0.44711097508E+01  0.31211661186E+03  0.36571424533E+03  0.17200000000E+03 0.  1.
</event>
<event>
 4    1  0.5818436E+000  0.2047791E+03  0.7818608E-02  0.1145768E+00
         21   -1    0    0  503  502  0.00000000000E+00  0.00000000000E+00  0.78775430351E+02  0.78775430351E+02  0.00000000000E+00 0.  1.
         21   -1    0    0  501  503 -0.00000000000E+00 -0.00000000000E+00 -0.57240674953E+03  0.57240674953E+03  0.00000000000E+00 0.  1.
          6    1    1    2  501    0  0.72077902224E+02 -0.84588769794E+02 -0.33296841958E+03  0.39089954260E+03  0.17200000000E+03 0. -1.
         -6    1    1    2    0  502 -0.72077902224E+02  0.84588769794E+02 -0.16066289960E+03  0.26028263728E+03  0.17200000000E+03 0. -1.
</event>
<event>
 4    1  0.5818436E+000  0.1772712E+03  0.7818608E-02  0.1170470E+00
         21   -1    0    0  503  502  0.00000000000E+00  0.00000000000E+00  0.40257870784E+02  0.40257870784E+02  0.00000000000E+00 0. -1.
         21   -1    0    0  501  503 -0.00000000000E+00 -0.00000000000E+00 -0.79892589205E+03  0.79892589205E+03  0.00000000000E+00 0. -1.
          6    1    1    2  501    0 -0.70551463328E+01  0.42323863093E+02 -0.44289169000E+03  0.47705149989E+03  0.17200000000E+03 0. -1.
         -6    1    1    2    0  502  0.70551463328E+01 -0.42323863093E+02 -0.31577633127E+03  0.36213226295E+03  0.17200000000E+03 0. -1.
</event>
<event>
 4    1  0.5818436E+000  0.2417597E+03  0.7818608E-02  0.1118626E+00
         21   -1    0    0  503  502  0.00000000000E+00  0.00000000000E+00  0.30740583434E+03  0.30740583434E+03  0.00000000000E+00 0. -1.
         21   -1    0    0  501  503 -0.00000000000E+00 -0.00000000000E+00 -0.67935824095E+03  0.67935824095E+03  0.00000000000E+00 0. -1.
          6    1    1    2  501    0 -0.14269675116E+03 -0.92202910225E+02 -0.60466245955E+03  0.65120229532E+03  0.17200000000E+03 0. -1.
         -6    1    1    2    0  502  0.14269675116E+03  0.92202910225E+02  0.23271005293E+03  0.33556177998E+03  0.17200000000E+03 0. -1.
</event>
<event>
 4    1  0.5818436E+000  0.1953395E+03  0.7818608E-02  0.1153732E+00
         21   -1    0    0  503  502  0.00000000000E+00  0.00000000000E+00  0.53414791736E+02  0.53414791736E+02  0.00000000000E+00 0.  1.
         21   -1    0    0  501  503 -0.00000000000E+00 -0.00000000000E+00 -0.97329235955E+03  0.97329235955E+03  0.00000000000E+00 0. -1.
          6    1    1    2  501    0 -0.80018748086E+02  0.46588790698E+02 -0.72471936974E+03  0.75058355987E+03  0.17200000000E+03 0.  1.
         -6    1    1    2    0  502  0.80018748086E+02 -0.46588790698E+02 -0.19515819807E+03  0.27612359142E+03  0.17200000000E+03 0.  1.
</event>
<event>
 4    1  0.5818436E+000  0.1948218E+03  0.7818608E-02  0.1154183E+00
         21   -1    0    0  501  502  0.00000000000E+00  0.00000000000E+00  0.10718619653E+04  0.10718619653E+04  0.00000000000E+00 0.  1.
         21   -1    0    0  502  503 -0.00000000000E+00 -0.00000000000E+00 -0.90239428620E+02  0.90239428620E+02  0.00000000000E+00 0.  1.
          6    1    1    2  501    0  0.43957047853E+02 -0.80245230046E+02  0.94372912292E+03  0.96362865070E+03  0.17200000000E+03 0.  1.
         -6    1    1    2    0  503 -0.43957047853E+02  0.80245230046E+02  0.37893413779E+02  0.19847274324E+03  0.17200000000E+03 0.  1.
</event>
<event>
 4    1  0.5818436E+000  0.2117087E+03  0.7818608E-02  0.1140220E+00
         21   -1    0    0  501  502  0.00000000000E+00  0.00000000000E+00  0.24683894412E+03  0.24683894412E+03  0.00000000000E+00 0. -1.
         21   -1    0    0  502  503 -0.00000000000E+00 -0.00000000000E+00 -0.40786976828E+03  0.40786976828E+03  0.00000000000E+00 0. -1.
          6    1    1    2  501    0 -0.56117750565E+02 -0.10994263916E+03 -0.32434785825E+03  0.38732688905E+03  0.17200000000E+03 0. -1.
         -6    1    1    2    0  503  0.56117750565E+02  0.10994263916E+03  0.16331703408E+03  0.26738182334E+03  0.17200000000E+03 0. -1.
</event>
<event>
 4    1  0.5818436E+000  0.2824443E+03  0.7818608E-02  0.1094361E+00
         21   -1    0    0  501  502  0.00000000000E+00  0.00000000000E+00  0.10823763572E+04  0.10823763572E+04  0.00000000000E+00 0.  1.
         21   -1    0    0  502  503 -0.00000000000E+00 -0.00000000000E+00 -0.76478510870E+02  0.76478510870E+02  0.00000000000E+00 0. -1.
          6    1    1    2  501    0 -0.19399604139E+03 -0.11205493887E+03  0.61332442897E+03  0.67523449895E+03  0.17200000000E+03 0.  1.
         -6    1    1    2    0  503  0.19399604139E+03  0.11205493887E+03  0.39257341732E+03  0.48362036908E+03  0.17200000000E+03 0. -1.
</event>
<event>
 4    1  0.5818436E+000  0.2604714E+03  0.7818608E-02  0.1106860E+00
         21   -1    0    0  501  502  0.00000000000E+00  0.00000000000E+00  0.94031202922E+02  0.94031202922E+02  0.00000000000E+00 0.  1.
         21   -1    0    0  502  503 -0.00000000000E+00 -0.00000000000E+00 -0.89009638863E+03  0.89009638863E+03  0.00000000000E+00 0.  1.
          6    1    1    2  501    0 -0.18878044743E+03  0.51218217820E+02 -0.18389067799E+03  0.31884344845E+03  0.17200000000E+03 0.  1.
         -6    1    1    2    0  503  0.18878044743E+03 -0.51218217820E+02 -0.61217450772E+03  0.66528414310E+03  0.17200000000E+03 0.  1.
</event>
<event>
 4    1  0.5818436E+000  0.2515661E+03  0.7818608E-02  0.1112319E+00
         21   -1    0    0  501  502  0.00000000000E+00  0.00000000000E+00  0.85232764755E+02  0.85232764755E+02  0.00000000000E+00 0.  1.
         21   -1    0    0  502  503 -0.00000000000E+00 -0.00000000000E+00 -0.78717565317E+03  0.78717565317E+03  0.00000000000E+00 0.  1.
          6    1    1    2  501    0 -0.34580969283E+02 -0.18029327365E+03 -0.45488667538E+03  0.51981477028E+03  0.17200000000E+03 0.  1.
         -6    1    1    2    0  503  0.34580969283E+02  0.18029327365E+03 -0.24705621304E+03  0.35259364765E+03  0.17200000000E+03 0.  1.
</event>
<event>
 4    1  0.5818436E+000  0.1830590E+03  0.7818608E-02  0.1164875E+00
         21   -1    0    0  501  502  0.00000000000E+00  0.00000000000E+00  0.42783690747E+03  0.42783690747E+03  0.00000000000E+00 0.  1.
         21   -1    0    0  502  503 -0.00000000000E+00 -0.00000000000E+00 -0.92748858570E+02  0.92748858570E+02  0.00000000000E+00 0. -1.
          6    1    1    2  501    0 -0.49660473503E+02 -0.38215477667E+02  0.27018945014E+03  0.32636317857E+03  0.17200000000E+03 0.  1.
         -6    1    1    2    0  503  0.49660473503E+02  0.38215477667E+02  0.64898598765E+02  0.19422258747E+03  0.17200000000E+03 0. -1.
</event>
<event>
 4    1  0.5818436E+000  0.2017408E+03  0.7818608E-02  0.1148279E+00
         21   -1    0    0  501  502  0.00000000000E+00  0.00000000000E+00  0.10114241054E+04  0.10114241054E+04  0.00000000000E+00 0.  1.
         21   -1    0    0  502  503 -0.00000000000E+00 -0.00000000000E+00 -0.45712792292E+02  0.45712792292E+02  0.00000000000E+00 0.  1.
          6    1    1    2  501    0 -0.77691623045E+02 -0.71269594324E+02  0.66575033486E+03  0.69564563661E+03  0.17200000000E+03 0. -1.
         -6    1    1    2    0  503  0.77691623045E+02  0.71269594324E+02  0.29996097823E+03  0.36149126107E+03  0.17200000000E+03 0. -1.
</event>
<event>
 4    1  0.5818436E+000  0.2735502E+03  0.7818608E-02  0.1099265E+00
         21   -1    0    0  501  502  0.00000000000E+00  0.00000000000E+00  0.58554349334E+03  0.58554349334E+03  0.00000000000E+00 0. -1.
         21   -1    0    0  502  503 -0.00000000000E+00 -0.00000000000E+00 -0.13278894683E+03  0.13278894683E+03  0.00000000000E+00 0. -1.
          6    1    1    2  501    0  0.21270348808E+03  0.17134512101E+01  0.29602760400E+03  0.40306581608E+03  0.17200000000E+03 0. -1.
         -6    1    1    2    0  503 -0.21270348808E+03 -0.17134512101E+01  0.15672694251E+03  0.31526662409E+03  0.17200000000E+03 0. -1.
</event>
<event>
 4    1  0.5818436E+000  0.1892336E+03  0.7818608E-02  0.1159154E+00
         21   -1    0    0  503  502  0.00000000000E+00  0.00000000000E+00  0.40141264510E+03  0.40141264510E+03  0.00000000000E+00 0.  1.
         21   -1    0    0  501  503 -0.00000000000E+00 -0.00000000000E+00 -0.27926352400E+03  0.27926352400E+03  0.00000000000E+00 0.  1.
          6    1    1    2  501    0 -0.65722944514E+02  0.43655843406E+02 -0.21969068868E+03  0.28995402531E+03  0.17200000000E+03 0.  1.
         -6    1    1    2    0  502  0.65722944514E+02 -0.43655843406E+02  0.34183980978E+03  0.39072214379E+03  0.17200000000E+03 0.  1.
</event>
<event>
 4    1  0.5818436E+000  0.1897176E+03  0.7818608E-02  0.1158716E+00
         21   -1    0    0  503  502  0.00000000000E+00  0.00000000000E+00  0.81172725249E+03  0.81172725249E+03  0.00000000000E+00 0.  1.
         21   -1    0    0  501  503 -0.00000000000E+00 -0.00000000000E+00 -0.45503334127E+02  0.45503334127E+02  0.00000000000E+00 0.  1.
          6    1    1    2  501    0 -0.54473753844E+01  0.79869111616E+02  0.31460686400E+03  0.36738294431E+03  0.17200000000E+03 0. -1.
         -6    1    1    2    0  502  0.54473753844E+01 -0.79869111616E+02  0.45161705436E+03  0.48984764231E+03  0.17200000000E+03 0. -1.
</event>
<event>
 4    1  0.5818436E+000  0.2872490E+03  0.7818608E-02  0.1091794E+00
         21   -1    0    0  503  502  0.00000000000E+00  0.00000000000E+00  0.31692182095E+03  0.31692182095E+03  0.00000000000E+00 0.  1.
         21   -1    0    0  501  503 -0.00000000000E+00 -0.00000000000E+00 -0.28686206381E+03  0.28686206381E+03  0.00000000000E+00 0. -1.
          6    1    1    2  501    0  0.22763469560E+03 -0.33323405704E+02 -0.76740038911E+02  0.29732311982E+03  0.17200000000E+03 0. -1.
         -6    1    1    2    0  502 -0.22763469560E+03  0.33323405704E+02  0.10679979605E+03  0.30646076494E+03  0.17200000000E+03 0. -1.
</event>
<event>
 4    1  0.5818436E+000  0.3448111E+03  0.7818608E-02  0.1064765E+00
         21   -1    0    0  501  502  0.00000000000E+00  0.00000000000E+00  0.26411581448E+03  0.26411581448E+03  0.00000000000E+00 0. -1.
         21   -1    0    0  502  503 -0.00000000000E+00 -0.00000000000E+00 -0.48298503014E+03  0.48298503014E+03  0.00000000000E+00 0. -1.
          6    1    1    2  501    0  0.29770749286E+03  0.26095211826E+02 -0.12053090090E+02  0.34502172158E+03  0.17200000000E+03 0. -1.
         -6    1    1    2    0  503 -0.29770749286E+03 -0.26095211826E+02 -0.20681612556E+03  0.40207912303E+03  0.17200000000E+03 0. -1.
</event>
<event>
 4    1  0.5818436E+000  0.4008866E+03  0.7818608E-02  0.1043473E+00
         21   -1    0    0  503  502  0.00000000000E+00  0.00000000000E+00  0.36010563402E+03  0.36010563402E+03  0.00000000000E+00 0.  1.
         21   -1    0    0  501  503 -0.00000000000E+00 -0.00000000000E+00 -0.71494723543E+03  0.71494723543E+03  0.00000000000E+00 0. -1.
          6    1    1    2  501    0 -0.67871373720E+02  0.35569588376E+03 -0.50692835477E+03  0.64628665618E+03  0.17200000000E+03 0. -1.
         -6    1    1    2    0  502  0.67871373720E+02 -0.35569588376E+03  0.15208675336E+03  0.42876621327E+03  0.17200000000E+03 0.  1.
</event>
<event>
 4    1  0.5818436E+000  0.2060338E+03  0.7818608E-02  0.1144746E+00
         21   -1    0    0  501  502  0.00000000000E+00  0.00000000000E+00  0.70575017030E+02  0.70575017030E+02  0.00000000000E+00 0.  1.
         21   -1    0    0  502  503 -0.00000000000E+00 -0.00000000000E+00 -0.12668311354E+04  0.12668311354E+04  0.00000000000E+00 0. -1.
          6    1    1    2  501    0  0.29917371940E+02 -0.10941147493E+03 -0.11351257488E+03  0.23523397851E+03  0.17200000000E+03 0.  1.
         -6    1    1    2    0  503 -0.29917371940E+02  0.10941147493E+03 -0.10827435435E+04  0.11021721739E+04  0.17200000000E+03 0. -1.
</event>
<event>
 4    1  0.5818436E+000  0.1855629E+03  0.7818608E-02  0.1162525E+00
         21   -1    0    0  503  502  0.00000000000E+00  0.00000000000E+00  0.42512276154E+03  0.42512276154E+03  0.00000000000E+00 0.  1.
         21   -1    0    0  501  503 -0.00000000000E+00 -0.00000000000E+00 -0.10077465737E+03  0.10077465737E+03  0.00000000000E+00 0.  1.
          6    1    1    2  501    0  0.63171665538E+02 -0.29307377698E+02  0.45685019225E+02  0.19110390550E+03  0.17200000000E+03 0.  1.
         -6    1    1    2    0  502 -0.63171665538E+02  0.29307377698E+02  0.27866308495E+03  0.33479351342E+03  0.17200000000E+03 0.  1.
</event>
<event>
 4    1  0.5818436E+000  0.3512346E+03  0.7818608E-02  0.1062109E+00
         21   -1    0    0  503  502  0.00000000000E+00  0.00000000000E+00  0.39834674812E+03  0.39834674812E+03  0.00000000000E+00 0. -1.
         21   -1    0    0  501  503 -0.00000000000E+00 -0.00000000000E+00 -0.32303008955E+03  0.32303008955E+03  0.00000000000E+00 0.  1.
          6    1    1    2  501    0 -0.51613380829E+02  0.30185727319E+03 -0.35627255436E+02  0.35303690429E+03  0.17200000000E+03 0.  1.
         -6    1    1    2    0  502  0.51613380829E+02 -0.30185727319E+03  0.11094391401E+03  0.36833993337E+03  0.17200000000E+03 0. -1.
</event>
<event>
 4    1  0.5818436E+000  0.3293364E+03  0.7818608E-02  0.1071431E+00
         21   -1    0    0  501  502  0.00000000000E+00  0.00000000000E+00  0.23340307274E+03  0.23340307274E+03  0.00000000000E+00 0. -1.
         21   -1    0    0  502  503 -0.00000000000E+00 -0.00000000000E+00 -0.50100933536E+03  0.50100933536E+03  0.00000000000E+00 0.  1.
          6    1    1    2  501    0  0.17581485726E+03 -0.21901500371E+03 -0.34948838489E+02  0.33118553289E+03  0.17200000000E+03 0. -1.
         -6    1    1    2    0  503 -0.17581485726E+03  0.21901500371E+03 -0.23265742413E+03  0.40322687520E+03  0.17200000000E+03 0.  1.
</event>
<event>
 4    1  0.5818436E+000  0.2292508E+03  0.7818608E-02  0.1127168E+00
         21   -1    0    0  503  502  0.00000000000E+00  0.00000000000E+00  0.44374573469E+03  0.44374573469E+03  0.00000000000E+00 0.  1.
         21   -1    0    0  501  503 -0.00000000000E+00 -0.00000000000E+00 -0.18454233324E+03  0.18454233324E+03  0.00000000000E+00 0.  1.
          6    1    1    2  501    0 -0.14517758948E+03 -0.43536293446E+02 -0.58416051624E+02  0.23657636488E+03  0.17200000000E+03 0.  1.
         -6    1    1    2    0  502  0.14517758948E+03  0.43536293446E+02  0.31761945308E+03  0.39171170305E+03  0.17200000000E+03 0.  1.
</event>
<event>
 4    1  0.5818436E+000  0.2897257E+03  0.7818608E-02  0.1090492E+00
         21   -1    0    0  503  502  0.00000000000E+00  0.00000000000E+00  0.48159189598E+03  0.48159189598E+03  0.00000000000E+00 0.  1.
         21   -1    0    0  501  503 -0.00000000000E+00 -0.00000000000E+00 -0.26821842232E+03  0.26821842232E+03  0.00000000000E+00 0. -1.
          6    1    1    2  501    0 -0.16120010279E+03  0.16843847945E+03 -0.11516088627E+03  0.31177399543E+03  0.17200000000E+03 0. -1.
         -6    1    1    2    0  502  0.16120010279E+03 -0.16843847945E+03  0.32853435993E+03  0.43803632287E+03  0.17200000000E+03 0.  1.
</event>
<event>
 4    1  0.5818436E+000  0.2207227E+03  0.7818608E-02  0.1133345E+00
         21   -1    0    0  501  502  0.00000000000E+00  0.00000000000E+00  0.26390165105E+04  0.26390165105E+04  0.00000000000E+00 0. -1.
         21   -1    0    0  502  503 -0.00000000000E+00 -0.00000000000E+00 -0.58820516437E+02  0.58820516437E+02  0.00000000000E+00 0. -1.
          6    1    1    2  501    0  0.92345722323E+02  0.10298927046E+03  0.24074628666E+04  0.24175599219E+04  0.17200000000E+03 0. -1.
         -6    1    1    2    0  503 -0.92345722323E+02 -0.10298927046E+03  0.17273312754E+03  0.28027710504E+03  0.17200000000E+03 0. -1.
</event>
<event>
 4    1  0.5818436E+000  0.1933252E+03  0.7818608E-02  0.1155496E+00
         21   -1    0    0  501  502  0.00000000000E+00  0.00000000000E+00  0.74992592667E+02  0.74992592667E+02  0.00000000000E+00 0. -1.
         21   -1    0    0  502  503 -0.00000000000E+00 -0.00000000000E+00 -0.13951279206E+04  0.13951279206E+04  0.00000000000E+00 0. -1.
          6    1    1    2  501    0  0.34354199310E+02  0.81304423228E+02 -0.70746927114E+02  0.20586342060E+03  0.17200000000E+03 0. -1.
         -6    1    1    2    0  503 -0.34354199310E+02 -0.81304423228E+02 -0.12493884009E+04  0.12642570927E+04  0.17200000000E+03 0. -1.
</event>
<event>
 4    1  0.5818436E+000  0.1996121E+03  0.7818608E-02  0.1150067E+00
         21   -1    0    0  503  502  0.00000000000E+00  0.00000000000E+00  0.58784844914E+03  0.58784844914E+03  0.00000000000E+00 0. -1.
         21   -1    0    0  501  503 -0.00000000000E+00 -0.00000000000E+00 -0.67781075625E+02  0.67781075625E+02  0.00000000000E+00 0. -1.
          6    1    1    2  501    0 -0.10128568433E+03  0.14864756171E+01  0.25998938794E+03  0.32777962307E+03  0.17200000000E+03 0. -1.
         -6    1    1    2    0  502  0.10128568433E+03 -0.14864756171E+01  0.26007798557E+03  0.32784990169E+03  0.17200000000E+03 0. -1.
</event>
<event>
 4    1  0.5818436E+000  0.1968316E+03  0.7818608E-02  0.1152440E+00
         21   -1    0    0  503  502  0.00000000000E+00  0.00000000000E+00  0.14847390873E+04  0.14847390873E+04  0.00000000000E+00 0. -1.
         21   -1    0    0  501  503 -0.00000000000E+00 -0.00000000000E+00 -0.27657501289E+02  0.27657501289E+02  0.00000000000E+00 0. -1.
          6    1    1    2  501    0  0.37478216331E+02  0.88057170578E+02  0.54874162588E+03  0.58297517440E+03  0.17200000000E+03 0. -1.
         -6    1    1    2    0  502 -0.37478216331E+02 -0.88057170578E+02  0.90833996015E+03  0.92942141421E+03  0.17200000000E+03 0. -1.
</event>
<event>
 4    1  0.5818436E+000  0.2275366E+03  0.7818608E-02  0.1128386E+00
         21   -1    0    0  501  502  0.00000000000E+00  0.00000000000E+00  0.65371036756E+03  0.65371036756E+03  0.00000000000E+00 0.  1.
         21   -1    0    0  502  503 -0.00000000000E+00 -0.00000000000E+00 -0.80904791759E+02  0.80904791759E+02  0.00000000000E+00 0.  1.
          6    1    1    2  501    0  0.34463136189E+02 -0.14491784307E+03  0.33974460056E+03  0.40890008878E+03  0.17200000000E+03 0.  1.
         -6    1    1    2    0  503 -0.34463136189E+02  0.14491784307E+03  0.23306097524E+03  0.32571507054E+03  0.17200000000E+03 0.  1.
</event>
<event>
 4    1  0.5818436E+000  0.1921689E+03  0.7818608E-02  0.1156520E+00
         21   -1    0    0  503  502  0.00000000000E+00  0.00000000000E+00  0.16401140342E+03  0.16401140342E+03  0.00000000000E+00 0. -1.
         21   -1    0    0  501  503 -0.00000000000E+00 -0.00000000000E+00 -0.22529000030E+03  0.22529000030E+03  0.00000000000E+00 0. -1.
          6    1    1    2  501    0 -0.18329641960E+02  0.83719177866E+02 -0.25971048363E+02  0.19391588865E+03  0.17200000000E+03 0. -1.
         -6    1    1    2    0  502  0.18329641960E+02 -0.83719177866E+02 -0.35307548512E+02  0.19538551507E+03  0.17200000000E+03 0. -1.
</event>
<event>
 4    1  0.5818436E+000  0.2098751E+03  0.7818608E-02  0.1141665E+00
         21   -1    0    0  501  502  0.00000000000E+00  0.00000000000E+00  0.82610006498E+02  0.82610006498E+02  0.00000000000E+00 0. -1.
         21   -1    0    0  502  503 -0.00000000000E+00 -0.00000000000E+00 -0.56266932240E+03  0.56266932240E+03  0.00000000000E+00 0. -1.
          6    1    1    2  501    0  0.10948541339E+03 -0.49764326043E+02 -0.16619059691E+03  0.26770666483E+03  0.17200000000E+03 0. -1.
         -6    1    1    2    0  503 -0.10948541339E+03  0.49764326043E+02 -0.31386871899E+03  0.37757266407E+03  0.17200000000E+03 0. -1.
</event>
