<event>
 4    1 -0.3291270E-004  0.1897314E+03  0.7818608E-02  0.1158704E+00
         -5   -1    0    0    0  501 -0.00000000000E+00  0.00000000000E+00  0.38618885410E+02  0.38903834133E+02  0.47000000000E+01 0.  1.
          5   -1    0    0  501    0  0.00000000000E+00 -0.00000000000E+00 -0.97878245706E+03  0.97879374142E+03  0.47000000000E+01 0. -1.
          6    1    1    2  502    0 -0.62611591618E+02 -0.49937969316E+02 -0.58549163503E+03  0.61546605663E+03  0.17200000000E+03 0. -1.
         -6    1    1    2    0  502  0.62611591618E+02  0.49937969316E+02 -0.35467193662E+03  0.40223151892E+03  0.17200000000E+03 0. -1.
</event>
<event>
 4    1 -0.3291270E-004  0.2182884E+03  0.7818608E-02  0.1135166E+00
          5   -1    0    0  501    0  0.00000000000E+00  0.00000000000E+00  0.10349945475E+03  0.10360611533E+03  0.47000000000E+01 0. -1.
         -5   -1    0    0    0  501 -0.00000000000E+00 -0.00000000000E+00 -0.10437457018E+04  0.10437562838E+04  0.47000000000E+01 0.  1.
          6    1    1    2  502    0  0.48601351158E+02 -0.12531445805E+03 -0.41132593276E+02  0.22212990560E+03  0.17200000000E+03 0. -1.
         -6    1    1    2    0  502 -0.48601351158E+02  0.12531445805E+03 -0.89911365375E+03  0.92523249353E+03  0.17200000000E+03 0.  1.
</event>
<event>
 4    1 -0.3291270E-004  0.1733514E+03  0.7818608E-02  0.1174397E+00
          5   -1    0    0  501    0  0.00000000000E+00  0.00000000000E+00  0.17720609365E+03  0.17726841125E+03  0.47000000000E+01 0. -1.
         -5   -1    0    0    0  501 -0.00000000000E+00 -0.00000000000E+00 -0.19148543176E+03  0.19154310370E+03  0.47000000000E+01 0.  1.
          6    1    1    2  502    0  0.56827441807E+01  0.20842623436E+02  0.55387610108E+02  0.18198487818E+03  0.17200000000E+03 0. -1.
         -6    1    1    2    0  502 -0.56827441807E+01 -0.20842623436E+02 -0.69666948221E+02  0.18682663677E+03  0.17200000000E+03 0.  1.
</event>
<event>
 4    1 -0.3291270E-004  0.4719650E+03  0.7818608E-02  0.1021367E+00
         -5   -1    0    0    0  501 -0.00000000000E+00  0.00000000000E+00  0.24741310386E+03  0.24745774176E+03  0.47000000000E+01 0.  1.
          5   -1    0    0  501    0  0.00000000000E+00 -0.00000000000E+00 -0.99578699430E+03  0.99579808597E+03  0.47000000000E+01 0. -1.
          6    1    1    2  502    0  0.32911331742E+03 -0.29129256269E+03 -0.56678944845E+03  0.73756437797E+03  0.17200000000E+03 0. -1.
         -6    1    1    2    0  502 -0.32911331742E+03  0.29129256269E+03 -0.18158444200E+03  0.50569144976E+03  0.17200000000E+03 0.  1.
</event>
<event>
 4    1 -0.3291270E-004  0.2067112E+03  0.7818608E-02  0.1144197E+00
         -5   -1    0    0    0  501 -0.00000000000E+00  0.00000000000E+00  0.40028571010E+02  0.40303554398E+02  0.47000000000E+01 0.  1.
          5   -1    0    0  501    0  0.00000000000E+00 -0.00000000000E+00 -0.10711502309E+04  0.10711605422E+04  0.47000000000E+01 0. -1.
          6    1    1    2  502    0 -0.10902198002E+03 -0.35492658197E+02 -0.56239298703E+03  0.59917893219E+03  0.17200000000E+03 0. -1.
         -6    1    1    2    0  502  0.10902198002E+03  0.35492658197E+02 -0.46872867284E+03  0.51228516439E+03  0.17200000000E+03 0.  1.
</event>
<event>
 4    1 -0.3291270E-004  0.1726001E+03  0.7818608E-02  0.1175163E+00
          5   -1    0    0  501    0  0.00000000000E+00  0.00000000000E+00  0.19439258512E+03  0.19444939483E+03  0.47000000000E+01 0. -1.
         -5   -1    0    0    0  501 -0.00000000000E+00 -0.00000000000E+00 -0.38557626488E+03  0.38560490926E+03  0.47000000000E+01 0.  1.
          6    1    1    2  502    0 -0.90643702912E+01 -0.11163356003E+02  0.12956203770E+03  0.21581729527E+03  0.17200000000E+03 0. -1.
         -6    1    1    2    0  502  0.90643702912E+01  0.11163356003E+02 -0.32074571746E+03  0.36423700882E+03  0.17200000000E+03 0.  1.
</event>
<event>
 4    1 -0.3291270E-004  0.2966117E+03  0.7818608E-02  0.1086947E+00
         -5   -1    0    0    0  501 -0.00000000000E+00  0.00000000000E+00  0.71457018602E+02  0.71611420230E+02  0.47000000000E+01 0.  1.
          5   -1    0    0  501    0  0.00000000000E+00 -0.00000000000E+00 -0.12397887607E+04  0.12397976694E+04  0.47000000000E+01 0. -1.
          6    1    1    2  502    0 -0.16166021259E+03  0.17961196380E+03 -0.52508088052E+03  0.60306584464E+03  0.17200000000E+03 0.  1.
         -6    1    1    2    0  502  0.16166021259E+03 -0.17961196380E+03 -0.64325086157E+03  0.70834324503E+03  0.17200000000E+03 0.  1.
</event>
<event>
 4    1 -0.3291270E-004  0.2243124E+03  0.7818608E-02  0.1130708E+00
         -5   -1    0    0    0  501 -0.00000000000E+00  0.00000000000E+00  0.25054371523E+03  0.25058779547E+03  0.47000000000E+01 0.  1.
          5   -1    0    0  501    0  0.00000000000E+00 -0.00000000000E+00 -0.25123466630E+03  0.25127862534E+03  0.47000000000E+01 0. -1.
          6    1    1    2  502    0 -0.93051855006E+02 -0.10987900763E+03 -0.11282363642E+03  0.25108806617E+03  0.17200000000E+03 0. -1.
         -6    1    1    2    0  502  0.93051855006E+02  0.10987900763E+03  0.11213268534E+03  0.25077835465E+03  0.17200000000E+03 0.  1.
</event>
<event>
 4    1 -0.3291270E-004  0.1729555E+03  0.7818608E-02  0.1174800E+00
         -5   -1    0    0    0  501 -0.00000000000E+00  0.00000000000E+00  0.19119591245E+03  0.19125367170E+03  0.47000000000E+01 0.  1.
          5   -1    0    0  501    0  0.00000000000E+00 -0.00000000000E+00 -0.15741418294E+03  0.15748433252E+03  0.47000000000E+01 0. -1.
          6    1    1    2  502    0 -0.16660627484E+02 -0.72133785557E+01  0.31298714417E+02  0.17576466898E+03  0.17200000000E+03 0. -1.
         -6    1    1    2    0  502  0.16660627484E+02  0.72133785557E+01  0.24830150956E+01  0.17297333523E+03  0.17200000000E+03 0. -1.
</event>
<event>
 4    1 -0.3291270E-004  0.2152616E+03  0.7818608E-02  0.1137466E+00
         -5   -1    0    0    0  501 -0.00000000000E+00  0.00000000000E+00  0.22577773601E+03  0.22582665050E+03  0.47000000000E+01 0.  1.
          5   -1    0    0  501    0  0.00000000000E+00 -0.00000000000E+00 -0.20641986984E+03  0.20647337035E+03  0.47000000000E+01 0. -1.
          6    1    1    2  502    0  0.61877459805E+02  0.11368706433E+03  0.26712970794E+02  0.21691277380E+03  0.17200000000E+03 0. -1.
         -6    1    1    2    0  502 -0.61877459805E+02 -0.11368706433E+03 -0.73551046297E+01  0.21538724705E+03  0.17200000000E+03 0.  1.
</event>
<event>
 4    1 -0.3291270E-004  0.2071428E+03  0.7818608E-02  0.1143849E+00
          5   -1    0    0  501    0  0.00000000000E+00  0.00000000000E+00  0.38918333146E+03  0.38921171036E+03  0.47000000000E+01 0. -1.
         -5   -1    0    0    0  501 -0.00000000000E+00 -0.00000000000E+00 -0.15606032347E+03  0.15613108134E+03  0.47000000000E+01 0.  1.
          6    1    1    2  502    0  0.37283812471E+02  0.10924318126E+03  0.26436983912E+03  0.33585646809E+03  0.17200000000E+03 0. -1.
         -6    1    1    2    0  502 -0.37283812471E+02 -0.10924318126E+03 -0.31246831133E+02  0.20948632361E+03  0.17200000000E+03 0.  1.
</event>
<event>
 4    1 -0.3291270E-004  0.2929157E+03  0.7818608E-02  0.1088837E+00
          5   -1    0    0  501    0  0.00000000000E+00  0.00000000000E+00  0.25610675433E+03  0.25614987725E+03  0.47000000000E+01 0. -1.
         -5   -1    0    0    0  501 -0.00000000000E+00 -0.00000000000E+00 -0.34923189995E+03  0.34926352507E+03  0.47000000000E+01 0.  1.
          6    1    1    2  502    0 -0.21510217108E+03 -0.99733079963E+02 -0.10781963798E+03  0.31212930907E+03  0.17200000000E+03 0. -1.
         -6    1    1    2    0  502  0.21510217108E+03  0.99733079963E+02  0.14694492364E+02  0.29328409324E+03  0.17200000000E+03 0.  1.
</event>
<event>
 4    1 -0.3291270E-004  0.1822630E+03  0.7818608E-02  0.1165631E+00
          5   -1    0    0  501    0  0.00000000000E+00  0.00000000000E+00  0.38069062869E+03  0.38071964064E+03  0.47000000000E+01 0. -1.
         -5   -1    0    0    0  501 -0.00000000000E+00 -0.00000000000E+00 -0.88791830385E+02  0.88916135449E+02  0.47000000000E+01 0.  1.
          6    1    1    2  502    0  0.34026032177E+02  0.49779653920E+02  0.17769417436E+03  0.25454862878E+03  0.17200000000E+03 0.  1.
         -6    1    1    2    0  502 -0.34026032177E+02 -0.49779653920E+02  0.11420462394E+03  0.21508714731E+03  0.17200000000E+03 0.  1.
</event>
<event>
 4    1 -0.3291270E-004  0.1793276E+03  0.7818608E-02  0.1168455E+00
          5   -1    0    0  501    0  0.00000000000E+00  0.00000000000E+00  0.44484516416E+02  0.44732115988E+02  0.47000000000E+01 0. -1.
         -5   -1    0    0    0  501 -0.00000000000E+00 -0.00000000000E+00 -0.72981200269E+03  0.72982713656E+03  0.47000000000E+01 0.  1.
          6    1    1    2  502    0  0.35659648850E+02 -0.36093799782E+02 -0.29927919773E+03  0.34889312279E+03  0.17200000000E+03 0. -1.
         -6    1    1    2    0  502 -0.35659648850E+02  0.36093799782E+02 -0.38604828854E+03  0.42566612976E+03  0.17200000000E+03 0.  1.
</event>
<event>
 4    1 -0.3291270E-004  0.2063818E+03  0.7818608E-02  0.1144464E+00
          5   -1    0    0  501    0  0.00000000000E+00  0.00000000000E+00  0.66879893777E+03  0.66881545224E+03  0.47000000000E+01 0. -1.
         -5   -1    0    0    0  501 -0.00000000000E+00 -0.00000000000E+00 -0.17529312892E+03  0.17535612635E+03  0.47000000000E+01 0.  1.
          6    1    1    2  502    0  0.79115532091E+02  0.82159377193E+02  0.58357364939E+03  0.61899243529E+03  0.17200000000E+03 0. -1.
         -6    1    1    2    0  502 -0.79115532091E+02 -0.82159377193E+02 -0.90067840545E+02  0.22517914330E+03  0.17200000000E+03 0.  1.
</event>
<event>
 4    1 -0.3291270E-004  0.1970222E+03  0.7818608E-02  0.1152276E+00
         -5   -1    0    0    0  501 -0.00000000000E+00  0.00000000000E+00  0.61007530513E+02  0.61188305903E+02  0.47000000000E+01 0.  1.
          5   -1    0    0  501    0  0.00000000000E+00 -0.00000000000E+00 -0.85054727809E+03  0.85056026374E+03  0.47000000000E+01 0. -1.
          6    1    1    2  502    0 -0.29539981329E+02  0.91439219878E+02 -0.62415691685E+03  0.65451478080E+03  0.17200000000E+03 0. -1.
         -6    1    1    2    0  502  0.29539981329E+02 -0.91439219878E+02 -0.16538283072E+03  0.25723378885E+03  0.17200000000E+03 0.  1.
</event>
<event>
 4    1 -0.3291270E-004  0.1927202E+03  0.7818608E-02  0.1156031E+00
         -5   -1    0    0    0  501 -0.00000000000E+00  0.00000000000E+00  0.38376175495E+03  0.38379053474E+03  0.47000000000E+01 0.  1.
          5   -1    0    0  501    0  0.00000000000E+00 -0.00000000000E+00 -0.14392007878E+03  0.14399680231E+03  0.47000000000E+01 0. -1.
          6    1    1    2  502    0  0.51963110996E+02 -0.69691564630E+02 -0.31184747749E+02  0.19522696427E+03  0.17200000000E+03 0. -1.
         -6    1    1    2    0  502 -0.51963110996E+02  0.69691564630E+02  0.27102642392E+03  0.33256037278E+03  0.17200000000E+03 0.  1.
</event>
<event>
 4    1 -0.3291270E-004  0.2014717E+03  0.7818608E-02  0.1148503E+00
          5   -1    0    0  501    0  0.00000000000E+00  0.00000000000E+00  0.24558062883E+03  0.24562559976E+03  0.47000000000E+01 0. -1.
         -5   -1    0    0    0  501 -0.00000000000E+00 -0.00000000000E+00 -0.21179992423E+03  0.21185206608E+03  0.47000000000E+01 0.  1.
          6    1    1    2  502    0  0.10472412285E+03 -0.62999970034E+01  0.12416609948E+03  0.23666020394E+03  0.17200000000E+03 0. -1.
         -6    1    1    2    0  502 -0.10472412285E+03  0.62999970034E+01 -0.90385394879E+02  0.22081746189E+03  0.17200000000E+03 0.  1.
</event>
<event>
 4    1 -0.3291270E-004  0.5346866E+03  0.7818608E-02  0.1005102E+00
          5   -1    0    0  501    0  0.00000000000E+00  0.00000000000E+00  0.43565462727E+03  0.43567997919E+03  0.47000000000E+01 0. -1.
         -5   -1    0    0    0  501 -0.00000000000E+00 -0.00000000000E+00 -0.15149661302E+04  0.15149734208E+04  0.47000000000E+01 0.  1.
          6    1    1    2  502    0  0.21035737004E+03 -0.46049487058E+03  0.19466611023E+03  0.56902077593E+03  0.17200000000E+03 0. -1.
         -6    1    1    2    0  502 -0.21035737004E+03  0.46049487058E+03 -0.12739776132E+04  0.13816326240E+04  0.17200000000E+03 0.  1.
</event>
<event>
 4    1 -0.3291270E-004  0.2194815E+03  0.7818608E-02  0.1134270E+00
          5   -1    0    0  501    0  0.00000000000E+00  0.00000000000E+00  0.27740255377E+03  0.27744236669E+03  0.47000000000E+01 0. -1.
         -5   -1    0    0    0  501 -0.00000000000E+00 -0.00000000000E+00 -0.22658926913E+03  0.22663800847E+03  0.47000000000E+01 0.  1.
          6    1    1    2  502    0  0.35933523746E+01  0.13629097043E+03  0.14729836602E+03  0.26432735280E+03  0.17200000000E+03 0. -1.
         -6    1    1    2    0  502 -0.35933523746E+01 -0.13629097043E+03 -0.96485081386E+02  0.23975302237E+03  0.17200000000E+03 0.  1.
</event>
<event>
 4    1 -0.3291270E-004  0.3944026E+03  0.7818608E-02  0.1045735E+00
         -5   -1    0    0    0  501 -0.00000000000E+00  0.00000000000E+00  0.12082090420E+03  0.12091228594E+03  0.47000000000E+01 0.  1.
          5   -1    0    0  501    0  0.00000000000E+00 -0.00000000000E+00 -0.18038384379E+04  0.18038445609E+04  0.47000000000E+01 0. -1.
          6    1    1    2  502    0 -0.29625197830E+03  0.19545898124E+03 -0.13566890497E+04  0.14128547787E+04  0.17200000000E+03 0. -1.
         -6    1    1    2    0  502  0.29625197830E+03 -0.19545898124E+03 -0.32632848401E+03  0.51190206824E+03  0.17200000000E+03 0.  1.
</event>
<event>
 4    1 -0.3291270E-004  0.1768733E+03  0.7818608E-02  0.1170864E+00
         -5   -1    0    0    0  501 -0.00000000000E+00  0.00000000000E+00  0.11187646683E+03  0.11197514827E+03  0.47000000000E+01 0.  1.
          5   -1    0    0  501    0  0.00000000000E+00 -0.00000000000E+00 -0.39614750014E+03  0.39617538018E+03  0.47000000000E+01 0. -1.
          6    1    1    2  502    0 -0.39657871829E+02  0.11287687309E+02 -0.28004832407E+03  0.33122684447E+03  0.17200000000E+03 0. -1.
         -6    1    1    2    0  502  0.39657871829E+02 -0.11287687309E+02 -0.42227092400E+01  0.17692368399E+03  0.17200000000E+03 0.  1.
</event>
<event>
 4    1 -0.3291270E-004  0.2421055E+03  0.7818608E-02  0.1118398E+00
          5   -1    0    0  501    0  0.00000000000E+00  0.00000000000E+00  0.84992130994E+02  0.85121985003E+02  0.47000000000E+01 0. -1.
         -5   -1    0    0    0  501 -0.00000000000E+00 -0.00000000000E+00 -0.69442758097E+03  0.69444348598E+03  0.47000000000E+01 0.  1.
          6    1    1    2  502    0 -0.54216269260E+02 -0.16152918667E+03 -0.33920961030E+03  0.41674721561E+03  0.17200000000E+03 0. -1.
         -6    1    1    2    0  502  0.54216269260E+02  0.16152918667E+03 -0.27022583968E+03  0.36281825537E+03  0.17200000000E+03 0. -1.
</event>
<event>
 4    1 -0.3291270E-004  0.1938627E+03  0.7818608E-02  0.1155023E+00
          5   -1    0    0  501    0  0.00000000000E+00  0.00000000000E+00  0.26036972206E+03  0.26041213905E+03  0.47000000000E+01 0. -1.
         -5   -1    0    0    0  501 -0.00000000000E+00 -0.00000000000E+00 -0.21639987043E+03  0.21645090419E+03  0.47000000000E+01 0.  1.
          6    1    1    2  502    0 -0.71866368496E+02  0.53234912510E+02 -0.11565442246E+03  0.22574028499E+03  0.17200000000E+03 0.  1.
         -6    1    1    2    0  502  0.71866368496E+02 -0.53234912510E+02  0.15962427409E+03  0.25112275825E+03  0.17200000000E+03 0. -1.
</event>
<event>
 4    1 -0.3291270E-004  0.3323721E+03  0.7818608E-02  0.1070092E+00
         -5   -1    0    0    0  501 -0.00000000000E+00  0.00000000000E+00  0.10379435625E+03  0.10390071409E+03  0.47000000000E+01 0.  1.
          5   -1    0    0  501    0  0.00000000000E+00 -0.00000000000E+00 -0.10799504221E+04  0.10799606494E+04  0.47000000000E+01 0. -1.
          6    1    1    2  502    0  0.19097361589E+03  0.21075179197E+03 -0.41540733081E+03  0.53200985919E+03  0.17200000000E+03 0. -1.
         -6    1    1    2    0  502 -0.19097361589E+03 -0.21075179197E+03 -0.56074873508E+03  0.65185150432E+03  0.17200000000E+03 0.  1.
</event>
<event>
 4    1 -0.3291270E-004  0.2492368E+03  0.7818608E-02  0.1113788E+00
         -5   -1    0    0    0  501 -0.00000000000E+00  0.00000000000E+00  0.18221957897E+04  0.18222018511E+04  0.47000000000E+01 0.  1.
          5   -1    0    0  501    0  0.00000000000E+00 -0.00000000000E+00 -0.34041533964E+02  0.34364458887E+02  0.47000000000E+01 0. -1.
          6    1    1    2  502    0  0.93190623584E+02  0.15443597551E+03  0.94881449997E+03  0.98100352609E+03  0.17200000000E+03 0.  1.
         -6    1    1    2    0  502 -0.93190623584E+02 -0.15443597551E+03  0.83933975578E+03  0.87556278386E+03  0.17200000000E+03 0. -1.
</event>
<event>
 4    1 -0.3291270E-004  0.2603825E+03  0.7818608E-02  0.1106914E+00
          5   -1    0    0  501    0  0.00000000000E+00  0.00000000000E+00  0.70627810511E+03  0.70629374325E+03  0.47000000000E+01 0. -1.
         -5   -1    0    0    0  501 -0.00000000000E+00 -0.00000000000E+00 -0.13473032077E+03  0.13481227442E+03  0.47000000000E+01 0.  1.
          6    1    1    2  502    0 -0.14488774326E+03  0.13123495590E+03  0.51139216642E+03  0.57386498384E+03  0.17200000000E+03 0. -1.
         -6    1    1    2    0  502  0.14488774326E+03 -0.13123495590E+03  0.60155617915E+02  0.26724103383E+03  0.17200000000E+03 0.  1.
</event>
<event>
 4    1 -0.3291270E-004  0.1896562E+03  0.7818608E-02  0.1158772E+00
         -5   -1    0    0    0  501 -0.00000000000E+00  0.00000000000E+00  0.42095352591E+02  0.42356920447E+02  0.47000000000E+01 0.  1.
          5   -1    0    0  501    0  0.00000000000E+00 -0.00000000000E+00 -0.86809737306E+03  0.86811009619E+03  0.47000000000E+01 0. -1.
          6    1    1    2  502    0  0.74858540361E+02  0.27958384479E+02 -0.35018146728E+03  0.39824180137E+03  0.17200000000E+03 0. -1.
         -6    1    1    2    0  502 -0.74858540361E+02 -0.27958384479E+02 -0.47582055319E+03  0.51222521527E+03  0.17200000000E+03 0.  1.
</event>
<event>
 4    1 -0.3291270E-004  0.2383599E+03  0.7818608E-02  0.1120890E+00
          5   -1    0    0  501    0  0.00000000000E+00  0.00000000000E+00  0.55846426413E+02  0.56043851966E+02  0.47000000000E+01 0. -1.
         -5   -1    0    0    0  501 -0.00000000000E+00 -0.00000000000E+00 -0.10399326703E+04  0.10399432911E+04  0.47000000000E+01 0.  1.
          6    1    1    2  502    0  0.11920858346E+03  0.11410852922E+03 -0.57628207810E+03  0.62363168324E+03  0.17200000000E+03 0. -1.
         -6    1    1    2    0  502 -0.11920858346E+03 -0.11410852922E+03 -0.40780416580E+03  0.47235545986E+03  0.17200000000E+03 0.  1.
</event>
<event>
 4    1 -0.3291270E-004  0.4913318E+03  0.7818608E-02  0.1016067E+00
          5   -1    0    0  501    0  0.00000000000E+00  0.00000000000E+00  0.26187785874E+03  0.26192003149E+03  0.47000000000E+01 0. -1.
         -5   -1    0    0    0  501 -0.00000000000E+00 -0.00000000000E+00 -0.92756812205E+03  0.92758002945E+03  0.47000000000E+01 0.  1.
          6    1    1    2  502    0  0.38900957227E+03 -0.24595633512E+03 -0.28557330515E+03  0.56829488711E+03  0.17200000000E+03 0. -1.
         -6    1    1    2    0  502 -0.38900957227E+03  0.24595633512E+03 -0.38011695816E+03  0.62120517383E+03  0.17200000000E+03 0.  1.
</event>
<event>
 4    1 -0.3291270E-004  0.2492768E+03  0.7818608E-02  0.1113763E+00
         -5   -1    0    0    0  501 -0.00000000000E+00  0.00000000000E+00  0.54965532035E+03  0.54967541440E+03  0.47000000000E+01 0.  1.
          5   -1    0    0  501    0  0.00000000000E+00 -0.00000000000E+00 -0.16087228312E+03  0.16094092542E+03  0.47000000000E+01 0. -1.
          6    1    1    2  502    0 -0.76973993764E+02  0.16318674357E+03  0.58895431358E+00  0.24927746761E+03  0.17200000000E+03 0. -1.
         -6    1    1    2    0  502  0.76973993764E+02 -0.16318674357E+03  0.38819408292E+03  0.46133887220E+03  0.17200000000E+03 0.  1.
</event>
<event>
 4    1 -0.3291270E-004  0.2287729E+03  0.7818608E-02  0.1127506E+00
          5   -1    0    0  501    0  0.00000000000E+00  0.00000000000E+00  0.33513726429E+03  0.33517021931E+03  0.47000000000E+01 0. -1.
         -5   -1    0    0    0  501 -0.00000000000E+00 -0.00000000000E+00 -0.26140483101E+03  0.26144708007E+03  0.47000000000E+01 0.  1.
          6    1    1    2  502    0  0.11158394454E+03 -0.10149905382E+03  0.22617884839E+03  0.32170468766E+03  0.17200000000E+03 0. -1.
         -6    1    1    2    0  502 -0.11158394454E+03  0.10149905382E+03 -0.15244641511E+03  0.27491261173E+03  0.17200000000E+03 0.  1.
</event>
<event>
 4    1 -0.3291270E-004  0.1907175E+03  0.7818608E-02  0.1157816E+00
         -5   -1    0    0    0  501 -0.00000000000E+00  0.00000000000E+00  0.12333719368E+03  0.12342671244E+03  0.47000000000E+01 0.  1.
          5   -1    0    0  501    0  0.00000000000E+00 -0.00000000000E+00 -0.29543723400E+03  0.29547461690E+03  0.47000000000E+01 0. -1.
          6    1    1    2  502    0 -0.76544095369E+02 -0.30498379578E+02 -0.75539483607E+02  0.20513255050E+03  0.17200000000E+03 0. -1.
         -6    1    1    2    0  502  0.76544095369E+02  0.30498379578E+02 -0.96560556712E+02  0.21376877884E+03  0.17200000000E+03 0.  1.
</event>
<event>
 4    1 -0.3291270E-004  0.1887820E+03  0.7818608E-02  0.1159565E+00
         -5   -1    0    0    0  501 -0.00000000000E+00  0.00000000000E+00  0.25627388949E+03  0.25631698429E+03  0.47000000000E+01 0.  1.
          5   -1    0    0  501    0  0.00000000000E+00 -0.00000000000E+00 -0.14221829833E+03  0.14229593944E+03  0.47000000000E+01 0. -1.
          6    1    1    2  502    0  0.29794749846E+02  0.71881138994E+02  0.26919890009E+02  0.19069165094E+03  0.17200000000E+03 0. -1.
         -6    1    1    2    0  502 -0.29794749846E+02 -0.71881138994E+02  0.87135701154E+02  0.20792127279E+03  0.17200000000E+03 0.  1.
</event>
<event>
 4    1 -0.3291270E-004  0.2293975E+03  0.7818608E-02  0.1127065E+00
          5   -1    0    0  501    0  0.00000000000E+00  0.00000000000E+00  0.14940438430E+03  0.14947829290E+03  0.47000000000E+01 0. -1.
         -5   -1    0    0    0  501 -0.00000000000E+00 -0.00000000000E+00 -0.39119134531E+03  0.39121957856E+03  0.47000000000E+01 0.  1.
          6    1    1    2  502    0 -0.12313632563E+03 -0.88750481276E+02 -0.20640563688E+03  0.30858789599E+03  0.17200000000E+03 0.  1.
         -6    1    1    2    0  502  0.12313632563E+03  0.88750481276E+02 -0.35381324126E+02  0.23210997547E+03  0.17200000000E+03 0.  1.
</event>
<event>
 4    1 -0.3291270E-004  0.2109110E+03  0.7818608E-02  0.1140847E+00
         -5   -1    0    0    0  501 -0.00000000000E+00  0.00000000000E+00  0.13319282394E+03  0.13327572303E+03  0.47000000000E+01 0.  1.
          5   -1    0    0  501    0  0.00000000000E+00 -0.00000000000E+00 -0.34505373090E+03  0.34508573893E+03  0.47000000000E+01 0. -1.
          6    1    1    2  502    0 -0.20232457120E+02  0.12037487855E+03 -0.14916673904E+03  0.25832959517E+03  0.17200000000E+03 0.  1.
         -6    1    1    2    0  502  0.20232457120E+02 -0.12037487855E+03 -0.62694167931E+02  0.22003186678E+03  0.17200000000E+03 0.  1.
</event>
<event>
 4    1 -0.3291270E-004  0.1882586E+03  0.7818608E-02  0.1160041E+00
          5   -1    0    0  501    0  0.00000000000E+00  0.00000000000E+00  0.13217306253E+03  0.13225660081E+03  0.47000000000E+01 0. -1.
         -5   -1    0    0    0  501 -0.00000000000E+00 -0.00000000000E+00 -0.35989543114E+03  0.35992611931E+03  0.47000000000E+01 0.  1.
          6    1    1    2  502    0  0.76365055542E+02 -0.50661895978E+01  0.10501847165E+02  0.18855125770E+03  0.17200000000E+03 0. -1.
         -6    1    1    2    0  502 -0.76365055542E+02  0.50661895978E+01 -0.23822421578E+03  0.30363146242E+03  0.17200000000E+03 0.  1.
</event>
<event>
 4    1 -0.3291270E-004  0.1943320E+03  0.7818608E-02  0.1154611E+00
         -5   -1    0    0    0  501 -0.00000000000E+00  0.00000000000E+00  0.19350661612E+03  0.19356368585E+03  0.47000000000E+01 0.  1.
          5   -1    0    0  501    0  0.00000000000E+00 -0.00000000000E+00 -0.19769061522E+03  0.19774647745E+03  0.47000000000E+01 0. -1.
          6    1    1    2  502    0 -0.47406188237E+01 -0.90324240433E+02  0.20527707169E+02  0.19541322534E+03  0.17200000000E+03 0.  1.
         -6    1    1    2    0  502  0.47406188237E+01  0.90324240433E+02 -0.24711706269E+02  0.19589693796E+03  0.17200000000E+03 0. -1.
</event>
<event>
 4    1 -0.3291270E-004  0.2639138E+03  0.7818608E-02  0.1104814E+00
          5   -1    0    0  501    0  0.00000000000E+00  0.00000000000E+00  0.20655795525E+03  0.20661142001E+03  0.47000000000E+01 0. -1.
         -5   -1    0    0    0  501 -0.00000000000E+00 -0.00000000000E+00 -0.37285452742E+03  0.37288414905E+03  0.47000000000E+01 0.  1.
          6    1    1    2  502    0 -0.17929066141E+03  0.89001947815E+02  0.65891417319E+01  0.26399603174E+03  0.17200000000E+03 0. -1.
         -6    1    1    2    0  502  0.17929066141E+03 -0.89001947815E+02 -0.17288571389E+03  0.31549953733E+03  0.17200000000E+03 0.  1.
</event>
<event>
 4    1 -0.3291270E-004  0.1926859E+03  0.7818608E-02  0.1156061E+00
          5   -1    0    0  501    0  0.00000000000E+00  0.00000000000E+00  0.26877010327E+03  0.26881119473E+03  0.47000000000E+01 0. -1.
         -5   -1    0    0    0  501 -0.00000000000E+00 -0.00000000000E+00 -0.17488153869E+03  0.17494468432E+03  0.47000000000E+01 0.  1.
          6    1    1    2  502    0 -0.86292745873E+02  0.98690915255E+01  0.14873855607E+03  0.24341527277E+03  0.17200000000E+03 0. -1.
         -6    1    1    2    0  502  0.86292745873E+02 -0.98690915255E+01 -0.54849991487E+02  0.20034060628E+03  0.17200000000E+03 0.  1.
</event>
<event>
 4    1 -0.3291270E-004  0.2111997E+03  0.7818608E-02  0.1140619E+00
         -5   -1    0    0    0  501 -0.00000000000E+00  0.00000000000E+00  0.18112073737E+03  0.18118170853E+03  0.47000000000E+01 0.  1.
          5   -1    0    0  501    0  0.00000000000E+00 -0.00000000000E+00 -0.29081365992E+03  0.29085163709E+03  0.47000000000E+01 0. -1.
          6    1    1    2  502    0 -0.81485697305E+02 -0.91549985747E+02  0.37631957543E+02  0.21452618251E+03  0.17200000000E+03 0.  1.
         -6    1    1    2    0  502  0.81485697305E+02  0.91549985747E+02 -0.14732488009E+03  0.25750716310E+03  0.17200000000E+03 0.  1.
</event>
<event>
 4    1 -0.3291270E-004  0.1773077E+03  0.7818608E-02  0.1170434E+00
          5   -1    0    0  501    0  0.00000000000E+00  0.00000000000E+00  0.21665626724E+02  0.22169559792E+02  0.47000000000E+01 0. -1.
         -5   -1    0    0    0  501 -0.00000000000E+00 -0.00000000000E+00 -0.14340296636E+04  0.14340373657E+04  0.47000000000E+01 0.  1.
          6    1    1    2  502    0  0.37270389513E+02 -0.21562348815E+02 -0.71396481263E+03  0.73565193570E+03  0.17200000000E+03 0. -1.
         -6    1    1    2    0  502 -0.37270389513E+02  0.21562348815E+02 -0.69839922425E+03  0.72055498975E+03  0.17200000000E+03 0.  1.
</event>
<event>
 4    1 -0.3291270E-004  0.1725285E+03  0.7818608E-02  0.1175236E+00
         -5   -1    0    0    0  501 -0.00000000000E+00  0.00000000000E+00  0.35042050520E+03  0.35045202305E+03  0.47000000000E+01 0.  1.
          5   -1    0    0  501    0  0.00000000000E+00 -0.00000000000E+00 -0.20412756261E+03  0.20418166376E+03  0.47000000000E+01 0. -1.
          6    1    1    2  502    0  0.11393380088E+02  0.72303348462E+01 -0.13877995696E+03  0.22141807357E+03  0.17200000000E+03 0. -1.
         -6    1    1    2    0  502 -0.11393380088E+02 -0.72303348462E+01  0.28507289955E+03  0.33321561324E+03  0.17200000000E+03 0.  1.
</event>
<event>
 4    1 -0.3291270E-004  0.1771204E+03  0.7818608E-02  0.1170619E+00
          5   -1    0    0  501    0  0.00000000000E+00  0.00000000000E+00  0.77334329741E+02  0.77477019538E+02  0.47000000000E+01 0. -1.
         -5   -1    0    0    0  501 -0.00000000000E+00 -0.00000000000E+00 -0.43289934313E+03  0.43292485639E+03  0.47000000000E+01 0.  1.
          6    1    1    2  502    0 -0.11286737586E+02  0.40745966952E+02 -0.24240302079E+03  0.30021800205E+03  0.17200000000E+03 0.  1.
         -6    1    1    2    0  502  0.11286737586E+02 -0.40745966952E+02 -0.11316199259E+03  0.21018387387E+03  0.17200000000E+03 0. -1.
</event>
<event>
 4    1 -0.3291270E-004  0.1892338E+03  0.7818608E-02  0.1159154E+00
          5   -1    0    0  501    0  0.00000000000E+00  0.00000000000E+00  0.17758384901E+03  0.17764603409E+03  0.47000000000E+01 0. -1.
         -5   -1    0    0    0  501 -0.00000000000E+00 -0.00000000000E+00 -0.31169011571E+03  0.31172554953E+03  0.47000000000E+01 0.  1.
          6    1    1    2  502    0 -0.76460188309E+02 -0.19475162469E+02  0.78391632944E+02  0.20482844154E+03  0.17200000000E+03 0. -1.
         -6    1    1    2    0  502  0.76460188309E+02  0.19475162469E+02 -0.21249789965E+03  0.28454314208E+03  0.17200000000E+03 0.  1.
</event>
<event>
 4    1 -0.3291270E-004  0.3518152E+03  0.7818608E-02  0.1061872E+00
         -5   -1    0    0    0  501 -0.00000000000E+00  0.00000000000E+00  0.11648012904E+03  0.11657491351E+03  0.47000000000E+01 0.  1.
          5   -1    0    0  501    0  0.00000000000E+00 -0.00000000000E+00 -0.11181101103E+04  0.11181199886E+04  0.47000000000E+01 0. -1.
          6    1    1    2  502    0  0.19701843720E+03 -0.23531609241E+03 -0.63899765226E+03  0.72944631574E+03  0.17200000000E+03 0. -1.
         -6    1    1    2    0  502 -0.19701843720E+03  0.23531609241E+03 -0.36263232903E+03  0.50524858635E+03  0.17200000000E+03 0.  1.
</event>
<event>
 4    1 -0.3291270E-004  0.2105130E+03  0.7818608E-02  0.1141160E+00
          5   -1    0    0  501    0  0.00000000000E+00  0.00000000000E+00  0.26589619128E+02  0.27001811891E+02  0.47000000000E+01 0. -1.
         -5   -1    0    0    0  501 -0.00000000000E+00 -0.00000000000E+00 -0.18136932651E+04  0.18136993549E+04  0.47000000000E+01 0.  1.
          6    1    1    2  502    0  0.88994273103E+02  0.82533383839E+02 -0.61999337444E+03  0.65475760740E+03  0.17200000000E+03 0.  1.
         -6    1    1    2    0  502 -0.88994273103E+02 -0.82533383839E+02 -0.11671102715E+04  0.11859435594E+04  0.17200000000E+03 0.  1.
</event>
<event>
 4    1 -0.3291270E-004  0.1748277E+03  0.7818608E-02  0.1172905E+00
          5   -1    0    0  501    0  0.00000000000E+00  0.00000000000E+00  0.26635825131E+03  0.26639971479E+03  0.47000000000E+01 0. -1.
         -5   -1    0    0    0  501 -0.00000000000E+00 -0.00000000000E+00 -0.13138437701E+03  0.13146841645E+03  0.47000000000E+01 0.  1.
          6    1    1    2  502    0  0.28818987141E+02  0.12255545698E+02  0.13844466732E+03  0.22300596030E+03  0.17200000000E+03 0. -1.
         -6    1    1    2    0  502 -0.28818987141E+02 -0.12255545698E+02 -0.34707930212E+01  0.17486217094E+03  0.17200000000E+03 0.  1.
</event>
<event>
 4    1 -0.3291270E-004  0.2586604E+03  0.7818608E-02  0.1107951E+00
         -5   -1    0    0    0  501 -0.00000000000E+00  0.00000000000E+00  0.23697936831E+03  0.23702597116E+03  0.47000000000E+01 0.  1.
          5   -1    0    0  501    0  0.00000000000E+00 -0.00000000000E+00 -0.43037499374E+03  0.43040065664E+03  0.47000000000E+01 0. -1.
          6    1    1    2  502    0  0.14321109968E+03  0.12966031860E+03 -0.29247044173E+03  0.39044100269E+03  0.17200000000E+03 0. -1.
         -6    1    1    2    0  502 -0.14321109968E+03 -0.12966031860E+03  0.99074816306E+02  0.27698562511E+03  0.17200000000E+03 0.  1.
</event>
<event>
 4    1 -0.3291270E-004  0.1912766E+03  0.7818608E-02  0.1157315E+00
         -5   -1    0    0    0  501 -0.00000000000E+00  0.00000000000E+00  0.31075911962E+03  0.31079465959E+03  0.47000000000E+01 0.  1.
          5   -1    0    0  501    0  0.00000000000E+00 -0.00000000000E+00 -0.35612286254E+03  0.35615387576E+03  0.47000000000E+01 0. -1.
          6    1    1    2  502    0 -0.83248917824E+02 -0.85053506697E+01 -0.29553405912E+03  0.35203281581E+03  0.17200000000E+03 0. -1.
         -6    1    1    2    0  502  0.83248917824E+02  0.85053506697E+01  0.25017031620E+03  0.31491571955E+03  0.17200000000E+03 0.  1.
</event>
<event>
 4    1 -0.3291270E-004  0.2351599E+03  0.7818608E-02  0.1123060E+00
          5   -1    0    0  501    0  0.00000000000E+00  0.00000000000E+00  0.89411130026E+03  0.89412365322E+03  0.47000000000E+01 0. -1.
         -5   -1    0    0    0  501 -0.00000000000E+00 -0.00000000000E+00 -0.62553339319E+02  0.62729660130E+02  0.47000000000E+01 0.  1.
          6    1    1    2  502    0  0.85428827315E+02  0.13571319879E+03  0.47000834620E+03  0.52555494704E+03  0.17200000000E+03 0. -1.
         -6    1    1    2    0  502 -0.85428827315E+02 -0.13571319879E+03  0.36154961473E+03  0.43129836630E+03  0.17200000000E+03 0.  1.
</event>
<event>
 4    1 -0.3291270E-004  0.1980965E+03  0.7818608E-02  0.1151355E+00
         -5   -1    0    0    0  501 -0.00000000000E+00  0.00000000000E+00  0.19316298345E+03  0.19322015468E+03  0.47000000000E+01 0.  1.
          5   -1    0    0  501    0  0.00000000000E+00 -0.00000000000E+00 -0.24535078497E+03  0.24539579801E+03  0.47000000000E+01 0. -1.
          6    1    1    2  502    0  0.86420986471E+02  0.46793528392E+02 -0.11714465582E+03  0.23014145995E+03  0.17200000000E+03 0. -1.
         -6    1    1    2    0  502 -0.86420986471E+02 -0.46793528392E+02  0.64956854309E+02  0.20847449274E+03  0.17200000000E+03 0.  1.
</event>
<event>
 4    1 -0.3291270E-004  0.2721221E+03  0.7818608E-02  0.1100071E+00
         -5   -1    0    0    0  501 -0.00000000000E+00  0.00000000000E+00  0.31174507918E+03  0.31178050675E+03  0.47000000000E+01 0.  1.
          5   -1    0    0  501    0  0.00000000000E+00 -0.00000000000E+00 -0.31155112332E+03  0.31158657295E+03  0.47000000000E+01 0. -1.
          6    1    1    2  502    0  0.21060978704E+03 -0.10486635857E+02 -0.15187726305E+03  0.31163625424E+03  0.17200000000E+03 0. -1.
         -6    1    1    2    0  502 -0.21060978704E+03  0.10486635857E+02  0.15207121890E+03  0.31173082546E+03  0.17200000000E+03 0.  1.
</event>
<event>
 4    1 -0.3291270E-004  0.2093063E+03  0.7818608E-02  0.1142116E+00
         -5   -1    0    0    0  501 -0.00000000000E+00  0.00000000000E+00  0.33621429200E+03  0.33624714147E+03  0.47000000000E+01 0.  1.
          5   -1    0    0  501    0  0.00000000000E+00 -0.00000000000E+00 -0.17307726410E+03  0.17314106777E+03  0.47000000000E+01 0. -1.
          6    1    1    2  502    0 -0.41820585934E+02 -0.11169678767E+03 -0.45132084813E+02  0.21411688132E+03  0.17200000000E+03 0. -1.
         -6    1    1    2    0  502  0.41820585934E+02  0.11169678767E+03  0.20826911271E+03  0.29527132793E+03  0.17200000000E+03 0.  1.
</event>
<event>
 4    1 -0.3291270E-004  0.1899557E+03  0.7818608E-02  0.1158501E+00
          5   -1    0    0  501    0  0.00000000000E+00  0.00000000000E+00  0.33827545852E+03  0.33830810785E+03  0.47000000000E+01 0. -1.
         -5   -1    0    0    0  501 -0.00000000000E+00 -0.00000000000E+00 -0.14929356602E+03  0.14936752945E+03  0.47000000000E+01 0.  1.
          6    1    1    2  502    0  0.33791172659E+02 -0.73193823177E+02  0.22486608150E+03  0.29436021081E+03  0.17200000000E+03 0. -1.
         -6    1    1    2    0  502 -0.33791172659E+02  0.73193823177E+02 -0.35884188990E+02  0.19331542649E+03  0.17200000000E+03 0.  1.
</event>
<event>
 4    1 -0.3291270E-004  0.1815117E+03  0.7818608E-02  0.1166348E+00
          5   -1    0    0  501    0  0.00000000000E+00  0.00000000000E+00  0.65754823467E+03  0.65756503170E+03  0.47000000000E+01 0. -1.
         -5   -1    0    0    0  501 -0.00000000000E+00 -0.00000000000E+00 -0.72965318640E+02  0.73116535231E+02  0.47000000000E+01 0.  1.
          6    1    1    2  502    0 -0.12292843457E+02  0.56669169197E+02  0.87511485216E+02  0.20150624998E+03  0.17200000000E+03 0.  1.
         -6    1    1    2    0  502  0.12292843457E+02 -0.56669169197E+02  0.49707143081E+03  0.52917531695E+03  0.17200000000E+03 0. -1.
</event>
<event>
 4    1 -0.3291270E-004  0.1975377E+03  0.7818608E-02  0.1151833E+00
         -5   -1    0    0    0  501 -0.00000000000E+00  0.00000000000E+00  0.24372066897E+03  0.24376598303E+03  0.47000000000E+01 0.  1.
          5   -1    0    0  501    0  0.00000000000E+00 -0.00000000000E+00 -0.16593807559E+03  0.16600462322E+03  0.47000000000E+01 0. -1.
          6    1    1    2  502    0 -0.51418950189E+02  0.82421017111E+02  0.18330798520E+00  0.19753775867E+03  0.17200000000E+03 0. -1.
         -6    1    1    2    0  502  0.51418950189E+02 -0.82421017111E+02  0.77599285393E+02  0.21223284758E+03  0.17200000000E+03 0. -1.
</event>
<event>
 4    1 -0.3291270E-004  0.4837818E+03  0.7818608E-02  0.1018101E+00
         -5   -1    0    0    0  501 -0.00000000000E+00  0.00000000000E+00  0.10351318330E+04  0.10351425031E+04  0.47000000000E+01 0.  1.
          5   -1    0    0  501    0  0.00000000000E+00 -0.00000000000E+00 -0.33381367773E+03  0.33384676341E+03  0.47000000000E+01 0. -1.
          6    1    1    2  502    0  0.27364060005E+03  0.35997446237E+03 -0.38198012546E+02  0.48528741970E+03  0.17200000000E+03 0. -1.
         -6    1    1    2    0  502 -0.27364060005E+03 -0.35997446237E+03  0.73951616780E+03  0.88370184677E+03  0.17200000000E+03 0.  1.
</event>
<event>
 4    1 -0.3291270E-004  0.2789231E+03  0.7818608E-02  0.1096279E+00
         -5   -1    0    0    0  501 -0.00000000000E+00  0.00000000000E+00  0.12897946103E+03  0.12906506641E+03  0.47000000000E+01 0.  1.
          5   -1    0    0  501    0  0.00000000000E+00 -0.00000000000E+00 -0.84418229066E+03  0.84419537423E+03  0.47000000000E+01 0. -1.
          6    1    1    2  502    0  0.36442571537E+02 -0.21653180723E+03 -0.61775465447E+03  0.67780446862E+03  0.17200000000E+03 0. -1.
         -6    1    1    2    0  502 -0.36442571537E+02  0.21653180723E+03 -0.97448175157E+02  0.29545597202E+03  0.17200000000E+03 0.  1.
</event>
<event>
 4    1 -0.3291270E-004  0.3200619E+03  0.7818608E-02  0.1075621E+00
          5   -1    0    0  501    0  0.00000000000E+00  0.00000000000E+00  0.12223828454E+03  0.12232860748E+03  0.47000000000E+01 0. -1.
         -5   -1    0    0    0  501 -0.00000000000E+00 -0.00000000000E+00 -0.86176457025E+03  0.86177738688E+03  0.47000000000E+01 0.  1.
          6    1    1    2  502    0 -0.15903492902E+03  0.21809058460E+03 -0.28741576669E+03  0.43017140151E+03  0.17200000000E+03 0. -1.
         -6    1    1    2    0  502  0.15903492902E+03 -0.21809058460E+03 -0.45211051902E+03  0.55393459284E+03  0.17200000000E+03 0.  1.
</event>
<event>
 4    1 -0.3291270E-004  0.3211874E+03  0.7818608E-02  0.1075104E+00
          5   -1    0    0  501    0  0.00000000000E+00  0.00000000000E+00  0.11708157044E+04  0.11708251380E+04  0.47000000000E+01 0. -1.
         -5   -1    0    0    0  501 -0.00000000000E+00 -0.00000000000E+00 -0.88984751943E+02  0.89108787885E+02  0.47000000000E+01 0.  1.
          6    1    1    2  502    0  0.23490547882E+03 -0.13563462697E+03  0.60584013142E+03  0.68571393515E+03  0.17200000000E+03 0. -1.
         -6    1    1    2    0  502 -0.23490547882E+03  0.13563462697E+03  0.47599082108E+03  0.57421999074E+03  0.17200000000E+03 0.  1.
</event>
<event>
 4    1 -0.3291270E-004  0.2334263E+03  0.7818608E-02  0.1124251E+00
         -5   -1    0    0    0  501 -0.00000000000E+00  0.00000000000E+00  0.14921120181E+03  0.14928520605E+03  0.47000000000E+01 0.  1.
          5   -1    0    0  501    0  0.00000000000E+00 -0.00000000000E+00 -0.42590839907E+03  0.42593433109E+03  0.47000000000E+01 0. -1.
          6    1    1    2  502    0  0.13888089419E+03 -0.74939577149E+02 -0.24710561150E+03  0.33992503031E+03  0.17200000000E+03 0. -1.
         -6    1    1    2    0  502 -0.13888089419E+03  0.74939577149E+02 -0.29591585764E+02  0.23529450683E+03  0.17200000000E+03 0.  1.
</event>
<event>
 4    1 -0.3291270E-004  0.2170209E+03  0.7818608E-02  0.1136124E+00
         -5   -1    0    0    0  501 -0.00000000000E+00  0.00000000000E+00  0.57215224661E+02  0.57407943118E+02  0.47000000000E+01 0.  1.
          5   -1    0    0  501    0  0.00000000000E+00 -0.00000000000E+00 -0.99317047585E+03  0.99318159674E+03  0.47000000000E+01 0. -1.
          6    1    1    2  502    0 -0.12876672887E+03  0.30548030037E+02 -0.24966425061E+03  0.33080249491E+03  0.17200000000E+03 0.  1.
         -6    1    1    2    0  502  0.12876672887E+03 -0.30548030037E+02 -0.68629100058E+03  0.71978704495E+03  0.17200000000E+03 0. -1.
</event>
<event>
 4    1 -0.3291270E-004  0.2141043E+03  0.7818608E-02  0.1138356E+00
         -5   -1    0    0    0  501 -0.00000000000E+00  0.00000000000E+00  0.10320021990E+03  0.10330718942E+03  0.47000000000E+01 0.  1.
          5   -1    0    0  501    0  0.00000000000E+00 -0.00000000000E+00 -0.11937345376E+04  0.11937437901E+04  0.47000000000E+01 0. -1.
          6    1    1    2  502    0 -0.69547492260E+00  0.12749962675E+03 -0.10592518528E+04  0.10806734596E+04  0.17200000000E+03 0. -1.
         -6    1    1    2    0  502  0.69547492260E+00 -0.12749962675E+03 -0.31282464879E+02  0.21637751989E+03  0.17200000000E+03 0.  1.
</event>
<event>
 4    1 -0.3291270E-004  0.2158351E+03  0.7818608E-02  0.1137027E+00
         -5   -1    0    0    0  501 -0.00000000000E+00  0.00000000000E+00  0.58636703546E+03  0.58638587148E+03  0.47000000000E+01 0.  1.
          5   -1    0    0  501    0  0.00000000000E+00 -0.00000000000E+00 -0.10248201623E+03  0.10258973462E+03  0.47000000000E+01 0. -1.
          6    1    1    2  502    0  0.10237768936E+03 -0.80743972387E+02  0.78414685393E+02  0.22963807010E+03  0.17200000000E+03 0. -1.
         -6    1    1    2    0  502 -0.10237768936E+03  0.80743972387E+02  0.40547033384E+03  0.45933753600E+03  0.17200000000E+03 0.  1.
</event>
<event>
 4    1 -0.3291270E-004  0.1939376E+03  0.7818608E-02  0.1154957E+00
         -5   -1    0    0    0  501 -0.00000000000E+00  0.00000000000E+00  0.12925560377E+03  0.12934102639E+03  0.47000000000E+01 0.  1.
          5   -1    0    0  501    0  0.00000000000E+00 -0.00000000000E+00 -0.31495619419E+03  0.31499126061E+03  0.47000000000E+01 0. -1.
          6    1    1    2  502    0  0.67070924676E+02 -0.59407790829E+02 -0.15438188463E+03  0.24788215113E+03  0.17200000000E+03 0. -1.
         -6    1    1    2    0  502 -0.67070924676E+02  0.59407790829E+02 -0.31318705788E+02  0.19645013586E+03  0.17200000000E+03 0.  1.
</event>
<event>
 4    1 -0.3291270E-004  0.2113863E+03  0.7818608E-02  0.1140473E+00
          5   -1    0    0  501    0  0.00000000000E+00  0.00000000000E+00  0.24576217186E+03  0.24580710957E+03  0.47000000000E+01 0. -1.
         -5   -1    0    0    0  501 -0.00000000000E+00 -0.00000000000E+00 -0.18312842396E+03  0.18318872690E+03  0.47000000000E+01 0.  1.
          6    1    1    2  502    0 -0.10720050361E+03  0.60068526922E+02  0.12556906095E+02  0.21175894737E+03  0.17200000000E+03 0. -1.
         -6    1    1    2    0  502  0.10720050361E+03 -0.60068526922E+02  0.50076841805E+02  0.21723688910E+03  0.17200000000E+03 0.  1.
</event>
<event>
 4    1 -0.3291270E-004  0.1784022E+03  0.7818608E-02  0.1169358E+00
          5   -1    0    0  501    0  0.00000000000E+00  0.00000000000E+00  0.44245904439E+03  0.44248400644E+03  0.47000000000E+01 0. -1.
         -5   -1    0    0    0  501 -0.00000000000E+00 -0.00000000000E+00 -0.11125075973E+03  0.11134999569E+03  0.47000000000E+01 0.  1.
          6    1    1    2  502    0 -0.45333431981E+02 -0.13719776787E+02  0.33033325436E+03  0.37542963557E+03  0.17200000000E+03 0. -1.
         -6    1    1    2    0  502  0.45333431981E+02  0.13719776787E+02  0.87503030105E+00  0.17840436656E+03  0.17200000000E+03 0.  1.
</event>
<event>
 4    1 -0.3291270E-004  0.1946455E+03  0.7818608E-02  0.1154337E+00
         -5   -1    0    0    0  501 -0.00000000000E+00  0.00000000000E+00  0.30458102828E+03  0.30461728905E+03  0.47000000000E+01 0.  1.
          5   -1    0    0  501    0  0.00000000000E+00 -0.00000000000E+00 -0.12758052049E+03  0.12766706391E+03  0.47000000000E+01 0. -1.
          6    1    1    2  502    0 -0.86334953795E+02 -0.29140128400E+02  0.53868652343E+02  0.20196213268E+03  0.17200000000E+03 0. -1.
         -6    1    1    2    0  502  0.86334953795E+02  0.29140128400E+02  0.12313185545E+03  0.23032222029E+03  0.17200000000E+03 0.  1.
</event>
<event>
 4    1 -0.3291270E-004  0.3085485E+03  0.7818608E-02  0.1081044E+00
          5   -1    0    0  501    0  0.00000000000E+00  0.00000000000E+00  0.54358716658E+03  0.54360748493E+03  0.47000000000E+01 0. -1.
         -5   -1    0    0    0  501 -0.00000000000E+00 -0.00000000000E+00 -0.64767404690E+03  0.64769110000E+03  0.47000000000E+01 0.  1.
          6    1    1    2  502    0  0.25034025011E+03  0.54295122477E+02  0.45674287689E+03  0.55119529818E+03  0.17200000000E+03 0. -1.
         -6    1    1    2    0  502 -0.25034025011E+03 -0.54295122477E+02 -0.56082975720E+03  0.64010328675E+03  0.17200000000E+03 0.  1.
</event>
<event>
 4    1 -0.3291270E-004  0.1928304E+03  0.7818608E-02  0.1155933E+00
         -5   -1    0    0    0  501 -0.00000000000E+00  0.00000000000E+00  0.84465536980E+03  0.84466844604E+03  0.47000000000E+01 0.  1.
          5   -1    0    0  501    0  0.00000000000E+00 -0.00000000000E+00 -0.57568176880E+02  0.57759717705E+02  0.47000000000E+01 0. -1.
          6    1    1    2  502    0  0.83541229294E+02 -0.24908525551E+02  0.17399533642E+03  0.25972668083E+03  0.17200000000E+03 0. -1.
         -6    1    1    2    0  502 -0.83541229294E+02  0.24908525551E+02  0.61309185650E+03  0.64270148292E+03  0.17200000000E+03 0.  1.
</event>
<event>
 4    1 -0.3291270E-004  0.2554362E+03  0.7818608E-02  0.1109917E+00
          5   -1    0    0  501    0  0.00000000000E+00  0.00000000000E+00  0.71626695861E+02  0.71780732512E+02  0.47000000000E+01 0. -1.
         -5   -1    0    0    0  501 -0.00000000000E+00 -0.00000000000E+00 -0.91421083626E+03  0.91422291763E+03  0.47000000000E+01 0.  1.
          6    1    1    2  502    0 -0.51780139612E+02  0.18161079149E+03 -0.38705879592E+03  0.46374796381E+03  0.17200000000E+03 0. -1.
         -6    1    1    2    0  502  0.51780139612E+02 -0.18161079149E+03 -0.45552534448E+03  0.52225568633E+03  0.17200000000E+03 0.  1.
</event>
<event>
 4    1 -0.3291270E-004  0.1879830E+03  0.7818608E-02  0.1160293E+00
          5   -1    0    0  501    0  0.00000000000E+00  0.00000000000E+00  0.52541225834E+03  0.52543327950E+03  0.47000000000E+01 0. -1.
         -5   -1    0    0    0  501 -0.00000000000E+00 -0.00000000000E+00 -0.68025644203E+02  0.68187816134E+02  0.47000000000E+01 0.  1.
          6    1    1    2  502    0  0.75847002072E+02  0.92201060632E+00  0.19511054968E+03  0.27093494500E+03  0.17200000000E+03 0. -1.
         -6    1    1    2    0  502 -0.75847002072E+02 -0.92201060632E+00  0.26227606445E+03  0.32268615064E+03  0.17200000000E+03 0.  1.
</event>
<event>
 4    1 -0.3291270E-004  0.1863496E+03  0.7818608E-02  0.1161796E+00
          5   -1    0    0  501    0  0.00000000000E+00  0.00000000000E+00  0.42279305705E+03  0.42281918013E+03  0.47000000000E+01 0. -1.
         -5   -1    0    0    0  501 -0.00000000000E+00 -0.00000000000E+00 -0.11012001352E+03  0.11022026754E+03  0.47000000000E+01 0.  1.
          6    1    1    2  502    0  0.70639155422E+02 -0.12339789855E+02  0.21837784924E+02  0.18762475728E+03  0.17200000000E+03 0.  1.
         -6    1    1    2    0  502 -0.70639155422E+02  0.12339789855E+02  0.29083525861E+03  0.34541469040E+03  0.17200000000E+03 0. -1.
</event>
<event>
 4    1 -0.3291270E-004  0.3664637E+03  0.7818608E-02  0.1056053E+00
          5   -1    0    0  501    0  0.00000000000E+00  0.00000000000E+00  0.99021039808E+03  0.99022155221E+03  0.47000000000E+01 0. -1.
         -5   -1    0    0    0  501 -0.00000000000E+00 -0.00000000000E+00 -0.25851752556E+03  0.25856024640E+03  0.47000000000E+01 0.  1.
          6    1    1    2  502    0 -0.18695406126E+03 -0.26412090868E+03  0.79638163203E+03  0.87665237082E+03  0.17200000000E+03 0. -1.
         -6    1    1    2    0  502  0.18695406126E+03  0.26412090868E+03 -0.64688759511E+02  0.37212942779E+03  0.17200000000E+03 0.  1.
</event>
<event>
 4    1 -0.3291270E-004  0.2095841E+03  0.7818608E-02  0.1141896E+00
          5   -1    0    0  501    0  0.00000000000E+00  0.00000000000E+00  0.12072659487E+04  0.12072750974E+04  0.47000000000E+01 0. -1.
         -5   -1    0    0    0  501 -0.00000000000E+00 -0.00000000000E+00 -0.63507055631E+02  0.63680735823E+02  0.47000000000E+01 0.  1.
          6    1    1    2  502    0 -0.11901486326E+03 -0.13301863274E+02  0.98759567794E+03  0.10095893721E+04  0.17200000000E+03 0. -1.
         -6    1    1    2    0  502  0.11901486326E+03  0.13301863274E+02  0.15616321514E+03  0.26136646113E+03  0.17200000000E+03 0.  1.
</event>
<event>
 4    1 -0.3291270E-004  0.5196996E+03  0.7818608E-02  0.1008761E+00
          5   -1    0    0  501    0  0.00000000000E+00  0.00000000000E+00  0.40476557587E+03  0.40479286235E+03  0.47000000000E+01 0. -1.
         -5   -1    0    0    0  501 -0.00000000000E+00 -0.00000000000E+00 -0.68920664634E+03  0.68922267183E+03  0.47000000000E+01 0.  1.
          6    1    1    2  502    0  0.38729841777E+02 -0.48888001624E+03 -0.44503500610E+02  0.52160160322E+03  0.17200000000E+03 0. -1.
         -6    1    1    2    0  502 -0.38729841777E+02  0.48888001624E+03 -0.23993756986E+03  0.57241393095E+03  0.17200000000E+03 0.  1.
</event>
<event>
 4    1 -0.3291270E-004  0.2237061E+03  0.7818608E-02  0.1131150E+00
          5   -1    0    0  501    0  0.00000000000E+00  0.00000000000E+00  0.12386184294E+03  0.12395098280E+03  0.47000000000E+01 0. -1.
         -5   -1    0    0    0  501 -0.00000000000E+00 -0.00000000000E+00 -0.44314842156E+03  0.44317334479E+03  0.47000000000E+01 0.  1.
          6    1    1    2  502    0 -0.10171308487E+03  0.10057260831E+03 -0.75142899374E+02  0.23598910251E+03  0.17200000000E+03 0. -1.
         -6    1    1    2    0  502  0.10171308487E+03 -0.10057260831E+03 -0.24414367924E+03  0.33113522508E+03  0.17200000000E+03 0.  1.
</event>
<event>
 4    1 -0.3291270E-004  0.3065386E+03  0.7818608E-02  0.1082017E+00
          5   -1    0    0  501    0  0.00000000000E+00  0.00000000000E+00  0.13464878733E+03  0.13473079058E+03  0.47000000000E+01 0. -1.
         -5   -1    0    0    0  501 -0.00000000000E+00 -0.00000000000E+00 -0.10672133076E+04  0.10672236569E+04  0.47000000000E+01 0.  1.
          6    1    1    2  502    0 -0.19674478167E+03 -0.16022916209E+03 -0.11260086910E+03  0.32656522966E+03  0.17200000000E+03 0. -1.
         -6    1    1    2    0  502  0.19674478167E+03  0.16022916209E+03 -0.81996365117E+03  0.87538921785E+03  0.17200000000E+03 0.  1.
</event>
<event>
 4    1 -0.3291270E-004  0.1953905E+03  0.7818608E-02  0.1153687E+00
          5   -1    0    0  501    0  0.00000000000E+00  0.00000000000E+00  0.98599317280E+02  0.98711272751E+02  0.47000000000E+01 0. -1.
         -5   -1    0    0    0  501 -0.00000000000E+00 -0.00000000000E+00 -0.47348717829E+03  0.47351050464E+03  0.47000000000E+01 0.  1.
          6    1    1    2  502    0 -0.72209760629E+02  0.58130730612E+02 -0.30981104074E+03  0.36627900887E+03  0.17200000000E+03 0.  1.
         -6    1    1    2    0  502  0.72209760629E+02 -0.58130730612E+02 -0.65076820270E+02  0.20594276853E+03  0.17200000000E+03 0. -1.
</event>
<event>
 4    1 -0.3291270E-004  0.1724322E+03  0.7818608E-02  0.1175335E+00
          5   -1    0    0  501    0  0.00000000000E+00  0.00000000000E+00  0.13856616314E+04  0.13856696022E+04  0.47000000000E+01 0. -1.
         -5   -1    0    0    0  501 -0.00000000000E+00 -0.00000000000E+00 -0.32702919175E+02  0.33038930409E+02  0.47000000000E+01 0.  1.
          6    1    1    2  502    0  0.10130036235E+02 -0.68016175724E+01  0.10945644870E+04  0.11080633086E+04  0.17200000000E+03 0. -1.
         -6    1    1    2    0  502 -0.10130036235E+02  0.68016175724E+01  0.25839422519E+03  0.31064522409E+03  0.17200000000E+03 0.  1.
</event>
<event>
 4    1 -0.3291270E-004  0.1823346E+03  0.7818608E-02  0.1165563E+00
          5   -1    0    0  501    0  0.00000000000E+00  0.00000000000E+00  0.85780170198E+03  0.85781457782E+03  0.47000000000E+01 0. -1.
         -5   -1    0    0    0  501 -0.00000000000E+00 -0.00000000000E+00 -0.48576162265E+02  0.48803007493E+02  0.47000000000E+01 0.  1.
          6    1    1    2  502    0  0.24729423763E+02  0.55229933137E+02  0.19976287552E+03  0.27046459352E+03  0.17200000000E+03 0. -1.
         -6    1    1    2    0  502 -0.24729423763E+02 -0.55229933137E+02  0.60946266419E+03  0.63615299179E+03  0.17200000000E+03 0. -1.
</event>
<event>
 4    1 -0.3291270E-004  0.2236281E+03  0.7818608E-02  0.1131207E+00
          5   -1    0    0  501    0  0.00000000000E+00  0.00000000000E+00  0.42325528250E+03  0.42328137706E+03  0.47000000000E+01 0. -1.
         -5   -1    0    0    0  501 -0.00000000000E+00 -0.00000000000E+00 -0.22559929776E+03  0.22564825093E+03  0.47000000000E+01 0.  1.
          6    1    1    2  502    0  0.59386496662E+02  0.12999535176E+03  0.32277855146E+03  0.39267740036E+03  0.17200000000E+03 0. -1.
         -6    1    1    2    0  502 -0.59386496662E+02 -0.12999535176E+03 -0.12512256672E+03  0.25625222764E+03  0.17200000000E+03 0.  1.
</event>
<event>
 4    1 -0.3291270E-004  0.2162261E+03  0.7818608E-02  0.1136728E+00
         -5   -1    0    0    0  501 -0.00000000000E+00  0.00000000000E+00  0.71972301359E+02  0.72125599914E+02  0.47000000000E+01 0.  1.
          5   -1    0    0  501    0  0.00000000000E+00 -0.00000000000E+00 -0.94489279669E+03  0.94490448578E+03  0.47000000000E+01 0. -1.
          6    1    1    2  502    0 -0.11775868184E+03  0.57468302824E+02 -0.72111705046E+03  0.75283697667E+03  0.17200000000E+03 0. -1.
         -6    1    1    2    0  502  0.11775868184E+03 -0.57468302824E+02 -0.15180344487E+03  0.26419310902E+03  0.17200000000E+03 0.  1.
</event>
<event>
 4    1 -0.3291270E-004  0.2392754E+03  0.7818608E-02  0.1120276E+00
          5   -1    0    0  501    0  0.00000000000E+00  0.00000000000E+00  0.10013985338E+03  0.10025008845E+03  0.47000000000E+01 0. -1.
         -5   -1    0    0    0  501 -0.00000000000E+00 -0.00000000000E+00 -0.58720789409E+03  0.58722670314E+03  0.47000000000E+01 0.  1.
          6    1    1    2  502    0  0.43068660102E+02  0.16066670276E+03 -0.30011705848E+03  0.38382671565E+03  0.17200000000E+03 0. -1.
         -6    1    1    2    0  502 -0.43068660102E+02 -0.16066670276E+03 -0.18695098223E+03  0.30365007594E+03  0.17200000000E+03 0.  1.
</event>
<event>
 4    1 -0.3291270E-004  0.2625399E+03  0.7818608E-02  0.1105627E+00
         -5   -1    0    0    0  501 -0.00000000000E+00  0.00000000000E+00  0.29244684866E+03  0.29248461377E+03  0.47000000000E+01 0.  1.
          5   -1    0    0  501    0  0.00000000000E+00 -0.00000000000E+00 -0.23664395455E+03  0.23669062344E+03  0.47000000000E+01 0. -1.
          6    1    1    2  502    0  0.52755019547E+02 -0.19120694599E+03  0.10456879922E+02  0.26274804399E+03  0.17200000000E+03 0.  1.
         -6    1    1    2    0  502 -0.52755019547E+02  0.19120694599E+03  0.45346014192E+02  0.26642719322E+03  0.17200000000E+03 0.  1.
</event>
<event>
 4    1 -0.3291270E-004  0.1766247E+03  0.7818608E-02  0.1171110E+00
          5   -1    0    0  501    0  0.00000000000E+00  0.00000000000E+00  0.92950159095E+03  0.92951347358E+03  0.47000000000E+01 0. -1.
         -5   -1    0    0    0  501 -0.00000000000E+00 -0.00000000000E+00 -0.41461196475E+02  0.41726739785E+02  0.47000000000E+01 0.  1.
          6    1    1    2  502    0 -0.31083693964E+02  0.25418509326E+02  0.65754419383E+03  0.68085289416E+03  0.17200000000E+03 0. -1.
         -6    1    1    2    0  502  0.31083693964E+02 -0.25418509326E+02  0.23049620065E+03  0.29038731921E+03  0.17200000000E+03 0.  1.
</event>
<event>
 4    1 -0.3291270E-004  0.1964526E+03  0.7818608E-02  0.1152767E+00
         -5   -1    0    0    0  501 -0.00000000000E+00  0.00000000000E+00  0.10918228557E+04  0.10918329718E+04  0.47000000000E+01 0.  1.
          5   -1    0    0  501    0  0.00000000000E+00 -0.00000000000E+00 -0.79066504495E+02  0.79206073839E+02  0.47000000000E+01 0. -1.
          6    1    1    2  502    0  0.27719819562E+02 -0.90781265668E+02  0.70809816105E+02  0.20882446372E+03  0.17200000000E+03 0. -1.
         -6    1    1    2    0  502 -0.27719819562E+02  0.90781265668E+02  0.94194653514E+03  0.96221458192E+03  0.17200000000E+03 0.  1.
</event>
<event>
 4    1 -0.3291270E-004  0.1981305E+03  0.7818608E-02  0.1151326E+00
         -5   -1    0    0    0  501 -0.00000000000E+00  0.00000000000E+00  0.11746371285E+03  0.11755770429E+03  0.47000000000E+01 0.  1.
          5   -1    0    0  501    0  0.00000000000E+00 -0.00000000000E+00 -0.41292607809E+03  0.41295282535E+03  0.47000000000E+01 0. -1.
          6    1    1    2  502    0  0.87524059251E+02  0.44846633711E+02 -0.26371854809E+03  0.32985323116E+03  0.17200000000E+03 0. -1.
         -6    1    1    2    0  502 -0.87524059251E+02 -0.44846633711E+02 -0.31743817143E+02  0.20065729847E+03  0.17200000000E+03 0.  1.
</event>
<event>
 4    1 -0.3291270E-004  0.1854818E+03  0.7818608E-02  0.1162601E+00
         -5   -1    0    0    0  501 -0.00000000000E+00  0.00000000000E+00  0.16911056553E+03  0.16917586523E+03  0.47000000000E+01 0.  1.
          5   -1    0    0  501    0  0.00000000000E+00 -0.00000000000E+00 -0.43656856860E+03  0.43659386744E+03  0.47000000000E+01 0. -1.
          6    1    1    2  502    0  0.69384266075E+02  0.23088285957E+01 -0.35510033762E+03  0.40062420902E+03  0.17200000000E+03 0. -1.
         -6    1    1    2    0  502 -0.69384266075E+02 -0.23088285957E+01  0.87642334560E+02  0.20514552365E+03  0.17200000000E+03 0.  1.
</event>
<event>
 4    1 -0.3291270E-004  0.3073396E+03  0.7818608E-02  0.1081628E+00
         -5   -1    0    0    0  501 -0.00000000000E+00  0.00000000000E+00  0.38580872160E+03  0.38583734872E+03  0.47000000000E+01 0.  1.
          5   -1    0    0  501    0  0.00000000000E+00 -0.00000000000E+00 -0.29050004682E+03  0.29053806498E+03  0.47000000000E+01 0. -1.
          6    1    1    2  502    0  0.21001822483E+03 -0.14410398277E+03 -0.86508914254E+02  0.31928264102E+03  0.17200000000E+03 0.  1.
         -6    1    1    2    0  502 -0.21001822483E+03  0.14410398277E+03  0.18181758904E+03  0.35709277267E+03  0.17200000000E+03 0.  1.
</event>
<event>
 4    1 -0.3291270E-004  0.4798851E+03  0.7818608E-02  0.1019167E+00
         -5   -1    0    0    0  501 -0.00000000000E+00  0.00000000000E+00  0.44471794146E+03  0.44474277673E+03  0.47000000000E+01 0.  1.
          5   -1    0    0  501    0  0.00000000000E+00 -0.00000000000E+00 -0.13364186748E+04  0.13364269394E+04  0.47000000000E+01 0. -1.
          6    1    1    2  502    0  0.34764827650E+03  0.28257105139E+03 -0.11428665534E+04  0.12395296213E+04  0.17200000000E+03 0. -1.
         -6    1    1    2    0  502 -0.34764827650E+03 -0.28257105139E+03  0.25116582000E+03  0.54164009487E+03  0.17200000000E+03 0.  1.
</event>
<event>
 4    1 -0.3291270E-004  0.2005641E+03  0.7818608E-02  0.1149264E+00
         -5   -1    0    0    0  501 -0.00000000000E+00  0.00000000000E+00  0.13372011705E+03  0.13380268945E+03  0.47000000000E+01 0.  1.
          5   -1    0    0  501    0  0.00000000000E+00 -0.00000000000E+00 -0.48440944453E+03  0.48443224495E+03  0.47000000000E+01 0. -1.
          6    1    1    2  502    0 -0.10135308646E+03  0.19222884166E+02 -0.36572292236E+03  0.41710816745E+03  0.17200000000E+03 0. -1.
         -6    1    1    2    0  502  0.10135308646E+03 -0.19222884166E+02  0.15033594874E+02  0.20112676695E+03  0.17200000000E+03 0.  1.
</event>
<event>
 4    1 -0.3291270E-004  0.2030895E+03  0.7818608E-02  0.1147158E+00
         -5   -1    0    0    0  501 -0.00000000000E+00  0.00000000000E+00  0.10357970530E+03  0.10368628333E+03  0.47000000000E+01 0.  1.
          5   -1    0    0  501    0  0.00000000000E+00 -0.00000000000E+00 -0.58313171470E+03  0.58315065522E+03  0.47000000000E+01 0. -1.
          6    1    1    2  502    0 -0.96308136063E+02  0.48847554247E+02 -0.43332025906E+03  0.47855176057E+03  0.17200000000E+03 0. -1.
         -6    1    1    2    0  502  0.96308136063E+02 -0.48847554247E+02 -0.46231750330E+02  0.20828517798E+03  0.17200000000E+03 0.  1.
</event>
<event>
 4    1 -0.3291270E-004  0.2046081E+03  0.7818608E-02  0.1145908E+00
          5   -1    0    0  501    0  0.00000000000E+00  0.00000000000E+00  0.12012458603E+04  0.12012550549E+04  0.47000000000E+01 0. -1.
         -5   -1    0    0    0  501 -0.00000000000E+00 -0.00000000000E+00 -0.35949529047E+02  0.36255463570E+02  0.47000000000E+01 0.  1.
          6    1    1    2  502    0  0.68208622944E+02 -0.87338788360E+02  0.46702567054E+03  0.50987984579E+03  0.17200000000E+03 0.  1.
         -6    1    1    2    0  502 -0.68208622944E+02  0.87338788360E+02  0.69827066072E+03  0.72763067268E+03  0.17200000000E+03 0. -1.
</event>
<event>
 4    1 -0.3291270E-004  0.2056040E+03  0.7818608E-02  0.1145095E+00
          5   -1    0    0  501    0  0.00000000000E+00  0.00000000000E+00  0.10216510000E+03  0.10227315219E+03  0.47000000000E+01 0. -1.
         -5   -1    0    0    0  501 -0.00000000000E+00 -0.00000000000E+00 -0.47827388209E+03  0.47829697500E+03  0.47000000000E+01 0.  1.
          6    1    1    2  502    0  0.11157428742E+03 -0.15498353942E+02 -0.81184496693E+02  0.22105190135E+03  0.17200000000E+03 0. -1.
         -6    1    1    2    0  502 -0.11157428742E+03  0.15498353942E+02 -0.29492428540E+03  0.35951822583E+03  0.17200000000E+03 0.  1.
</event>
<event>
 4    1 -0.3291270E-004  0.2428776E+03  0.7818608E-02  0.1117891E+00
         -5   -1    0    0    0  501 -0.00000000000E+00  0.00000000000E+00  0.15735618004E+03  0.15742635547E+03  0.47000000000E+01 0.  1.
          5   -1    0    0  501    0  0.00000000000E+00 -0.00000000000E+00 -0.37498718078E+03  0.37501663397E+03  0.47000000000E+01 0. -1.
          6    1    1    2  502    0 -0.63570363822E+02  0.15926185937E+03 -0.10158546782E+03  0.26326628777E+03  0.17200000000E+03 0.  1.
         -6    1    1    2    0  502  0.63570363822E+02 -0.15926185937E+03 -0.11604553293E+03  0.26917670166E+03  0.17200000000E+03 0.  1.
</event>
<event>
 4    1 -0.3291270E-004  0.2552911E+03  0.7818608E-02  0.1110006E+00
          5   -1    0    0  501    0  0.00000000000E+00  0.00000000000E+00  0.11577366130E+04  0.11577461532E+04  0.47000000000E+01 0. -1.
         -5   -1    0    0    0  501 -0.00000000000E+00 -0.00000000000E+00 -0.57575913293E+02  0.57767428465E+02  0.47000000000E+01 0.  1.
          6    1    1    2  502    0 -0.15962418320E+03  0.10054687154E+03  0.64434089538E+03  0.69307196069E+03  0.17200000000E+03 0. -1.
         -6    1    1    2    0  502  0.15962418320E+03 -0.10054687154E+03  0.45581980437E+03  0.52244162094E+03  0.17200000000E+03 0.  1.
</event>
<event>
 4    1 -0.3291270E-004  0.2910218E+03  0.7818608E-02  0.1089817E+00
          5   -1    0    0  501    0  0.00000000000E+00  0.00000000000E+00  0.29810360279E+03  0.29814065136E+03  0.47000000000E+01 0. -1.
         -5   -1    0    0    0  501 -0.00000000000E+00 -0.00000000000E+00 -0.29503259409E+03  0.29507002825E+03  0.47000000000E+01 0.  1.
          6    1    1    2  502    0  0.10951593357E+03 -0.20764386304E+03  0.58795823405E+02  0.29690177233E+03  0.17200000000E+03 0. -1.
         -6    1    1    2    0  502 -0.10951593357E+03  0.20764386304E+03 -0.55724814704E+02  0.29630890729E+03  0.17200000000E+03 0.  1.
</event>
<event>
 4    1 -0.3291270E-004  0.2128232E+03  0.7818608E-02  0.1139350E+00
          5   -1    0    0  501    0  0.00000000000E+00  0.00000000000E+00  0.29329340551E+03  0.29333106162E+03  0.47000000000E+01 0. -1.
         -5   -1    0    0    0  501 -0.00000000000E+00 -0.00000000000E+00 -0.25431629095E+03  0.25435971741E+03  0.47000000000E+01 0.  1.
          6    1    1    2  502    0  0.12066739939E+03 -0.33897966657E+02  0.19114822057E+03  0.28606176894E+03  0.17200000000E+03 0. -1.
         -6    1    1    2    0  502 -0.12066739939E+03  0.33897966657E+02 -0.15217110601E+03  0.26162901010E+03  0.17200000000E+03 0.  1.
</event>
<event>
 4    1 -0.3291270E-004  0.2014368E+03  0.7818608E-02  0.1148532E+00
         -5   -1    0    0    0  501 -0.00000000000E+00  0.00000000000E+00  0.66662530445E+03  0.66664187277E+03  0.47000000000E+01 0.  1.
          5   -1    0    0  501    0  0.00000000000E+00 -0.00000000000E+00 -0.63251992874E+02  0.63426371507E+02  0.47000000000E+01 0. -1.
          6    1    1    2  502    0  0.10317328758E+03  0.18655958497E+02  0.22935500250E+03  0.30525479395E+03  0.17200000000E+03 0. -1.
         -6    1    1    2    0  502 -0.10317328758E+03 -0.18655958497E+02  0.37401830907E+03  0.42481345033E+03  0.17200000000E+03 0.  1.
</event>
<event>
 4    1 -0.3291270E-004  0.1857120E+03  0.7818608E-02  0.1162387E+00
          5   -1    0    0  501    0  0.00000000000E+00  0.00000000000E+00  0.96507443235E+02  0.96621822586E+02  0.47000000000E+01 0. -1.
         -5   -1    0    0    0  501 -0.00000000000E+00 -0.00000000000E+00 -0.44281599689E+03  0.44284093882E+03  0.47000000000E+01 0.  1.
          6    1    1    2  502    0  0.68419592575E+02  0.14956959020E+02 -0.54451798470E+02  0.19353022924E+03  0.17200000000E+03 0. -1.
         -6    1    1    2    0  502 -0.68419592575E+02 -0.14956959020E+02 -0.29185675518E+03  0.34593253217E+03  0.17200000000E+03 0.  1.
</event>
<event>
 4    1 -0.3291270E-004  0.2911177E+03  0.7818608E-02  0.1089767E+00
         -5   -1    0    0    0  501 -0.00000000000E+00  0.00000000000E+00  0.87197869844E+03  0.87199136494E+03  0.47000000000E+01 0.  1.
          5   -1    0    0  501    0  0.00000000000E+00 -0.00000000000E+00 -0.17980430706E+03  0.17986572447E+03  0.47000000000E+01 0. -1.
          6    1    1    2  502    0 -0.13324032859E+02  0.23449514370E+03 -0.10455944117E+02  0.29130538793E+03  0.17200000000E+03 0. -1.
         -6    1    1    2    0  502  0.13324032859E+02 -0.23449514370E+03  0.70263033550E+03  0.76055170148E+03  0.17200000000E+03 0.  1.
</event>
<event>
 4    1 -0.3291270E-004  0.1871572E+03  0.7818608E-02  0.1161051E+00
         -5   -1    0    0    0  501 -0.00000000000E+00  0.00000000000E+00  0.14694701301E+03  0.14702215694E+03  0.47000000000E+01 0.  1.
          5   -1    0    0  501    0  0.00000000000E+00 -0.00000000000E+00 -0.24106510755E+03  0.24111092069E+03  0.47000000000E+01 0. -1.
          6    1    1    2  502    0 -0.32733411838E+02 -0.66123571344E+02 -0.68169956909E+02  0.19918570723E+03  0.17200000000E+03 0. -1.
         -6    1    1    2    0  502  0.32733411838E+02  0.66123571344E+02 -0.25948137630E+02  0.18894737041E+03  0.17200000000E+03 0. -1.
</event>
<event>
 4    1 -0.3291270E-004  0.1805972E+03  0.7818608E-02  0.1167226E+00
          5   -1    0    0  501    0  0.00000000000E+00  0.00000000000E+00  0.26421379524E+03  0.26425559520E+03  0.47000000000E+01 0. -1.
         -5   -1    0    0    0  501 -0.00000000000E+00 -0.00000000000E+00 -0.17298405972E+03  0.17304789776E+03  0.47000000000E+01 0.  1.
          6    1    1    2  502    0  0.45004549680E+01 -0.54873526514E+02 -0.71471252224E+02  0.19422537914E+03  0.17200000000E+03 0.  1.
         -6    1    1    2    0  502 -0.45004549680E+01  0.54873526514E+02  0.16270098774E+03  0.24307811382E+03  0.17200000000E+03 0. -1.
</event>
<event>
 4    1 -0.3291270E-004  0.2364767E+03  0.7818608E-02  0.1122162E+00
         -5   -1    0    0    0  501 -0.00000000000E+00  0.00000000000E+00  0.22354576760E+04  0.22354626168E+04  0.47000000000E+01 0.  1.
          5   -1    0    0  501    0  0.00000000000E+00 -0.00000000000E+00 -0.48232048019E+02  0.48460504084E+02  0.47000000000E+01 0. -1.
          6    1    1    2  502    0 -0.88449528778E+02  0.13606582382E+03  0.30027519940E+03  0.38221253633E+03  0.17200000000E+03 0. -1.
         -6    1    1    2    0  502  0.88449528778E+02 -0.13606582382E+03  0.18869504286E+04  0.19017105845E+04  0.17200000000E+03 0.  1.
</event>
<event>
 4    1 -0.3291270E-004  0.2579693E+03  0.7818608E-02  0.1108369E+00
         -5   -1    0    0    0  501 -0.00000000000E+00  0.00000000000E+00  0.15079544841E+03  0.15086867555E+03  0.47000000000E+01 0.  1.
          5   -1    0    0  501    0  0.00000000000E+00 -0.00000000000E+00 -0.52902346353E+03  0.52904434121E+03  0.47000000000E+01 0. -1.
          6    1    1    2  502    0 -0.15484736849E+02  0.19163610013E+03 -0.32767664652E+03  0.41703735638E+03  0.17200000000E+03 0. -1.
         -6    1    1    2    0  502  0.15484736849E+02 -0.19163610013E+03 -0.50551368607E+02  0.26287566037E+03  0.17200000000E+03 0.  1.
</event>
<event>
 4    1 -0.3291270E-004  0.1885349E+03  0.7818608E-02  0.1159789E+00
          5   -1    0    0  501    0  0.00000000000E+00  0.00000000000E+00  0.19340183095E+03  0.19345893160E+03  0.47000000000E+01 0. -1.
         -5   -1    0    0    0  501 -0.00000000000E+00 -0.00000000000E+00 -0.28674740360E+03  0.28678591924E+03  0.47000000000E+01 0.  1.
          6    1    1    2  502    0  0.68585597489E+02  0.35459969848E+02  0.97263843456E+02  0.21214534850E+03  0.17200000000E+03 0. -1.
         -6    1    1    2    0  502 -0.68585597489E+02 -0.35459969848E+02 -0.19060941611E+03  0.26809950234E+03  0.17200000000E+03 0.  1.
</event>
<event>
 4    1 -0.3291270E-004  0.1731069E+03  0.7818608E-02  0.1174646E+00
         -5   -1    0    0    0  501 -0.00000000000E+00  0.00000000000E+00  0.71596283506E+02  0.71750385447E+02  0.47000000000E+01 0.  1.
          5   -1    0    0  501    0  0.00000000000E+00 -0.00000000000E+00 -0.56809635912E+03  0.56811580091E+03  0.47000000000E+01 0. -1.
          6    1    1    2  502    0  0.15932403053E+02 -0.11320136247E+02 -0.83784181262E+02  0.19231686349E+03  0.17200000000E+03 0.  1.
         -6    1    1    2    0  502 -0.15932403053E+02  0.11320136247E+02 -0.41271589435E+03  0.44754932287E+03  0.17200000000E+03 0. -1.
</event>
<event>
 4    1 -0.3291270E-004  0.1866463E+03  0.7818608E-02  0.1161521E+00
          5   -1    0    0  501    0  0.00000000000E+00  0.00000000000E+00  0.65998632457E+02  0.66165772770E+02  0.47000000000E+01 0. -1.
         -5   -1    0    0    0  501 -0.00000000000E+00 -0.00000000000E+00 -0.57687956426E+03  0.57689871005E+03  0.47000000000E+01 0.  1.
          6    1    1    2  502    0  0.40497509237E+02 -0.60106607651E+02 -0.16090681644E+03  0.24643022565E+03  0.17200000000E+03 0. -1.
         -6    1    1    2    0  502 -0.40497509237E+02  0.60106607651E+02 -0.34997411536E+03  0.39663425717E+03  0.17200000000E+03 0.  1.
</event>
<event>
 4    1 -0.3291270E-004  0.5362392E+03  0.7818608E-02  0.1004730E+00
         -5   -1    0    0    0  501 -0.00000000000E+00  0.00000000000E+00  0.50281762787E+03  0.50283959361E+03  0.47000000000E+01 0.  1.
          5   -1    0    0  501    0  0.00000000000E+00 -0.00000000000E+00 -0.57205280254E+03  0.57207210987E+03  0.47000000000E+01 0. -1.
          6    1    1    2  502    0  0.22366515016E+03 -0.45600699453E+03 -0.24206707833E+02  0.53678528591E+03  0.17200000000E+03 0. -1.
         -6    1    1    2    0  502 -0.22366515016E+03  0.45600699453E+03 -0.45028466837E+02  0.53812641757E+03  0.17200000000E+03 0.  1.
</event>
<event>
 4    1 -0.3291270E-004  0.1817743E+03  0.7818608E-02  0.1166097E+00
          5   -1    0    0  501    0  0.00000000000E+00  0.00000000000E+00  0.32488656697E+02  0.32826861165E+02  0.47000000000E+01 0. -1.
         -5   -1    0    0    0  501 -0.00000000000E+00 -0.00000000000E+00 -0.11752092088E+04  0.11752186071E+04  0.47000000000E+01 0.  1.
          6    1    1    2  502    0  0.39627804724E+02 -0.43445691751E+02 -0.34589703734E+03  0.39075139345E+03  0.17200000000E+03 0.  1.
         -6    1    1    2    0  502 -0.39627804724E+02  0.43445691751E+02 -0.79682351479E+03  0.81729407483E+03  0.17200000000E+03 0.  1.
</event>
<event>
 4    1 -0.3291270E-004  0.5897185E+03  0.7818608E-02  0.9926970E-01
          5   -1    0    0  501    0  0.00000000000E+00  0.00000000000E+00  0.84865598159E+03  0.84866899619E+03  0.47000000000E+01 0. -1.
         -5   -1    0    0    0  501 -0.00000000000E+00 -0.00000000000E+00 -0.44744803627E+03  0.44747272002E+03  0.47000000000E+01 0.  1.
          6    1    1    2  502    0  0.16565002340E+02 -0.56383464011E+03  0.38868770285E+03  0.70629033055E+03  0.17200000000E+03 0. -1.
         -6    1    1    2    0  502 -0.16565002340E+02  0.56383464011E+03  0.12520242478E+02  0.58985138566E+03  0.17200000000E+03 0.  1.
</event>
<event>
 4    1 -0.3291270E-004  0.2150499E+03  0.7818608E-02  0.1137628E+00
         -5   -1    0    0    0  501 -0.00000000000E+00  0.00000000000E+00  0.19400700711E+03  0.19406392969E+03  0.47000000000E+01 0.  1.
          5   -1    0    0  501    0  0.00000000000E+00 -0.00000000000E+00 -0.23871505298E+03  0.23876131705E+03  0.47000000000E+01 0. -1.
          6    1    1    2  502    0 -0.10800832669E+03  0.70687158262E+02 -0.31798596010E+02  0.21738818663E+03  0.17200000000E+03 0.  1.
         -6    1    1    2    0  502  0.10800832669E+03 -0.70687158262E+02 -0.12909449863E+02  0.21543706012E+03  0.17200000000E+03 0. -1.
</event>
<event>
 4    1 -0.3291270E-004  0.1812008E+03  0.7818608E-02  0.1166646E+00
          5   -1    0    0  501    0  0.00000000000E+00  0.00000000000E+00  0.49035515937E+02  0.49260245871E+02  0.47000000000E+01 0. -1.
         -5   -1    0    0    0  501 -0.00000000000E+00 -0.00000000000E+00 -0.75844130328E+03  0.75845586590E+03  0.47000000000E+01 0.  1.
          6    1    1    2  502    0  0.53823471060E+01 -0.56751728002E+02 -0.21513110811E+03  0.28127410469E+03  0.17200000000E+03 0. -1.
         -6    1    1    2    0  502 -0.53823471060E+01  0.56751728002E+02 -0.49427467923E+03  0.52644200708E+03  0.17200000000E+03 0.  1.
</event>
<event>
 4    1 -0.3291270E-004  0.1955980E+03  0.7818608E-02  0.1153507E+00
          5   -1    0    0  501    0  0.00000000000E+00  0.00000000000E+00  0.20462483249E+03  0.20467880220E+03  0.47000000000E+01 0. -1.
         -5   -1    0    0    0  501 -0.00000000000E+00 -0.00000000000E+00 -0.44880879211E+03  0.44883340102E+03  0.47000000000E+01 0.  1.
          6    1    1    2  502    0 -0.86049793692E+02 -0.35637445648E+02  0.12751331964E+03  0.23349141572E+03  0.17200000000E+03 0. -1.
         -6    1    1    2    0  502  0.86049793692E+02  0.35637445648E+02 -0.37169727926E+03  0.42002078750E+03  0.17200000000E+03 0.  1.
</event>
<event>
 4    1 -0.3291270E-004  0.2201056E+03  0.7818608E-02  0.1133804E+00
          5   -1    0    0  501    0  0.00000000000E+00  0.00000000000E+00  0.11176133789E+03  0.11186012089E+03  0.47000000000E+01 0. -1.
         -5   -1    0    0    0  501 -0.00000000000E+00 -0.00000000000E+00 -0.45856703087E+03  0.45859111614E+03  0.47000000000E+01 0.  1.
          6    1    1    2  502    0  0.12952122049E+03  0.45680821235E+02 -0.10629910962E+03  0.24442991775E+03  0.17200000000E+03 0. -1.
         -6    1    1    2    0  502 -0.12952122049E+03 -0.45680821235E+02 -0.24050658336E+03  0.32602131928E+03  0.17200000000E+03 0. -1.
</event>
<event>
 4    1 -0.3291270E-004  0.2702144E+03  0.7818608E-02  0.1101157E+00
         -5   -1    0    0    0  501 -0.00000000000E+00  0.00000000000E+00  0.89673280699E+03  0.89674512384E+03  0.47000000000E+01 0.  1.
          5   -1    0    0  501    0  0.00000000000E+00 -0.00000000000E+00 -0.88098899552E+02  0.88224180938E+02  0.47000000000E+01 0. -1.
          6    1    1    2  502    0  0.12179035953E+03  0.16911212159E+03  0.26805335723E+03  0.38061582162E+03  0.17200000000E+03 0. -1.
         -6    1    1    2    0  502 -0.12179035953E+03 -0.16911212159E+03  0.54058055021E+03  0.60435348316E+03  0.17200000000E+03 0.  1.
</event>
<event>
 4    1 -0.3291270E-004  0.2427757E+03  0.7818608E-02  0.1117957E+00
          5   -1    0    0  501    0  0.00000000000E+00  0.00000000000E+00  0.14243003434E+03  0.14250756009E+03  0.47000000000E+01 0. -1.
         -5   -1    0    0    0  501 -0.00000000000E+00 -0.00000000000E+00 -0.41567107368E+03  0.41569764432E+03  0.47000000000E+01 0.  1.
          6    1    1    2  502    0 -0.51436255290E+02 -0.16343300693E+03 -0.11698872617E+03  0.26949285364E+03  0.17200000000E+03 0.  1.
         -6    1    1    2    0  502  0.51436255290E+02  0.16343300693E+03 -0.15625231317E+03  0.28871235077E+03  0.17200000000E+03 0.  1.
</event>
<event>
 4    1 -0.3291270E-004  0.3407478E+03  0.7818608E-02  0.1066478E+00
          5   -1    0    0  501    0  0.00000000000E+00  0.00000000000E+00  0.16131961963E+03  0.16138807167E+03  0.47000000000E+01 0. -1.
         -5   -1    0    0    0  501 -0.00000000000E+00 -0.00000000000E+00 -0.82325467498E+03  0.82326809113E+03  0.47000000000E+01 0.  1.
          6    1    1    2  502    0 -0.27908329142E+03  0.92938420194E+02 -0.15621035266E+03  0.37484757939E+03  0.17200000000E+03 0. -1.
         -6    1    1    2    0  502  0.27908329142E+03 -0.92938420194E+02 -0.50572470269E+03  0.60980858342E+03  0.17200000000E+03 0.  1.
</event>
<event>
 4    1 -0.3291270E-004  0.1753033E+03  0.7818608E-02  0.1172428E+00
          5   -1    0    0  501    0  0.00000000000E+00  0.00000000000E+00  0.83335625716E+02  0.83468056845E+02  0.47000000000E+01 0. -1.
         -5   -1    0    0    0  501 -0.00000000000E+00 -0.00000000000E+00 -0.37233397283E+03  0.37236363588E+03  0.47000000000E+01 0.  1.
          6    1    1    2  502    0 -0.33169344462E+02  0.68579468381E+01 -0.12085316184E+03  0.21292422026E+03  0.17200000000E+03 0. -1.
         -6    1    1    2    0  502  0.33169344462E+02 -0.68579468381E+01 -0.16814518528E+03  0.24290747247E+03  0.17200000000E+03 0.  1.
</event>
<event>
 4    1 -0.3291270E-004  0.2386860E+03  0.7818608E-02  0.1120671E+00
          5   -1    0    0  501    0  0.00000000000E+00  0.00000000000E+00  0.17534349300E+02  0.18153330421E+02  0.47000000000E+01 0. -1.
         -5   -1    0    0    0  501 -0.00000000000E+00 -0.00000000000E+00 -0.33968775571E+04  0.33968808086E+04  0.47000000000E+01 0.  1.
          6    1    1    2  502    0 -0.15928956003E+03 -0.44875641968E+02 -0.21088428320E+04  0.21223074888E+04  0.17200000000E+03 0.  1.
         -6    1    1    2    0  502  0.15928956003E+03  0.44875641968E+02 -0.12705003758E+04  0.12927266502E+04  0.17200000000E+03 0. -1.
</event>
<event>
 4    1 -0.3291270E-004  0.1933195E+03  0.7818608E-02  0.1155501E+00
         -5   -1    0    0    0  501 -0.00000000000E+00  0.00000000000E+00  0.11607129806E+04  0.11607224962E+04  0.47000000000E+01 0.  1.
          5   -1    0    0  501    0  0.00000000000E+00 -0.00000000000E+00 -0.58009464595E+02  0.58199553114E+02  0.47000000000E+01 0. -1.
          6    1    1    2  502    0 -0.18041400845E+02 -0.86388389087E+02  0.14435388814E+03  0.24126850382E+03  0.17200000000E+03 0. -1.
         -6    1    1    2    0  502  0.18041400845E+02  0.86388389087E+02  0.95834962782E+03  0.97765354552E+03  0.17200000000E+03 0.  1.
</event>
<event>
 4    1 -0.3291270E-004  0.1780065E+03  0.7818608E-02  0.1169746E+00
          5   -1    0    0  501    0  0.00000000000E+00  0.00000000000E+00  0.17856801261E+03  0.17862985509E+03  0.47000000000E+01 0. -1.
         -5   -1    0    0    0  501 -0.00000000000E+00 -0.00000000000E+00 -0.20372312544E+03  0.20377733396E+03  0.47000000000E+01 0.  1.
          6    1    1    2  502    0 -0.30725556093E+02  0.34033262387E+02  0.56232217179E+02  0.18667722141E+03  0.17200000000E+03 0. -1.
         -6    1    1    2    0  502  0.30725556093E+02 -0.34033262387E+02 -0.81387330004E+02  0.19572996764E+03  0.17200000000E+03 0.  1.
</event>
<event>
 4    1 -0.3291270E-004  0.1991906E+03  0.7818608E-02  0.1150424E+00
          5   -1    0    0  501    0  0.00000000000E+00  0.00000000000E+00  0.17721773140E+04  0.17721835464E+04  0.47000000000E+01 0. -1.
         -5   -1    0    0    0  501 -0.00000000000E+00 -0.00000000000E+00 -0.26760449698E+02  0.27170050940E+02  0.47000000000E+01 0.  1.
          6    1    1    2  502    0 -0.33677698472E+02  0.94650434891E+02  0.12435570984E+04  0.12594090476E+04  0.17200000000E+03 0. -1.
         -6    1    1    2    0  502  0.33677698472E+02 -0.94650434891E+02  0.50185976591E+03  0.53994454978E+03  0.17200000000E+03 0.  1.
</event>
<event>
 4    1 -0.3291270E-004  0.1874689E+03  0.7818608E-02  0.1160764E+00
         -5   -1    0    0    0  501 -0.00000000000E+00  0.00000000000E+00  0.40660477210E+03  0.40663193516E+03  0.47000000000E+01 0.  1.
          5   -1    0    0  501    0  0.00000000000E+00 -0.00000000000E+00 -0.86523455590E+02  0.86651014808E+02  0.47000000000E+01 0. -1.
          6    1    1    2  502    0 -0.30125937450E+02 -0.68213007204E+02  0.17137817178E+03  0.25399815791E+03  0.17200000000E+03 0. -1.
         -6    1    1    2    0  502  0.30125937450E+02  0.68213007204E+02  0.14870314473E+03  0.23928479206E+03  0.17200000000E+03 0. -1.
</event>
<event>
 4    1 -0.3291270E-004  0.1845116E+03  0.7818608E-02  0.1163507E+00
         -5   -1    0    0    0  501 -0.00000000000E+00  0.00000000000E+00  0.36515934045E+02  0.36817162291E+02  0.47000000000E+01 0.  1.
          5   -1    0    0  501    0  0.00000000000E+00 -0.00000000000E+00 -0.10660288592E+04  0.10660392200E+04  0.47000000000E+01 0. -1.
          6    1    1    2  502    0  0.66460794635E+02  0.65938262265E+01 -0.71301795112E+03  0.73650466013E+03  0.17200000000E+03 0. -1.
         -6    1    1    2    0  502 -0.66460794635E+02 -0.65938262265E+01 -0.31649497404E+03  0.36635172220E+03  0.17200000000E+03 0.  1.
</event>
<event>
 4    1 -0.3291270E-004  0.2079406E+03  0.7818608E-02  0.1143207E+00
         -5   -1    0    0    0  501 -0.00000000000E+00  0.00000000000E+00  0.38629118923E+03  0.38631978059E+03  0.47000000000E+01 0.  1.
          5   -1    0    0  501    0  0.00000000000E+00 -0.00000000000E+00 -0.11654100119E+03  0.11663573620E+03  0.47000000000E+01 0. -1.
          6    1    1    2  502    0 -0.29821735939E+02  0.11298659324E+03  0.84461408940E+02  0.22443938109E+03  0.17200000000E+03 0.  1.
         -6    1    1    2    0  502  0.29821735939E+02 -0.11298659324E+03  0.18528877910E+03  0.27851613570E+03  0.17200000000E+03 0. -1.
</event>
<event>
 4    1 -0.3291270E-004  0.1863275E+03  0.7818608E-02  0.1161816E+00
          5   -1    0    0  501    0  0.00000000000E+00  0.00000000000E+00  0.11142187577E+04  0.11142286704E+04  0.47000000000E+01 0. -1.
         -5   -1    0    0    0  501 -0.00000000000E+00 -0.00000000000E+00 -0.30978888603E+02  0.31333393354E+02  0.47000000000E+01 0.  1.
          6    1    1    2  502    0 -0.49059666504E+02  0.52221498496E+02  0.53291467937E+03  0.56454937009E+03  0.17200000000E+03 0. -1.
         -6    1    1    2    0  502  0.49059666504E+02 -0.52221498496E+02  0.55032518969E+03  0.58101269366E+03  0.17200000000E+03 0. -1.
</event>
<event>
 4    1 -0.3291270E-004  0.2117437E+03  0.7818608E-02  0.1140193E+00
         -5   -1    0    0    0  501 -0.00000000000E+00  0.00000000000E+00  0.40842168367E+02  0.41111710217E+02  0.47000000000E+01 0.  1.
          5   -1    0    0  501    0  0.00000000000E+00 -0.00000000000E+00 -0.14710860535E+04  0.14710935615E+04  0.47000000000E+01 0. -1.
          6    1    1    2  502    0 -0.14163797371E+02 -0.12268164826E+03 -0.10979518299E+04  0.11181831785E+04  0.17200000000E+03 0. -1.
         -6    1    1    2    0  502  0.14163797371E+02  0.12268164826E+03 -0.33229205523E+03  0.39402209322E+03  0.17200000000E+03 0.  1.
</event>
<event>
 4    1 -0.3291270E-004  0.1762195E+03  0.7818608E-02  0.1171513E+00
         -5   -1    0    0    0  501 -0.00000000000E+00  0.00000000000E+00  0.33004168197E+03  0.33007514574E+03  0.47000000000E+01 0.  1.
          5   -1    0    0  501    0  0.00000000000E+00 -0.00000000000E+00 -0.95022667399E+02  0.95138831817E+02  0.47000000000E+01 0. -1.
          6    1    1    2  502    0 -0.32268221582E+02  0.20690027920E+02  0.95385925629E+02  0.20037911615E+03  0.17200000000E+03 0. -1.
         -6    1    1    2    0  502  0.32268221582E+02 -0.20690027920E+02  0.13963308894E+03  0.22483486141E+03  0.17200000000E+03 0.  1.
</event>
<event>
 4    1 -0.3291270E-004  0.2901345E+03  0.7818608E-02  0.1090279E+00
         -5   -1    0    0    0  501 -0.00000000000E+00  0.00000000000E+00  0.16170916895E+03  0.16177745617E+03  0.47000000000E+01 0.  1.
          5   -1    0    0  501    0  0.00000000000E+00 -0.00000000000E+00 -0.58781822404E+03  0.58783701356E+03  0.47000000000E+01 0. -1.
          6    1    1    2  502    0  0.15449817948E+03 -0.17528357620E+03 -0.34001285018E+03  0.44697511993E+03  0.17200000000E+03 0. -1.
         -6    1    1    2    0  502 -0.15449817948E+03  0.17528357620E+03 -0.86096204910E+02  0.30263934980E+03  0.17200000000E+03 0. -1.
</event>
<event>
 4    1 -0.3291270E-004  0.1970241E+03  0.7818608E-02  0.1152274E+00
          5   -1    0    0  501    0  0.00000000000E+00  0.00000000000E+00  0.10554511242E+03  0.10564970779E+03  0.47000000000E+01 0. -1.
         -5   -1    0    0    0  501 -0.00000000000E+00 -0.00000000000E+00 -0.66978391142E+03  0.66980040161E+03  0.47000000000E+01 0.  1.
          6    1    1    2  502    0  0.39630259395E+02 -0.87543961053E+02 -0.21665666653E+02  0.19821176476E+03  0.17200000000E+03 0. -1.
         -6    1    1    2    0  502 -0.39630259395E+02  0.87543961053E+02 -0.54257313235E+03  0.57723834464E+03  0.17200000000E+03 0.  1.
</event>
<event>
 4    1 -0.3291270E-004  0.2117653E+03  0.7818608E-02  0.1140176E+00
          5   -1    0    0  501    0  0.00000000000E+00  0.00000000000E+00  0.97921579929E+03  0.97922707866E+03  0.47000000000E+01 0. -1.
         -5   -1    0    0    0  501 -0.00000000000E+00 -0.00000000000E+00 -0.49196447291E+02  0.49420445425E+02  0.47000000000E+01 0.  1.
          6    1    1    2  502    0 -0.85108766748E+02  0.89538020398E+02  0.60248314744E+03  0.63861608360E+03  0.17200000000E+03 0. -1.
         -6    1    1    2    0  502  0.85108766748E+02 -0.89538020398E+02  0.32753620455E+03  0.39003144049E+03  0.17200000000E+03 0.  1.
</event>
<event>
 4    1 -0.3291270E-004  0.1765914E+03  0.7818608E-02  0.1171143E+00
          5   -1    0    0  501    0  0.00000000000E+00  0.00000000000E+00  0.40600789981E+02  0.40871923701E+02  0.47000000000E+01 0. -1.
         -5   -1    0    0    0  501 -0.00000000000E+00 -0.00000000000E+00 -0.87129569709E+03  0.87130837352E+03  0.47000000000E+01 0.  1.
          6    1    1    2  502    0  0.42724848673E+01 -0.39777829947E+02 -0.25625157832E+03  0.31120636445E+03  0.17200000000E+03 0. -1.
         -6    1    1    2    0  502 -0.42724848673E+01  0.39777829947E+02 -0.57444332878E+03  0.60097393277E+03  0.17200000000E+03 0.  1.
</event>
<event>
 4    1 -0.3291270E-004  0.1998469E+03  0.7818608E-02  0.1149868E+00
         -5   -1    0    0    0  501 -0.00000000000E+00  0.00000000000E+00  0.29185219889E+03  0.29189004094E+03  0.47000000000E+01 0.  1.
          5   -1    0    0  501    0  0.00000000000E+00 -0.00000000000E+00 -0.17087225494E+03  0.17093688165E+03  0.47000000000E+01 0. -1.
          6    1    1    2  502    0  0.10173925833E+03  0.19740483629E+01 -0.42875441245E+02  0.20439441532E+03  0.17200000000E+03 0. -1.
         -6    1    1    2    0  502 -0.10173925833E+03 -0.19740483629E+01  0.16385538520E+03  0.25843250727E+03  0.17200000000E+03 0.  1.
</event>
<event>
 4    1 -0.3291270E-004  0.2356908E+03  0.7818608E-02  0.1122697E+00
          5   -1    0    0  501    0  0.00000000000E+00  0.00000000000E+00  0.83687361469E+02  0.83819236871E+02  0.47000000000E+01 0. -1.
         -5   -1    0    0    0  501 -0.00000000000E+00 -0.00000000000E+00 -0.66390640370E+03  0.66392303988E+03  0.47000000000E+01 0.  1.
          6    1    1    2  502    0 -0.91417627604E+02  0.13269884992E+03 -0.30298168534E+03  0.38385943919E+03  0.17200000000E+03 0.  1.
         -6    1    1    2    0  502  0.91417627604E+02 -0.13269884992E+03 -0.27723735689E+03  0.36388283755E+03  0.17200000000E+03 0.  1.
</event>
<event>
 4    1 -0.3291270E-004  0.1799780E+03  0.7818608E-02  0.1167824E+00
         -5   -1    0    0    0  501 -0.00000000000E+00  0.00000000000E+00  0.55307699069E+03  0.55309696043E+03  0.47000000000E+01 0.  1.
          5   -1    0    0  501    0  0.00000000000E+00 -0.00000000000E+00 -0.83216590741E+02  0.83349211001E+02  0.47000000000E+01 0. -1.
          6    1    1    2  502    0  0.52194143935E+02 -0.91563252702E+01  0.40834033625E+03  0.44624421247E+03  0.17200000000E+03 0.  1.
         -6    1    1    2    0  502 -0.52194143935E+02  0.91563252702E+01  0.61520063701E+02  0.19020195896E+03  0.17200000000E+03 0. -1.
</event>
<event>
 4    1 -0.3291270E-004  0.2099567E+03  0.7818608E-02  0.1141600E+00
         -5   -1    0    0    0  501 -0.00000000000E+00  0.00000000000E+00  0.17868956960E+04  0.17869018771E+04  0.47000000000E+01 0.  1.
          5   -1    0    0  501    0  0.00000000000E+00 -0.00000000000E+00 -0.24589354376E+02  0.25034503163E+02  0.47000000000E+01 0. -1.
          6    1    1    2  502    0 -0.70150643431E+02 -0.97860588051E+02  0.81103536420E+03  0.83777095286E+03  0.17200000000E+03 0.  1.
         -6    1    1    2    0  502  0.70150643431E+02  0.97860588051E+02  0.95127097747E+03  0.97416542745E+03  0.17200000000E+03 0. -1.
</event>
<event>
 4    1 -0.3291270E-004  0.1746169E+03  0.7818608E-02  0.1173117E+00
         -5   -1    0    0    0  501 -0.00000000000E+00  0.00000000000E+00  0.41199275247E+02  0.41466495884E+02  0.47000000000E+01 0.  1.
          5   -1    0    0  501    0  0.00000000000E+00 -0.00000000000E+00 -0.76698550497E+03  0.76699990537E+03  0.47000000000E+01 0. -1.
          6    1    1    2  502    0  0.83035496117E+00 -0.30105851587E+02 -0.28354232049E+03  0.33299744638E+03  0.17200000000E+03 0. -1.
         -6    1    1    2    0  502 -0.83035496117E+00  0.30105851587E+02 -0.44224390924E+03  0.47546895487E+03  0.17200000000E+03 0.  1.
</event>
<event>
 4    1 -0.3291270E-004  0.1807990E+03  0.7818608E-02  0.1167032E+00
          5   -1    0    0  501    0  0.00000000000E+00  0.00000000000E+00  0.38226751808E+03  0.38229641036E+03  0.47000000000E+01 0. -1.
         -5   -1    0    0    0  501 -0.00000000000E+00 -0.00000000000E+00 -0.86439949824E+02  0.86567632090E+02  0.47000000000E+01 0.  1.
          6    1    1    2  502    0 -0.42892851566E+02 -0.35559486182E+02  0.17342096880E+03  0.25052565975E+03  0.17200000000E+03 0.  1.
         -6    1    1    2    0  502  0.42892851566E+02  0.35559486182E+02  0.12240659946E+03  0.21833838271E+03  0.17200000000E+03 0.  1.
</event>
<event>
 4    1 -0.3291270E-004  0.2255240E+03  0.7818608E-02  0.1129830E+00
         -5   -1    0    0    0  501 -0.00000000000E+00  0.00000000000E+00  0.27771175194E+02  0.28166081936E+02  0.47000000000E+01 0.  1.
          5   -1    0    0  501    0  0.00000000000E+00 -0.00000000000E+00 -0.18183271754E+04  0.18183332496E+04  0.47000000000E+01 0. -1.
          6    1    1    2  502    0  0.45888982559E+02  0.13846036834E+03 -0.88510522038E+03  0.91338509046E+03  0.17200000000E+03 0. -1.
         -6    1    1    2    0  502 -0.45888982559E+02 -0.13846036834E+03 -0.90545077979E+03  0.93311424110E+03  0.17200000000E+03 0.  1.
</event>
<event>
 4    1 -0.3291270E-004  0.3092324E+03  0.7818608E-02  0.1080714E+00
         -5   -1    0    0    0  501 -0.00000000000E+00  0.00000000000E+00  0.11935456478E+03  0.11944706833E+03  0.47000000000E+01 0.  1.
          5   -1    0    0  501    0  0.00000000000E+00 -0.00000000000E+00 -0.14336848303E+04  0.14336925342E+04  0.47000000000E+01 0. -1.
          6    1    1    2  502    0  0.17556668936E+03  0.18766197258E+03 -0.11731179933E+04  0.12131902178E+04  0.17200000000E+03 0. -1.
         -6    1    1    2    0  502 -0.17556668936E+03 -0.18766197258E+03 -0.14121227225E+03  0.33994938476E+03  0.17200000000E+03 0.  1.
</event>
<event>
 4    1 -0.3291270E-004  0.2343682E+03  0.7818608E-02  0.1123602E+00
          5   -1    0    0  501    0  0.00000000000E+00  0.00000000000E+00  0.84510015177E+02  0.84640608843E+02  0.47000000000E+01 0. -1.
         -5   -1    0    0    0  501 -0.00000000000E+00 -0.00000000000E+00 -0.69448822184E+03  0.69450412545E+03  0.47000000000E+01 0.  1.
          6    1    1    2  502    0  0.56916860211E+02  0.14867731214E+03 -0.20565208535E+03  0.31180322694E+03  0.17200000000E+03 0. -1.
         -6    1    1    2    0  502 -0.56916860211E+02 -0.14867731214E+03 -0.40432612131E+03  0.46734150736E+03  0.17200000000E+03 0.  1.
</event>
<event>
 4    1 -0.3291270E-004  0.1840754E+03  0.7818608E-02  0.1163916E+00
         -5   -1    0    0    0  501 -0.00000000000E+00  0.00000000000E+00  0.79340674057E+03  0.79342066143E+03  0.47000000000E+01 0.  1.
          5   -1    0    0  501    0  0.00000000000E+00 -0.00000000000E+00 -0.48713880365E+02  0.48940087252E+02  0.47000000000E+01 0. -1.
          6    1    1    2  502    0  0.98957653099E+01 -0.64821581991E+02  0.22307744090E+03  0.28921844392E+03  0.17200000000E+03 0. -1.
         -6    1    1    2    0  502 -0.98957653099E+01  0.64821581991E+02  0.52161541931E+03  0.55314230477E+03  0.17200000000E+03 0.  1.
</event>
<event>
 4    1 -0.3291270E-004  0.3599728E+03  0.7818608E-02  0.1058595E+00
         -5   -1    0    0    0  501 -0.00000000000E+00  0.00000000000E+00  0.12694067803E+04  0.12694154811E+04  0.47000000000E+01 0.  1.
          5   -1    0    0  501    0  0.00000000000E+00 -0.00000000000E+00 -0.14153337710E+03  0.14161139373E+03  0.47000000000E+01 0. -1.
          6    1    1    2  502    0  0.28904151658E+03 -0.12826308291E+03  0.19127751651E+03  0.40763648643E+03  0.17200000000E+03 0. -1.
         -6    1    1    2    0  502 -0.28904151658E+03  0.12826308291E+03  0.93659588665E+03  0.10033903885E+04  0.17200000000E+03 0.  1.
</event>
<event>
 4    1 -0.3291270E-004  0.2198081E+03  0.7818608E-02  0.1134026E+00
          5   -1    0    0  501    0  0.00000000000E+00  0.00000000000E+00  0.11306595843E+03  0.11316360261E+03  0.47000000000E+01 0. -1.
         -5   -1    0    0    0  501 -0.00000000000E+00 -0.00000000000E+00 -0.66020298729E+03  0.66021971678E+03  0.47000000000E+01 0.  1.
          6    1    1    2  502    0  0.83798118030E+02  0.10821027192E+03 -0.43779775975E+02  0.22412553696E+03  0.17200000000E+03 0. -1.
         -6    1    1    2    0  502 -0.83798118030E+02 -0.10821027192E+03 -0.50335725288E+03  0.54925778243E+03  0.17200000000E+03 0.  1.
</event>
<event>
 4    1 -0.3291270E-004  0.1879880E+03  0.7818608E-02  0.1160289E+00
         -5   -1    0    0    0  501 -0.00000000000E+00  0.00000000000E+00  0.71570279268E+03  0.71571822489E+03  0.47000000000E+01 0.  1.
          5   -1    0    0  501    0  0.00000000000E+00 -0.00000000000E+00 -0.49295379889E+02  0.49518930505E+02  0.47000000000E+01 0. -1.
          6    1    1    2  502    0  0.26814409703E+02  0.70968103584E+02  0.32155572433E+03  0.37247492284E+03  0.17200000000E+03 0. -1.
         -6    1    1    2    0  502 -0.26814409703E+02 -0.70968103584E+02  0.34485168846E+03  0.39276223256E+03  0.17200000000E+03 0. -1.
</event>
<event>
 4    1 -0.3291270E-004  0.3164213E+03  0.7818608E-02  0.1077308E+00
         -5   -1    0    0    0  501 -0.00000000000E+00  0.00000000000E+00  0.56893171817E+03  0.56895113142E+03  0.47000000000E+01 0.  1.
          5   -1    0    0  501    0  0.00000000000E+00 -0.00000000000E+00 -0.28805047111E+03  0.28808881254E+03  0.47000000000E+01 0. -1.
          6    1    1    2  502    0 -0.26556949217E+03 -0.33549184890E+01 -0.12687706591E+03  0.34091083952E+03  0.17200000000E+03 0. -1.
         -6    1    1    2    0  502  0.26556949217E+03  0.33549184890E+01  0.40775831297E+03  0.51612910443E+03  0.17200000000E+03 0.  1.
</event>
<event>
 4    1 -0.3291270E-004  0.1721787E+03  0.7818608E-02  0.1175595E+00
         -5   -1    0    0    0  501 -0.00000000000E+00  0.00000000000E+00  0.28255228739E+04  0.28255267829E+04  0.47000000000E+01 0.  1.
          5   -1    0    0  501    0  0.00000000000E+00 -0.00000000000E+00 -0.10032787133E+02  0.11079116285E+02  0.47000000000E+01 0. -1.
          6    1    1    2  502    0 -0.56257573697E+01  0.54626616575E+01  0.15214176731E+04  0.15311293955E+04  0.17200000000E+03 0.  1.
         -6    1    1    2    0  502  0.56257573697E+01 -0.54626616575E+01  0.12940724137E+04  0.13054765037E+04  0.17200000000E+03 0. -1.
</event>
<event>
 4    1 -0.3291270E-004  0.2123736E+03  0.7818608E-02  0.1139700E+00
          5   -1    0    0  501    0  0.00000000000E+00  0.00000000000E+00  0.42974876595E+03  0.42977446624E+03  0.47000000000E+01 0. -1.
         -5   -1    0    0    0  501 -0.00000000000E+00 -0.00000000000E+00 -0.11846778176E+03  0.11856097721E+03  0.47000000000E+01 0.  1.
          6    1    1    2  502    0 -0.11143613992E+03  0.55682389154E+02  0.24847932654E+03  0.32687079628E+03  0.17200000000E+03 0. -1.
         -6    1    1    2    0  502  0.11143613992E+03 -0.55682389154E+02  0.62801657642E+02  0.22146464717E+03  0.17200000000E+03 0.  1.
</event>
<event>
 4    1 -0.3291270E-004  0.2809284E+03  0.7818608E-02  0.1095183E+00
          5   -1    0    0  501    0  0.00000000000E+00  0.00000000000E+00  0.16309234333E+03  0.16316005164E+03  0.47000000000E+01 0. -1.
         -5   -1    0    0    0  501 -0.00000000000E+00 -0.00000000000E+00 -0.57590946640E+03  0.57592864444E+03  0.47000000000E+01 0.  1.
          6    1    1    2  502    0  0.21616193781E+03  0.51096057616E+02 -0.58569312568E+02  0.28696890918E+03  0.17200000000E+03 0. -1.
         -6    1    1    2    0  502 -0.21616193781E+03 -0.51096057616E+02 -0.35424781050E+03  0.45211978690E+03  0.17200000000E+03 0.  1.
</event>
<event>
 4    1 -0.3291270E-004  0.1978912E+03  0.7818608E-02  0.1151531E+00
          5   -1    0    0  501    0  0.00000000000E+00  0.00000000000E+00  0.82137676812E+03  0.82139021495E+03  0.47000000000E+01 0. -1.
         -5   -1    0    0    0  501 -0.00000000000E+00 -0.00000000000E+00 -0.10067450235E+03  0.10078415264E+03  0.47000000000E+01 0.  1.
          6    1    1    2  502    0 -0.89209505326E+02  0.40231671894E+02  0.69499605193E+03  0.72262053352E+03  0.17200000000E+03 0. -1.
         -6    1    1    2    0  502  0.89209505326E+02 -0.40231671894E+02  0.25706213839E+02  0.19955383407E+03  0.17200000000E+03 0.  1.
</event>
<event>
 4    1 -0.3291270E-004  0.2129700E+03  0.7818608E-02  0.1139235E+00
          5   -1    0    0  501    0  0.00000000000E+00  0.00000000000E+00  0.99784158034E+03  0.99785264917E+03  0.47000000000E+01 0. -1.
         -5   -1    0    0    0  501 -0.00000000000E+00 -0.00000000000E+00 -0.73688714410E+02  0.73838449546E+02  0.47000000000E+01 0.  1.
          6    1    1    2  502    0 -0.84892599801E+02  0.92549804765E+02  0.79407565854E+03  0.82213890028E+03  0.17200000000E+03 0. -1.
         -6    1    1    2    0  502  0.84892599801E+02 -0.92549804765E+02  0.13007720739E+03  0.24955219844E+03  0.17200000000E+03 0.  1.
</event>
<event>
 4    1 -0.3291270E-004  0.2226737E+03  0.7818608E-02  0.1131905E+00
          5   -1    0    0  501    0  0.00000000000E+00  0.00000000000E+00  0.19989884691E+03  0.19995409222E+03  0.47000000000E+01 0. -1.
         -5   -1    0    0    0  501 -0.00000000000E+00 -0.00000000000E+00 -0.25888252477E+03  0.25892518539E+03  0.47000000000E+01 0.  1.
          6    1    1    2  502    0 -0.13942371773E+03  0.23676901793E+02 -0.76672223484E+02  0.23550413712E+03  0.17200000000E+03 0.  1.
         -6    1    1    2    0  502  0.13942371773E+03 -0.23676901793E+02  0.17688545628E+02  0.22337514050E+03  0.17200000000E+03 0. -1.
</event>
<event>
 4    1 -0.3291270E-004  0.1734560E+03  0.7818608E-02  0.1174291E+00
         -5   -1    0    0    0  501 -0.00000000000E+00  0.00000000000E+00  0.32680992309E+03  0.32684371774E+03  0.47000000000E+01 0.  1.
          5   -1    0    0  501    0  0.00000000000E+00 -0.00000000000E+00 -0.10412314751E+03  0.10422916985E+03  0.47000000000E+01 0. -1.
          6    1    1    2  502    0  0.18109384197E+02  0.13229861051E+02  0.37741046332E+02  0.17751440955E+03  0.17200000000E+03 0. -1.
         -6    1    1    2    0  502 -0.18109384197E+02 -0.13229861051E+02  0.18494572925E+03  0.25355847804E+03  0.17200000000E+03 0.  1.
</event>
<event>
 4    1 -0.3291270E-004  0.4495798E+03  0.7818608E-02  0.1027847E+00
         -5   -1    0    0    0  501 -0.00000000000E+00  0.00000000000E+00  0.54660836190E+03  0.54662856795E+03  0.47000000000E+01 0.  1.
          5   -1    0    0  501    0  0.00000000000E+00 -0.00000000000E+00 -0.60338992647E+03  0.60340823111E+03  0.47000000000E+01 0. -1.
          6    1    1    2  502    0  0.41027690278E+03  0.64890829390E+02 -0.38620396520E+03  0.59268495800E+03  0.17200000000E+03 0. -1.
         -6    1    1    2    0  502 -0.41027690278E+03 -0.64890829390E+02  0.32942240063E+03  0.55735184106E+03  0.17200000000E+03 0.  1.
</event>
<event>
 4    1 -0.3291270E-004  0.3317998E+03  0.7818608E-02  0.1070343E+00
         -5   -1    0    0    0  501 -0.00000000000E+00  0.00000000000E+00  0.87233902322E+03  0.87235168449E+03  0.47000000000E+01 0.  1.
          5   -1    0    0  501    0  0.00000000000E+00 -0.00000000000E+00 -0.26311752615E+03  0.26315950024E+03  0.47000000000E+01 0. -1.
          6    1    1    2  502    0 -0.27938634265E+03  0.49500979132E+02 -0.10497011814E+03  0.34800833481E+03  0.17200000000E+03 0. -1.
         -6    1    1    2    0  502  0.27938634265E+03 -0.49500979132E+02  0.71419161521E+03  0.78750284992E+03  0.17200000000E+03 0.  1.
</event>
<event>
 4    1 -0.3291270E-004  0.1742827E+03  0.7818608E-02  0.1173454E+00
          5   -1    0    0  501    0  0.00000000000E+00  0.00000000000E+00  0.55872539874E+02  0.56069873479E+02  0.47000000000E+01 0. -1.
         -5   -1    0    0    0  501 -0.00000000000E+00 -0.00000000000E+00 -0.78813198052E+03  0.78814599455E+03  0.47000000000E+01 0.  1.
          6    1    1    2  502    0 -0.20736285860E+02  0.18985533410E+02 -0.13049901085E+03  0.21772559763E+03  0.17200000000E+03 0. -1.
         -6    1    1    2    0  502  0.20736285860E+02 -0.18985533410E+02 -0.60176042980E+03  0.62649027040E+03  0.17200000000E+03 0.  1.
</event>
<event>
 4    1 -0.3291270E-004  0.2070828E+03  0.7818608E-02  0.1143897E+00
          5   -1    0    0  501    0  0.00000000000E+00  0.00000000000E+00  0.48806580252E+02  0.49032359477E+02  0.47000000000E+01 0. -1.
         -5   -1    0    0    0  501 -0.00000000000E+00 -0.00000000000E+00 -0.10801489686E+04  0.10801591940E+04  0.47000000000E+01 0.  1.
          6    1    1    2  502    0  0.10509034573E+03 -0.47489983754E+02 -0.27047160212E+03  0.34064375361E+03  0.17200000000E+03 0. -1.
         -6    1    1    2    0  502 -0.10509034573E+03  0.47489983754E+02 -0.76087078624E+03  0.78854779987E+03  0.17200000000E+03 0.  1.
</event>
<event>
 4    1 -0.3291270E-004  0.1971019E+03  0.7818608E-02  0.1152207E+00
         -5   -1    0    0    0  501 -0.00000000000E+00  0.00000000000E+00  0.25070661997E+03  0.25075067157E+03  0.47000000000E+01 0.  1.
          5   -1    0    0  501    0  0.00000000000E+00 -0.00000000000E+00 -0.16316293249E+03  0.16323061152E+03  0.47000000000E+01 0. -1.
          6    1    1    2  502    0 -0.55871481634E+02  0.78380700273E+02 -0.28903830134E+01  0.19712308578E+03  0.17200000000E+03 0. -1.
         -6    1    1    2    0  502  0.55871481634E+02 -0.78380700273E+02  0.90434070491E+02  0.21685819731E+03  0.17200000000E+03 0.  1.
</event>
<event>
 4    1 -0.3291270E-004  0.2637427E+03  0.7818608E-02  0.1104915E+00
         -5   -1    0    0    0  501 -0.00000000000E+00  0.00000000000E+00  0.12821391431E+03  0.12830003049E+03  0.47000000000E+01 0.  1.
          5   -1    0    0  501    0  0.00000000000E+00 -0.00000000000E+00 -0.54409575894E+03  0.54411605830E+03  0.47000000000E+01 0. -1.
          6    1    1    2  502    0  0.14480946381E+03  0.13786377343E+03 -0.22750011259E+03  0.34830518523E+03  0.17200000000E+03 0. -1.
         -6    1    1    2    0  502 -0.14480946381E+03 -0.13786377343E+03 -0.18838173204E+03  0.32411090355E+03  0.17200000000E+03 0. -1.
</event>
<event>
 4    1 -0.3291270E-004  0.2125118E+03  0.7818608E-02  0.1139592E+00
          5   -1    0    0  501    0  0.00000000000E+00  0.00000000000E+00  0.34205699123E+03  0.34208927965E+03  0.47000000000E+01 0. -1.
         -5   -1    0    0    0  501 -0.00000000000E+00 -0.00000000000E+00 -0.29638004454E+03  0.29641730854E+03  0.47000000000E+01 0.  1.
          6    1    1    2  502    0  0.66277093335E+02  0.10575735083E+03  0.26059694505E+03  0.33626185945E+03  0.17200000000E+03 0. -1.
         -6    1    1    2    0  502 -0.66277093335E+02 -0.10575735083E+03 -0.21491999835E+03  0.30224472873E+03  0.17200000000E+03 0.  1.
</event>
<event>
 4    1 -0.3291270E-004  0.2927595E+03  0.7818608E-02  0.1088917E+00
         -5   -1    0    0    0  501 -0.00000000000E+00  0.00000000000E+00  0.11569133447E+04  0.11569228916E+04  0.47000000000E+01 0.  1.
          5   -1    0    0  501    0  0.00000000000E+00 -0.00000000000E+00 -0.74247630257E+02  0.74396240488E+02  0.47000000000E+01 0. -1.
          6    1    1    2  502    0  0.20380107340E+03 -0.12078599945E+03  0.50574731438E+03  0.58437015768E+03  0.17200000000E+03 0. -1.
         -6    1    1    2    0  502 -0.20380107340E+03  0.12078599945E+03  0.57691840009E+03  0.64694897445E+03  0.17200000000E+03 0.  1.
</event>
<event>
 4    1 -0.3291270E-004  0.1859963E+03  0.7818608E-02  0.1162123E+00
         -5   -1    0    0    0  501 -0.00000000000E+00  0.00000000000E+00  0.27455342922E+02  0.27854727695E+02  0.47000000000E+01 0.  1.
          5   -1    0    0  501    0  0.00000000000E+00 -0.00000000000E+00 -0.12866850103E+04  0.12866935943E+04  0.47000000000E+01 0. -1.
          6    1    1    2  502    0  0.33592786832E+02  0.62306950488E+02 -0.73977464558E+03  0.76279824177E+03  0.17200000000E+03 0. -1.
         -6    1    1    2    0  502 -0.33592786832E+02 -0.62306950488E+02 -0.51945502179E+03  0.55175008026E+03  0.17200000000E+03 0.  1.
</event>
<event>
 4    1 -0.3291270E-004  0.1865356E+03  0.7818608E-02  0.1161624E+00
          5   -1    0    0  501    0  0.00000000000E+00  0.00000000000E+00  0.42975563361E+03  0.42978133350E+03  0.47000000000E+01 0. -1.
         -5   -1    0    0    0  501 -0.00000000000E+00 -0.00000000000E+00 -0.80891723797E+02  0.81028149299E+02  0.47000000000E+01 0.  1.
          6    1    1    2  502    0  0.94265557419E+01 -0.71572781079E+02  0.17020081985E+03  0.25251503326E+03  0.17200000000E+03 0.  1.
         -6    1    1    2    0  502 -0.94265557419E+01  0.71572781079E+02  0.17866308997E+03  0.25829444954E+03  0.17200000000E+03 0.  1.
</event>
<event>
 4    1 -0.3291270E-004  0.1817713E+03  0.7818608E-02  0.1166100E+00
          5   -1    0    0  501    0  0.00000000000E+00  0.00000000000E+00  0.16937329092E+04  0.16937394303E+04  0.47000000000E+01 0. -1.
         -5   -1    0    0    0  501 -0.00000000000E+00 -0.00000000000E+00 -0.33142591392E+02  0.33474189522E+02  0.47000000000E+01 0.  1.
          6    1    1    2  502    0  0.43400703423E+01 -0.58634159357E+02  0.13862642040E+04  0.13981306249E+04  0.17200000000E+03 0. -1.
         -6    1    1    2    0  502 -0.43400703423E+01  0.58634159357E+02  0.27432611381E+03  0.32908299496E+03  0.17200000000E+03 0.  1.
</event>
<event>
 4    1 -0.3291270E-004  0.2683043E+03  0.7818608E-02  0.1102254E+00
         -5   -1    0    0    0  501 -0.00000000000E+00  0.00000000000E+00  0.51470531368E+03  0.51472677212E+03  0.47000000000E+01 0.  1.
          5   -1    0    0  501    0  0.00000000000E+00 -0.00000000000E+00 -0.15247868453E+03  0.15255110368E+03  0.47000000000E+01 0. -1.
          6    1    1    2  502    0  0.77779845197E+02 -0.19066596110E+03  0.84925604019E+02  0.28142418386E+03  0.17200000000E+03 0. -1.
         -6    1    1    2    0  502 -0.77779845197E+02  0.19066596110E+03  0.27730102514E+03  0.38585369194E+03  0.17200000000E+03 0.  1.
</event>
<event>
 4    1 -0.3291270E-004  0.1774723E+03  0.7818608E-02  0.1170272E+00
          5   -1    0    0  501    0  0.00000000000E+00  0.00000000000E+00  0.59208510625E+03  0.59210376037E+03  0.47000000000E+01 0. -1.
         -5   -1    0    0    0  501 -0.00000000000E+00 -0.00000000000E+00 -0.56644275988E+02  0.56838930341E+02  0.47000000000E+01 0.  1.
          6    1    1    2  502    0 -0.42750527967E+02 -0.92084143212E+01  0.34904202284E+03  0.39156958033E+03  0.17200000000E+03 0. -1.
         -6    1    1    2    0  502  0.42750527967E+02  0.92084143212E+01  0.18639880742E+03  0.25737311038E+03  0.17200000000E+03 0.  1.
</event>
<event>
 4    1 -0.3291270E-004  0.3076133E+03  0.7818608E-02  0.1081496E+00
         -5   -1    0    0    0  501 -0.00000000000E+00  0.00000000000E+00  0.15498811390E+03  0.15505936106E+03  0.47000000000E+01 0.  1.
          5   -1    0    0  501    0  0.00000000000E+00 -0.00000000000E+00 -0.13449897231E+04  0.13449979351E+04  0.47000000000E+01 0. -1.
          6    1    1    2  502    0 -0.44841566728E+02 -0.25106010568E+03 -0.11493098219E+04  0.11897642663E+04  0.17200000000E+03 0. -1.
         -6    1    1    2    0  502  0.44841566728E+02  0.25106010568E+03 -0.40691787331E+02  0.31029302977E+03  0.17200000000E+03 0.  1.
</event>
<event>
 4    1 -0.3291270E-004  0.2632597E+03  0.7818608E-02  0.1105200E+00
          5   -1    0    0  501    0  0.00000000000E+00  0.00000000000E+00  0.34366918845E+03  0.34370132541E+03  0.47000000000E+01 0. -1.
         -5   -1    0    0    0  501 -0.00000000000E+00 -0.00000000000E+00 -0.31512567346E+03  0.31516072102E+03  0.47000000000E+01 0.  1.
          6    1    1    2  502    0 -0.14832558311E+03  0.13312089900E+03  0.21198070239E+03  0.33799625817E+03  0.17200000000E+03 0. -1.
         -6    1    1    2    0  502  0.14832558311E+03 -0.13312089900E+03 -0.18343718740E+03  0.32086578826E+03  0.17200000000E+03 0.  1.
</event>
<event>
 4    1 -0.3291270E-004  0.1740652E+03  0.7818608E-02  0.1173674E+00
          5   -1    0    0  501    0  0.00000000000E+00  0.00000000000E+00  0.79164950141E+03  0.79166345316E+03  0.47000000000E+01 0. -1.
         -5   -1    0    0    0  501 -0.00000000000E+00 -0.00000000000E+00 -0.44237902692E+02  0.44486874857E+02  0.47000000000E+01 0.  1.
          6    1    1    2  502    0  0.10595107339E+02 -0.24544567792E+02  0.52875851221E+03  0.55667248570E+03  0.17200000000E+03 0. -1.
         -6    1    1    2    0  502 -0.10595107339E+02  0.24544567792E+02  0.21865308651E+03  0.27947784232E+03  0.17200000000E+03 0.  1.
</event>
<event>
 4    1 -0.3291270E-004  0.6580261E+03  0.7818608E-02  0.9791834E-01
         -5   -1    0    0    0  501 -0.00000000000E+00  0.00000000000E+00  0.11790828612E+04  0.11790922286E+04  0.47000000000E+01 0.  1.
          5   -1    0    0  501    0  0.00000000000E+00 -0.00000000000E+00 -0.83836829663E+03  0.83838147093E+03  0.47000000000E+01 0. -1.
          6    1    1    2  502    0 -0.60898130615E+03 -0.18043315803E+03 -0.58584344604E+03  0.88102831908E+03  0.17200000000E+03 0. -1.
         -6    1    1    2    0  502  0.60898130615E+03  0.18043315803E+03  0.92655801061E+03  0.11364453805E+04  0.17200000000E+03 0.  1.
</event>
<event>
 4    1 -0.3291270E-004  0.3015742E+03  0.7818608E-02  0.1084456E+00
         -5   -1    0    0    0  501 -0.00000000000E+00  0.00000000000E+00  0.18254423128E+04  0.18254483634E+04  0.47000000000E+01 0.  1.
          5   -1    0    0  501    0  0.00000000000E+00 -0.00000000000E+00 -0.50604384860E+02  0.50822177905E+02  0.47000000000E+01 0. -1.
          6    1    1    2  502    0  0.24763484536E+03  0.63243351166E+01  0.10122142646E+04  0.10561840423E+04  0.17200000000E+03 0.  1.
         -6    1    1    2    0  502 -0.24763484536E+03 -0.63243351166E+01  0.76262366334E+03  0.82008649894E+03  0.17200000000E+03 0.  1.
</event>
<event>
 4    1 -0.3291270E-004  0.2079383E+03  0.7818608E-02  0.1143209E+00
          5   -1    0    0  501    0  0.00000000000E+00  0.00000000000E+00  0.58433128243E+03  0.58435018408E+03  0.47000000000E+01 0. -1.
         -5   -1    0    0    0  501 -0.00000000000E+00 -0.00000000000E+00 -0.12276914499E+03  0.12285907765E+03  0.47000000000E+01 0.  1.
          6    1    1    2  502    0 -0.10711622847E+03 -0.46695119085E+02  0.78147962280E+01  0.20808505854E+03  0.17200000000E+03 0. -1.
         -6    1    1    2    0  502  0.10711622847E+03  0.46695119085E+02  0.45374734121E+03  0.49912420319E+03  0.17200000000E+03 0. -1.
</event>
<event>
 4    1 -0.3291270E-004  0.2671973E+03  0.7818608E-02  0.1102894E+00
         -5   -1    0    0    0  501 -0.00000000000E+00  0.00000000000E+00  0.11455189299E+03  0.11464827163E+03  0.47000000000E+01 0.  1.
          5   -1    0    0  501    0  0.00000000000E+00 -0.00000000000E+00 -0.63394096677E+03  0.63395838929E+03  0.47000000000E+01 0. -1.
          6    1    1    2  502    0 -0.20342617079E+03 -0.20692541005E+02 -0.30912763388E+03  0.40860039433E+03  0.17200000000E+03 0. -1.
         -6    1    1    2    0  502  0.20342617079E+03  0.20692541005E+02 -0.21026143989E+03  0.34000626659E+03  0.17200000000E+03 0.  1.
</event>
<event>
 4    1 -0.3291270E-004  0.1949958E+03  0.7818608E-02  0.1154031E+00
          5   -1    0    0  501    0  0.00000000000E+00  0.00000000000E+00  0.22474948121E+03  0.22479861944E+03  0.47000000000E+01 0. -1.
         -5   -1    0    0    0  501 -0.00000000000E+00 -0.00000000000E+00 -0.16909347080E+03  0.16915877709E+03  0.47000000000E+01 0.  1.
          6    1    1    2  502    0 -0.78259548493E+02  0.48112486550E+02  0.29530729162E+02  0.19721924921E+03  0.17200000000E+03 0. -1.
         -6    1    1    2    0  502  0.78259548493E+02 -0.48112486550E+02  0.26125281251E+02  0.19673814732E+03  0.17200000000E+03 0.  1.
</event>
<event>
 4    1 -0.3291270E-004  0.2168421E+03  0.7818608E-02  0.1136260E+00
          5   -1    0    0  501    0  0.00000000000E+00  0.00000000000E+00  0.14547630033E+03  0.14555220355E+03  0.47000000000E+01 0. -1.
         -5   -1    0    0    0  501 -0.00000000000E+00 -0.00000000000E+00 -0.71228270042E+03  0.71229820673E+03  0.47000000000E+01 0.  1.
          6    1    1    2  502    0 -0.56472478129E+02 -0.11936221190E+03  0.33651949045E+02  0.21943776359E+03  0.17200000000E+03 0. -1.
         -6    1    1    2    0  502  0.56472478129E+02  0.11936221190E+03 -0.60045834913E+03  0.63841264669E+03  0.17200000000E+03 0.  1.
</event>
<event>
 4    1 -0.3291270E-004  0.2499444E+03  0.7818608E-02  0.1113340E+00
          5   -1    0    0  501    0  0.00000000000E+00  0.00000000000E+00  0.14940002194E+03  0.14947393270E+03  0.47000000000E+01 0. -1.
         -5   -1    0    0    0  501 -0.00000000000E+00 -0.00000000000E+00 -0.13209207818E+04  0.13209291434E+04  0.47000000000E+01 0.  1.
          6    1    1    2  502    0  0.17552451276E+03 -0.45600079139E+02  0.22075893005E+02  0.25091745027E+03  0.17200000000E+03 0. -1.
         -6    1    1    2    0  502 -0.17552451276E+03  0.45600079139E+02 -0.11935966529E+04  0.12194856258E+04  0.17200000000E+03 0.  1.
</event>
<event>
 4    1 -0.3291270E-004  0.3453339E+03  0.7818608E-02  0.1064547E+00
         -5   -1    0    0    0  501 -0.00000000000E+00  0.00000000000E+00  0.25928993442E+03  0.25933252803E+03  0.47000000000E+01 0.  1.
          5   -1    0    0  501    0  0.00000000000E+00 -0.00000000000E+00 -0.54943097654E+03  0.54945107879E+03  0.47000000000E+01 0. -1.
          6    1    1    2  502    0  0.36269468722E+02  0.29724743344E+03 -0.30835894370E+03  0.46296949058E+03  0.17200000000E+03 0. -1.
         -6    1    1    2    0  502 -0.36269468722E+02 -0.29724743344E+03  0.18217901588E+02  0.34581411624E+03  0.17200000000E+03 0.  1.
</event>
<event>
 4    1 -0.3291270E-004  0.3888765E+03  0.7818608E-02  0.1047701E+00
          5   -1    0    0  501    0  0.00000000000E+00  0.00000000000E+00  0.33588643952E+03  0.33591932105E+03  0.47000000000E+01 0. -1.
         -5   -1    0    0    0  501 -0.00000000000E+00 -0.00000000000E+00 -0.74977047864E+03  0.74978520967E+03  0.47000000000E+01 0.  1.
          6    1    1    2  502    0  0.34857610191E+03 -0.11646575236E+02  0.13620588249E+03  0.41204002714E+03  0.17200000000E+03 0.  1.
         -6    1    1    2    0  502 -0.34857610191E+03  0.11646575236E+02 -0.55008992160E+03  0.67366450358E+03  0.17200000000E+03 0.  1.
</event>
<event>
 4    1 -0.3291270E-004  0.5670572E+03  0.7818608E-02  0.9976212E-01
          5   -1    0    0  501    0  0.00000000000E+00  0.00000000000E+00  0.33953790883E+03  0.33957043678E+03  0.47000000000E+01 0. -1.
         -5   -1    0    0    0  501 -0.00000000000E+00 -0.00000000000E+00 -0.12060172920E+04  0.12060264502E+04  0.47000000000E+01 0.  1.
          6    1    1    2  502    0  0.45584151856E+03  0.29013513490E+03 -0.75070735826E+02  0.57200480936E+03  0.17200000000E+03 0. -1.
         -6    1    1    2    0  502 -0.45584151856E+03 -0.29013513490E+03 -0.79140864736E+03  0.97359207765E+03  0.17200000000E+03 0.  1.
</event>
<event>
 4    1 -0.3291270E-004  0.2006954E+03  0.7818608E-02  0.1149154E+00
         -5   -1    0    0    0  501 -0.00000000000E+00  0.00000000000E+00  0.19411896725E+03  0.19417585701E+03  0.47000000000E+01 0.  1.
          5   -1    0    0  501    0  0.00000000000E+00 -0.00000000000E+00 -0.25929318132E+03  0.25933577439E+03  0.47000000000E+01 0. -1.
          6    1    1    2  502    0  0.78279494433E+02 -0.67579465616E+02 -0.13402740985E+03  0.24133381448E+03  0.17200000000E+03 0. -1.
         -6    1    1    2    0  502 -0.78279494433E+02  0.67579465616E+02  0.68853195782E+02  0.21217781692E+03  0.17200000000E+03 0.  1.
</event>
<event>
 4    1 -0.3291270E-004  0.2613002E+03  0.7818608E-02  0.1106365E+00
         -5   -1    0    0    0  501 -0.00000000000E+00  0.00000000000E+00  0.12283184545E+03  0.12292173224E+03  0.47000000000E+01 0.  1.
          5   -1    0    0  501    0  0.00000000000E+00 -0.00000000000E+00 -0.12672243242E+04  0.12672330401E+04  0.47000000000E+01 0. -1.
          6    1    1    2  502    0 -0.19505496741E+03 -0.25443013999E+02 -0.10930621395E+04  0.11238605910E+04  0.17200000000E+03 0. -1.
         -6    1    1    2    0  502  0.19505496741E+03  0.25443013999E+02 -0.51330339295E+02  0.26629418132E+03  0.17200000000E+03 0.  1.
</event>
<event>
 4    1 -0.3291270E-004  0.2121343E+03  0.7818608E-02  0.1139887E+00
         -5   -1    0    0    0  501 -0.00000000000E+00  0.00000000000E+00  0.75318777080E+03  0.75320243499E+03  0.47000000000E+01 0.  1.
          5   -1    0    0  501    0  0.00000000000E+00 -0.00000000000E+00 -0.83612370417E+02  0.83744363911E+02  0.47000000000E+01 0. -1.
          6    1    1    2  502    0  0.61350851384E+02  0.10794929870E+03  0.55862993302E+03  0.59755198947E+03  0.17200000000E+03 0. -1.
         -6    1    1    2    0  502 -0.61350851384E+02 -0.10794929870E+03  0.11094546736E+03  0.23939480943E+03  0.17200000000E+03 0.  1.
</event>
<event>
 4    1 -0.3291270E-004  0.1909113E+03  0.7818608E-02  0.1157642E+00
         -5   -1    0    0    0  501 -0.00000000000E+00  0.00000000000E+00  0.51612051382E+02  0.51825609961E+02  0.47000000000E+01 0.  1.
          5   -1    0    0  501    0  0.00000000000E+00 -0.00000000000E+00 -0.70451120800E+03  0.70452688536E+03  0.47000000000E+01 0. -1.
          6    1    1    2  502    0  0.82558641955E+02 -0.68692812722E+01 -0.32825503794E+03  0.37973475785E+03  0.17200000000E+03 0. -1.
         -6    1    1    2    0  502 -0.82558641955E+02  0.68692812722E+01 -0.32464411867E+03  0.37661773746E+03  0.17200000000E+03 0.  1.
</event>
<event>
 4    1 -0.3291270E-004  0.2017520E+03  0.7818608E-02  0.1148269E+00
         -5   -1    0    0    0  501 -0.00000000000E+00  0.00000000000E+00  0.24937511556E+03  0.24941940233E+03  0.47000000000E+01 0.  1.
          5   -1    0    0  501    0  0.00000000000E+00 -0.00000000000E+00 -0.17835350430E+03  0.17841542113E+03  0.47000000000E+01 0. -1.
          6    1    1    2  502    0  0.10545056703E+03 -0.25822546439E+00 -0.26965716769E+02  0.20354615852E+03  0.17200000000E+03 0. -1.
         -6    1    1    2    0  502 -0.10545056703E+03  0.25822546439E+00  0.97987328021E+02  0.22428866494E+03  0.17200000000E+03 0.  1.
</event>
<event>
 4    1 -0.3291270E-004  0.4262053E+03  0.7818608E-02  0.1035065E+00
         -5   -1    0    0    0  501 -0.00000000000E+00  0.00000000000E+00  0.14861409897E+03  0.14868840039E+03  0.47000000000E+01 0.  1.
          5   -1    0    0  501    0  0.00000000000E+00 -0.00000000000E+00 -0.13076763090E+04  0.13076847553E+04  0.47000000000E+01 0. -1.
          6    1    1    2  502    0  0.31462163937E+03 -0.23039133855E+03 -0.76600748842E+03  0.87659478504E+03  0.17200000000E+03 0. -1.
         -6    1    1    2    0  502 -0.31462163937E+03  0.23039133855E+03 -0.39305472162E+03  0.57977837061E+03  0.17200000000E+03 0.  1.
</event>
<event>
 4    1 -0.3291270E-004  0.2055887E+03  0.7818608E-02  0.1145108E+00
         -5   -1    0    0    0  501 -0.00000000000E+00  0.00000000000E+00  0.23508612876E+03  0.23513310684E+03  0.47000000000E+01 0.  1.
          5   -1    0    0  501    0  0.00000000000E+00 -0.00000000000E+00 -0.34306576850E+03  0.34309796198E+03  0.47000000000E+01 0. -1.
          6    1    1    2  502    0 -0.14300304687E+00  0.11261740947E+03 -0.25347389415E+03  0.32636745607E+03  0.17200000000E+03 0.  1.
         -6    1    1    2    0  502  0.14300304687E+00 -0.11261740947E+03  0.14549425441E+03  0.25186361276E+03  0.17200000000E+03 0.  1.
</event>
<event>
 4    1 -0.3291270E-004  0.1748065E+03  0.7818608E-02  0.1172926E+00
          5   -1    0    0  501    0  0.00000000000E+00  0.00000000000E+00  0.13898051040E+04  0.13898130511E+04  0.47000000000E+01 0. -1.
         -5   -1    0    0    0  501 -0.00000000000E+00 -0.00000000000E+00 -0.23572981969E+02  0.24036960684E+02  0.47000000000E+01 0.  1.
          6    1    1    2  502    0 -0.11522954545E+02 -0.28992233332E+02  0.87888436179E+03  0.89609991043E+03  0.17200000000E+03 0. -1.
         -6    1    1    2    0  502  0.11522954545E+02  0.28992233332E+02  0.48734776023E+03  0.51775010138E+03  0.17200000000E+03 0.  1.
</event>
<event>
 4    1 -0.3291270E-004  0.2001403E+03  0.7818608E-02  0.1149621E+00
          5   -1    0    0  501    0  0.00000000000E+00  0.00000000000E+00  0.10440056884E+04  0.10440162678E+04  0.47000000000E+01 0. -1.
         -5   -1    0    0    0  501 -0.00000000000E+00 -0.00000000000E+00 -0.98498230059E+02  0.98610300297E+02  0.47000000000E+01 0.  1.
          6    1    1    2  502    0  0.81054171935E+02  0.62468864860E+02  0.91923352177E+03  0.94076904999E+03  0.17200000000E+03 0. -1.
         -6    1    1    2    0  502 -0.81054171935E+02 -0.62468864860E+02  0.26273936552E+02  0.20185751808E+03  0.17200000000E+03 0.  1.
</event>
<event>
 4    1 -0.3291270E-004  0.3008599E+03  0.7818608E-02  0.1084812E+00
          5   -1    0    0  501    0  0.00000000000E+00  0.00000000000E+00  0.22923375321E+04  0.22923423503E+04  0.47000000000E+01 0. -1.
         -5   -1    0    0    0  501 -0.00000000000E+00 -0.00000000000E+00 -0.49063793657E+02  0.49288394658E+02  0.47000000000E+01 0.  1.
          6    1    1    2  502    0 -0.22078020167E+03 -0.11040289204E+03  0.16414518268E+04  0.16687962116E+04  0.17200000000E+03 0. -1.
         -6    1    1    2    0  502  0.22078020167E+03  0.11040289204E+03  0.60182191161E+03  0.67283453339E+03  0.17200000000E+03 0.  1.
</event>
<event>
 4    1 -0.3291270E-004  0.2539114E+03  0.7818608E-02  0.1110858E+00
          5   -1    0    0  501    0  0.00000000000E+00  0.00000000000E+00  0.32288278845E+02  0.32628560354E+02  0.47000000000E+01 0. -1.
         -5   -1    0    0    0  501 -0.00000000000E+00 -0.00000000000E+00 -0.21308405882E+04  0.21308457716E+04  0.47000000000E+01 0.  1.
          6    1    1    2  502    0 -0.18409272299E+03  0.31572880012E+02 -0.13313581094E+04  0.13553543422E+04  0.17200000000E+03 0. -1.
         -6    1    1    2    0  502  0.18409272299E+03 -0.31572880012E+02 -0.76719419994E+03  0.80811998975E+03  0.17200000000E+03 0.  1.
</event>
<event>
 4    1 -0.3291270E-004  0.3380099E+03  0.7818608E-02  0.1067647E+00
         -5   -1    0    0    0  501 -0.00000000000E+00  0.00000000000E+00  0.13280797013E+04  0.13280880178E+04  0.47000000000E+01 0.  1.
          5   -1    0    0  501    0  0.00000000000E+00 -0.00000000000E+00 -0.10841473211E+03  0.10851656159E+03  0.47000000000E+01 0. -1.
          6    1    1    2  502    0  0.22454605876E+03 -0.18505609553E+03  0.28307461303E+03  0.44088765864E+03  0.17200000000E+03 0. -1.
         -6    1    1    2    0  502 -0.22454605876E+03  0.18505609553E+03  0.93659035612E+03  0.99571692070E+03  0.17200000000E+03 0.  1.
</event>
<event>
 4    1 -0.3291270E-004  0.2985569E+03  0.7818608E-02  0.1085964E+00
         -5   -1    0    0    0  501 -0.00000000000E+00  0.00000000000E+00  0.40688557127E+03  0.40691271559E+03  0.47000000000E+01 0.  1.
          5   -1    0    0  501    0  0.00000000000E+00 -0.00000000000E+00 -0.44089435024E+03  0.44091940088E+03  0.47000000000E+01 0. -1.
          6    1    1    2  502    0  0.23748425066E+03 -0.56155401192E+02 -0.31771184311E+03  0.43597822612E+03  0.17200000000E+03 0. -1.
         -6    1    1    2    0  502 -0.23748425066E+03  0.56155401192E+02  0.28370306414E+03  0.41185389035E+03  0.17200000000E+03 0.  1.
</event>
<event>
 4    1 -0.3291270E-004  0.4028853E+03  0.7818608E-02  0.1042785E+00
          5   -1    0    0  501    0  0.00000000000E+00  0.00000000000E+00  0.19218540544E+04  0.19218598014E+04  0.47000000000E+01 0. -1.
         -5   -1    0    0    0  501 -0.00000000000E+00 -0.00000000000E+00 -0.16951985405E+03  0.16958499614E+03  0.47000000000E+01 0.  1.
          6    1    1    2  502    0 -0.12555934637E+03  0.34200502786E+03  0.16170025246E+04  0.16664374435E+04  0.17200000000E+03 0. -1.
         -6    1    1    2    0  502  0.12555934637E+03 -0.34200502786E+03  0.13533167571E+03  0.42500735405E+03  0.17200000000E+03 0.  1.
</event>
<event>
 4    1 -0.3291270E-004  0.2551481E+03  0.7818608E-02  0.1110094E+00
          5   -1    0    0  501    0  0.00000000000E+00  0.00000000000E+00  0.22089283297E+03  0.22094282894E+03  0.47000000000E+01 0. -1.
         -5   -1    0    0    0  501 -0.00000000000E+00 -0.00000000000E+00 -0.43875709980E+03  0.43878227246E+03  0.47000000000E+01 0.  1.
          6    1    1    2  502    0 -0.17381331201E+03 -0.72838787915E+02  0.80118616020E+02  0.26743139137E+03  0.17200000000E+03 0. -1.
         -6    1    1    2    0  502  0.17381331201E+03  0.72838787915E+02 -0.29798288285E+03  0.39229371003E+03  0.17200000000E+03 0.  1.
</event>
<event>
 4    1 -0.3291270E-004  0.1780559E+03  0.7818608E-02  0.1169698E+00
         -5   -1    0    0    0  501 -0.00000000000E+00  0.00000000000E+00  0.20683386334E+03  0.20688725680E+03  0.47000000000E+01 0.  1.
          5   -1    0    0  501    0  0.00000000000E+00 -0.00000000000E+00 -0.21362315764E+03  0.21367485458E+03  0.47000000000E+01 0. -1.
          6    1    1    2  502    0 -0.56522643511E+01  0.45694045361E+02 -0.11522471485E+03  0.21208637105E+03  0.17200000000E+03 0. -1.
         -6    1    1    2    0  502  0.56522643511E+01 -0.45694045361E+02  0.10843542055E+03  0.20847574032E+03  0.17200000000E+03 0. -1.
</event>
<event>
 4    1 -0.3291270E-004  0.1806867E+03  0.7818608E-02  0.1167140E+00
          5   -1    0    0  501    0  0.00000000000E+00  0.00000000000E+00  0.42008929339E+03  0.42011558460E+03  0.47000000000E+01 0. -1.
         -5   -1    0    0    0  501 -0.00000000000E+00 -0.00000000000E+00 -0.77678010651E+02  0.77820070282E+02  0.47000000000E+01 0.  1.
          6    1    1    2  502    0  0.54472112284E+02 -0.98222982393E+01  0.17821782048E+03  0.25378983450E+03  0.17200000000E+03 0.  1.
         -6    1    1    2    0  502 -0.54472112284E+02  0.98222982393E+01  0.16419346226E+03  0.24414582038E+03  0.17200000000E+03 0.  1.
</event>
<event>
 4    1 -0.3291270E-004  0.2582267E+03  0.7818608E-02  0.1108213E+00
         -5   -1    0    0    0  501 -0.00000000000E+00  0.00000000000E+00  0.21943443096E+03  0.21948475913E+03  0.47000000000E+01 0.  1.
          5   -1    0    0  501    0  0.00000000000E+00 -0.00000000000E+00 -0.34558685655E+03  0.34561881520E+03  0.47000000000E+01 0. -1.
          6    1    1    2  502    0  0.18804614692E+03  0.41661555609E+02 -0.16134690502E+03  0.30448951107E+03  0.17200000000E+03 0. -1.
         -6    1    1    2    0  502 -0.18804614692E+03 -0.41661555609E+02  0.35194479429E+02  0.26061406326E+03  0.17200000000E+03 0.  1.
</event>
<event>
 4    1 -0.3291270E-004  0.1767959E+03  0.7818608E-02  0.1170941E+00
          5   -1    0    0  501    0  0.00000000000E+00  0.00000000000E+00  0.33721420223E+02  0.34047381424E+02  0.47000000000E+01 0. -1.
         -5   -1    0    0    0  501 -0.00000000000E+00 -0.00000000000E+00 -0.11734379496E+04  0.11734473620E+04  0.47000000000E+01 0.  1.
          6    1    1    2  502    0 -0.27113350099E+02  0.30621136269E+02 -0.29049246622E+03  0.34006273049E+03  0.17200000000E+03 0. -1.
         -6    1    1    2    0  502  0.27113350099E+02 -0.30621136269E+02 -0.84922406311E+03  0.86743201296E+03  0.17200000000E+03 0.  1.
</event>
<event>
 4    1 -0.3291270E-004  0.2725567E+03  0.7818608E-02  0.1099825E+00
         -5   -1    0    0    0  501 -0.00000000000E+00  0.00000000000E+00  0.16274531816E+03  0.16281317079E+03  0.47000000000E+01 0.  1.
          5   -1    0    0  501    0  0.00000000000E+00 -0.00000000000E+00 -0.10039331112E+04  0.10039441128E+04  0.47000000000E+01 0. -1.
          6    1    1    2  502    0 -0.18511793737E+03 -0.10214939321E+03 -0.85144723206E+03  0.89400757169E+03  0.17200000000E+03 0. -1.
         -6    1    1    2    0  502  0.18511793737E+03  0.10214939321E+03  0.10259439048E+02  0.27274971193E+03  0.17200000000E+03 0. -1.
</event>
<event>
 4    1 -0.3291270E-004  0.1927016E+03  0.7818608E-02  0.1156047E+00
          5   -1    0    0  501    0  0.00000000000E+00  0.00000000000E+00  0.66064610166E+03  0.66066281993E+03  0.47000000000E+01 0. -1.
         -5   -1    0    0    0  501 -0.00000000000E+00 -0.00000000000E+00 -0.10176176453E+03  0.10187024453E+03  0.47000000000E+01 0.  1.
          6    1    1    2  502    0  0.43635449480E+02 -0.75138955323E+02  0.53464542659E+03  0.56831298351E+03  0.17200000000E+03 0. -1.
         -6    1    1    2    0  502 -0.43635449480E+02  0.75138955323E+02  0.24238910533E+02  0.19422008094E+03  0.17200000000E+03 0.  1.
</event>
<event>
 4    1 -0.3291270E-004  0.1815841E+03  0.7818608E-02  0.1166279E+00
         -5   -1    0    0    0  501 -0.00000000000E+00  0.00000000000E+00  0.65351635577E+03  0.65353325643E+03  0.47000000000E+01 0.  1.
          5   -1    0    0  501    0  0.00000000000E+00 -0.00000000000E+00 -0.56695336611E+02  0.56889816254E+02  0.47000000000E+01 0. -1.
          6    1    1    2  502    0  0.66002446691E+00 -0.58209612383E+02  0.17959902733E+03  0.25539891390E+03  0.17200000000E+03 0. -1.
         -6    1    1    2    0  502 -0.66002446691E+00  0.58209612383E+02  0.41722199183E+03  0.45502415878E+03  0.17200000000E+03 0.  1.
</event>
<event>
 4    1 -0.3291270E-004  0.2087325E+03  0.7818608E-02  0.1142574E+00
          5   -1    0    0  501    0  0.00000000000E+00  0.00000000000E+00  0.90063183869E+02  0.90185736614E+02  0.47000000000E+01 0. -1.
         -5   -1    0    0    0  501 -0.00000000000E+00 -0.00000000000E+00 -0.48494208012E+03  0.48496485550E+03  0.47000000000E+01 0.  1.
          6    1    1    2  502    0 -0.45233328268E+02 -0.10926668319E+03 -0.18070977366E+03  0.27608926879E+03  0.17200000000E+03 0. -1.
         -6    1    1    2    0  502  0.45233328268E+02  0.10926668319E+03 -0.21416912259E+03  0.29906132333E+03  0.17200000000E+03 0. -1.
</event>
<event>
 4    1 -0.3291270E-004  0.2775973E+03  0.7818608E-02  0.1097009E+00
          5   -1    0    0  501    0  0.00000000000E+00  0.00000000000E+00  0.18884427990E+03  0.18890275819E+03  0.47000000000E+01 0. -1.
         -5   -1    0    0    0  501 -0.00000000000E+00 -0.00000000000E+00 -0.45596122148E+03  0.45598544439E+03  0.47000000000E+01 0.  1.
          6    1    1    2  502    0  0.13380061405E+03 -0.17196990182E+03 -0.28911945864E+02  0.27909882133E+03  0.17200000000E+03 0. -1.
         -6    1    1    2    0  502 -0.13380061405E+03  0.17196990182E+03 -0.23820499571E+03  0.36578938125E+03  0.17200000000E+03 0.  1.
</event>
<event>
 4    1 -0.3291270E-004  0.2304566E+03  0.7818608E-02  0.1126319E+00
         -5   -1    0    0    0  501 -0.00000000000E+00  0.00000000000E+00  0.15742304200E+04  0.15742374361E+04  0.47000000000E+01 0.  1.
          5   -1    0    0  501    0  0.00000000000E+00 -0.00000000000E+00 -0.33566921610E+02  0.33894368653E+02  0.47000000000E+01 0. -1.
          6    1    1    2  502    0 -0.15328787906E+03  0.53906162859E+01  0.77333095060E+03  0.80693927390E+03  0.17200000000E+03 0. -1.
         -6    1    1    2    0  502  0.15328787906E+03 -0.53906162859E+01  0.76733254780E+03  0.80119253087E+03  0.17200000000E+03 0. -1.
</event>
<event>
 4    1 -0.3291270E-004  0.2041478E+03  0.7818608E-02  0.1146286E+00
          5   -1    0    0  501    0  0.00000000000E+00  0.00000000000E+00  0.74989903382E+02  0.75137045519E+02  0.47000000000E+01 0. -1.
         -5   -1    0    0    0  501 -0.00000000000E+00 -0.00000000000E+00 -0.99525725178E+03  0.99526834935E+03  0.47000000000E+01 0.  1.
          6    1    1    2  502    0  0.16510289763E+02 -0.10871851706E+03 -0.10422363741E+03  0.22921359518E+03  0.17200000000E+03 0. -1.
         -6    1    1    2    0  502 -0.16510289763E+02  0.10871851706E+03 -0.81604371099E+03  0.84119179969E+03  0.17200000000E+03 0.  1.
</event>
<event>
 4    1 -0.3291270E-004  0.1840934E+03  0.7818608E-02  0.1163899E+00
         -5   -1    0    0    0  501 -0.00000000000E+00  0.00000000000E+00  0.20238071807E+04  0.20238126382E+04  0.47000000000E+01 0.  1.
          5   -1    0    0  501    0  0.00000000000E+00 -0.00000000000E+00 -0.20228176491E+02  0.20767020108E+02  0.47000000000E+01 0. -1.
          6    1    1    2  502    0 -0.64587988024E+02  0.11609158224E+02  0.56416836146E+03  0.59344445471E+03  0.17200000000E+03 0. -1.
         -6    1    1    2    0  502  0.64587988024E+02 -0.11609158224E+02  0.14394106427E+04  0.14511352036E+04  0.17200000000E+03 0.  1.
</event>
<event>
 4    1 -0.3291270E-004  0.2201944E+03  0.7818608E-02  0.1133738E+00
         -5   -1    0    0    0  501 -0.00000000000E+00  0.00000000000E+00  0.69283240797E+02  0.69442475873E+02  0.47000000000E+01 0.  1.
          5   -1    0    0  501    0  0.00000000000E+00 -0.00000000000E+00 -0.70942710553E+03  0.70944267426E+03  0.47000000000E+01 0. -1.
          6    1    1    2  502    0 -0.47517369264E+02 -0.12901032011E+03 -0.27251677677E+03  0.35035832614E+03  0.17200000000E+03 0.  1.
         -6    1    1    2    0  502  0.47517369264E+02  0.12901032011E+03 -0.36762708796E+03  0.42852682399E+03  0.17200000000E+03 0.  1.
</event>
<event>
 4    1 -0.3291270E-004  0.2380529E+03  0.7818608E-02  0.1121097E+00
          5   -1    0    0  501    0  0.00000000000E+00  0.00000000000E+00  0.16278038157E+04  0.16278106010E+04  0.47000000000E+01 0. -1.
         -5   -1    0    0    0  501 -0.00000000000E+00 -0.00000000000E+00 -0.34737787828E+02  0.35054299354E+02  0.47000000000E+01 0.  1.
          6    1    1    2  502    0  0.13275416250E+03  0.97270435947E+02  0.75440409197E+03  0.79107189266E+03  0.17200000000E+03 0. -1.
         -6    1    1    2    0  502 -0.13275416250E+03 -0.97270435947E+02  0.83866193595E+03  0.87179300764E+03  0.17200000000E+03 0. -1.
</event>
<event>
 4    1 -0.3291270E-004  0.4056295E+03  0.7818608E-02  0.1041848E+00
         -5   -1    0    0    0  501 -0.00000000000E+00  0.00000000000E+00  0.21595267272E+03  0.21600381213E+03  0.47000000000E+01 0.  1.
          5   -1    0    0  501    0  0.00000000000E+00 -0.00000000000E+00 -0.84428606743E+03  0.84429914939E+03  0.47000000000E+01 0. -1.
          6    1    1    2  502    0 -0.27734141306E+03  0.24090048134E+03 -0.47991342152E+03  0.62837265493E+03  0.17200000000E+03 0. -1.
         -6    1    1    2    0  502  0.27734141306E+03 -0.24090048134E+03 -0.14841997320E+03  0.43193030659E+03  0.17200000000E+03 0.  1.
</event>
<event>
 4    1 -0.3291270E-004  0.2747700E+03  0.7818608E-02  0.1098580E+00
         -5   -1    0    0    0  501 -0.00000000000E+00  0.00000000000E+00  0.14202169937E+03  0.14209944789E+03  0.47000000000E+01 0.  1.
          5   -1    0    0  501    0  0.00000000000E+00 -0.00000000000E+00 -0.54409392674E+03  0.54411422617E+03  0.47000000000E+01 0. -1.
          6    1    1    2  502    0 -0.13439885558E+03 -0.16688773936E+03 -0.25351025352E+03  0.37385293709E+03  0.17200000000E+03 0. -1.
         -6    1    1    2    0  502  0.13439885558E+03  0.16688773936E+03 -0.14856197385E+03  0.31236073697E+03  0.17200000000E+03 0.  1.
</event>
<event>
 4    1 -0.3291270E-004  0.1835360E+03  0.7818608E-02  0.1164424E+00
          5   -1    0    0  501    0  0.00000000000E+00  0.00000000000E+00  0.32203584844E+03  0.32207014404E+03  0.47000000000E+01 0. -1.
         -5   -1    0    0    0  501 -0.00000000000E+00 -0.00000000000E+00 -0.16398462120E+03  0.16405196125E+03  0.47000000000E+01 0.  1.
          6    1    1    2  502    0  0.47494792319E+02  0.42961512565E+02  0.22535242835E+03  0.29063579240E+03  0.17200000000E+03 0. -1.
         -6    1    1    2    0  502 -0.47494792319E+02 -0.42961512565E+02 -0.67301201100E+02  0.19548631289E+03  0.17200000000E+03 0.  1.
</event>
<event>
 4    1 -0.3291270E-004  0.6213915E+03  0.7818608E-02  0.9861993E-01
          5   -1    0    0  501    0  0.00000000000E+00  0.00000000000E+00  0.10816811338E+04  0.10816913447E+04  0.47000000000E+01 0. -1.
         -5   -1    0    0    0  501 -0.00000000000E+00 -0.00000000000E+00 -0.35731987351E+03  0.35735078285E+03  0.47000000000E+01 0.  1.
          6    1    1    2  502    0 -0.20698964168E+03 -0.56008810065E+03  0.33879385528E+03  0.70774901528E+03  0.17200000000E+03 0. -1.
         -6    1    1    2    0  502  0.20698964168E+03  0.56008810065E+03  0.38556740500E+03  0.73129311227E+03  0.17200000000E+03 0.  1.
</event>
<event>
 4    1 -0.3291270E-004  0.1886844E+03  0.7818608E-02  0.1159653E+00
         -5   -1    0    0    0  501 -0.00000000000E+00  0.00000000000E+00  0.66976587999E+03  0.66978237063E+03  0.47000000000E+01 0.  1.
          5   -1    0    0  501    0  0.00000000000E+00 -0.00000000000E+00 -0.55032738030E+02  0.55233072113E+02  0.47000000000E+01 0. -1.
          6    1    1    2  502    0 -0.36632736798E+02 -0.68380170374E+02  0.23842852973E+03  0.30405586476E+03  0.17200000000E+03 0. -1.
         -6    1    1    2    0  502  0.36632736798E+02  0.68380170374E+02  0.37630461223E+03  0.42095957798E+03  0.17200000000E+03 0. -1.
</event>
<event>
 4    1 -0.3291270E-004  0.2337064E+03  0.7818608E-02  0.1124058E+00
          5   -1    0    0  501    0  0.00000000000E+00  0.00000000000E+00  0.12284647046E+03  0.12293634656E+03  0.47000000000E+01 0. -1.
         -5   -1    0    0    0  501 -0.00000000000E+00 -0.00000000000E+00 -0.57586772588E+03  0.57588690531E+03  0.47000000000E+01 0.  1.
          6    1    1    2  502    0 -0.75900154689E+02 -0.13883026167E+03 -0.59541847540E+02  0.24117194415E+03  0.17200000000E+03 0. -1.
         -6    1    1    2    0  502  0.75900154689E+02  0.13883026167E+03 -0.39347940788E+03  0.45765130772E+03  0.17200000000E+03 0.  1.
</event>
<event>
 4    1 -0.3291270E-004  0.1789202E+03  0.7818608E-02  0.1168852E+00
         -5   -1    0    0    0  501 -0.00000000000E+00  0.00000000000E+00  0.10798420281E+04  0.10798522564E+04  0.47000000000E+01 0.  1.
          5   -1    0    0  501    0  0.00000000000E+00 -0.00000000000E+00 -0.30096025677E+02  0.30460806975E+02  0.47000000000E+01 0. -1.
          6    1    1    2  502    0  0.14071246078E+02 -0.47227385960E+02  0.60578020596E+03  0.63165028606E+03  0.17200000000E+03 0.  1.
         -6    1    1    2    0  502 -0.14071246078E+02  0.47227385960E+02  0.44396579642E+03  0.47866277727E+03  0.17200000000E+03 0.  1.
</event>
<event>
 4    1 -0.3291270E-004  0.1857962E+03  0.7818608E-02  0.1162308E+00
         -5   -1    0    0    0  501 -0.00000000000E+00  0.00000000000E+00  0.55858353600E+02  0.56055737145E+02  0.47000000000E+01 0.  1.
          5   -1    0    0  501    0  0.00000000000E+00 -0.00000000000E+00 -0.65368180793E+03  0.65369870431E+03  0.47000000000E+01 0. -1.
          6    1    1    2  502    0 -0.59561635207E+02  0.37264560337E+02 -0.38330733544E+03  0.42596331913E+03  0.17200000000E+03 0. -1.
         -6    1    1    2    0  502  0.59561635207E+02 -0.37264560337E+02 -0.21451611889E+03  0.28379112232E+03  0.17200000000E+03 0.  1.
</event>
<event>
 4    1 -0.3291270E-004  0.3956247E+03  0.7818608E-02  0.1045305E+00
         -5   -1    0    0    0  501 -0.00000000000E+00  0.00000000000E+00  0.23175251243E+03  0.23180016613E+03  0.47000000000E+01 0.  1.
          5   -1    0    0  501    0  0.00000000000E+00 -0.00000000000E+00 -0.93423277438E+03  0.93424459684E+03  0.47000000000E+01 0. -1.
          6    1    1    2  502    0  0.11361748070E+03  0.33767728961E+03 -0.65820062984E+03  0.76794983753E+03  0.17200000000E+03 0. -1.
         -6    1    1    2    0  502 -0.11361748070E+03 -0.33767728961E+03 -0.44279632119E+02  0.39809492544E+03  0.17200000000E+03 0.  1.
</event>
<event>
 4    1 -0.3291270E-004  0.2688451E+03  0.7818608E-02  0.1101942E+00
         -5   -1    0    0    0  501 -0.00000000000E+00  0.00000000000E+00  0.33879511353E+03  0.33882771279E+03  0.47000000000E+01 0.  1.
          5   -1    0    0  501    0  0.00000000000E+00 -0.00000000000E+00 -0.21661262851E+03  0.21666361215E+03  0.47000000000E+01 0. -1.
          6    1    1    2  502    0 -0.20078376537E+03  0.48780795818E+02  0.26588796825E+02  0.27015671488E+03  0.17200000000E+03 0. -1.
         -6    1    1    2    0  502  0.20078376537E+03 -0.48780795818E+02  0.95593688201E+02  0.28533461006E+03  0.17200000000E+03 0. -1.
</event>
<event>
 4    1 -0.3291270E-004  0.2251243E+03  0.7818608E-02  0.1130119E+00
          5   -1    0    0  501    0  0.00000000000E+00  0.00000000000E+00  0.12450128315E+03  0.12458996551E+03  0.47000000000E+01 0. -1.
         -5   -1    0    0    0  501 -0.00000000000E+00 -0.00000000000E+00 -0.40713532050E+03  0.40716244817E+03  0.47000000000E+01 0.  1.
          6    1    1    2  502    0  0.78704448729E+02 -0.12207599738E+03 -0.14866298512E+03  0.26978069340E+03  0.17200000000E+03 0. -1.
         -6    1    1    2    0  502 -0.78704448729E+02  0.12207599738E+03 -0.13397105223E+03  0.26197172027E+03  0.17200000000E+03 0.  1.
</event>
<event>
 4    1 -0.3291270E-004  0.2188958E+03  0.7818608E-02  0.1134709E+00
          5   -1    0    0  501    0  0.00000000000E+00  0.00000000000E+00  0.76641787557E+03  0.76643228663E+03  0.47000000000E+01 0. -1.
         -5   -1    0    0    0  501 -0.00000000000E+00 -0.00000000000E+00 -0.15645163288E+03  0.15652221386E+03  0.47000000000E+01 0.  1.
          6    1    1    2  502    0  0.10574354141E+03  0.84555704784E+02  0.66259892026E+03  0.69781995736E+03  0.17200000000E+03 0. -1.
         -6    1    1    2    0  502 -0.10574354141E+03 -0.84555704784E+02 -0.52632677569E+02  0.22513454313E+03  0.17200000000E+03 0.  1.
</event>
<event>
 4    1 -0.3291270E-004  0.1734590E+03  0.7818608E-02  0.1174288E+00
         -5   -1    0    0    0  501 -0.00000000000E+00  0.00000000000E+00  0.98983256994E+02  0.99094778698E+02  0.47000000000E+01 0.  1.
          5   -1    0    0  501    0  0.00000000000E+00 -0.00000000000E+00 -0.30762460472E+03  0.30766050677E+03  0.47000000000E+01 0. -1.
          6    1    1    2  502    0 -0.20579942004E+02  0.89717211452E+01 -0.12737433289E+03  0.21520280313E+03  0.17200000000E+03 0. -1.
         -6    1    1    2    0  502  0.20579942004E+02 -0.89717211452E+01 -0.81267014831E+02  0.19155248235E+03  0.17200000000E+03 0. -1.
</event>
<event>
 4    1 -0.3291270E-004  0.1758020E+03  0.7818608E-02  0.1171929E+00
          5   -1    0    0  501    0  0.00000000000E+00  0.00000000000E+00  0.32284274979E+03  0.32287695968E+03  0.47000000000E+01 0. -1.
         -5   -1    0    0    0  501 -0.00000000000E+00 -0.00000000000E+00 -0.95707758768E+02  0.95823092668E+02  0.47000000000E+01 0.  1.
          6    1    1    2  502    0 -0.25831345272E+02  0.25594541768E+02  0.10779466964E+03  0.20621840308E+03  0.17200000000E+03 0. -1.
         -6    1    1    2    0  502  0.25831345272E+02 -0.25594541768E+02  0.11934032138E+03  0.21248164926E+03  0.17200000000E+03 0.  1.
</event>
<event>
 4    1 -0.3291270E-004  0.1990923E+03  0.7818608E-02  0.1150507E+00
         -5   -1    0    0    0  501 -0.00000000000E+00  0.00000000000E+00  0.30984330173E+03  0.30987894673E+03  0.47000000000E+01 0.  1.
          5   -1    0    0  501    0  0.00000000000E+00 -0.00000000000E+00 -0.17095024086E+03  0.17101483810E+03  0.47000000000E+01 0. -1.
          6    1    1    2  502    0  0.99867098622E+02 -0.89623110077E+01 -0.51257626363E+02  0.20558478705E+03  0.17200000000E+03 0. -1.
         -6    1    1    2    0  502 -0.99867098622E+02  0.89623110077E+01  0.19015068723E+03  0.27530899778E+03  0.17200000000E+03 0. -1.
</event>
<event>
 4    1 -0.3291270E-004  0.3283357E+03  0.7818608E-02  0.1071876E+00
         -5   -1    0    0    0  501 -0.00000000000E+00  0.00000000000E+00  0.25548972317E+03  0.25553295021E+03  0.47000000000E+01 0.  1.
          5   -1    0    0  501    0  0.00000000000E+00 -0.00000000000E+00 -0.54270422135E+03  0.54272457275E+03  0.47000000000E+01 0. -1.
          6    1    1    2  502    0  0.27426049214E+03 -0.54785960219E+02 -0.33193674812E+03  0.46689005530E+03  0.17200000000E+03 0. -1.
         -6    1    1    2    0  502 -0.27426049214E+03  0.54785960219E+02  0.44722249941E+02  0.33136746766E+03  0.17200000000E+03 0.  1.
</event>
<event>
 4    1 -0.3291270E-004  0.1910701E+03  0.7818608E-02  0.1157500E+00
          5   -1    0    0  501    0  0.00000000000E+00  0.00000000000E+00  0.11480867378E+03  0.11490483704E+03  0.47000000000E+01 0. -1.
         -5   -1    0    0    0  501 -0.00000000000E+00 -0.00000000000E+00 -0.42234281244E+03  0.42236896337E+03  0.47000000000E+01 0.  1.
          6    1    1    2  502    0  0.63978667580E+02  0.53202648427E+02 -0.20096214222E+02  0.19212404725E+03  0.17200000000E+03 0. -1.
         -6    1    1    2    0  502 -0.63978667580E+02 -0.53202648427E+02 -0.28743792444E+03  0.34514975317E+03  0.17200000000E+03 0.  1.
</event>
<event>
 4    1 -0.3291270E-004  0.1886280E+03  0.7818608E-02  0.1159705E+00
         -5   -1    0    0    0  501 -0.00000000000E+00  0.00000000000E+00  0.54187509036E+03  0.54189547291E+03  0.47000000000E+01 0.  1.
          5   -1    0    0  501    0  0.00000000000E+00 -0.00000000000E+00 -0.65902849884E+02  0.66070232502E+02  0.47000000000E+01 0. -1.
          6    1    1    2  502    0 -0.60936452687E+02  0.47783740128E+02  0.21596860739E+03  0.28674549075E+03  0.17200000000E+03 0. -1.
         -6    1    1    2    0  502  0.60936452687E+02 -0.47783740128E+02  0.26000363309E+03  0.32122021466E+03  0.17200000000E+03 0. -1.
</event>
<event>
 4    1 -0.3291270E-004  0.2881925E+03  0.7818608E-02  0.1091297E+00
         -5   -1    0    0    0  501 -0.00000000000E+00  0.00000000000E+00  0.55518563848E+03  0.55520553237E+03  0.47000000000E+01 0.  1.
          5   -1    0    0  501    0  0.00000000000E+00 -0.00000000000E+00 -0.22208509397E+03  0.22213482159E+03  0.47000000000E+01 0. -1.
          6    1    1    2  502    0  0.23003099457E+03 -0.23593573282E+02 -0.55549847277E+02  0.29349736063E+03  0.17200000000E+03 0. -1.
         -6    1    1    2    0  502 -0.23003099457E+03  0.23593573282E+02  0.38865039179E+03  0.48384299333E+03  0.17200000000E+03 0.  1.
</event>
<event>
 4    1 -0.3291270E-004  0.7413422E+03  0.7818608E-02  0.9649032E-01
          5   -1    0    0  501    0  0.00000000000E+00  0.00000000000E+00  0.60237122133E+03  0.60238955692E+03  0.47000000000E+01 0. -1.
         -5   -1    0    0    0  501 -0.00000000000E+00 -0.00000000000E+00 -0.12931882832E+04  0.12931968241E+04  0.47000000000E+01 0.  1.
          6    1    1    2  502    0 -0.61953736233E+03 -0.36902268215E+03  0.16893811323E+03  0.76034753197E+03  0.17200000000E+03 0. -1.
         -6    1    1    2    0  502  0.61953736233E+03  0.36902268215E+03 -0.85975517511E+03  0.11352388491E+04  0.17200000000E+03 0.  1.
</event>
<event>
 4    1 -0.3291270E-004  0.2711098E+03  0.7818608E-02  0.1100646E+00
         -5   -1    0    0    0  501 -0.00000000000E+00  0.00000000000E+00  0.84993535261E+02  0.85123387128E+02  0.47000000000E+01 0.  1.
          5   -1    0    0  501    0  0.00000000000E+00 -0.00000000000E+00 -0.87363225632E+03  0.87364489884E+03  0.47000000000E+01 0. -1.
          6    1    1    2  502    0  0.13294307931E+03  0.16199583832E+03 -0.44470047304E+03  0.52082533031E+03  0.17200000000E+03 0. -1.
         -6    1    1    2    0  502 -0.13294307931E+03 -0.16199583832E+03 -0.34393824801E+03  0.43794295566E+03  0.17200000000E+03 0.  1.
</event>
<event>
 4    1 -0.3291270E-004  0.2060135E+03  0.7818608E-02  0.1144762E+00
          5   -1    0    0  501    0  0.00000000000E+00  0.00000000000E+00  0.23080262280E+03  0.23085047258E+03  0.47000000000E+01 0. -1.
         -5   -1    0    0    0  501 -0.00000000000E+00 -0.00000000000E+00 -0.20207888527E+03  0.20213353475E+03  0.47000000000E+01 0.  1.
          6    1    1    2  502    0 -0.74617776984E+02  0.85379996235E+02  0.79474279305E+02  0.22081149759E+03  0.17200000000E+03 0. -1.
         -6    1    1    2    0  502  0.74617776984E+02 -0.85379996235E+02 -0.50750541777E+02  0.21217250974E+03  0.17200000000E+03 0.  1.
</event>
<event>
 4    1 -0.3291270E-004  0.2122262E+03  0.7818608E-02  0.1139815E+00
         -5   -1    0    0    0  501 -0.00000000000E+00  0.00000000000E+00  0.15938711885E+04  0.15938781182E+04  0.47000000000E+01 0.  1.
          5   -1    0    0  501    0  0.00000000000E+00 -0.00000000000E+00 -0.39362257025E+02  0.39641862697E+02  0.47000000000E+01 0. -1.
          6    1    1    2  502    0 -0.79283690881E+02  0.95760317927E+02  0.34140246192E+03  0.40198953113E+03  0.17200000000E+03 0. -1.
         -6    1    1    2    0  502  0.79283690881E+02 -0.95760317927E+02  0.12131064696E+04  0.12315304498E+04  0.17200000000E+03 0.  1.
</event>
<event>
 4    1 -0.3291270E-004  0.1731892E+03  0.7818608E-02  0.1174562E+00
         -5   -1    0    0    0  501 -0.00000000000E+00  0.00000000000E+00  0.29767870812E+03  0.29771580957E+03  0.47000000000E+01 0.  1.
          5   -1    0    0  501    0  0.00000000000E+00 -0.00000000000E+00 -0.11510981914E+03  0.11520573103E+03  0.47000000000E+01 0. -1.
          6    1    1    2  502    0 -0.45812775836E+01  0.19735959808E+02  0.18186983658E+02  0.17414150163E+03  0.17200000000E+03 0. -1.
         -6    1    1    2    0  502  0.45812775836E+01 -0.19735959808E+02  0.16438190533E+03  0.23878003897E+03  0.17200000000E+03 0.  1.
</event>
<event>
 4    1 -0.3291270E-004  0.1730666E+03  0.7818608E-02  0.1174687E+00
         -5   -1    0    0    0  501 -0.00000000000E+00  0.00000000000E+00  0.25626360939E+02  0.26053797707E+02  0.47000000000E+01 0.  1.
          5   -1    0    0  501    0  0.00000000000E+00 -0.00000000000E+00 -0.17719815399E+04  0.17719877731E+04  0.47000000000E+01 0. -1.
          6    1    1    2  502    0 -0.15672459934E+02  0.11064479279E+02 -0.34434645747E+03  0.38539140037E+03  0.17200000000E+03 0.  1.
         -6    1    1    2    0  502  0.15672459934E+02 -0.11064479279E+02 -0.14020087215E+04  0.14126501704E+04  0.17200000000E+03 0. -1.
</event>
<event>
 4    1 -0.3291270E-004  0.3293679E+03  0.7818608E-02  0.1071417E+00
          5   -1    0    0  501    0  0.00000000000E+00  0.00000000000E+00  0.12111640916E+03  0.12120756811E+03  0.47000000000E+01 0. -1.
         -5   -1    0    0    0  501 -0.00000000000E+00 -0.00000000000E+00 -0.97610293573E+03  0.97611425107E+03  0.47000000000E+01 0.  1.
          6    1    1    2  502    0 -0.25045545452E+03 -0.12716646545E+03 -0.26960312608E+03  0.42563962483E+03  0.17200000000E+03 0. -1.
         -6    1    1    2    0  502  0.25045545452E+03  0.12716646545E+03 -0.58538340049E+03  0.67168219435E+03  0.17200000000E+03 0.  1.
</event>
<event>
 4    1 -0.3291270E-004  0.1817045E+03  0.7818608E-02  0.1166164E+00
          5   -1    0    0  501    0  0.00000000000E+00  0.00000000000E+00  0.82237203293E+03  0.82238546348E+03  0.47000000000E+01 0. -1.
         -5   -1    0    0    0  501 -0.00000000000E+00 -0.00000000000E+00 -0.49143655632E+02  0.49367893300E+02  0.47000000000E+01 0.  1.
          6    1    1    2  502    0  0.41647656338E+02 -0.41206658003E+02  0.57416199941E+03  0.60222796142E+03  0.17200000000E+03 0. -1.
         -6    1    1    2    0  502 -0.41647656338E+02  0.41206658003E+02  0.19906637789E+03  0.26952539537E+03  0.17200000000E+03 0. -1.
</event>
<event>
 4    1 -0.3291270E-004  0.2028666E+03  0.7818608E-02  0.1147343E+00
         -5   -1    0    0    0  501 -0.00000000000E+00  0.00000000000E+00  0.18384756966E+03  0.18390763680E+03  0.47000000000E+01 0.  1.
          5   -1    0    0  501    0  0.00000000000E+00 -0.00000000000E+00 -0.22688293750E+03  0.22693161377E+03  0.47000000000E+01 0. -1.
          6    1    1    2  502    0  0.10756778644E+03 -0.13755200767E+00  0.26854512949E+01  0.20288434944E+03  0.17200000000E+03 0. -1.
         -6    1    1    2    0  502 -0.10756778644E+03  0.13755200767E+00 -0.45720819128E+02  0.20795490112E+03  0.17200000000E+03 0.  1.
</event>
<event>
 4    1 -0.3291270E-004  0.2114558E+03  0.7818608E-02  0.1140418E+00
         -5   -1    0    0    0  501 -0.00000000000E+00  0.00000000000E+00  0.23909427911E+04  0.23909474106E+04  0.47000000000E+01 0.  1.
          5   -1    0    0  501    0  0.00000000000E+00 -0.00000000000E+00 -0.21571627978E+02  0.22077706711E+02  0.47000000000E+01 0. -1.
          6    1    1    2  502    0  0.10361509690E+03 -0.66283123536E+02  0.72796399361E+03  0.75805350521E+03  0.17200000000E+03 0.  1.
         -6    1    1    2    0  502 -0.10361509690E+03  0.66283123536E+02  0.16414071695E+04  0.16549716121E+04  0.17200000000E+03 0.  1.
</event>
<event>
 4    1 -0.3291270E-004  0.2576567E+03  0.7818608E-02  0.1108559E+00
          5   -1    0    0  501    0  0.00000000000E+00  0.00000000000E+00  0.12342266075E+04  0.12342355564E+04  0.47000000000E+01 0. -1.
         -5   -1    0    0    0  501 -0.00000000000E+00 -0.00000000000E+00 -0.81203172429E+02  0.81339075557E+02  0.47000000000E+01 0.  1.
          6    1    1    2  502    0  0.17348346025E+03  0.81893129712E+02  0.95906865505E+03  0.99307586859E+03  0.17200000000E+03 0. -1.
         -6    1    1    2    0  502 -0.17348346025E+03 -0.81893129712E+02  0.19395478002E+03  0.32249876336E+03  0.17200000000E+03 0.  1.
</event>
<event>
 4    1 -0.3291270E-004  0.1839720E+03  0.7818608E-02  0.1164013E+00
         -5   -1    0    0    0  501 -0.00000000000E+00  0.00000000000E+00  0.55274194758E+03  0.55276192942E+03  0.47000000000E+01 0.  1.
          5   -1    0    0  501    0  0.00000000000E+00 -0.00000000000E+00 -0.10134786899E+03  0.10145679154E+03  0.47000000000E+01 0. -1.
          6    1    1    2  502    0 -0.65267398193E+02  0.13689644629E+01  0.19780697208E+02  0.18503238450E+03  0.17200000000E+03 0. -1.
         -6    1    1    2    0  502  0.65267398193E+02 -0.13689644629E+01  0.43161338139E+03  0.46918633646E+03  0.17200000000E+03 0.  1.
</event>
<event>
 4    1 -0.3291270E-004  0.2116451E+03  0.7818608E-02  0.1140270E+00
          5   -1    0    0  501    0  0.00000000000E+00  0.00000000000E+00  0.15602447928E+04  0.15602518718E+04  0.47000000000E+01 0. -1.
         -5   -1    0    0    0  501 -0.00000000000E+00 -0.00000000000E+00 -0.29742793064E+02  0.30111853799E+02  0.47000000000E+01 0.  1.
          6    1    1    2  502    0  0.12294767856E+03  0.96711988759E+01  0.60438492940E+03  0.64037083525E+03  0.17200000000E+03 0. -1.
         -6    1    1    2    0  502 -0.12294767856E+03 -0.96711988759E+01  0.92611707029E+03  0.94999289031E+03  0.17200000000E+03 0.  1.
</event>
<event>
 4    1 -0.3291270E-004  0.3143548E+03  0.7818608E-02  0.1078277E+00
          5   -1    0    0  501    0  0.00000000000E+00  0.00000000000E+00  0.14345664020E+03  0.14353361145E+03  0.47000000000E+01 0. -1.
         -5   -1    0    0    0  501 -0.00000000000E+00 -0.00000000000E+00 -0.85871084361E+03  0.85872370582E+03  0.47000000000E+01 0.  1.
          6    1    1    2  502    0  0.17257911397E+03 -0.19862376080E+03 -0.58067808708E+03  0.66030749636E+03  0.17200000000E+03 0. -1.
         -6    1    1    2    0  502 -0.17257911397E+03  0.19862376080E+03 -0.13457611634E+03  0.34194982091E+03  0.17200000000E+03 0.  1.
</event>
<event>
 4    1 -0.3291270E-004  0.1948786E+03  0.7818608E-02  0.1154133E+00
          5   -1    0    0  501    0  0.00000000000E+00  0.00000000000E+00  0.12724402991E+03  0.12733080204E+03  0.47000000000E+01 0. -1.
         -5   -1    0    0    0  501 -0.00000000000E+00 -0.00000000000E+00 -0.31678313860E+03  0.31681800280E+03  0.47000000000E+01 0.  1.
          6    1    1    2  502    0 -0.89392784608E+02 -0.20064475006E+02 -0.14846483864E+03  0.24498869649E+03  0.17200000000E+03 0.  1.
         -6    1    1    2    0  502  0.89392784608E+02  0.20064475006E+02 -0.41074270046E+02  0.19916010835E+03  0.17200000000E+03 0. -1.
</event>
<event>
 4    1 -0.3291270E-004  0.2250427E+03  0.7818608E-02  0.1130178E+00
          5   -1    0    0  501    0  0.00000000000E+00  0.00000000000E+00  0.92925011322E+02  0.93043794684E+02  0.47000000000E+01 0. -1.
         -5   -1    0    0    0  501 -0.00000000000E+00 -0.00000000000E+00 -0.57307876962E+03  0.57309804239E+03  0.47000000000E+01 0.  1.
          6    1    1    2  502    0 -0.21778323789E+02 -0.14347790290E+03 -0.16573760447E+03  0.27948731195E+03  0.17200000000E+03 0. -1.
         -6    1    1    2    0  502  0.21778323789E+02  0.14347790290E+03 -0.31441615383E+03  0.38665452512E+03  0.17200000000E+03 0.  1.
</event>
<event>
 4    1 -0.3291270E-004  0.2410808E+03  0.7818608E-02  0.1119075E+00
         -5   -1    0    0    0  501 -0.00000000000E+00  0.00000000000E+00  0.29151374841E+03  0.29155163438E+03  0.47000000000E+01 0.  1.
          5   -1    0    0  501    0  0.00000000000E+00 -0.00000000000E+00 -0.20748607799E+03  0.20753930365E+03  0.47000000000E+01 0. -1.
          6    1    1    2  502    0  0.15611188708E+03 -0.64537008165E+02 -0.75592526995E+01  0.24119927241E+03  0.17200000000E+03 0. -1.
         -6    1    1    2    0  502 -0.15611188708E+03  0.64537008165E+02  0.91586923111E+02  0.25789166562E+03  0.17200000000E+03 0.  1.
</event>
<event>
 4    1 -0.3291270E-004  0.2189693E+03  0.7818608E-02  0.1134654E+00
         -5   -1    0    0    0  501 -0.00000000000E+00  0.00000000000E+00  0.22050719859E+03  0.22055728197E+03  0.47000000000E+01 0.  1.
          5   -1    0    0  501    0  0.00000000000E+00 -0.00000000000E+00 -0.24068306862E+03  0.24072895447E+03  0.47000000000E+01 0. -1.
          6    1    1    2  502    0  0.11710702054E+02 -0.13500517061E+03 -0.81898867939E+02  0.23378400545E+03  0.17200000000E+03 0. -1.
         -6    1    1    2    0  502 -0.11710702054E+02  0.13500517061E+03  0.61722997913E+02  0.22750223099E+03  0.17200000000E+03 0.  1.
</event>
<event>
 4    1 -0.3291270E-004  0.2813446E+03  0.7818608E-02  0.1094957E+00
          5   -1    0    0  501    0  0.00000000000E+00  0.00000000000E+00  0.10775677793E+04  0.10775780292E+04  0.47000000000E+01 0. -1.
         -5   -1    0    0    0  501 -0.00000000000E+00 -0.00000000000E+00 -0.16456060133E+03  0.16462770578E+03  0.47000000000E+01 0.  1.
          6    1    1    2  502    0 -0.15709261196E+03  0.15777419111E+03  0.91868879591E+03  0.96080377177E+03  0.17200000000E+03 0. -1.
         -6    1    1    2    0  502  0.15709261196E+03 -0.15777419111E+03 -0.56816179356E+01  0.28140196320E+03  0.17200000000E+03 0.  1.
</event>
<event>
 4    1 -0.3291270E-004  0.1804659E+03  0.7818608E-02  0.1167353E+00
         -5   -1    0    0    0  501 -0.00000000000E+00  0.00000000000E+00  0.12454849338E+03  0.12463714215E+03  0.47000000000E+01 0.  1.
          5   -1    0    0  501    0  0.00000000000E+00 -0.00000000000E+00 -0.26196902910E+03  0.26201118718E+03  0.47000000000E+01 0. -1.
          6    1    1    2  502    0 -0.20095240405E+02  0.50794917705E+02 -0.78584798408E+02  0.19683371889E+03  0.17200000000E+03 0.  1.
         -6    1    1    2    0  502  0.20095240405E+02 -0.50794917705E+02 -0.58835737317E+02  0.18981461044E+03  0.17200000000E+03 0.  1.
</event>
<event>
 4    1 -0.3291270E-004  0.2130956E+03  0.7818608E-02  0.1139138E+00
         -5   -1    0    0    0  501 -0.00000000000E+00  0.00000000000E+00  0.56410282546E+02  0.56605741554E+02  0.47000000000E+01 0.  1.
          5   -1    0    0  501    0  0.00000000000E+00 -0.00000000000E+00 -0.99393839887E+03  0.99394951117E+03  0.47000000000E+01 0. -1.
          6    1    1    2  502    0  0.60739635542E+02 -0.11016538703E+03 -0.69872821585E+03  0.73050040071E+03  0.17200000000E+03 0. -1.
         -6    1    1    2    0  502 -0.60739635542E+02  0.11016538703E+03 -0.23879990048E+03  0.32005485201E+03  0.17200000000E+03 0.  1.
</event>
<event>
 4    1 -0.3291270E-004  0.2145961E+03  0.7818608E-02  0.1137977E+00
         -5   -1    0    0    0  501 -0.00000000000E+00  0.00000000000E+00  0.12390367515E+03  0.12399278493E+03  0.47000000000E+01 0.  1.
          5   -1    0    0  501    0  0.00000000000E+00 -0.00000000000E+00 -0.40811562086E+03  0.40814268337E+03  0.47000000000E+01 0. -1.
          6    1    1    2  502    0 -0.30687289203E+02  0.12460252806E+03 -0.22186157076E+03  0.30866495800E+03  0.17200000000E+03 0. -1.
         -6    1    1    2    0  502  0.30687289203E+02 -0.12460252806E+03 -0.62350374950E+02  0.22347051030E+03  0.17200000000E+03 0.  1.
</event>
<event>
 4    1 -0.3291270E-004  0.1965306E+03  0.7818608E-02  0.1152700E+00
          5   -1    0    0  501    0  0.00000000000E+00  0.00000000000E+00  0.13549246625E+03  0.13557395920E+03  0.47000000000E+01 0. -1.
         -5   -1    0    0    0  501 -0.00000000000E+00 -0.00000000000E+00 -0.38840261248E+03  0.38843104843E+03  0.47000000000E+01 0.  1.
          6    1    1    2  502    0 -0.22578843503E+02  0.92360585380E+02  0.87892583661E+01  0.19672705195E+03  0.17200000000E+03 0. -1.
         -6    1    1    2    0  502  0.22578843503E+02 -0.92360585380E+02 -0.26169940459E+03  0.32727795567E+03  0.17200000000E+03 0.  1.
</event>
<event>
 4    1 -0.3291270E-004  0.2171382E+03  0.7818608E-02  0.1136035E+00
         -5   -1    0    0    0  501 -0.00000000000E+00  0.00000000000E+00  0.36536908872E+03  0.36539931717E+03  0.47000000000E+01 0.  1.
          5   -1    0    0  501    0  0.00000000000E+00 -0.00000000000E+00 -0.14376177109E+03  0.14383857907E+03  0.47000000000E+01 0. -1.
          6    1    1    2  502    0  0.97816932821E+02  0.89425133759E+02  0.29152517479E+02  0.21908645821E+03  0.17200000000E+03 0. -1.
         -6    1    1    2    0  502 -0.97816932821E+02 -0.89425133759E+02  0.19245480015E+03  0.29015143803E+03  0.17200000000E+03 0.  1.
</event>
<event>
 4    1 -0.3291270E-004  0.1755876E+03  0.7818608E-02  0.1172143E+00
         -5   -1    0    0    0  501 -0.00000000000E+00  0.00000000000E+00  0.14964697557E+04  0.14964771364E+04  0.47000000000E+01 0.  1.
          5   -1    0    0  501    0  0.00000000000E+00 -0.00000000000E+00 -0.21294763688E+02  0.21807268525E+02  0.47000000000E+01 0. -1.
          6    1    1    2  502    0  0.53207577545E+01 -0.34909939460E+02  0.57773012624E+03  0.60382374341E+03  0.17200000000E+03 0. -1.
         -6    1    1    2    0  502 -0.53207577545E+01  0.34909939460E+02  0.89744486573E+03  0.91446066147E+03  0.17200000000E+03 0.  1.
</event>
<event>
 4    1 -0.3291270E-004  0.3180799E+03  0.7818608E-02  0.1076536E+00
          5   -1    0    0  501    0  0.00000000000E+00  0.00000000000E+00  0.47717554058E+03  0.47719868664E+03  0.47000000000E+01 0. -1.
         -5   -1    0    0    0  501 -0.00000000000E+00 -0.00000000000E+00 -0.29104663657E+03  0.29108458335E+03  0.47000000000E+01 0.  1.
          6    1    1    2  502    0 -0.69016987763E+02  0.25851006212E+03  0.29326810489E+03  0.43264417038E+03  0.17200000000E+03 0. -1.
         -6    1    1    2    0  502  0.69016987763E+02 -0.25851006212E+03 -0.10713920089E+03  0.33563909960E+03  0.17200000000E+03 0.  1.
</event>
<event>
 4    1 -0.3291270E-004  0.1927771E+03  0.7818608E-02  0.1155980E+00
          5   -1    0    0  501    0  0.00000000000E+00  0.00000000000E+00  0.13604523559E+03  0.13612639761E+03  0.47000000000E+01 0. -1.
         -5   -1    0    0    0  501 -0.00000000000E+00 -0.00000000000E+00 -0.35142526876E+03  0.35145669652E+03  0.47000000000E+01 0.  1.
          6    1    1    2  502    0  0.80856119544E+02  0.32268896931E+02  0.74703997108E+01  0.19292174747E+03  0.17200000000E+03 0. -1.
         -6    1    1    2    0  502 -0.80856119544E+02 -0.32268896931E+02 -0.22285043288E+03  0.29466134666E+03  0.17200000000E+03 0.  1.
</event>
<event>
 4    1 -0.3291270E-004  0.2078590E+03  0.7818608E-02  0.1143273E+00
         -5   -1    0    0    0  501 -0.00000000000E+00  0.00000000000E+00  0.17848141504E+03  0.17854328751E+03  0.47000000000E+01 0.  1.
          5   -1    0    0  501    0  0.00000000000E+00 -0.00000000000E+00 -0.24196339372E+03  0.24200903682E+03  0.47000000000E+01 0. -1.
          6    1    1    2  502    0 -0.78040086738E+02  0.86781917014E+02 -0.29926398996E+02  0.21000225145E+03  0.17200000000E+03 0.  1.
         -6    1    1    2    0  502  0.78040086738E+02 -0.86781917014E+02 -0.33555579683E+02  0.21055007287E+03  0.17200000000E+03 0.  1.
</event>
<event>
 4    1 -0.3291270E-004  0.1900135E+03  0.7818608E-02  0.1158449E+00
          5   -1    0    0  501    0  0.00000000000E+00  0.00000000000E+00  0.21705592045E+03  0.21710679999E+03  0.47000000000E+01 0. -1.
         -5   -1    0    0    0  501 -0.00000000000E+00 -0.00000000000E+00 -0.22389578992E+03  0.22394511547E+03  0.47000000000E+01 0.  1.
          6    1    1    2  502    0 -0.67904805461E+02  0.43704463222E+02  0.10846335233E+03  0.21879086249E+03  0.17200000000E+03 0. -1.
         -6    1    1    2    0  502  0.67904805461E+02 -0.43704463222E+02 -0.11530322180E+03  0.22226105297E+03  0.17200000000E+03 0.  1.
</event>
<event>
 4    1 -0.3291270E-004  0.1951356E+03  0.7818608E-02  0.1153909E+00
         -5   -1    0    0    0  501 -0.00000000000E+00  0.00000000000E+00  0.57826878946E+03  0.57828788925E+03  0.47000000000E+01 0.  1.
          5   -1    0    0  501    0  0.00000000000E+00 -0.00000000000E+00 -0.92913486962E+02  0.93032285039E+02  0.47000000000E+01 0. -1.
          6    1    1    2  502    0 -0.39021516566E+02  0.83493841123E+02  0.61325935913E+02  0.20454527781E+03  0.17200000000E+03 0. -1.
         -6    1    1    2    0  502  0.39021516566E+02 -0.83493841123E+02  0.42402936658E+03  0.46677489648E+03  0.17200000000E+03 0.  1.
</event>
<event>
 4    1 -0.3291270E-004  0.1808020E+03  0.7818608E-02  0.1167029E+00
         -5   -1    0    0    0  501 -0.00000000000E+00  0.00000000000E+00  0.22528359904E+03  0.22533262080E+03  0.47000000000E+01 0.  1.
          5   -1    0    0  501    0  0.00000000000E+00 -0.00000000000E+00 -0.14788238285E+03  0.14795705174E+03  0.47000000000E+01 0. -1.
          6    1    1    2  502    0 -0.38160115491E+02 -0.40610137887E+02  0.64745657308E+02  0.19204524950E+03  0.17200000000E+03 0. -1.
         -6    1    1    2    0  502  0.38160115491E+02  0.40610137887E+02  0.12655558883E+02  0.18124442304E+03  0.17200000000E+03 0. -1.
</event>
<event>
 4    1 -0.3291270E-004  0.2540061E+03  0.7818608E-02  0.1110799E+00
          5   -1    0    0  501    0  0.00000000000E+00  0.00000000000E+00  0.40312759511E+03  0.40315499245E+03  0.47000000000E+01 0. -1.
         -5   -1    0    0    0  501 -0.00000000000E+00 -0.00000000000E+00 -0.16326578371E+03  0.16333342012E+03  0.47000000000E+01 0.  1.
          6    1    1    2  502    0 -0.13456044803E+01  0.18690454192E+03  0.16010709057E+03  0.30025555597E+03  0.17200000000E+03 0. -1.
         -6    1    1    2    0  502  0.13456044803E+01 -0.18690454192E+03  0.79754720833E+02  0.26623285661E+03  0.17200000000E+03 0.  1.
</event>
<event>
 4    1 -0.3291270E-004  0.7741024E+03  0.7818608E-02  0.9598278E-01
         -5   -1    0    0    0  501 -0.00000000000E+00  0.00000000000E+00  0.71473577601E+03  0.71475122910E+03  0.47000000000E+01 0.  1.
          5   -1    0    0  501    0  0.00000000000E+00 -0.00000000000E+00 -0.13448857682E+04  0.13448939807E+04  0.47000000000E+01 0. -1.
          6    1    1    2  502    0  0.22253917577E+03  0.72119817932E+03 -0.94706825150E+03  0.12231814140E+04  0.17200000000E+03 0. -1.
         -6    1    1    2    0  502 -0.22253917577E+03 -0.72119817932E+03  0.31691825935E+03  0.83646379581E+03  0.17200000000E+03 0.  1.
</event>
<event>
 4    1 -0.3291270E-004  0.1860887E+03  0.7818608E-02  0.1162037E+00
         -5   -1    0    0    0  501 -0.00000000000E+00  0.00000000000E+00  0.22049505691E+03  0.22054514304E+03  0.47000000000E+01 0.  1.
          5   -1    0    0  501    0  0.00000000000E+00 -0.00000000000E+00 -0.15794400795E+03  0.15801392232E+03  0.47000000000E+01 0. -1.
          6    1    1    2  502    0 -0.25763906111E+02 -0.66190703435E+02  0.16250254044E+02  0.18679683840E+03  0.17200000000E+03 0. -1.
         -6    1    1    2    0  502  0.25763906111E+02  0.66190703435E+02  0.46300794918E+02  0.19176222696E+03  0.17200000000E+03 0.  1.
</event>
<event>
 4    1 -0.3291270E-004  0.1722904E+03  0.7818608E-02  0.1175480E+00
         -5   -1    0    0    0  501 -0.00000000000E+00  0.00000000000E+00  0.37601396889E+02  0.37893997519E+02  0.47000000000E+01 0.  1.
          5   -1    0    0  501    0  0.00000000000E+00 -0.00000000000E+00 -0.10049541753E+04  0.10049651658E+04  0.47000000000E+01 0. -1.
          6    1    1    2  502    0 -0.99740300655E+01 -0.70111189370E+00 -0.72698368628E+03  0.74712064150E+03  0.17200000000E+03 0. -1.
         -6    1    1    2    0  502  0.99740300655E+01  0.70111189370E+00 -0.24036909214E+03  0.29573852182E+03  0.17200000000E+03 0.  1.
</event>
<event>
 4    1 -0.3291270E-004  0.3121566E+03  0.7818608E-02  0.1079317E+00
          5   -1    0    0  501    0  0.00000000000E+00  0.00000000000E+00  0.11898595706E+04  0.11898688532E+04  0.47000000000E+01 0. -1.
         -5   -1    0    0    0  501 -0.00000000000E+00 -0.00000000000E+00 -0.17586881816E+03  0.17593160944E+03  0.47000000000E+01 0.  1.
          6    1    1    2  502    0  0.11456461395E+03  0.23395017877E+03  0.10062410219E+04  0.10535476880E+04  0.17200000000E+03 0. -1.
         -6    1    1    2    0  502 -0.11456461395E+03 -0.23395017877E+03  0.77497306050E+01  0.31225277459E+03  0.17200000000E+03 0.  1.
</event>
<event>
 4    1 -0.3291270E-004  0.2163959E+03  0.7818608E-02  0.1136599E+00
         -5   -1    0    0    0  501 -0.00000000000E+00  0.00000000000E+00  0.32496744809E+03  0.32500143433E+03  0.47000000000E+01 0.  1.
          5   -1    0    0  501    0  0.00000000000E+00 -0.00000000000E+00 -0.21300342580E+03  0.21305527311E+03  0.47000000000E+01 0. -1.
          6    1    1    2  502    0 -0.43203063451E+02 -0.12400278101E+03 -0.97085318777E+02  0.23717662935E+03  0.17200000000E+03 0. -1.
         -6    1    1    2    0  502  0.43203063451E+02  0.12400278101E+03  0.20904934107E+03  0.30088007809E+03  0.17200000000E+03 0.  1.
</event>
<event>
 4    1 -0.3291270E-004  0.6893464E+03  0.7818608E-02  0.9735627E-01
         -5   -1    0    0    0  501 -0.00000000000E+00  0.00000000000E+00  0.20184050302E+04  0.20184105024E+04  0.47000000000E+01 0.  1.
          5   -1    0    0  501    0  0.00000000000E+00 -0.00000000000E+00 -0.24801308685E+03  0.24805761679E+03  0.47000000000E+01 0. -1.
          6    1    1    2  502    0 -0.29779468221E+03 -0.59743847332E+03  0.62969650673E+03  0.93365737439E+03  0.17200000000E+03 0. -1.
         -6    1    1    2    0  502  0.29779468221E+03  0.59743847332E+03  0.11406954366E+04  0.13328107448E+04  0.17200000000E+03 0.  1.
</event>
<event>
 4    1 -0.3291270E-004  0.1800297E+03  0.7818608E-02  0.1167774E+00
          5   -1    0    0  501    0  0.00000000000E+00  0.00000000000E+00  0.52767642916E+03  0.52769736014E+03  0.47000000000E+01 0. -1.
         -5   -1    0    0    0  501 -0.00000000000E+00 -0.00000000000E+00 -0.76192562880E+02  0.76337386897E+02  0.47000000000E+01 0.  1.
          6    1    1    2  502    0  0.97791231521E+01 -0.52259684632E+02  0.92420312571E+02  0.20236654878E+03  0.17200000000E+03 0.  1.
         -6    1    1    2    0  502 -0.97791231521E+01  0.52259684632E+02  0.35906355371E+03  0.40166819826E+03  0.17200000000E+03 0. -1.
</event>
<event>
 4    1 -0.3291270E-004  0.1856419E+03  0.7818608E-02  0.1162452E+00
         -5   -1    0    0    0  501 -0.00000000000E+00  0.00000000000E+00  0.17787750431E+03  0.17793958677E+03  0.47000000000E+01 0.  1.
          5   -1    0    0  501    0  0.00000000000E+00 -0.00000000000E+00 -0.23091603504E+03  0.23096386133E+03  0.47000000000E+01 0. -1.
          6    1    1    2  502    0 -0.13432187096E+02 -0.68545512828E+02 -0.10866458860E+03  0.21510672652E+03  0.17200000000E+03 0. -1.
         -6    1    1    2    0  502  0.13432187096E+02  0.68545512828E+02  0.55626057865E+02  0.19379672157E+03  0.17200000000E+03 0.  1.
</event>
<event>
 4    1 -0.3291270E-004  0.1796171E+03  0.7818608E-02  0.1168174E+00
         -5   -1    0    0    0  501 -0.00000000000E+00  0.00000000000E+00  0.33240464448E+03  0.33243787039E+03  0.47000000000E+01 0.  1.
          5   -1    0    0  501    0  0.00000000000E+00 -0.00000000000E+00 -0.10430912177E+03  0.10441495527E+03  0.47000000000E+01 0. -1.
          6    1    1    2  502    0  0.34120050220E+02  0.38911901764E+02  0.56118947084E+02  0.18817983459E+03  0.17200000000E+03 0. -1.
         -6    1    1    2    0  502 -0.34120050220E+02 -0.38911901764E+02  0.17197657562E+03  0.24867299107E+03  0.17200000000E+03 0.  1.
</event>
<event>
 4    1 -0.3291270E-004  0.2466464E+03  0.7818608E-02  0.1115443E+00
         -5   -1    0    0    0  501 -0.00000000000E+00  0.00000000000E+00  0.48125057884E+02  0.48354019443E+02  0.47000000000E+01 0.  1.
          5   -1    0    0  501    0  0.00000000000E+00 -0.00000000000E+00 -0.14804736429E+04  0.14804811033E+04  0.47000000000E+01 0. -1.
          6    1    1    2  502    0  0.12956581469E+02 -0.17630252870E+03 -0.42178135166E+03  0.48860409663E+03  0.17200000000E+03 0. -1.
         -6    1    1    2    0  502 -0.12956581469E+02  0.17630252870E+03 -0.10105672333E+04  0.10402310261E+04  0.17200000000E+03 0.  1.
</event>
<event>
 4    1 -0.3291270E-004  0.2551399E+03  0.7818608E-02  0.1110099E+00
         -5   -1    0    0    0  501 -0.00000000000E+00  0.00000000000E+00  0.52634068501E+03  0.52636166910E+03  0.47000000000E+01 0.  1.
          5   -1    0    0  501    0  0.00000000000E+00 -0.00000000000E+00 -0.14857603798E+03  0.14865035843E+03  0.47000000000E+01 0. -1.
          6    1    1    2  502    0  0.13083939551E+03  0.13562227636E+03  0.32718785167E+03  0.41490750722E+03  0.17200000000E+03 0.  1.
         -6    1    1    2    0  502 -0.13083939551E+03 -0.13562227636E+03  0.50576795361E+02  0.26010452032E+03  0.17200000000E+03 0. -1.
</event>
<event>
 4    1 -0.3291270E-004  0.1784303E+03  0.7818608E-02  0.1169331E+00
          5   -1    0    0  501    0  0.00000000000E+00  0.00000000000E+00  0.17158361149E+03  0.17164797037E+03  0.47000000000E+01 0. -1.
         -5   -1    0    0    0  501 -0.00000000000E+00 -0.00000000000E+00 -0.19181067805E+03  0.19186825223E+03  0.47000000000E+01 0.  1.
          6    1    1    2  502    0  0.13055190347E+02  0.45639186019E+02  0.23049083670E+02  0.17991284988E+03  0.17200000000E+03 0. -1.
         -6    1    1    2    0  502 -0.13055190347E+02 -0.45639186019E+02 -0.43276150231E+02  0.18360337272E+03  0.17200000000E+03 0.  1.
</event>
<event>
 4    1 -0.3291270E-004  0.1838123E+03  0.7818608E-02  0.1164164E+00
          5   -1    0    0  501    0  0.00000000000E+00  0.00000000000E+00  0.76776134112E+02  0.76919859394E+02  0.47000000000E+01 0. -1.
         -5   -1    0    0    0  501 -0.00000000000E+00 -0.00000000000E+00 -0.10163620073E+04  0.10163728744E+04  0.47000000000E+01 0.  1.
          6    1    1    2  502    0 -0.62516865805E+02  0.17164531945E+02 -0.57996741612E+02  0.19274491356E+03  0.17200000000E+03 0. -1.
         -6    1    1    2    0  502  0.62516865805E+02 -0.17164531945E+02 -0.88158913154E+03  0.90054782023E+03  0.17200000000E+03 0.  1.
</event>
<event>
 4    1 -0.3291270E-004  0.5558759E+03  0.7818608E-02  0.1000143E+00
         -5   -1    0    0    0  501 -0.00000000000E+00  0.00000000000E+00  0.97904223806E+03  0.97905351943E+03  0.47000000000E+01 0.  1.
          5   -1    0    0  501    0  0.00000000000E+00 -0.00000000000E+00 -0.32272849015E+03  0.32276271215E+03  0.47000000000E+01 0. -1.
          6    1    1    2  502    0  0.22066857994E+03 -0.48033263532E+03  0.23130308505E+03  0.60207904787E+03  0.17200000000E+03 0. -1.
         -6    1    1    2    0  502 -0.22066857994E+03  0.48033263532E+03  0.42501066286E+03  0.69973718371E+03  0.17200000000E+03 0.  1.
</event>
<event>
 4    1 -0.3291270E-004  0.1857024E+03  0.7818608E-02  0.1162396E+00
         -5   -1    0    0    0  501 -0.00000000000E+00  0.00000000000E+00  0.37403975064E+03  0.37406927842E+03  0.47000000000E+01 0.  1.
          5   -1    0    0  501    0  0.00000000000E+00 -0.00000000000E+00 -0.13425252545E+03  0.13433477059E+03  0.47000000000E+01 0. -1.
          6    1    1    2  502    0  0.66502102965E+02  0.21882300759E+02 -0.22469674942E+02  0.18705681243E+03  0.17200000000E+03 0. -1.
         -6    1    1    2    0  502 -0.66502102965E+02 -0.21882300759E+02  0.26225690014E+03  0.32134723658E+03  0.17200000000E+03 0.  1.
</event>
<event>
 4    1 -0.3291270E-004  0.1947502E+03  0.7818608E-02  0.1154245E+00
          5   -1    0    0  501    0  0.00000000000E+00  0.00000000000E+00  0.11840079145E+04  0.11840172429E+04  0.47000000000E+01 0. -1.
         -5   -1    0    0    0  501 -0.00000000000E+00 -0.00000000000E+00 -0.35671116764E+02  0.35979418717E+02  0.47000000000E+01 0.  1.
          6    1    1    2  502    0  0.55988218218E+02  0.72173030186E+02  0.77284790975E+03  0.79700785346E+03  0.17200000000E+03 0. -1.
         -6    1    1    2    0  502 -0.55988218218E+02 -0.72173030186E+02  0.37548888794E+03  0.42298880817E+03  0.17200000000E+03 0.  1.
</event>
<event>
 4    1 -0.3291270E-004  0.2515993E+03  0.7818608E-02  0.1112298E+00
         -5   -1    0    0    0  501 -0.00000000000E+00  0.00000000000E+00  0.84102503429E+03  0.84103816698E+03  0.47000000000E+01 0.  1.
          5   -1    0    0  501    0  0.00000000000E+00 -0.00000000000E+00 -0.10674080606E+03  0.10684423091E+03  0.47000000000E+01 0. -1.
          6    1    1    2  502    0  0.17888000117E+03  0.41474753054E+02  0.10960099550E+03  0.27443503452E+03  0.17200000000E+03 0. -1.
         -6    1    1    2    0  502 -0.17888000117E+03 -0.41474753054E+02  0.62468323274E+03  0.67344736336E+03  0.17200000000E+03 0.  1.
</event>
<event>
 4    1 -0.3291270E-004  0.4040813E+03  0.7818608E-02  0.1042376E+00
          5   -1    0    0  501    0  0.00000000000E+00  0.00000000000E+00  0.93018856447E+02  0.93137520123E+02  0.47000000000E+01 0. -1.
         -5   -1    0    0    0  501 -0.00000000000E+00 -0.00000000000E+00 -0.18227314636E+04  0.18227375232E+04  0.47000000000E+01 0.  1.
          6    1    1    2  502    0  0.14364629092E+02 -0.36536466912E+03 -0.10507044129E+04  0.11257270750E+04  0.17200000000E+03 0. -1.
         -6    1    1    2    0  502 -0.14364629092E+02  0.36536466912E+03 -0.67900819428E+03  0.79014796837E+03  0.17200000000E+03 0. -1.
</event>
<event>
 4    1 -0.3291270E-004  0.1893083E+03  0.7818608E-02  0.1159087E+00
         -5   -1    0    0    0  501 -0.00000000000E+00  0.00000000000E+00  0.72831009824E+03  0.72832526333E+03  0.47000000000E+01 0.  1.
          5   -1    0    0  501    0  0.00000000000E+00 -0.00000000000E+00 -0.88858171806E+02  0.88982384193E+02  0.47000000000E+01 0. -1.
          6    1    1    2  502    0 -0.49632985403E+01 -0.78924043872E+02  0.46593025040E+02  0.19495781343E+03  0.17200000000E+03 0. -1.
         -6    1    1    2    0  502  0.49632985403E+01  0.78924043872E+02  0.59285890139E+03  0.62234983409E+03  0.17200000000E+03 0.  1.
</event>
<event>
 4    1 -0.3291270E-004  0.2117589E+03  0.7818608E-02  0.1140181E+00
          5   -1    0    0  501    0  0.00000000000E+00  0.00000000000E+00  0.10770165110E+03  0.10780415414E+03  0.47000000000E+01 0. -1.
         -5   -1    0    0    0  501 -0.00000000000E+00 -0.00000000000E+00 -0.70826512760E+03  0.70828072187E+03  0.47000000000E+01 0.  1.
          6    1    1    2  502    0  0.34380691158E+02  0.11864140481E+03 -0.38204364527E+02  0.21517757395E+03  0.17200000000E+03 0. -1.
         -6    1    1    2    0  502 -0.34380691158E+02 -0.11864140481E+03 -0.56235911197E+03  0.60090730207E+03  0.17200000000E+03 0.  1.
</event>
<event>
 4    1 -0.3291270E-004  0.1807627E+03  0.7818608E-02  0.1167067E+00
          5   -1    0    0  501    0  0.00000000000E+00  0.00000000000E+00  0.10798320363E+03  0.10808543966E+03  0.47000000000E+01 0. -1.
         -5   -1    0    0    0  501 -0.00000000000E+00 -0.00000000000E+00 -0.35770830696E+03  0.35773918274E+03  0.47000000000E+01 0.  1.
          6    1    1    2  502    0  0.41603286217E+02  0.36882722822E+02 -0.33238303734E+02  0.18379323574E+03  0.17200000000E+03 0. -1.
         -6    1    1    2    0  502 -0.41603286217E+02 -0.36882722822E+02 -0.21648679959E+03  0.28203138667E+03  0.17200000000E+03 0.  1.
</event>
<event>
 4    1 -0.3291270E-004  0.2379560E+03  0.7818608E-02  0.1121162E+00
          5   -1    0    0  501    0  0.00000000000E+00  0.00000000000E+00  0.48189299732E+02  0.48417957502E+02  0.47000000000E+01 0. -1.
         -5   -1    0    0    0  501 -0.00000000000E+00 -0.00000000000E+00 -0.20693568356E+04  0.20693621730E+04  0.47000000000E+01 0.  1.
          6    1    1    2  502    0 -0.15861904204E+03  0.43347978472E+02 -0.17078383723E+04  0.17243360906E+04  0.17200000000E+03 0.  1.
         -6    1    1    2    0  502  0.15861904204E+03 -0.43347978472E+02 -0.31332916361E+03  0.39344403986E+03  0.17200000000E+03 0. -1.
</event>
<event>
 4    1 -0.3291270E-004  0.2147461E+03  0.7818608E-02  0.1137862E+00
         -5   -1    0    0    0  501 -0.00000000000E+00  0.00000000000E+00  0.35906106621E+03  0.35909182568E+03  0.47000000000E+01 0.  1.
          5   -1    0    0  501    0  0.00000000000E+00 -0.00000000000E+00 -0.14089672030E+03  0.14097508926E+03  0.47000000000E+01 0. -1.
          6    1    1    2  502    0 -0.33874115844E+02 -0.12403403335E+03  0.18364888023E+03  0.28256469765E+03  0.17200000000E+03 0. -1.
         -6    1    1    2    0  502  0.33874115844E+02  0.12403403335E+03  0.34515465685E+02  0.21750221728E+03  0.17200000000E+03 0.  1.
</event>
<event>
 4    1 -0.3291270E-004  0.3228832E+03  0.7818608E-02  0.1074330E+00
          5   -1    0    0  501    0  0.00000000000E+00  0.00000000000E+00  0.72064390591E+02  0.72217493665E+02  0.47000000000E+01 0. -1.
         -5   -1    0    0    0  501 -0.00000000000E+00 -0.00000000000E+00 -0.15434950625E+04  0.15435022183E+04  0.47000000000E+01 0.  1.
          6    1    1    2  502    0  0.70774133607E+02 -0.26393286166E+03 -0.53162975112E+03  0.62199977953E+03  0.17200000000E+03 0. -1.
         -6    1    1    2    0  502 -0.70774133607E+02  0.26393286166E+03 -0.93980092076E+03  0.99371993243E+03  0.17200000000E+03 0.  1.
</event>
<event>
 4    1 -0.3291270E-004  0.2291978E+03  0.7818608E-02  0.1127206E+00
         -5   -1    0    0    0  501 -0.00000000000E+00  0.00000000000E+00  0.39750869849E+02  0.40027761039E+02  0.47000000000E+01 0.  1.
          5   -1    0    0  501    0  0.00000000000E+00 -0.00000000000E+00 -0.13838397149E+04  0.13838476963E+04  0.47000000000E+01 0. -1.
          6    1    1    2  502    0  0.78971988180E+02 -0.12927128641E+03 -0.51519143735E+03  0.56387397309E+03  0.17200000000E+03 0. -1.
         -6    1    1    2    0  502 -0.78971988180E+02  0.12927128641E+03 -0.82889740774E+03  0.86000148429E+03  0.17200000000E+03 0. -1.
</event>
<event>
 4    1 -0.3291270E-004  0.1744503E+03  0.7818608E-02  0.1173285E+00
         -5   -1    0    0    0  501 -0.00000000000E+00  0.00000000000E+00  0.39810976580E+03  0.39813750843E+03  0.47000000000E+01 0.  1.
          5   -1    0    0  501    0  0.00000000000E+00 -0.00000000000E+00 -0.80907673797E+02  0.81044072450E+02  0.47000000000E+01 0. -1.
          6    1    1    2  502    0 -0.26106307423E+02  0.12937392109E+02  0.10173783589E+03  0.20194925762E+03  0.17200000000E+03 0. -1.
         -6    1    1    2    0  502  0.26106307423E+02 -0.12937392109E+02  0.21546425611E+03  0.27723232326E+03  0.17200000000E+03 0.  1.
</event>
<event>
 4    1 -0.3291270E-004  0.1836694E+03  0.7818608E-02  0.1164298E+00
         -5   -1    0    0    0  501 -0.00000000000E+00  0.00000000000E+00  0.10612855322E+03  0.10623257414E+03  0.47000000000E+01 0.  1.
          5   -1    0    0  501    0  0.00000000000E+00 -0.00000000000E+00 -0.46684787193E+03  0.46687153000E+03  0.47000000000E+01 0. -1.
          6    1    1    2  502    0 -0.55043498695E+02  0.33476104476E+02 -0.34236418756E+03  0.38851984923E+03  0.17200000000E+03 0. -1.
         -6    1    1    2    0  502  0.55043498695E+02 -0.33476104476E+02 -0.18355131146E+02  0.18458425491E+03  0.17200000000E+03 0.  1.
</event>
<event>
 4    1 -0.3291270E-004  0.3277238E+03  0.7818608E-02  0.1072148E+00
          5   -1    0    0  501    0  0.00000000000E+00  0.00000000000E+00  0.11356538234E+03  0.11366259749E+03  0.47000000000E+01 0. -1.
         -5   -1    0    0    0  501 -0.00000000000E+00 -0.00000000000E+00 -0.94848485568E+03  0.94849650049E+03  0.47000000000E+01 0.  1.
          6    1    1    2  502    0 -0.27710663353E+03  0.32106059539E+02 -0.44857605891E+03  0.55553880696E+03  0.17200000000E+03 0. -1.
         -6    1    1    2    0  502  0.27710663353E+03 -0.32106059539E+02 -0.38634341442E+03  0.50662029102E+03  0.17200000000E+03 0.  1.
</event>
<event>
 4    1 -0.3291270E-004  0.1774748E+03  0.7818608E-02  0.1170270E+00
         -5   -1    0    0    0  501 -0.00000000000E+00  0.00000000000E+00  0.66124777041E+02  0.66291599308E+02  0.47000000000E+01 0.  1.
          5   -1    0    0  501    0  0.00000000000E+00 -0.00000000000E+00 -0.53902760459E+03  0.53904809480E+03  0.47000000000E+01 0. -1.
          6    1    1    2  502    0 -0.26612503453E+02 -0.34714319570E+02 -0.13260582323E+03  0.22154370602E+03  0.17200000000E+03 0. -1.
         -6    1    1    2    0  502  0.26612503453E+02  0.34714319570E+02 -0.34029700432E+03  0.38379598809E+03  0.17200000000E+03 0. -1.
</event>
<event>
 4    1 -0.3291270E-004  0.1726639E+03  0.7818608E-02  0.1175098E+00
         -5   -1    0    0    0  501 -0.00000000000E+00  0.00000000000E+00  0.11175408676E+03  0.11185287617E+03  0.47000000000E+01 0.  1.
          5   -1    0    0  501    0  0.00000000000E+00 -0.00000000000E+00 -0.27104791377E+03  0.27108865996E+03  0.47000000000E+01 0. -1.
          6    1    1    2  502    0 -0.14995901752E+02 -0.19901981923E+01 -0.54945373612E+02  0.18119556297E+03  0.17200000000E+03 0.  1.
         -6    1    1    2    0  502  0.14995901752E+02  0.19901981923E+01 -0.10434845340E+03  0.20174597316E+03  0.17200000000E+03 0. -1.
</event>
<event>
 4    1 -0.3291270E-004  0.3594238E+03  0.7818608E-02  0.1058812E+00
         -5   -1    0    0    0  501 -0.00000000000E+00  0.00000000000E+00  0.27363948956E+03  0.27367984991E+03  0.47000000000E+01 0.  1.
          5   -1    0    0  501    0  0.00000000000E+00 -0.00000000000E+00 -0.51019171377E+03  0.51021336203E+03  0.47000000000E+01 0. -1.
          6    1    1    2  502    0 -0.15828301893E+03  0.27303471716E+03 -0.22548673235E+03  0.42429911304E+03  0.17200000000E+03 0. -1.
         -6    1    1    2    0  502  0.15828301893E+03 -0.27303471716E+03 -0.11065491856E+02  0.35959409891E+03  0.17200000000E+03 0.  1.
</event>
<event>
 4    1 -0.3291270E-004  0.2556059E+03  0.7818608E-02  0.1109812E+00
          5   -1    0    0  501    0  0.00000000000E+00  0.00000000000E+00  0.47474122163E+03  0.47476448636E+03  0.47000000000E+01 0. -1.
         -5   -1    0    0    0  501 -0.00000000000E+00 -0.00000000000E+00 -0.15236542503E+03  0.15243789799E+03  0.47000000000E+01 0.  1.
          6    1    1    2  502    0  0.12245247000E+03 -0.14406871295E+03  0.25893106435E+03  0.36384020881E+03  0.17200000000E+03 0. -1.
         -6    1    1    2    0  502 -0.12245247000E+03  0.14406871295E+03  0.63444732247E+02  0.26336217555E+03  0.17200000000E+03 0.  1.
</event>
<event>
 4    1 -0.3291270E-004  0.2149691E+03  0.7818608E-02  0.1137690E+00
          5   -1    0    0  501    0  0.00000000000E+00  0.00000000000E+00  0.10742004628E+04  0.10742107448E+04  0.47000000000E+01 0. -1.
         -5   -1    0    0    0  501 -0.00000000000E+00 -0.00000000000E+00 -0.71890744180E+02  0.72044216275E+02  0.47000000000E+01 0.  1.
          6    1    1    2  502    0 -0.11378705934E+03 -0.60664829361E+02  0.86468365027E+03  0.89100478755E+03  0.17200000000E+03 0. -1.
         -6    1    1    2    0  502  0.11378705934E+03  0.60664829361E+02  0.13762606832E+03  0.25525017351E+03  0.17200000000E+03 0.  1.
</event>
<event>
 4    1 -0.3291270E-004  0.2871420E+03  0.7818608E-02  0.1091851E+00
         -5   -1    0    0    0  501 -0.00000000000E+00  0.00000000000E+00  0.16571087978E+03  0.16577751861E+03  0.47000000000E+01 0.  1.
          5   -1    0    0  501    0  0.00000000000E+00 -0.00000000000E+00 -0.55038890169E+03  0.55040896895E+03  0.47000000000E+01 0. -1.
          6    1    1    2  502    0  0.12143569417E+03 -0.19524318600E+03 -0.30346257338E+03  0.41777992165E+03  0.17200000000E+03 0. -1.
         -6    1    1    2    0  502 -0.12143569417E+03  0.19524318600E+03 -0.81215448536E+02  0.29840656591E+03  0.17200000000E+03 0.  1.
</event>
<event>
 4    1 -0.3291270E-004  0.2163271E+03  0.7818608E-02  0.1136651E+00
          5   -1    0    0  501    0  0.00000000000E+00  0.00000000000E+00  0.47036657733E+03  0.47039005843E+03  0.47000000000E+01 0. -1.
         -5   -1    0    0    0  501 -0.00000000000E+00 -0.00000000000E+00 -0.10179454719E+03  0.10190299229E+03  0.47000000000E+01 0.  1.
          6    1    1    2  502    0  0.27189087106E+02 -0.12835169585E+03  0.14051788875E+03  0.25795868147E+03  0.17200000000E+03 0.  1.
         -6    1    1    2    0  502 -0.27189087106E+02  0.12835169585E+03  0.22805414140E+03  0.31433436925E+03  0.17200000000E+03 0. -1.
</event>
<event>
 4    1 -0.3291270E-004  0.1871345E+03  0.7818608E-02  0.1161071E+00
         -5   -1    0    0    0  501 -0.00000000000E+00  0.00000000000E+00  0.92312624821E+03  0.92313821291E+03  0.47000000000E+01 0.  1.
          5   -1    0    0  501    0  0.00000000000E+00 -0.00000000000E+00 -0.62544531121E+02  0.62720876693E+02  0.47000000000E+01 0. -1.
          6    1    1    2  502    0  0.59534440821E+02  0.43485407552E+02  0.12071056213E+03  0.22268895375E+03  0.17200000000E+03 0. -1.
         -6    1    1    2    0  502 -0.59534440821E+02 -0.43485407552E+02  0.73987115495E+03  0.76317013584E+03  0.17200000000E+03 0.  1.
</event>
<event>
 4    1 -0.3291270E-004  0.4629618E+03  0.7818608E-02  0.1023926E+00
          5   -1    0    0  501    0  0.00000000000E+00  0.00000000000E+00  0.57559820421E+03  0.57561739262E+03  0.47000000000E+01 0. -1.
         -5   -1    0    0    0  501 -0.00000000000E+00 -0.00000000000E+00 -0.38145739618E+03  0.38148634983E+03  0.47000000000E+01 0.  1.
          6    1    1    2  502    0  0.22690152739E+03  0.36505524636E+03  0.17110494846E+03  0.49356918402E+03  0.17200000000E+03 0. -1.
         -6    1    1    2    0  502 -0.22690152739E+03 -0.36505524636E+03  0.23035859565E+02  0.46353455843E+03  0.17200000000E+03 0.  1.
</event>
<event>
 4    1 -0.3291270E-004  0.1784517E+03  0.7818608E-02  0.1169310E+00
         -5   -1    0    0    0  501 -0.00000000000E+00  0.00000000000E+00  0.14420409125E+03  0.14428066376E+03  0.47000000000E+01 0.  1.
          5   -1    0    0  501    0  0.00000000000E+00 -0.00000000000E+00 -0.23905909660E+03  0.23910529410E+03  0.47000000000E+01 0. -1.
          6    1    1    2  502    0 -0.45984893278E+02 -0.12098856411E+02 -0.10057588603E+03  0.20484262639E+03  0.17200000000E+03 0. -1.
         -6    1    1    2    0  502  0.45984893278E+02  0.12098856411E+02  0.57208806867E+01  0.17854333147E+03  0.17200000000E+03 0.  1.
</event>
<event>
 4    1 -0.3291270E-004  0.1983420E+03  0.7818608E-02  0.1151145E+00
         -5   -1    0    0    0  501 -0.00000000000E+00  0.00000000000E+00  0.23144076786E+03  0.23148848574E+03  0.47000000000E+01 0.  1.
          5   -1    0    0  501    0  0.00000000000E+00 -0.00000000000E+00 -0.17155447950E+03  0.17161884931E+03  0.47000000000E+01 0. -1.
          6    1    1    2  502    0  0.82430335240E+02 -0.54413194370E+02  0.10031244775E+02  0.19859552301E+03  0.17200000000E+03 0.  1.
         -6    1    1    2    0  502 -0.82430335240E+02  0.54413194370E+02  0.49855043583E+02  0.20451181203E+03  0.17200000000E+03 0.  1.
</event>
<event>
 4    1 -0.3291270E-004  0.2018541E+03  0.7818608E-02  0.1148184E+00
          5   -1    0    0  501    0  0.00000000000E+00  0.00000000000E+00  0.44894469772E+03  0.44896929919E+03  0.47000000000E+01 0. -1.
         -5   -1    0    0    0  501 -0.00000000000E+00 -0.00000000000E+00 -0.93354455433E+02  0.93472693067E+02  0.47000000000E+01 0.  1.
          6    1    1    2  502    0  0.63038219404E+02  0.84777680651E+02  0.13183412333E+03  0.24109190844E+03  0.17200000000E+03 0.  1.
         -6    1    1    2    0  502 -0.63038219404E+02 -0.84777680651E+02  0.22375611895E+03  0.30135008381E+03  0.17200000000E+03 0. -1.
</event>
<event>
 4    1 -0.3291270E-004  0.2052867E+03  0.7818608E-02  0.1145354E+00
         -5   -1    0    0    0  501 -0.00000000000E+00  0.00000000000E+00  0.76492448002E+03  0.76493891922E+03  0.47000000000E+01 0.  1.
          5   -1    0    0  501    0  0.00000000000E+00 -0.00000000000E+00 -0.55025799636E+02  0.55226158889E+02  0.47000000000E+01 0. -1.
          6    1    1    2  502    0 -0.11107267132E+03  0.14883205828E+02  0.36693097257E+03  0.42045331103E+03  0.17200000000E+03 0.  1.
         -6    1    1    2    0  502  0.11107267132E+03 -0.14883205828E+02  0.34296770782E+03  0.39971176707E+03  0.17200000000E+03 0.  1.
</event>
<event>
 4    1 -0.3291270E-004  0.2668763E+03  0.7818608E-02  0.1103081E+00
         -5   -1    0    0    0  501 -0.00000000000E+00  0.00000000000E+00  0.94251175884E+03  0.94252347746E+03  0.47000000000E+01 0.  1.
          5   -1    0    0  501    0  0.00000000000E+00 -0.00000000000E+00 -0.82583893080E+02  0.82717527745E+02  0.47000000000E+01 0. -1.
          6    1    1    2  502    0 -0.34454829286E+02 -0.20112633851E+03  0.27977406545E+03  0.38664772986E+03  0.17200000000E+03 0. -1.
         -6    1    1    2    0  502  0.34454829286E+02  0.20112633851E+03  0.58015380031E+03  0.63859327535E+03  0.17200000000E+03 0.  1.
</event>
<event>
 4    1 -0.3291270E-004  0.2743257E+03  0.7818608E-02  0.1098829E+00
          5   -1    0    0  501    0  0.00000000000E+00  0.00000000000E+00  0.40169138360E+03  0.40171887889E+03  0.47000000000E+01 0. -1.
         -5   -1    0    0    0  501 -0.00000000000E+00 -0.00000000000E+00 -0.24363761980E+03  0.24368294930E+03  0.47000000000E+01 0.  1.
          6    1    1    2  502    0  0.37995425953E+02  0.21030196980E+03  0.23420484876E+03  0.36070276140E+03  0.17200000000E+03 0. -1.
         -6    1    1    2    0  502 -0.37995425953E+02 -0.21030196980E+03 -0.76151084956E+02  0.28469906680E+03  0.17200000000E+03 0.  1.
</event>
<event>
 4    1 -0.3291270E-004  0.2304407E+03  0.7818608E-02  0.1126330E+00
         -5   -1    0    0    0  501 -0.00000000000E+00  0.00000000000E+00  0.17183965788E+03  0.17190392090E+03  0.47000000000E+01 0.  1.
          5   -1    0    0  501    0  0.00000000000E+00 -0.00000000000E+00 -0.30910060683E+03  0.30913633747E+03  0.47000000000E+01 0. -1.
          6    1    1    2  502    0 -0.13599513462E+03  0.70881838262E+02 -0.62294252677E+02  0.23871213952E+03  0.17200000000E+03 0. -1.
         -6    1    1    2    0  502  0.13599513462E+03 -0.70881838262E+02 -0.74966696278E+02  0.24232811885E+03  0.17200000000E+03 0.  1.
</event>
<event>
 4    1 -0.3291270E-004  0.1904779E+03  0.7818608E-02  0.1158031E+00
         -5   -1    0    0    0  501 -0.00000000000E+00  0.00000000000E+00  0.73429659044E+02  0.73579921360E+02  0.47000000000E+01 0.  1.
          5   -1    0    0  501    0  0.00000000000E+00 -0.00000000000E+00 -0.49703758089E+03  0.49705980205E+03  0.47000000000E+01 0. -1.
          6    1    1    2  502    0  0.47150609993E+02  0.66892915342E+02 -0.23608437458E+03  0.30334415120E+03  0.17200000000E+03 0.  1.
         -6    1    1    2    0  502 -0.47150609993E+02 -0.66892915342E+02 -0.18752354727E+03  0.26729557221E+03  0.17200000000E+03 0.  1.
</event>
<event>
 4    1 -0.3291270E-004  0.1858174E+03  0.7818608E-02  0.1162289E+00
          5   -1    0    0  501    0  0.00000000000E+00  0.00000000000E+00  0.19171221489E+03  0.19176981864E+03  0.47000000000E+01 0. -1.
         -5   -1    0    0    0  501 -0.00000000000E+00 -0.00000000000E+00 -0.23087026615E+03  0.23091810192E+03  0.47000000000E+01 0.  1.
          6    1    1    2  502    0  0.67580479239E+02 -0.19416370549E+02  0.79614007931E+02  0.20215466079E+03  0.17200000000E+03 0. -1.
         -6    1    1    2    0  502 -0.67580479239E+02  0.19416370549E+02 -0.11877205919E+03  0.22053325977E+03  0.17200000000E+03 0.  1.
</event>
<event>
 4    1 -0.3291270E-004  0.1841449E+03  0.7818608E-02  0.1163851E+00
          5   -1    0    0  501    0  0.00000000000E+00  0.00000000000E+00  0.30847033499E+03  0.30850613863E+03  0.47000000000E+01 0. -1.
         -5   -1    0    0    0  501 -0.00000000000E+00 -0.00000000000E+00 -0.11258324043E+03  0.11268130291E+03  0.47000000000E+01 0.  1.
          6    1    1    2  502    0 -0.83006835395E+01  0.65241311566E+02  0.13082733715E+03  0.22588741051E+03  0.17200000000E+03 0. -1.
         -6    1    1    2    0  502  0.83006835395E+01 -0.65241311566E+02  0.65059757413E+02  0.19530003102E+03  0.17200000000E+03 0. -1.
</event>
<event>
 4    1 -0.3291270E-004  0.2253239E+03  0.7818608E-02  0.1129975E+00
          5   -1    0    0  501    0  0.00000000000E+00  0.00000000000E+00  0.90263220780E+03  0.90264444415E+03  0.47000000000E+01 0. -1.
         -5   -1    0    0    0  501 -0.00000000000E+00 -0.00000000000E+00 -0.66713026623E+02  0.66878381568E+02  0.47000000000E+01 0.  1.
          6    1    1    2  502    0  0.87572599208E+02 -0.11626645990E+03  0.61069514922E+03  0.65093733577E+03  0.17200000000E+03 0. -1.
         -6    1    1    2    0  502 -0.87572599208E+02  0.11626645990E+03  0.22522403196E+03  0.31858548994E+03  0.17200000000E+03 0.  1.
</event>
<event>
 4    1 -0.3291270E-004  0.2769659E+03  0.7818608E-02  0.1097358E+00
          5   -1    0    0  501    0  0.00000000000E+00  0.00000000000E+00  0.33280794483E+03  0.33284113049E+03  0.47000000000E+01 0. -1.
         -5   -1    0    0    0  501 -0.00000000000E+00 -0.00000000000E+00 -0.27950038413E+03  0.27953989828E+03  0.47000000000E+01 0.  1.
          6    1    1    2  502    0 -0.34516902621E+02  0.21432375097E+03  0.15493793463E+03  0.31735760647E+03  0.17200000000E+03 0. -1.
         -6    1    1    2    0  502  0.34516902621E+02 -0.21432375097E+03 -0.10163037393E+03  0.29502342229E+03  0.17200000000E+03 0.  1.
</event>
<event>
 4    1 -0.3291270E-004  0.2623179E+03  0.7818608E-02  0.1105759E+00
          5   -1    0    0  501    0  0.00000000000E+00  0.00000000000E+00  0.98355891830E+03  0.98357014786E+03  0.47000000000E+01 0. -1.
         -5   -1    0    0    0  501 -0.00000000000E+00 -0.00000000000E+00 -0.91476733821E+02  0.91597395327E+02  0.47000000000E+01 0.  1.
          6    1    1    2  502    0  0.16800788146E+03 -0.10488113600E+03  0.18499042565E+03  0.32098622790E+03  0.17200000000E+03 0. -1.
         -6    1    1    2    0  502 -0.16800788146E+03  0.10488113600E+03  0.70709175883E+03  0.75418131528E+03  0.17200000000E+03 0.  1.
</event>
<event>
 4    1 -0.3291270E-004  0.1897979E+03  0.7818608E-02  0.1158644E+00
         -5   -1    0    0    0  501 -0.00000000000E+00  0.00000000000E+00  0.92494893290E+02  0.92614228306E+02  0.47000000000E+01 0.  1.
          5   -1    0    0  501    0  0.00000000000E+00 -0.00000000000E+00 -0.54669704205E+03  0.54671724482E+03  0.47000000000E+01 0. -1.
          6    1    1    2  502    0 -0.76607730814E+02 -0.23885383966E+02 -0.39872218874E+03  0.44159103227E+03  0.17200000000E+03 0. -1.
         -6    1    1    2    0  502  0.76607730814E+02  0.23885383966E+02 -0.55479960022E+02  0.19774044086E+03  0.17200000000E+03 0.  1.
</event>
<event>
 4    1 -0.3291270E-004  0.2995999E+03  0.7818608E-02  0.1085441E+00
          5   -1    0    0  501    0  0.00000000000E+00  0.00000000000E+00  0.90663680698E+03  0.90664898929E+03  0.47000000000E+01 0. -1.
         -5   -1    0    0    0  501 -0.00000000000E+00 -0.00000000000E+00 -0.12567547233E+03  0.12576332671E+03  0.47000000000E+01 0.  1.
          6    1    1    2  502    0 -0.20606307751E+03 -0.13309433478E+03  0.62848858105E+03  0.69624563939E+03  0.17200000000E+03 0. -1.
         -6    1    1    2    0  502  0.20606307751E+03  0.13309433478E+03  0.15247275361E+03  0.33616667660E+03  0.17200000000E+03 0.  1.
</event>
<event>
 4    1 -0.3291270E-004  0.1867235E+03  0.7818608E-02  0.1161450E+00
         -5   -1    0    0    0  501 -0.00000000000E+00  0.00000000000E+00  0.25892596280E+03  0.25896861626E+03  0.47000000000E+01 0.  1.
          5   -1    0    0  501    0  0.00000000000E+00 -0.00000000000E+00 -0.17627686347E+03  0.17633950946E+03  0.47000000000E+01 0. -1.
          6    1    1    2  502    0 -0.68580964766E+02 -0.24048405244E+02 -0.64523327923E+02  0.19755742044E+03  0.17200000000E+03 0. -1.
         -6    1    1    2    0  502  0.68580964766E+02  0.24048405244E+02  0.14717242725E+03  0.23775070529E+03  0.17200000000E+03 0.  1.
</event>
<event>
 4    1 -0.3291270E-004  0.1941864E+03  0.7818608E-02  0.1154739E+00
         -5   -1    0    0    0  501 -0.00000000000E+00  0.00000000000E+00  0.47356041881E+02  0.47588703520E+02  0.47000000000E+01 0.  1.
          5   -1    0    0  501    0  0.00000000000E+00 -0.00000000000E+00 -0.80998275736E+03  0.80999639334E+03  0.47000000000E+01 0. -1.
          6    1    1    2  502    0 -0.12338228913E+02  0.89286844357E+02 -0.44138101820E+03  0.48220905808E+03  0.17200000000E+03 0. -1.
         -6    1    1    2    0  502  0.12338228913E+02 -0.89286844357E+02 -0.32124569728E+03  0.37537603878E+03  0.17200000000E+03 0.  1.
</event>
<event>
 4    1 -0.3291270E-004  0.1782687E+03  0.7818608E-02  0.1169489E+00
         -5   -1    0    0    0  501 -0.00000000000E+00  0.00000000000E+00  0.11634714533E+03  0.11644203805E+03  0.47000000000E+01 0.  1.
          5   -1    0    0  501    0  0.00000000000E+00 -0.00000000000E+00 -0.39901747420E+03  0.39904515373E+03  0.47000000000E+01 0. -1.
          6    1    1    2  502    0  0.45040144524E+02 -0.12927086097E+02 -0.28620442742E+03  0.33718347891E+03  0.17200000000E+03 0. -1.
         -6    1    1    2    0  502 -0.45040144524E+02  0.12927086097E+02  0.35340985495E+01  0.17830371288E+03  0.17200000000E+03 0.  1.
</event>
<event>
 4    1 -0.3291270E-004  0.1896808E+03  0.7818608E-02  0.1158750E+00
         -5   -1    0    0    0  501 -0.00000000000E+00  0.00000000000E+00  0.25395390207E+03  0.25399739049E+03  0.47000000000E+01 0.  1.
          5   -1    0    0  501    0  0.00000000000E+00 -0.00000000000E+00 -0.14396095318E+03  0.14403765494E+03  0.47000000000E+01 0. -1.
          6    1    1    2  502    0  0.38702891460E+02 -0.69977690287E+02  0.29412192286E+02  0.19194756576E+03  0.17200000000E+03 0. -1.
         -6    1    1    2    0  502 -0.38702891460E+02  0.69977690287E+02  0.80580756598E+02  0.20608747968E+03  0.17200000000E+03 0.  1.
</event>
<event>
 4    1 -0.3291270E-004  0.1727072E+03  0.7818608E-02  0.1175054E+00
         -5   -1    0    0    0  501 -0.00000000000E+00  0.00000000000E+00  0.26071819053E+03  0.26076055084E+03  0.47000000000E+01 0.  1.
          5   -1    0    0  501    0  0.00000000000E+00 -0.00000000000E+00 -0.12913689550E+03  0.12922239659E+03  0.47000000000E+01 0. -1.
          6    1    1    2  502    0 -0.15608263347E+02  0.37809695495E+00 -0.25545146362E+00  0.17270734234E+03  0.17200000000E+03 0. -1.
         -6    1    1    2    0  502  0.15608263347E+02 -0.37809695495E+00  0.13183674649E+03  0.21727560509E+03  0.17200000000E+03 0.  1.
</event>
<event>
 4    1 -0.3291270E-004  0.3628126E+03  0.7818608E-02  0.1057476E+00
          5   -1    0    0  501    0  0.00000000000E+00  0.00000000000E+00  0.68453455857E+03  0.68455069343E+03  0.47000000000E+01 0. -1.
         -5   -1    0    0    0  501 -0.00000000000E+00 -0.00000000000E+00 -0.25824802798E+03  0.25829079340E+03  0.47000000000E+01 0.  1.
          6    1    1    2  502    0  0.17525546904E+02  0.31896997853E+03  0.45143278388E+03  0.57915848467E+03  0.17200000000E+03 0. -1.
         -6    1    1    2    0  502 -0.17525546904E+02 -0.31896997853E+03 -0.25146253293E+02  0.36368300215E+03  0.17200000000E+03 0.  1.
</event>
<event>
 4    1 -0.3291270E-004  0.2379003E+03  0.7818608E-02  0.1121200E+00
         -5   -1    0    0    0  501 -0.00000000000E+00  0.00000000000E+00  0.32969429455E+03  0.32972779358E+03  0.47000000000E+01 0.  1.
          5   -1    0    0  501    0  0.00000000000E+00 -0.00000000000E+00 -0.17590953196E+03  0.17597230872E+03  0.47000000000E+01 0. -1.
          6    1    1    2  502    0  0.10437175186E+03 -0.12696099533E+03  0.37278274103E+02  0.24080329450E+03  0.17200000000E+03 0. -1.
         -6    1    1    2    0  502 -0.10437175186E+03  0.12696099533E+03  0.11650648849E+03  0.26489680780E+03  0.17200000000E+03 0.  1.
</event>
<event>
 4    1 -0.3291270E-004  0.1763940E+03  0.7818608E-02  0.1171339E+00
          5   -1    0    0  501    0  0.00000000000E+00  0.00000000000E+00  0.19876840177E+03  0.19882396119E+03  0.47000000000E+01 0. -1.
         -5   -1    0    0    0  501 -0.00000000000E+00 -0.00000000000E+00 -0.16012310901E+03  0.16019207234E+03  0.47000000000E+01 0.  1.
          6    1    1    2  502    0 -0.62883446216E+01 -0.38617248911E+02 -0.79453487338E+01  0.17657282848E+03  0.17200000000E+03 0.  1.
         -6    1    1    2    0  502  0.62883446216E+01  0.38617248911E+02  0.46590641489E+02  0.18244320504E+03  0.17200000000E+03 0.  1.
</event>
<event>
 4    1 -0.3291270E-004  0.3800750E+03  0.7818608E-02  0.1050906E+00
          5   -1    0    0  501    0  0.00000000000E+00  0.00000000000E+00  0.15341340452E+03  0.15348538265E+03  0.47000000000E+01 0. -1.
         -5   -1    0    0    0  501 -0.00000000000E+00 -0.00000000000E+00 -0.11397080707E+04  0.11397177617E+04  0.47000000000E+01 0.  1.
          6    1    1    2  502    0  0.23312669515E+03 -0.24601815527E+03 -0.22338485787E+03  0.44086027655E+03  0.17200000000E+03 0. -1.
         -6    1    1    2    0  502 -0.23312669515E+03  0.24601815527E+03 -0.76290980829E+03  0.85234286781E+03  0.17200000000E+03 0.  1.
</event>
<event>
 4    1 -0.3291270E-004  0.2979265E+03  0.7818608E-02  0.1086282E+00
         -5   -1    0    0    0  501 -0.00000000000E+00  0.00000000000E+00  0.55369886437E+03  0.55371881168E+03  0.47000000000E+01 0.  1.
          5   -1    0    0  501    0  0.00000000000E+00 -0.00000000000E+00 -0.16646468405E+03  0.16653102125E+03  0.47000000000E+01 0. -1.
          6    1    1    2  502    0  0.23699294977E+03  0.54868342423E+02  0.12403472455E+03  0.32271474422E+03  0.17200000000E+03 0.  1.
         -6    1    1    2    0  502 -0.23699294977E+03 -0.54868342423E+02  0.26319945577E+03  0.39753508871E+03  0.17200000000E+03 0.  1.
</event>
<event>
 4    1 -0.3291270E-004  0.3801017E+03  0.7818608E-02  0.1050896E+00
         -5   -1    0    0    0  501 -0.00000000000E+00  0.00000000000E+00  0.60457768724E+03  0.60459595591E+03  0.47000000000E+01 0.  1.
          5   -1    0    0  501    0  0.00000000000E+00 -0.00000000000E+00 -0.24274764269E+03  0.24279313835E+03  0.47000000000E+01 0. -1.
          6    1    1    2  502    0  0.28799854632E+03 -0.17874597845E+03  0.23406116533E+03  0.44638763044E+03  0.17200000000E+03 0. -1.
         -6    1    1    2    0  502 -0.28799854632E+03  0.17874597845E+03  0.12776887922E+03  0.40100146383E+03  0.17200000000E+03 0.  1.
</event>
<event>
 4    1 -0.3291270E-004  0.1847060E+03  0.7818608E-02  0.1163325E+00
          5   -1    0    0  501    0  0.00000000000E+00  0.00000000000E+00  0.29023697079E+03  0.29027502340E+03  0.47000000000E+01 0. -1.
         -5   -1    0    0    0  501 -0.00000000000E+00 -0.00000000000E+00 -0.12002199260E+03  0.12011398215E+03  0.47000000000E+01 0.  1.
          6    1    1    2  502    0 -0.67308047710E+02 -0.13877146540E+01  0.11510803667E+03  0.21763767859E+03  0.17200000000E+03 0. -1.
         -6    1    1    2    0  502  0.67308047710E+02  0.13877146540E+01  0.55106941522E+02  0.19275132695E+03  0.17200000000E+03 0.  1.
</event>
<event>
 4    1 -0.3291270E-004  0.2721587E+03  0.7818608E-02  0.1100050E+00
          5   -1    0    0  501    0  0.00000000000E+00  0.00000000000E+00  0.11606638149E+03  0.11616150358E+03  0.47000000000E+01 0. -1.
         -5   -1    0    0    0  501 -0.00000000000E+00 -0.00000000000E+00 -0.93612637443E+03  0.93613817298E+03  0.47000000000E+01 0.  1.
          6    1    1    2  502    0  0.15565840625E+03  0.14232652211E+03 -0.11302946667E+03  0.29469651961E+03  0.17200000000E+03 0. -1.
         -6    1    1    2    0  502 -0.15565840625E+03 -0.14232652211E+03 -0.70703052627E+03  0.75760315695E+03  0.17200000000E+03 0.  1.
</event>
<event>
 4    1 -0.3291270E-004  0.3495854E+03  0.7818608E-02  0.1062785E+00
         -5   -1    0    0    0  501 -0.00000000000E+00  0.00000000000E+00  0.50816137923E+03  0.50818311398E+03  0.47000000000E+01 0.  1.
          5   -1    0    0  501    0  0.00000000000E+00 -0.00000000000E+00 -0.28723355312E+03  0.28727200358E+03  0.47000000000E+01 0. -1.
          6    1    1    2  502    0 -0.15731394217E+03  0.26053462678E+03 -0.50042216976E+02  0.35314896522E+03  0.17200000000E+03 0. -1.
         -6    1    1    2    0  502  0.15731394217E+03 -0.26053462678E+03  0.27097004308E+03  0.44230615234E+03  0.17200000000E+03 0.  1.
</event>
<event>
 4    1 -0.3291270E-004  0.2607983E+03  0.7818608E-02  0.1106665E+00
         -5   -1    0    0    0  501 -0.00000000000E+00  0.00000000000E+00  0.11657850024E+04  0.11657944767E+04  0.47000000000E+01 0.  1.
          5   -1    0    0  501    0  0.00000000000E+00 -0.00000000000E+00 -0.67715184868E+02  0.67878098542E+02  0.47000000000E+01 0. -1.
          6    1    1    2  502    0 -0.12019221745E+03  0.15487283545E+03  0.31859869673E+03  0.41172915109E+03  0.17200000000E+03 0. -1.
         -6    1    1    2    0  502  0.12019221745E+03 -0.15487283545E+03  0.77947112083E+03  0.82194342415E+03  0.17200000000E+03 0.  1.
</event>
<event>
 4    1 -0.3291270E-004  0.2404230E+03  0.7818608E-02  0.1119511E+00
         -5   -1    0    0    0  501 -0.00000000000E+00  0.00000000000E+00  0.73591664691E+03  0.73593165525E+03  0.47000000000E+01 0.  1.
          5   -1    0    0  501    0  0.00000000000E+00 -0.00000000000E+00 -0.88597543747E+02  0.88722121018E+02  0.47000000000E+01 0. -1.
          6    1    1    2  502    0 -0.71415217426E+02 -0.15204965709E+03  0.18429871113E+03  0.30293439294E+03  0.17200000000E+03 0. -1.
         -6    1    1    2    0  502  0.71415217426E+02  0.15204965709E+03  0.46302039204E+03  0.52171938333E+03  0.17200000000E+03 0.  1.
</event>
<event>
 4    1 -0.3291270E-004  0.3206688E+03  0.7818608E-02  0.1075342E+00
         -5   -1    0    0    0  501 -0.00000000000E+00  0.00000000000E+00  0.40862485394E+03  0.40865188273E+03  0.47000000000E+01 0.  1.
          5   -1    0    0  501    0  0.00000000000E+00 -0.00000000000E+00 -0.25957190466E+03  0.25961445201E+03  0.47000000000E+01 0. -1.
          6    1    1    2  502    0  0.12100257027E+03 -0.24208027857E+03  0.15933928026E+02  0.32106443799E+03  0.17200000000E+03 0. -1.
         -6    1    1    2    0  502 -0.12100257027E+03  0.24208027857E+03  0.13311902126E+03  0.34720189674E+03  0.17200000000E+03 0.  1.
</event>
<event>
 4    1 -0.3291270E-004  0.1977179E+03  0.7818608E-02  0.1151679E+00
          5   -1    0    0  501    0  0.00000000000E+00  0.00000000000E+00  0.76507622362E+02  0.76651851116E+02  0.47000000000E+01 0. -1.
         -5   -1    0    0    0  501 -0.00000000000E+00 -0.00000000000E+00 -0.13064591048E+04  0.13064675589E+04  0.47000000000E+01 0.  1.
          6    1    1    2  502    0 -0.89268114797E+02 -0.39237588456E+02 -0.75156243385E+02  0.21152031956E+03  0.17200000000E+03 0. -1.
         -6    1    1    2    0  502  0.89268114797E+02  0.39237588456E+02 -0.11547952390E+04  0.11715990904E+04  0.17200000000E+03 0.  1.
</event>
<event>
 4    1 -0.3291270E-004  0.1840472E+03  0.7818608E-02  0.1163943E+00
         -5   -1    0    0    0  501 -0.00000000000E+00  0.00000000000E+00  0.27991597015E+03  0.27995542564E+03  0.47000000000E+01 0.  1.
          5   -1    0    0  501    0  0.00000000000E+00 -0.00000000000E+00 -0.21675970134E+03  0.21681065039E+03  0.47000000000E+01 0. -1.
          6    1    1    2  502    0  0.44460397050E+02 -0.48090035869E+02 -0.13354078006E+03  0.22739067350E+03  0.17200000000E+03 0. -1.
         -6    1    1    2    0  502 -0.44460397050E+02  0.48090035869E+02  0.19669704887E+03  0.26937540253E+03  0.17200000000E+03 0.  1.
</event>
<event>
 4    1 -0.3291270E-004  0.2206247E+03  0.7818608E-02  0.1133418E+00
          5   -1    0    0  501    0  0.00000000000E+00  0.00000000000E+00  0.10165968607E+04  0.10166077253E+04  0.47000000000E+01 0. -1.
         -5   -1    0    0    0  501 -0.00000000000E+00 -0.00000000000E+00 -0.49201969828E+02  0.49425942935E+02  0.47000000000E+01 0.  1.
          6    1    1    2  502    0  0.12585517885E+03  0.57024053178E+02  0.39248304777E+03  0.45024239191E+03  0.17200000000E+03 0. -1.
         -6    1    1    2    0  502 -0.12585517885E+03 -0.57024053178E+02  0.57491184309E+03  0.61579127633E+03  0.17200000000E+03 0.  1.
</event>
<event>
 4    1 -0.3291270E-004  0.2590446E+03  0.7818608E-02  0.1107719E+00
          5   -1    0    0  501    0  0.00000000000E+00  0.00000000000E+00  0.62060594986E+03  0.62062374673E+03  0.47000000000E+01 0. -1.
         -5   -1    0    0    0  501 -0.00000000000E+00 -0.00000000000E+00 -0.13878009253E+03  0.13885965607E+03  0.47000000000E+01 0.  1.
          6    1    1    2  502    0  0.90704078904E+02 -0.17115164535E+03  0.41951722020E+03  0.49305051838E+03  0.17200000000E+03 0. -1.
         -6    1    1    2    0  502 -0.90704078904E+02  0.17115164535E+03  0.62308637133E+02  0.26643288441E+03  0.17200000000E+03 0.  1.
</event>
<event>
 4    1 -0.3291270E-004  0.1757986E+03  0.7818608E-02  0.1171932E+00
          5   -1    0    0  501    0  0.00000000000E+00  0.00000000000E+00  0.38801230381E+03  0.38804076836E+03  0.47000000000E+01 0. -1.
         -5   -1    0    0    0  501 -0.00000000000E+00 -0.00000000000E+00 -0.79890192086E+02  0.80028324933E+02  0.47000000000E+01 0.  1.
          6    1    1    2  502    0 -0.28820523078E+02 -0.22147809112E+02  0.13878633897E+03  0.22397945416E+03  0.17200000000E+03 0. -1.
         -6    1    1    2    0  502  0.28820523078E+02  0.22147809112E+02  0.16933577275E+03  0.24408963913E+03  0.17200000000E+03 0. -1.
</event>
<event>
 4    1 -0.3291270E-004  0.1862233E+03  0.7818608E-02  0.1161912E+00
          5   -1    0    0  501    0  0.00000000000E+00  0.00000000000E+00  0.11628841251E+03  0.11638335312E+03  0.47000000000E+01 0. -1.
         -5   -1    0    0    0  501 -0.00000000000E+00 -0.00000000000E+00 -0.37989247465E+03  0.37992154755E+03  0.47000000000E+01 0.  1.
          6    1    1    2  502    0 -0.42655531977E+02 -0.57233096117E+02 -0.16592985435E+02  0.18696108917E+03  0.17200000000E+03 0. -1.
         -6    1    1    2    0  502  0.42655531977E+02  0.57233096117E+02 -0.24701107670E+03  0.30934381150E+03  0.17200000000E+03 0.  1.
</event>
<event>
 4    1 -0.3291270E-004  0.1934160E+03  0.7818608E-02  0.1155416E+00
         -5   -1    0    0    0  501 -0.00000000000E+00  0.00000000000E+00  0.82519201691E+03  0.82520540157E+03  0.47000000000E+01 0.  1.
          5   -1    0    0  501    0  0.00000000000E+00 -0.00000000000E+00 -0.57846435551E+02  0.58037058041E+02  0.47000000000E+01 0. -1.
          6    1    1    2  502    0  0.62873991194E+02  0.62230311404E+02  0.17758648007E+03  0.26257705218E+03  0.17200000000E+03 0. -1.
         -6    1    1    2    0  502 -0.62873991194E+02 -0.62230311404E+02  0.58975910129E+03  0.62066540743E+03  0.17200000000E+03 0.  1.
</event>
<event>
 4    1 -0.3291270E-004  0.3001148E+03  0.7818608E-02  0.1085183E+00
         -5   -1    0    0    0  501 -0.00000000000E+00  0.00000000000E+00  0.18680522054E+03  0.18686433694E+03  0.47000000000E+01 0.  1.
          5   -1    0    0  501    0  0.00000000000E+00 -0.00000000000E+00 -0.48366575154E+03  0.48368858702E+03  0.47000000000E+01 0. -1.
          6    1    1    2  502    0 -0.23146893363E+03 -0.83108479144E+02 -0.12879830687E+03  0.32658519623E+03  0.17200000000E+03 0.  1.
         -6    1    1    2    0  502  0.23146893363E+03  0.83108479144E+02 -0.16806222413E+03  0.34396772773E+03  0.17200000000E+03 0.  1.
</event>
<event>
 4    1 -0.3291270E-004  0.4705144E+03  0.7818608E-02  0.1021775E+00
         -5   -1    0    0    0  501 -0.00000000000E+00  0.00000000000E+00  0.68582399196E+03  0.68584009649E+03  0.47000000000E+01 0.  1.
          5   -1    0    0  501    0  0.00000000000E+00 -0.00000000000E+00 -0.43920552903E+03  0.43923067599E+03  0.47000000000E+01 0. -1.
          6    1    1    2  502    0  0.42767375958E+03 -0.94313306601E+02 -0.16632474954E+03  0.49904685827E+03  0.17200000000E+03 0. -1.
         -6    1    1    2    0  502 -0.42767375958E+03  0.94313306601E+02  0.41294321247E+03  0.62602391421E+03  0.17200000000E+03 0.  1.
</event>
<event>
 4    1 -0.3291270E-004  0.2196383E+03  0.7818608E-02  0.1134153E+00
          5   -1    0    0  501    0  0.00000000000E+00  0.00000000000E+00  0.15817591799E+03  0.15824572990E+03  0.47000000000E+01 0. -1.
         -5   -1    0    0    0  501 -0.00000000000E+00 -0.00000000000E+00 -0.38190074567E+03  0.38192966570E+03  0.47000000000E+01 0.  1.
          6    1    1    2  502    0 -0.14372098474E+02  0.13583239058E+03  0.94546366192E+01  0.21984172875E+03  0.17200000000E+03 0. -1.
         -6    1    1    2    0  502  0.14372098474E+02 -0.13583239058E+03 -0.23317946430E+03  0.32033366685E+03  0.17200000000E+03 0.  1.
</event>
<event>
 4    1 -0.3291270E-004  0.1763657E+03  0.7818608E-02  0.1171367E+00
          5   -1    0    0  501    0  0.00000000000E+00  0.00000000000E+00  0.44255923209E+02  0.44504794563E+02  0.47000000000E+01 0. -1.
         -5   -1    0    0    0  501 -0.00000000000E+00 -0.00000000000E+00 -0.74319526945E+03  0.74321013081E+03  0.47000000000E+01 0.  1.
          6    1    1    2  502    0 -0.10534387866E+02  0.37548580278E+02 -0.25521066477E+03  0.31022145738E+03  0.17200000000E+03 0. -1.
         -6    1    1    2    0  502  0.10534387866E+02 -0.37548580278E+02 -0.44372868147E+03  0.47749346799E+03  0.17200000000E+03 0.  1.
</event>
<event>
 4    1 -0.3291270E-004  0.2818838E+03  0.7818608E-02  0.1094664E+00
          5   -1    0    0  501    0  0.00000000000E+00  0.00000000000E+00  0.15107869092E+03  0.15115178084E+03  0.47000000000E+01 0. -1.
         -5   -1    0    0    0  501 -0.00000000000E+00 -0.00000000000E+00 -0.56642630524E+03  0.56644580436E+03  0.47000000000E+01 0.  1.
          6    1    1    2  502    0  0.11752365020E+02  0.22301649444E+03 -0.30383945072E+03  0.41445975280E+03  0.17200000000E+03 0.  1.
         -6    1    1    2    0  502 -0.11752365020E+02 -0.22301649444E+03 -0.11150816360E+03  0.30313783239E+03  0.17200000000E+03 0. -1.
</event>
<event>
 4    1 -0.3291270E-004  0.1840089E+03  0.7818608E-02  0.1163979E+00
          5   -1    0    0  501    0  0.00000000000E+00  0.00000000000E+00  0.73398375261E+02  0.73548701491E+02  0.47000000000E+01 0. -1.
         -5   -1    0    0    0  501 -0.00000000000E+00 -0.00000000000E+00 -0.47459452051E+03  0.47461779243E+03  0.47000000000E+01 0.  1.
          6    1    1    2  502    0  0.37561691085E+02  0.53520073018E+02 -0.15366612626E+03  0.23973434717E+03  0.17200000000E+03 0. -1.
         -6    1    1    2    0  502 -0.37561691085E+02 -0.53520073018E+02 -0.24753001899E+03  0.30843214676E+03  0.17200000000E+03 0.  1.
</event>
<event>
 4    1 -0.3291270E-004  0.3267388E+03  0.7818608E-02  0.1072589E+00
         -5   -1    0    0    0  501 -0.00000000000E+00  0.00000000000E+00  0.39126707632E+03  0.39129530410E+03  0.47000000000E+01 0.  1.
          5   -1    0    0  501    0  0.00000000000E+00 -0.00000000000E+00 -0.10630537319E+04  0.10630641218E+04  0.47000000000E+01 0. -1.
          6    1    1    2  502    0 -0.23294216711E+03  0.15136769696E+03 -0.96285073240E+03  0.10167791136E+04  0.17200000000E+03 0. -1.
         -6    1    1    2    0  502  0.23294216711E+03 -0.15136769696E+03  0.29106407680E+03  0.43758031229E+03  0.17200000000E+03 0.  1.
</event>
<event>
 4    1 -0.3291270E-004  0.2656555E+03  0.7818608E-02  0.1103792E+00
          5   -1    0    0  501    0  0.00000000000E+00  0.00000000000E+00  0.22572591774E+03  0.22577484346E+03  0.47000000000E+01 0. -1.
         -5   -1    0    0    0  501 -0.00000000000E+00 -0.00000000000E+00 -0.31256704885E+03  0.31260238327E+03  0.47000000000E+01 0.  1.
          6    1    1    2  502    0  0.13375799209E+03 -0.15197902306E+03 -0.41309619575E+02  0.26884811431E+03  0.17200000000E+03 0. -1.
         -6    1    1    2    0  502 -0.13375799209E+03  0.15197902306E+03 -0.45531511537E+02  0.26952911242E+03  0.17200000000E+03 0.  1.
</event>
<event>
 4    1 -0.3291270E-004  0.1948155E+03  0.7818608E-02  0.1154188E+00
         -5   -1    0    0    0  501 -0.00000000000E+00  0.00000000000E+00  0.79621513552E+02  0.79760111712E+02  0.47000000000E+01 0.  1.
          5   -1    0    0  501    0  0.00000000000E+00 -0.00000000000E+00 -0.61635936041E+03  0.61637727989E+03  0.47000000000E+01 0. -1.
          6    1    1    2  502    0 -0.82449569574E+02 -0.39637590913E+02 -0.43438567631E+03  0.47607140843E+03  0.17200000000E+03 0. -1.
         -6    1    1    2    0  502  0.82449569574E+02  0.39637590913E+02 -0.10235217055E+03  0.22006598318E+03  0.17200000000E+03 0.  1.
</event>
<event>
 4    1 -0.3291270E-004  0.7599331E+03  0.7818608E-02  0.9619894E-01
          5   -1    0    0  501    0  0.00000000000E+00  0.00000000000E+00  0.47756987992E+03  0.47759300687E+03  0.47000000000E+01 0. -1.
         -5   -1    0    0    0  501 -0.00000000000E+00 -0.00000000000E+00 -0.18136185142E+04  0.18136246043E+04  0.47000000000E+01 0.  1.
          6    1    1    2  502    0  0.55888416279E+03 -0.48534815418E+03 -0.66712633340E+01  0.75996239640E+03  0.17200000000E+03 0. -1.
         -6    1    1    2    0  502 -0.55888416279E+03  0.48534815418E+03 -0.13293773710E+04  0.15312552147E+04  0.17200000000E+03 0.  1.
</event>
<event>
 4    1 -0.3291270E-004  0.1988656E+03  0.7818608E-02  0.1150700E+00
          5   -1    0    0  501    0  0.00000000000E+00  0.00000000000E+00  0.14649913575E+03  0.14657450930E+03  0.47000000000E+01 0. -1.
         -5   -1    0    0    0  501 -0.00000000000E+00 -0.00000000000E+00 -0.30530620630E+03  0.30534238095E+03  0.47000000000E+01 0.  1.
          6    1    1    2  502    0 -0.97321920476E+02  0.22180197052E+02 -0.23447595587E+01  0.19887939874E+03  0.17200000000E+03 0. -1.
         -6    1    1    2    0  502  0.97321920476E+02 -0.22180197052E+02 -0.15646231099E+03  0.25303749150E+03  0.17200000000E+03 0.  1.
</event>
<event>
 4    1 -0.3291270E-004  0.2323246E+03  0.7818608E-02  0.1125014E+00
          5   -1    0    0  501    0  0.00000000000E+00  0.00000000000E+00  0.91645033603E+02  0.91765473813E+02  0.47000000000E+01 0. -1.
         -5   -1    0    0    0  501 -0.00000000000E+00 -0.00000000000E+00 -0.63903690601E+03  0.63905418960E+03  0.47000000000E+01 0.  1.
          6    1    1    2  502    0  0.11474575065E+03 -0.10594390427E+03 -0.37650792786E+03  0.44241713109E+03  0.17200000000E+03 0. -1.
         -6    1    1    2    0  502 -0.11474575065E+03  0.10594390427E+03 -0.17088394456E+03  0.28840253232E+03  0.17200000000E+03 0. -1.
</event>
<event>
 4    1 -0.3291270E-004  0.2046942E+03  0.7818608E-02  0.1145838E+00
         -5   -1    0    0    0  501 -0.00000000000E+00  0.00000000000E+00  0.22691818724E+03  0.22696685595E+03  0.47000000000E+01 0.  1.
          5   -1    0    0  501    0  0.00000000000E+00 -0.00000000000E+00 -0.20447906858E+03  0.20453307675E+03  0.47000000000E+01 0. -1.
          6    1    1    2  502    0 -0.84637709572E+02 -0.71778565652E+02 -0.56120831460E+02  0.21224809090E+03  0.17200000000E+03 0. -1.
         -6    1    1    2    0  502  0.84637709572E+02  0.71778565652E+02  0.78559950124E+02  0.21925184180E+03  0.17200000000E+03 0.  1.
</event>
<event>
 4    1 -0.3291270E-004  0.2318673E+03  0.7818608E-02  0.1125332E+00
         -5   -1    0    0    0  501 -0.00000000000E+00  0.00000000000E+00  0.58986007456E+03  0.58987879905E+03  0.47000000000E+01 0.  1.
          5   -1    0    0  501    0  0.00000000000E+00 -0.00000000000E+00 -0.14793026630E+03  0.14800491102E+03  0.47000000000E+01 0. -1.
          6    1    1    2  502    0  0.42175117386E+02  0.14966527235E+03 -0.76934518158E+01  0.23199487812E+03  0.17200000000E+03 0. -1.
         -6    1    1    2    0  502 -0.42175117386E+02 -0.14966527235E+03  0.44962326008E+03  0.50588883194E+03  0.17200000000E+03 0.  1.
</event>
<event>
 4    1 -0.3291270E-004  0.2002251E+03  0.7818608E-02  0.1149549E+00
         -5   -1    0    0    0  501 -0.00000000000E+00  0.00000000000E+00  0.17237428105E+03  0.17243834483E+03  0.47000000000E+01 0.  1.
          5   -1    0    0  501    0  0.00000000000E+00 -0.00000000000E+00 -0.29952079386E+03  0.29955766716E+03  0.47000000000E+01 0. -1.
          6    1    1    2  502    0 -0.67371609041E+02  0.77247486151E+02 -0.17523414576E+03  0.26607727010E+03  0.17200000000E+03 0. -1.
         -6    1    1    2    0  502  0.67371609041E+02 -0.77247486151E+02  0.48087632954E+02  0.20591874190E+03  0.17200000000E+03 0.  1.
</event>
<event>
 4    1 -0.3291270E-004  0.6431404E+03  0.7818608E-02  0.9819737E-01
         -5   -1    0    0    0  501 -0.00000000000E+00  0.00000000000E+00  0.70217630523E+03  0.70219203472E+03  0.47000000000E+01 0.  1.
          5   -1    0    0  501    0  0.00000000000E+00 -0.00000000000E+00 -0.78900972231E+03  0.78902372074E+03  0.47000000000E+01 0. -1.
          6    1    1    2  502    0 -0.97251924175E+02 -0.61203565219E+03 -0.41877554271E+03  0.76746500342E+03  0.17200000000E+03 0. -1.
         -6    1    1    2    0  502  0.97251924175E+02  0.61203565219E+03  0.33194212563E+03  0.72375075204E+03  0.17200000000E+03 0.  1.
</event>
<event>
 4    1 -0.3291270E-004  0.1749558E+03  0.7818608E-02  0.1172776E+00
         -5   -1    0    0    0  501 -0.00000000000E+00  0.00000000000E+00  0.77188852821E+03  0.77190283714E+03  0.47000000000E+01 0.  1.
          5   -1    0    0  501    0  0.00000000000E+00 -0.00000000000E+00 -0.42043942594E+02  0.42305828308E+02  0.47000000000E+01 0. -1.
          6    1    1    2  502    0 -0.25591888236E+02 -0.19250471292E+02  0.26514655785E+03  0.31766684204E+03  0.17200000000E+03 0. -1.
         -6    1    1    2    0  502  0.25591888236E+02  0.19250471292E+02  0.46469802776E+03  0.49654182341E+03  0.17200000000E+03 0.  1.
</event>
<event>
 4    1 -0.3291270E-004  0.2696855E+03  0.7818608E-02  0.1101460E+00
          5   -1    0    0  501    0  0.00000000000E+00  0.00000000000E+00  0.14491705486E+03  0.14499325084E+03  0.47000000000E+01 0. -1.
         -5   -1    0    0    0  501 -0.00000000000E+00 -0.00000000000E+00 -0.87543683406E+03  0.87544945053E+03  0.47000000000E+01 0.  1.
          6    1    1    2  502    0  0.20625628226E+03 -0.24589013597E+02 -0.69863371469E+03  0.74887872240E+03  0.17200000000E+03 0.  1.
         -6    1    1    2    0  502 -0.20625628226E+03  0.24589013597E+02 -0.31886064504E+02  0.27156397897E+03  0.17200000000E+03 0. -1.
</event>
<event>
 4    1 -0.3291270E-004  0.2293839E+03  0.7818608E-02  0.1127074E+00
          5   -1    0    0  501    0  0.00000000000E+00  0.00000000000E+00  0.11197873320E+04  0.11197971954E+04  0.47000000000E+01 0. -1.
         -5   -1    0    0    0  501 -0.00000000000E+00 -0.00000000000E+00 -0.75543866049E+02  0.75689931283E+02  0.47000000000E+01 0.  1.
          6    1    1    2  502    0  0.58743456682E+01  0.15165240473E+03  0.88995684907E+03  0.91904306374E+03  0.17200000000E+03 0. -1.
         -6    1    1    2    0  502 -0.58743456682E+01 -0.15165240473E+03  0.15428661684E+03  0.27644406294E+03  0.17200000000E+03 0.  1.
</event>
<event>
 4    1 -0.3291270E-004  0.2773992E+03  0.7818608E-02  0.1097118E+00
         -5   -1    0    0    0  501 -0.00000000000E+00  0.00000000000E+00  0.16435374842E+03  0.16442093729E+03  0.47000000000E+01 0.  1.
          5   -1    0    0  501    0  0.00000000000E+00 -0.00000000000E+00 -0.65550465472E+03  0.65552150412E+03  0.47000000000E+01 0. -1.
          6    1    1    2  502    0  0.10267437619E+03 -0.19189660197E+03 -0.46481245949E+03  0.54129562706E+03  0.17200000000E+03 0. -1.
         -6    1    1    2    0  502 -0.10267437619E+03  0.19189660197E+03 -0.26338446810E+02  0.27864681436E+03  0.17200000000E+03 0.  1.
</event>
<event>
 4    1 -0.3291270E-004  0.2022850E+03  0.7818608E-02  0.1147825E+00
         -5   -1    0    0    0  501 -0.00000000000E+00  0.00000000000E+00  0.51029803041E+03  0.51031967417E+03  0.47000000000E+01 0.  1.
          5   -1    0    0  501    0  0.00000000000E+00 -0.00000000000E+00 -0.16579709681E+03  0.16586370100E+03  0.47000000000E+01 0. -1.
          6    1    1    2  502    0 -0.13037591610E+02 -0.10566572804E+03 -0.70735070555E+02  0.21429576544E+03  0.17200000000E+03 0. -1.
         -6    1    1    2    0  502  0.13037591610E+02  0.10566572804E+03  0.41523600416E+03  0.46188760974E+03  0.17200000000E+03 0.  1.
</event>
<event>
 4    1 -0.3291270E-004  0.1855103E+03  0.7818608E-02  0.1162574E+00
         -5   -1    0    0    0  501 -0.00000000000E+00  0.00000000000E+00  0.12858386399E+04  0.12858472296E+04  0.47000000000E+01 0.  1.
          5   -1    0    0  501    0  0.00000000000E+00 -0.00000000000E+00 -0.31616272016E+02  0.31963708423E+02  0.47000000000E+01 0. -1.
          6    1    1    2  502    0  0.65131215791E+02 -0.24248287239E+02  0.36492540712E+03  0.40937099002E+03  0.17200000000E+03 0. -1.
         -6    1    1    2    0  502 -0.65131215791E+02  0.24248287239E+02  0.88929696073E+03  0.90843994797E+03  0.17200000000E+03 0.  1.
</event>
<event>
 4    1 -0.3291270E-004  0.2070253E+03  0.7818608E-02  0.1143944E+00
          5   -1    0    0  501    0  0.00000000000E+00  0.00000000000E+00  0.18365269316E+03  0.18371282400E+03  0.47000000000E+01 0. -1.
         -5   -1    0    0    0  501 -0.00000000000E+00 -0.00000000000E+00 -0.30070140272E+03  0.30073813127E+03  0.47000000000E+01 0.  1.
          6    1    1    2  502    0  0.85779841051E+02  0.76923916107E+02 -0.17322676473E+03  0.26993884867E+03  0.17200000000E+03 0.  1.
         -6    1    1    2    0  502 -0.85779841051E+02 -0.76923916107E+02  0.56178055164E+02  0.21451210661E+03  0.17200000000E+03 0. -1.
</event>
<event>
 4    1 -0.3291270E-004  0.3089301E+03  0.7818608E-02  0.1080860E+00
         -5   -1    0    0    0  501 -0.00000000000E+00  0.00000000000E+00  0.43217295734E+03  0.43219851348E+03  0.47000000000E+01 0.  1.
          5   -1    0    0  501    0  0.00000000000E+00 -0.00000000000E+00 -0.31400497116E+03  0.31404014379E+03  0.47000000000E+01 0. -1.
          6    1    1    2  502    0  0.16041684546E+03 -0.20030041879E+03 -0.14420284540E+03  0.34092855952E+03  0.17200000000E+03 0. -1.
         -6    1    1    2    0  502 -0.16041684546E+03  0.20030041879E+03  0.26237083158E+03  0.40531009775E+03  0.17200000000E+03 0.  1.
</event>
<event>
 4    1 -0.3291270E-004  0.1885517E+03  0.7818608E-02  0.1159774E+00
         -5   -1    0    0    0  501 -0.00000000000E+00  0.00000000000E+00  0.56962107348E+03  0.56964046323E+03  0.47000000000E+01 0.  1.
          5   -1    0    0  501    0  0.00000000000E+00 -0.00000000000E+00 -0.90783598948E+02  0.90905180479E+02  0.47000000000E+01 0. -1.
          6    1    1    2  502    0 -0.57811409898E+02  0.51240504728E+02  0.54605620388E+02  0.19629957264E+03  0.17200000000E+03 0. -1.
         -6    1    1    2    0  502  0.57811409898E+02 -0.51240504728E+02  0.42423185415E+03  0.46424607108E+03  0.17200000000E+03 0.  1.
</event>
<event>
 4    1 -0.3291270E-004  0.2017634E+03  0.7818608E-02  0.1148260E+00
          5   -1    0    0  501    0  0.00000000000E+00  0.00000000000E+00  0.95989605301E+02  0.96104600960E+02  0.47000000000E+01 0. -1.
         -5   -1    0    0    0  501 -0.00000000000E+00 -0.00000000000E+00 -0.13552815993E+04  0.13552897489E+04  0.47000000000E+01 0.  1.
          6    1    1    2  502    0 -0.50207480159E+02  0.92756096430E+02 -0.28018818367E+02  0.20369962855E+03  0.17200000000E+03 0. -1.
         -6    1    1    2    0  502  0.50207480159E+02 -0.92756096430E+02 -0.12312731757E+04  0.12476947213E+04  0.17200000000E+03 0.  1.
</event>
<event>
 4    1 -0.3291270E-004  0.1980231E+03  0.7818608E-02  0.1151418E+00
         -5   -1    0    0    0  501 -0.00000000000E+00  0.00000000000E+00  0.19457217109E+03  0.19462892838E+03  0.47000000000E+01 0.  1.
          5   -1    0    0  501    0  0.00000000000E+00 -0.00000000000E+00 -0.23957826459E+03  0.23962436200E+03  0.47000000000E+01 0. -1.
          6    1    1    2  502    0  0.49282102894E+02  0.84855382944E+02 -0.10913471022E+03  0.22610516725E+03  0.17200000000E+03 0. -1.
         -6    1    1    2    0  502 -0.49282102894E+02 -0.84855382944E+02  0.64128616726E+02  0.20814812313E+03  0.17200000000E+03 0.  1.
</event>
<event>
 4    1 -0.3291270E-004  0.2502702E+03  0.7818608E-02  0.1113134E+00
          5   -1    0    0  501    0  0.00000000000E+00  0.00000000000E+00  0.10867010606E+04  0.10867112243E+04  0.47000000000E+01 0. -1.
         -5   -1    0    0    0  501 -0.00000000000E+00 -0.00000000000E+00 -0.62595231664E+02  0.62771434802E+02  0.47000000000E+01 0.  1.
          6    1    1    2  502    0  0.15734471042E+03 -0.91070323748E+02  0.67526758996E+03  0.72015378901E+03  0.17200000000E+03 0.  1.
         -6    1    1    2    0  502 -0.15734471042E+03  0.91070323748E+02  0.34883823897E+03  0.42932887014E+03  0.17200000000E+03 0.  1.
</event>
<event>
 4    1 -0.3291270E-004  0.2137705E+03  0.7818608E-02  0.1138614E+00
         -5   -1    0    0    0  501 -0.00000000000E+00  0.00000000000E+00  0.64557345197E+03  0.64559056056E+03  0.47000000000E+01 0.  1.
          5   -1    0    0  501    0  0.00000000000E+00 -0.00000000000E+00 -0.11797148153E+03  0.11806506873E+03  0.47000000000E+01 0. -1.
          6    1    1    2  502    0  0.10101623421E+03 -0.76873555201E+02  0.22220424809E+02  0.21492224255E+03  0.17200000000E+03 0. -1.
         -6    1    1    2    0  502 -0.10101623421E+03  0.76873555201E+02  0.50538154563E+03  0.54873338674E+03  0.17200000000E+03 0.  1.
</event>
<event>
 4    1 -0.3291270E-004  0.2965282E+03  0.7818608E-02  0.1086989E+00
         -5   -1    0    0    0  501 -0.00000000000E+00  0.00000000000E+00  0.13622660858E+04  0.13622741936E+04  0.47000000000E+01 0.  1.
          5   -1    0    0  501    0  0.00000000000E+00 -0.00000000000E+00 -0.64841802392E+02  0.65011916888E+02  0.47000000000E+01 0. -1.
          6    1    1    2  502    0 -0.82288491112E+02  0.22709814370E+03  0.59347260407E+03  0.66342949469E+03  0.17200000000E+03 0. -1.
         -6    1    1    2    0  502  0.82288491112E+02 -0.22709814370E+03  0.70395167935E+03  0.76385661580E+03  0.17200000000E+03 0.  1.
</event>
<event>
 4    1 -0.3291270E-004  0.1967090E+03  0.7818608E-02  0.1152546E+00
          5   -1    0    0  501    0  0.00000000000E+00  0.00000000000E+00  0.48656991867E+03  0.48659261786E+03  0.47000000000E+01 0. -1.
         -5   -1    0    0    0  501 -0.00000000000E+00 -0.00000000000E+00 -0.87951393260E+02  0.88076884461E+02  0.47000000000E+01 0.  1.
          6    1    1    2  502    0  0.95417228028E+02  0.24436910768E+01  0.10995448478E+03  0.22535396103E+03  0.17200000000E+03 0.  1.
         -6    1    1    2    0  502 -0.95417228028E+02 -0.24436910768E+01  0.28866404063E+03  0.34931554129E+03  0.17200000000E+03 0. -1.
</event>
<event>
 4    1 -0.3291270E-004  0.2975268E+03  0.7818608E-02  0.1086484E+00
          5   -1    0    0  501    0  0.00000000000E+00  0.00000000000E+00  0.13451338640E+03  0.13459547214E+03  0.47000000000E+01 0. -1.
         -5   -1    0    0    0  501 -0.00000000000E+00 -0.00000000000E+00 -0.65780107309E+03  0.65781786367E+03  0.47000000000E+01 0.  1.
          6    1    1    2  502    0 -0.14603739212E+03 -0.19393619574E+03 -0.26133149424E+03  0.39600040126E+03  0.17200000000E+03 0. -1.
         -6    1    1    2    0  502  0.14603739212E+03  0.19393619574E+03 -0.26195619246E+03  0.39641293455E+03  0.17200000000E+03 0.  1.
</event>
<event>
 4    1 -0.3291270E-004  0.1771338E+03  0.7818608E-02  0.1170606E+00
          5   -1    0    0  501    0  0.00000000000E+00  0.00000000000E+00  0.16641768422E+04  0.16641834791E+04  0.47000000000E+01 0. -1.
         -5   -1    0    0    0  501 -0.00000000000E+00 -0.00000000000E+00 -0.99880017385E+02  0.99990538917E+02  0.47000000000E+01 0.  1.
          6    1    1    2  502    0 -0.32061057732E+02 -0.27648998052E+02  0.15766884361E+04  0.15866073248E+04  0.17200000000E+03 0. -1.
         -6    1    1    2    0  502  0.32061057732E+02  0.27648998052E+02 -0.12391611287E+02  0.17756669324E+03  0.17200000000E+03 0.  1.
</event>
<event>
 4    1 -0.3291270E-004  0.1729446E+03  0.7818608E-02  0.1174811E+00
          5   -1    0    0  501    0  0.00000000000E+00  0.00000000000E+00  0.76347774049E+03  0.76349220705E+03  0.47000000000E+01 0. -1.
         -5   -1    0    0    0  501 -0.00000000000E+00 -0.00000000000E+00 -0.42915822386E+02  0.43172419565E+02  0.47000000000E+01 0.  1.
          6    1    1    2  502    0  0.81625340598E+01 -0.16099832599E+02  0.48140412140E+03  0.51152689047E+03  0.17200000000E+03 0. -1.
         -6    1    1    2    0  502 -0.81625340598E+01  0.16099832599E+02  0.23915779671E+03  0.29513773615E+03  0.17200000000E+03 0.  1.
</event>
<event>
 4    1 -0.3291270E-004  0.2701404E+03  0.7818608E-02  0.1101199E+00
         -5   -1    0    0    0  501 -0.00000000000E+00  0.00000000000E+00  0.14092720333E+04  0.14092798706E+04  0.47000000000E+01 0.  1.
          5   -1    0    0  501    0  0.00000000000E+00 -0.00000000000E+00 -0.69905353639E+02  0.70063174831E+02  0.47000000000E+01 0. -1.
          6    1    1    2  502    0  0.15726403714E+03 -0.13660113889E+03  0.29240274705E+03  0.39808945603E+03  0.17200000000E+03 0. -1.
         -6    1    1    2    0  502 -0.15726403714E+03  0.13660113889E+03  0.10469639326E+04  0.10812535894E+04  0.17200000000E+03 0.  1.
</event>
<event>
 4    1 -0.3291270E-004  0.1729541E+03  0.7818608E-02  0.1174802E+00
          5   -1    0    0  501    0  0.00000000000E+00  0.00000000000E+00  0.13736917078E+04  0.13736997482E+04  0.47000000000E+01 0. -1.
         -5   -1    0    0    0  501 -0.00000000000E+00 -0.00000000000E+00 -0.27156764577E+02  0.27560476453E+02  0.47000000000E+01 0.  1.
          6    1    1    2  502    0  0.41124336648E+01 -0.17669761712E+02  0.98994894013E+03  0.10049437978E+04  0.17200000000E+03 0. -1.
         -6    1    1    2    0  502 -0.41124336648E+01  0.17669761712E+02  0.35658600311E+03  0.39631642687E+03  0.17200000000E+03 0.  1.
</event>
<event>
 4    1 -0.3291270E-004  0.2298954E+03  0.7818608E-02  0.1126713E+00
          5   -1    0    0  501    0  0.00000000000E+00  0.00000000000E+00  0.25553349788E+03  0.25557671752E+03  0.47000000000E+01 0. -1.
         -5   -1    0    0    0  501 -0.00000000000E+00 -0.00000000000E+00 -0.22483793500E+03  0.22488705390E+03  0.47000000000E+01 0.  1.
          6    1    1    2  502    0 -0.80339321154E+02 -0.12966676538E+03  0.83486451077E+02  0.24458508556E+03  0.17200000000E+03 0. -1.
         -6    1    1    2    0  502  0.80339321154E+02  0.12966676538E+03 -0.52790888196E+02  0.23587868586E+03  0.17200000000E+03 0.  1.
</event>
<event>
 4    1 -0.3291270E-004  0.2902669E+03  0.7818608E-02  0.1090210E+00
         -5   -1    0    0    0  501 -0.00000000000E+00  0.00000000000E+00  0.17576191184E+04  0.17576254025E+04  0.47000000000E+01 0.  1.
          5   -1    0    0  501    0  0.00000000000E+00 -0.00000000000E+00 -0.49255055777E+02  0.49478788583E+02  0.47000000000E+01 0. -1.
          6    1    1    2  502    0  0.18338934938E+03 -0.14504900579E+03  0.70006903815E+03  0.75785983251E+03  0.17200000000E+03 0. -1.
         -6    1    1    2    0  502 -0.18338934938E+03  0.14504900579E+03  0.10082950245E+04  0.10492443586E+04  0.17200000000E+03 0.  1.
</event>
<event>
 4    1 -0.3291270E-004  0.3043465E+03  0.7818608E-02  0.1083088E+00
         -5   -1    0    0    0  501 -0.00000000000E+00  0.00000000000E+00  0.75548097478E+03  0.75549559447E+03  0.47000000000E+01 0.  1.
          5   -1    0    0  501    0  0.00000000000E+00 -0.00000000000E+00 -0.12665602657E+03  0.12674320126E+03  0.47000000000E+01 0. -1.
          6    1    1    2  502    0  0.12438088127E+03  0.21811050438E+03  0.23497725870E+03  0.38450111554E+03  0.17200000000E+03 0. -1.
         -6    1    1    2    0  502 -0.12438088127E+03 -0.21811050438E+03  0.39384768952E+03  0.49773768019E+03  0.17200000000E+03 0.  1.
</event>
<event>
 4    1 -0.3291270E-004  0.2014830E+03  0.7818608E-02  0.1148494E+00
          5   -1    0    0  501    0  0.00000000000E+00  0.00000000000E+00  0.26969961128E+03  0.26974056114E+03  0.47000000000E+01 0. -1.
         -5   -1    0    0    0  501 -0.00000000000E+00 -0.00000000000E+00 -0.16943671095E+03  0.16950188499E+03  0.47000000000E+01 0.  1.
          6    1    1    2  502    0  0.91752343721E+02  0.50920538685E+02  0.12366126224E+03  0.23640537561E+03  0.17200000000E+03 0. -1.
         -6    1    1    2    0  502 -0.91752343721E+02 -0.50920538685E+02 -0.23398361909E+02  0.20283707052E+03  0.17200000000E+03 0.  1.
</event>
<event>
 4    1 -0.3291270E-004  0.1928589E+03  0.7818608E-02  0.1155908E+00
          5   -1    0    0  501    0  0.00000000000E+00  0.00000000000E+00  0.12647633641E+03  0.12656363487E+03  0.47000000000E+01 0. -1.
         -5   -1    0    0    0  501 -0.00000000000E+00 -0.00000000000E+00 -0.29498167929E+03  0.29501911991E+03  0.47000000000E+01 0.  1.
          6    1    1    2  502    0  0.46252591104E+02  0.73968005782E+02 -0.71348089541E+02  0.20563345531E+03  0.17200000000E+03 0. -1.
         -6    1    1    2    0  502 -0.46252591104E+02 -0.73968005782E+02 -0.97157253342E+02  0.21594929947E+03  0.17200000000E+03 0.  1.
</event>
<event>
 4    1 -0.3291270E-004  0.2482505E+03  0.7818608E-02  0.1114416E+00
         -5   -1    0    0    0  501 -0.00000000000E+00  0.00000000000E+00  0.48770281620E+03  0.48772546266E+03  0.47000000000E+01 0.  1.
          5   -1    0    0  501    0  0.00000000000E+00 -0.00000000000E+00 -0.14181748217E+03  0.14189534259E+03  0.47000000000E+01 0. -1.
          6    1    1    2  502    0 -0.12732999155E+02  0.17855576418E+03  0.68830463540E+02  0.25761584365E+03  0.17200000000E+03 0.  1.
         -6    1    1    2    0  502  0.12732999155E+02 -0.17855576418E+03  0.27705487049E+03  0.37200496159E+03  0.17200000000E+03 0.  1.
</event>
<event>
 4    1 -0.3291270E-004  0.1864461E+03  0.7818608E-02  0.1161706E+00
         -5   -1    0    0    0  501 -0.00000000000E+00  0.00000000000E+00  0.10111884872E+03  0.10122801770E+03  0.47000000000E+01 0.  1.
          5   -1    0    0  501    0  0.00000000000E+00 -0.00000000000E+00 -0.45323544026E+03  0.45325980883E+03  0.47000000000E+01 0. -1.
          6    1    1    2  502    0  0.68319183108E+02 -0.22597407592E+02 -0.31247827197E+03  0.36387473677E+03  0.17200000000E+03 0. -1.
         -6    1    1    2    0  502 -0.68319183108E+02  0.22597407592E+02 -0.39638319567E+02  0.19061308976E+03  0.17200000000E+03 0.  1.
</event>
<event>
 4    1 -0.3291270E-004  0.2603943E+03  0.7818608E-02  0.1106907E+00
          5   -1    0    0  501    0  0.00000000000E+00  0.00000000000E+00  0.11261404967E+03  0.11271208534E+03  0.47000000000E+01 0. -1.
         -5   -1    0    0    0  501 -0.00000000000E+00 -0.00000000000E+00 -0.15183792311E+04  0.15183865053E+04  0.47000000000E+01 0.  1.
          6    1    1    2  502    0 -0.16478340175E+03  0.10520275033E+03 -0.69238971265E+02  0.26944243042E+03  0.17200000000E+03 0. -1.
         -6    1    1    2    0  502  0.16478340175E+03 -0.10520275033E+03 -0.13365262102E+04  0.13616561602E+04  0.17200000000E+03 0.  1.
</event>
<event>
 4    1 -0.3291270E-004  0.1800829E+03  0.7818608E-02  0.1167723E+00
         -5   -1    0    0    0  501 -0.00000000000E+00  0.00000000000E+00  0.77375691782E+02  0.77518305443E+02  0.47000000000E+01 0.  1.
          5   -1    0    0  501    0  0.00000000000E+00 -0.00000000000E+00 -0.49633833095E+03  0.49636058342E+03  0.47000000000E+01 0. -1.
          6    1    1    2  502    0  0.96509371326E+01 -0.52466350437E+02 -0.32303490086E+03  0.36983970269E+03  0.17200000000E+03 0. -1.
         -6    1    1    2    0  502 -0.96509371326E+01  0.52466350437E+02 -0.95927738315E+02  0.20403918617E+03  0.17200000000E+03 0.  1.
</event>
<event>
 4    1 -0.3291270E-004  0.1950478E+03  0.7818608E-02  0.1153986E+00
         -5   -1    0    0    0  501 -0.00000000000E+00  0.00000000000E+00  0.28399867634E+03  0.28403756470E+03  0.47000000000E+01 0.  1.
          5   -1    0    0  501    0  0.00000000000E+00 -0.00000000000E+00 -0.13394404767E+03  0.13402648211E+03  0.47000000000E+01 0. -1.
          6    1    1    2  502    0 -0.84567447041E+02 -0.36165930576E+02  0.70040877594E+02  0.20724225478E+03  0.17200000000E+03 0. -1.
         -6    1    1    2    0  502  0.84567447041E+02  0.36165930576E+02  0.80013751069E+02  0.21082179203E+03  0.17200000000E+03 0.  1.
</event>
<event>
 4    1 -0.3291270E-004  0.2188908E+03  0.7818608E-02  0.1134713E+00
          5   -1    0    0  501    0  0.00000000000E+00  0.00000000000E+00  0.11372367053E+03  0.11382075047E+03  0.47000000000E+01 0. -1.
         -5   -1    0    0    0  501 -0.00000000000E+00 -0.00000000000E+00 -0.42657222947E+03  0.42659812113E+03  0.47000000000E+01 0.  1.
          6    1    1    2  502    0 -0.64747123477E+02  0.11889916534E+03 -0.12560827136E+03  0.25237004448E+03  0.17200000000E+03 0. -1.
         -6    1    1    2    0  502  0.64747123477E+02 -0.11889916534E+03 -0.18724028758E+03  0.28804882713E+03  0.17200000000E+03 0.  1.
</event>
<event>
 4    1 -0.3291270E-004  0.2635180E+03  0.7818608E-02  0.1105048E+00
         -5   -1    0    0    0  501 -0.00000000000E+00  0.00000000000E+00  0.84715041220E+03  0.84716344993E+03  0.47000000000E+01 0.  1.
          5   -1    0    0  501    0  0.00000000000E+00 -0.00000000000E+00 -0.83481068372E+02  0.83613269142E+02  0.47000000000E+01 0. -1.
          6    1    1    2  502    0  0.16002905105E+02  0.19900155133E+03  0.44602967151E+03  0.51805808388E+03  0.17200000000E+03 0.  1.
         -6    1    1    2    0  502 -0.16002905105E+02 -0.19900155133E+03  0.31763967232E+03  0.41271863520E+03  0.17200000000E+03 0.  1.
</event>
<event>
 4    1 -0.3291270E-004  0.2143762E+03  0.7818608E-02  0.1138147E+00
          5   -1    0    0  501    0  0.00000000000E+00  0.00000000000E+00  0.44104685017E+02  0.44354404972E+02  0.47000000000E+01 0. -1.
         -5   -1    0    0    0  501 -0.00000000000E+00 -0.00000000000E+00 -0.10562258905E+04  0.10562363475E+04  0.47000000000E+01 0.  1.
          6    1    1    2  502    0  0.11596896007E+03  0.54077332960E+02 -0.57672455114E+03  0.61527909564E+03  0.17200000000E+03 0. -1.
         -6    1    1    2    0  502 -0.11596896007E+03 -0.54077332960E+02 -0.43539665435E+03  0.48531165683E+03  0.17200000000E+03 0. -1.
</event>
<event>
 4    1 -0.3291270E-004  0.2533611E+03  0.7818608E-02  0.1111199E+00
         -5   -1    0    0    0  501 -0.00000000000E+00  0.00000000000E+00  0.56331402328E+03  0.56333363012E+03  0.47000000000E+01 0.  1.
          5   -1    0    0  501    0  0.00000000000E+00 -0.00000000000E+00 -0.11985375128E+03  0.11994586985E+03  0.47000000000E+01 0. -1.
          6    1    1    2  502    0  0.18199819439E+03 -0.38529304804E+02  0.14551897189E+03  0.29217737980E+03  0.17200000000E+03 0. -1.
         -6    1    1    2    0  502 -0.18199819439E+03  0.38529304804E+02  0.29794130012E+03  0.39110212017E+03  0.17200000000E+03 0.  1.
</event>
<event>
 4    1 -0.3291270E-004  0.2831781E+03  0.7818608E-02  0.1093966E+00
         -5   -1    0    0    0  501 -0.00000000000E+00  0.00000000000E+00  0.94646998388E+03  0.94648165349E+03  0.47000000000E+01 0.  1.
          5   -1    0    0  501    0  0.00000000000E+00 -0.00000000000E+00 -0.87507545193E+02  0.87633671985E+02  0.47000000000E+01 0. -1.
          6    1    1    2  502    0 -0.21153161430E+03 -0.76551956850E+02  0.33608392968E+03  0.43947950320E+03  0.17200000000E+03 0. -1.
         -6    1    1    2    0  502  0.21153161430E+03  0.76551956850E+02  0.52287850901E+03  0.59463582227E+03  0.17200000000E+03 0.  1.
</event>
<event>
 4    1 -0.3291270E-004  0.1794136E+03  0.7818608E-02  0.1168372E+00
         -5   -1    0    0    0  501 -0.00000000000E+00  0.00000000000E+00  0.81178839847E+02  0.81314783643E+02  0.47000000000E+01 0.  1.
          5   -1    0    0  501    0  0.00000000000E+00 -0.00000000000E+00 -0.45721967000E+03  0.45724382624E+03  0.47000000000E+01 0. -1.
          6    1    1    2  502    0 -0.44975146275E+02 -0.24134733145E+02 -0.28650393086E+03  0.33804400826E+03  0.17200000000E+03 0. -1.
         -6    1    1    2    0  502  0.44975146275E+02  0.24134733145E+02 -0.89536899293E+02  0.20051460162E+03  0.17200000000E+03 0.  1.
</event>
<event>
 4    1 -0.3291270E-004  0.2025719E+03  0.7818608E-02  0.1147587E+00
          5   -1    0    0  501    0  0.00000000000E+00  0.00000000000E+00  0.10244326163E+03  0.10255102074E+03  0.47000000000E+01 0. -1.
         -5   -1    0    0    0  501 -0.00000000000E+00 -0.00000000000E+00 -0.40264423103E+03  0.40267166126E+03  0.47000000000E+01 0.  1.
          6    1    1    2  502    0  0.50878671075E+02 -0.94142115800E+02 -0.13056242853E+03  0.24100191883E+03  0.17200000000E+03 0. -1.
         -6    1    1    2    0  502 -0.50878671075E+02  0.94142115800E+02 -0.16963854087E+03  0.26422076316E+03  0.17200000000E+03 0.  1.
</event>
<event>
 4    1 -0.3291270E-004  0.4208560E+03  0.7818608E-02  0.1036788E+00
          5   -1    0    0  501    0  0.00000000000E+00  0.00000000000E+00  0.18075637167E+04  0.18075698272E+04  0.47000000000E+01 0. -1.
         -5   -1    0    0    0  501 -0.00000000000E+00 -0.00000000000E+00 -0.11109366354E+03  0.11119303971E+03  0.47000000000E+01 0.  1.
          6    1    1    2  502    0 -0.20831352083E+03  0.32270917930E+03  0.11783694037E+04  0.12512690314E+04  0.17200000000E+03 0.  1.
         -6    1    1    2    0  502  0.20831352083E+03 -0.32270917930E+03  0.51810064945E+03  0.66749383542E+03  0.17200000000E+03 0.  1.
</event>
<event>
 4    1 -0.3291270E-004  0.2896334E+03  0.7818608E-02  0.1090541E+00
         -5   -1    0    0    0  501 -0.00000000000E+00  0.00000000000E+00  0.16225870507E+04  0.16225938577E+04  0.47000000000E+01 0.  1.
          5   -1    0    0  501    0  0.00000000000E+00 -0.00000000000E+00 -0.15097292987E+03  0.15104607096E+03  0.47000000000E+01 0. -1.
          6    1    1    2  502    0 -0.21412400657E+03  0.91947866433E+02  0.16632371071E+02  0.29011055841E+03  0.17200000000E+03 0. -1.
         -6    1    1    2    0  502  0.21412400657E+03 -0.91947866433E+02  0.14549817498E+04  0.14835293703E+04  0.17200000000E+03 0.  1.
</event>
<event>
 4    1 -0.3291270E-004  0.2592491E+03  0.7818608E-02  0.1107595E+00
         -5   -1    0    0    0  501 -0.00000000000E+00  0.00000000000E+00  0.54784756106E+03  0.54786772141E+03  0.47000000000E+01 0.  1.
          5   -1    0    0  501    0  0.00000000000E+00 -0.00000000000E+00 -0.19445731794E+03  0.19451410874E+03  0.47000000000E+01 0. -1.
          6    1    1    2  502    0 -0.55705495513E+02 -0.18580357917E+03 -0.48872897281E+02  0.26381552712E+03  0.17200000000E+03 0. -1.
         -6    1    1    2    0  502  0.55705495513E+02  0.18580357917E+03  0.40226314040E+03  0.47856630302E+03  0.17200000000E+03 0.  1.
</event>
<event>
 4    1 -0.3291270E-004  0.4027418E+03  0.7818608E-02  0.1042834E+00
         -5   -1    0    0    0  501 -0.00000000000E+00  0.00000000000E+00  0.15836085317E+04  0.15836155063E+04  0.47000000000E+01 0.  1.
          5   -1    0    0  501    0  0.00000000000E+00 -0.00000000000E+00 -0.14813638118E+03  0.14821092210E+03  0.47000000000E+01 0. -1.
          6    1    1    2  502    0 -0.18369424888E+03 -0.31444142127E+03  0.23656187355E+03  0.46707869198E+03  0.17200000000E+03 0. -1.
         -6    1    1    2    0  502  0.18369424888E+03  0.31444142127E+03  0.11989102770E+04  0.12647477364E+04  0.17200000000E+03 0.  1.
</event>
<event>
 4    1 -0.3291270E-004  0.1866421E+03  0.7818608E-02  0.1161525E+00
         -5   -1    0    0    0  501 -0.00000000000E+00  0.00000000000E+00  0.53339598167E+02  0.53546267215E+02  0.47000000000E+01 0.  1.
          5   -1    0    0  501    0  0.00000000000E+00 -0.00000000000E+00 -0.66515586369E+03  0.66517246861E+03  0.47000000000E+01 0. -1.
          6    1    1    2  502    0  0.25141608272E+02 -0.67964524852E+02 -0.25462801988E+03  0.31570667654E+03  0.17200000000E+03 0.  1.
         -6    1    1    2    0  502 -0.25141608272E+02  0.67964524852E+02 -0.35718824564E+03  0.40301205928E+03  0.17200000000E+03 0. -1.
</event>
<event>
 4    1 -0.3291270E-004  0.2672375E+03  0.7818608E-02  0.1102871E+00
          5   -1    0    0  501    0  0.00000000000E+00  0.00000000000E+00  0.15574696145E+03  0.15581786163E+03  0.47000000000E+01 0. -1.
         -5   -1    0    0    0  501 -0.00000000000E+00 -0.00000000000E+00 -0.15484739693E+04  0.15484811022E+04  0.47000000000E+01 0.  1.
          6    1    1    2  502    0  0.11195755660E+03 -0.17116474472E+03  0.18609341308E+02  0.26788462423E+03  0.17200000000E+03 0. -1.
         -6    1    1    2    0  502 -0.11195755660E+03  0.17116474472E+03 -0.14113363492E+04  0.14364143396E+04  0.17200000000E+03 0.  1.
</event>
<event>
 4    1 -0.3291270E-004  0.1756650E+03  0.7818608E-02  0.1172066E+00
          5   -1    0    0  501    0  0.00000000000E+00  0.00000000000E+00  0.21277762848E+03  0.21282953080E+03  0.47000000000E+01 0. -1.
         -5   -1    0    0    0  501 -0.00000000000E+00 -0.00000000000E+00 -0.14936934239E+03  0.14944326832E+03  0.47000000000E+01 0.  1.
          6    1    1    2  502    0 -0.22930658492E+02  0.27356693391E+02  0.62960636759E+02  0.18660719588E+03  0.17200000000E+03 0. -1.
         -6    1    1    2    0  502  0.22930658492E+02 -0.27356693391E+02  0.44764932547E+00  0.17566560324E+03  0.17200000000E+03 0.  1.
</event>
<event>
 4    1 -0.3291270E-004  0.4582846E+03  0.7818608E-02  0.1025280E+00
         -5   -1    0    0    0  501 -0.00000000000E+00  0.00000000000E+00  0.98249401347E+02  0.98361755094E+02  0.47000000000E+01 0.  1.
          5   -1    0    0  501    0  0.00000000000E+00 -0.00000000000E+00 -0.23827645558E+04  0.23827691911E+04  0.47000000000E+01 0. -1.
          6    1    1    2  502    0 -0.94265516252E+02 -0.41419175457E+03 -0.15412054709E+04  0.16078989709E+04  0.17200000000E+03 0. -1.
         -6    1    1    2    0  502  0.94265516252E+02  0.41419175457E+03 -0.74330968350E+03  0.87323197530E+03  0.17200000000E+03 0.  1.
</event>
<event>
 4    1 -0.3291270E-004  0.2221913E+03  0.7818608E-02  0.1132260E+00
          5   -1    0    0  501    0  0.00000000000E+00  0.00000000000E+00  0.21882550880E+03  0.21887597699E+03  0.47000000000E+01 0. -1.
         -5   -1    0    0    0  501 -0.00000000000E+00 -0.00000000000E+00 -0.22825769409E+03  0.22830607726E+03  0.47000000000E+01 0.  1.
          6    1    1    2  502    0  0.10271249683E+03 -0.96099495656E+02  0.19819669772E+02  0.22307350667E+03  0.17200000000E+03 0. -1.
         -6    1    1    2    0  502 -0.10271249683E+03  0.96099495656E+02 -0.29251855063E+02  0.22410854757E+03  0.17200000000E+03 0.  1.
</event>
<event>
 4    1 -0.3291270E-004  0.3207568E+03  0.7818608E-02  0.1075302E+00
          5   -1    0    0  501    0  0.00000000000E+00  0.00000000000E+00  0.83260051474E+03  0.83261378030E+03  0.47000000000E+01 0. -1.
         -5   -1    0    0    0  501 -0.00000000000E+00 -0.00000000000E+00 -0.17316025695E+03  0.17322403005E+03  0.47000000000E+01 0.  1.
          6    1    1    2  502    0 -0.21181440157E+03  0.16862859178E+03  0.59894472518E+03  0.67942602725E+03  0.17200000000E+03 0. -1.
         -6    1    1    2    0  502  0.21181440157E+03 -0.16862859178E+03  0.60495532610E+02  0.32641178310E+03  0.17200000000E+03 0.  1.
</event>
<event>
 4    1 -0.3291270E-004  0.2136030E+03  0.7818608E-02  0.1138744E+00
          5   -1    0    0  501    0  0.00000000000E+00  0.00000000000E+00  0.21245251709E+03  0.21250449882E+03  0.47000000000E+01 0. -1.
         -5   -1    0    0    0  501 -0.00000000000E+00 -0.00000000000E+00 -0.47841239323E+03  0.47843547945E+03  0.47000000000E+01 0.  1.
          6    1    1    2  502    0 -0.87666613331E+02 -0.91415460307E+02  0.12351004050E+03  0.24674065652E+03  0.17200000000E+03 0. -1.
         -6    1    1    2    0  502  0.87666613331E+02  0.91415460307E+02 -0.38946991664E+03  0.44419932175E+03  0.17200000000E+03 0.  1.
</event>
<event>
 4    1 -0.3291270E-004  0.1846371E+03  0.7818608E-02  0.1163389E+00
          5   -1    0    0  501    0  0.00000000000E+00  0.00000000000E+00  0.20964930725E+03  0.20970198385E+03  0.47000000000E+01 0. -1.
         -5   -1    0    0    0  501 -0.00000000000E+00 -0.00000000000E+00 -0.17763793177E+03  0.17770009793E+03  0.47000000000E+01 0.  1.
          6    1    1    2  502    0  0.42792923653E+02  0.51726431980E+02 -0.40517468886E+02  0.18903048263E+03  0.17200000000E+03 0.  1.
         -6    1    1    2    0  502 -0.42792923653E+02 -0.51726431980E+02  0.72528844364E+02  0.19837159914E+03  0.17200000000E+03 0. -1.
</event>
<event>
 4    1 -0.3291270E-004  0.2293191E+03  0.7818608E-02  0.1127120E+00
         -5   -1    0    0    0  501 -0.00000000000E+00  0.00000000000E+00  0.22688422661E+03  0.22693290260E+03  0.47000000000E+01 0.  1.
          5   -1    0    0  501    0  0.00000000000E+00 -0.00000000000E+00 -0.31730512793E+03  0.31733993478E+03  0.47000000000E+01 0. -1.
          6    1    1    2  502    0  0.82616698908E+02 -0.12719164417E+03 -0.18655545536E+03  0.29561828632E+03  0.17200000000E+03 0. -1.
         -6    1    1    2    0  502 -0.82616698908E+02  0.12719164417E+03  0.96134554039E+02  0.24865455106E+03  0.17200000000E+03 0.  1.
</event>
<event>
 4    1 -0.3291270E-004  0.2014088E+03  0.7818608E-02  0.1148556E+00
          5   -1    0    0  501    0  0.00000000000E+00  0.00000000000E+00  0.13941807604E+03  0.13949727570E+03  0.47000000000E+01 0. -1.
         -5   -1    0    0    0  501 -0.00000000000E+00 -0.00000000000E+00 -0.32348203880E+03  0.32351618109E+03  0.47000000000E+01 0.  1.
          6    1    1    2  502    0 -0.10479098259E+03  0.59825289750E+00 -0.18439443802E+02  0.20225113356E+03  0.17200000000E+03 0. -1.
         -6    1    1    2    0  502  0.10479098259E+03 -0.59825289750E+00 -0.16562451896E+03  0.26076232323E+03  0.17200000000E+03 0.  1.
</event>
<event>
 4    1 -0.3291270E-004  0.2284966E+03  0.7818608E-02  0.1127702E+00
          5   -1    0    0  501    0  0.00000000000E+00  0.00000000000E+00  0.16248981495E+03  0.16255777423E+03  0.47000000000E+01 0. -1.
         -5   -1    0    0    0  501 -0.00000000000E+00 -0.00000000000E+00 -0.32186513239E+03  0.32189944617E+03  0.47000000000E+01 0.  1.
          6    1    1    2  502    0 -0.33123288132E+02  0.14672953866E+03 -0.68387843055E+02  0.23851122994E+03  0.17200000000E+03 0.  1.
         -6    1    1    2    0  502  0.33123288132E+02 -0.14672953866E+03 -0.90987474377E+02  0.24594599046E+03  0.17200000000E+03 0.  1.
</event>
<event>
 4    1 -0.3291270E-004  0.2364542E+03  0.7818608E-02  0.1122178E+00
          5   -1    0    0  501    0  0.00000000000E+00  0.00000000000E+00  0.14668613853E+03  0.14676141604E+03  0.47000000000E+01 0. -1.
         -5   -1    0    0    0  501 -0.00000000000E+00 -0.00000000000E+00 -0.41016316504E+03  0.41019009246E+03  0.47000000000E+01 0.  1.
          6    1    1    2  502    0  0.98451288266E+02 -0.12897258665E+03 -0.57455034000E+02  0.24333447187E+03  0.17200000000E+03 0. -1.
         -6    1    1    2    0  502 -0.98451288266E+02  0.12897258665E+03 -0.20602199251E+03  0.31361703663E+03  0.17200000000E+03 0.  1.
</event>
<event>
 4    1 -0.3291270E-004  0.1871183E+03  0.7818608E-02  0.1161086E+00
          5   -1    0    0  501    0  0.00000000000E+00  0.00000000000E+00  0.42674577989E+03  0.42677166102E+03  0.47000000000E+01 0. -1.
         -5   -1    0    0    0  501 -0.00000000000E+00 -0.00000000000E+00 -0.15446079655E+03  0.15453228682E+03  0.47000000000E+01 0.  1.
          6    1    1    2  502    0  0.73681824217E+02 -0.50191582112E+00  0.33520065417E+03  0.38389157545E+03  0.17200000000E+03 0. -1.
         -6    1    1    2    0  502 -0.73681824217E+02  0.50191582112E+00 -0.62915670833E+02  0.19741237240E+03  0.17200000000E+03 0.  1.
</event>
<event>
 4    1 -0.3291270E-004  0.1900494E+03  0.7818608E-02  0.1158417E+00
          5   -1    0    0  501    0  0.00000000000E+00  0.00000000000E+00  0.32300896793E+03  0.32304316022E+03  0.47000000000E+01 0. -1.
         -5   -1    0    0    0  501 -0.00000000000E+00 -0.00000000000E+00 -0.11207473443E+03  0.11217324145E+03  0.47000000000E+01 0.  1.
          6    1    1    2  502    0 -0.30605609443E+02  0.74820143985E+02  0.11752604534E+03  0.22345274357E+03  0.17200000000E+03 0. -1.
         -6    1    1    2    0  502  0.30605609443E+02 -0.74820143985E+02  0.93408188157E+02  0.21176365810E+03  0.17200000000E+03 0.  1.
</event>
<event>
 4    1 -0.3291270E-004  0.2031469E+03  0.7818608E-02  0.1147111E+00
         -5   -1    0    0    0  501 -0.00000000000E+00  0.00000000000E+00  0.28771372056E+02  0.29152733148E+02  0.47000000000E+01 0.  1.
          5   -1    0    0  501    0  0.00000000000E+00 -0.00000000000E+00 -0.14936924902E+04  0.14936998846E+04  0.47000000000E+01 0. -1.
          6    1    1    2  502    0 -0.81131575859E+02 -0.71430673493E+02 -0.56864541384E+03  0.60384292693E+03  0.17200000000E+03 0. -1.
         -6    1    1    2    0  502  0.81131575859E+02  0.71430673493E+02 -0.89627570431E+03  0.91900969083E+03  0.17200000000E+03 0. -1.
</event>
<event>
 4    1 -0.3291270E-004  0.2308651E+03  0.7818608E-02  0.1126032E+00
          5   -1    0    0  501    0  0.00000000000E+00  0.00000000000E+00  0.23477890107E+03  0.23482594062E+03  0.47000000000E+01 0. -1.
         -5   -1    0    0    0  501 -0.00000000000E+00 -0.00000000000E+00 -0.23181542913E+03  0.23186306990E+03  0.47000000000E+01 0.  1.
          6    1    1    2  502    0  0.15366042833E+03  0.10156194481E+02 -0.32412708944E+02  0.23312927577E+03  0.17200000000E+03 0. -1.
         -6    1    1    2    0  502 -0.15366042833E+03 -0.10156194481E+02  0.35376180883E+02  0.23355973475E+03  0.17200000000E+03 0. -1.
</event>
<event>
 4    1 -0.3291270E-004  0.1925924E+03  0.7818608E-02  0.1156144E+00
         -5   -1    0    0    0  501 -0.00000000000E+00  0.00000000000E+00  0.87273127414E+02  0.87399592497E+02  0.47000000000E+01 0.  1.
          5   -1    0    0  501    0  0.00000000000E+00 -0.00000000000E+00 -0.42726872457E+03  0.42729457403E+03  0.47000000000E+01 0. -1.
          6    1    1    2  502    0  0.78263363634E+02  0.37184204216E+02 -0.19047971276E+03  0.27087698334E+03  0.17200000000E+03 0. -1.
         -6    1    1    2    0  502 -0.78263363634E+02 -0.37184204216E+02 -0.14951588440E+03  0.24381718319E+03  0.17200000000E+03 0.  1.
</event>
<event>
 4    1 -0.3291270E-004  0.1863990E+03  0.7818608E-02  0.1161750E+00
          5   -1    0    0  501    0  0.00000000000E+00  0.00000000000E+00  0.93443505589E+02  0.93561630687E+02  0.47000000000E+01 0. -1.
         -5   -1    0    0    0  501 -0.00000000000E+00 -0.00000000000E+00 -0.46517515673E+03  0.46519889987E+03  0.47000000000E+01 0.  1.
          6    1    1    2  502    0  0.43379818263E+02  0.57260637404E+02 -0.60484613675E+02  0.19596677708E+03  0.17200000000E+03 0. -1.
         -6    1    1    2    0  502 -0.43379818263E+02 -0.57260637404E+02 -0.31124703747E+03  0.36279375348E+03  0.17200000000E+03 0.  1.
</event>
<event>
 4    1 -0.3291270E-004  0.1929657E+03  0.7818608E-02  0.1155813E+00
          5   -1    0    0  501    0  0.00000000000E+00  0.00000000000E+00  0.99118960105E+02  0.99230329296E+02  0.47000000000E+01 0. -1.
         -5   -1    0    0    0  501 -0.00000000000E+00 -0.00000000000E+00 -0.43837259594E+03  0.43839779068E+03  0.47000000000E+01 0.  1.
          6    1    1    2  502    0  0.86291172873E+02 -0.14338388232E+02 -0.67702564748E+02  0.20449790504E+03  0.17200000000E+03 0. -1.
         -6    1    1    2    0  502 -0.86291172873E+02  0.14338388232E+02 -0.27155107109E+03  0.33313021494E+03  0.17200000000E+03 0.  1.
</event>
<event>
 4    1 -0.3291270E-004  0.2206229E+03  0.7818608E-02  0.1133419E+00
          5   -1    0    0  501    0  0.00000000000E+00  0.00000000000E+00  0.22429405852E+02  0.22916549628E+02  0.47000000000E+01 0. -1.
         -5   -1    0    0    0  501 -0.00000000000E+00 -0.00000000000E+00 -0.24100244745E+04  0.24100290575E+04  0.47000000000E+01 0.  1.
          6    1    1    2  502    0 -0.57796307176E+02  0.12549923798E+03 -0.79144231081E+03  0.82161755288E+03  0.17200000000E+03 0. -1.
         -6    1    1    2    0  502  0.57796307176E+02 -0.12549923798E+03 -0.15961527579E+04  0.16113280542E+04  0.17200000000E+03 0. -1.
</event>
<event>
 4    1 -0.3291270E-004  0.2207819E+03  0.7818608E-02  0.1133301E+00
         -5   -1    0    0    0  501 -0.00000000000E+00  0.00000000000E+00  0.18612455610E+04  0.18612514951E+04  0.47000000000E+01 0.  1.
          5   -1    0    0  501    0  0.00000000000E+00 -0.00000000000E+00 -0.26332411143E+02  0.26748567748E+02  0.47000000000E+01 0. -1.
          6    1    1    2  502    0 -0.12348859915E+02 -0.13787004826E+03  0.10269600721E+04  0.10504245020E+04  0.17200000000E+03 0.  1.
         -6    1    1    2    0  502  0.12348859915E+02  0.13787004826E+03  0.80795307767E+03  0.83757556093E+03  0.17200000000E+03 0. -1.
</event>
<event>
 4    1 -0.3291270E-004  0.1817752E+03  0.7818608E-02  0.1166096E+00
         -5   -1    0    0    0  501 -0.00000000000E+00  0.00000000000E+00  0.55193082151E+03  0.55195083271E+03  0.47000000000E+01 0.  1.
          5   -1    0    0  501    0  0.00000000000E+00 -0.00000000000E+00 -0.82484637146E+02  0.82618432357E+02  0.47000000000E+01 0. -1.
          6    1    1    2  502    0  0.21014608297E+02 -0.54923599133E+02  0.40110441061E+03  0.44037139293E+03  0.17200000000E+03 0.  1.
         -6    1    1    2    0  502 -0.21014608297E+02  0.54923599133E+02  0.68341773759E+02  0.19419787214E+03  0.17200000000E+03 0. -1.
</event>
<event>
 4    1 -0.3291270E-004  0.3910786E+03  0.7818608E-02  0.1046913E+00
          5   -1    0    0  501    0  0.00000000000E+00  0.00000000000E+00  0.21986715948E+03  0.21991738862E+03  0.47000000000E+01 0. -1.
         -5   -1    0    0    0  501 -0.00000000000E+00 -0.00000000000E+00 -0.10526074517E+04  0.10526179446E+04  0.47000000000E+01 0.  1.
          6    1    1    2  502    0  0.25896403411E+03 -0.23726804323E+03 -0.45768056011E+02  0.39374764793E+03  0.17200000000E+03 0.  1.
         -6    1    1    2    0  502 -0.25896403411E+03  0.23726804323E+03 -0.78697223620E+03  0.87878768531E+03  0.17200000000E+03 0.  1.
</event>
<event>
 4    1 -0.3291270E-004  0.2024287E+03  0.7818608E-02  0.1147706E+00
          5   -1    0    0  501    0  0.00000000000E+00  0.00000000000E+00  0.29127743546E+03  0.29131535217E+03  0.47000000000E+01 0. -1.
         -5   -1    0    0    0  501 -0.00000000000E+00 -0.00000000000E+00 -0.36712316523E+03  0.36715324927E+03  0.47000000000E+01 0.  1.
          6    1    1    2  502    0  0.63759664358E+02  0.85604252489E+02  0.22066340797E+03  0.29944903149E+03  0.17200000000E+03 0. -1.
         -6    1    1    2    0  502 -0.63759664358E+02 -0.85604252489E+02 -0.29650913774E+03  0.35901956995E+03  0.17200000000E+03 0.  1.
</event>
<event>
 4    1 -0.3291270E-004  0.2044323E+03  0.7818608E-02  0.1146052E+00
          5   -1    0    0  501    0  0.00000000000E+00  0.00000000000E+00  0.53758544248E+03  0.53760598765E+03  0.47000000000E+01 0. -1.
         -5   -1    0    0    0  501 -0.00000000000E+00 -0.00000000000E+00 -0.95170326535E+02  0.95286310941E+02  0.47000000000E+01 0.  1.
          6    1    1    2  502    0  0.10576803322E+03  0.31963873503E+02  0.85531946444E+02  0.22160388066E+03  0.17200000000E+03 0. -1.
         -6    1    1    2    0  502 -0.10576803322E+03 -0.31963873503E+02  0.35688316950E+03  0.41128841794E+03  0.17200000000E+03 0. -1.
</event>
<event>
 4    1 -0.3291270E-004  0.2778027E+03  0.7818608E-02  0.1096895E+00
         -5   -1    0    0    0  501 -0.00000000000E+00  0.00000000000E+00  0.11362620610E+04  0.11362717815E+04  0.47000000000E+01 0.  1.
          5   -1    0    0  501    0  0.00000000000E+00 -0.00000000000E+00 -0.68316697983E+02  0.68478180637E+02  0.47000000000E+01 0. -1.
          6    1    1    2  502    0  0.20940383727E+03  0.61158646531E+02  0.58484782163E+03  0.64747302768E+03  0.17200000000E+03 0.  1.
         -6    1    1    2    0  502 -0.20940383727E+03 -0.61158646531E+02  0.48309754142E+03  0.55727693442E+03  0.17200000000E+03 0.  1.
</event>
<event>
 4    1 -0.3291270E-004  0.2047012E+03  0.7818608E-02  0.1145832E+00
          5   -1    0    0  501    0  0.00000000000E+00  0.00000000000E+00  0.60241178263E+02  0.60424246445E+02  0.47000000000E+01 0. -1.
         -5   -1    0    0    0  501 -0.00000000000E+00 -0.00000000000E+00 -0.10999506906E+04  0.10999607319E+04  0.47000000000E+01 0.  1.
          6    1    1    2  502    0 -0.11013493281E+03 -0.13743492506E+02 -0.16756125648E+03  0.26453612548E+03  0.17200000000E+03 0. -1.
         -6    1    1    2    0  502  0.11013493281E+03  0.13743492506E+02 -0.87214825587E+03  0.89584885289E+03  0.17200000000E+03 0.  1.
</event>
<event>
 4    1 -0.3291270E-004  0.2903870E+03  0.7818608E-02  0.1090147E+00
         -5   -1    0    0    0  501 -0.00000000000E+00  0.00000000000E+00  0.31729719284E+03  0.31733200057E+03  0.47000000000E+01 0.  1.
          5   -1    0    0  501    0  0.00000000000E+00 -0.00000000000E+00 -0.28284479043E+03  0.28288383742E+03  0.47000000000E+01 0. -1.
          6    1    1    2  502    0 -0.80530097605E+00 -0.23396568047E+03  0.91127669355E+02  0.30434986491E+03  0.17200000000E+03 0. -1.
         -6    1    1    2    0  502  0.80530097605E+00  0.23396568047E+03 -0.56675266942E+02  0.29586597308E+03  0.17200000000E+03 0.  1.
</event>
<event>
 4    1 -0.3291270E-004  0.2595104E+03  0.7818608E-02  0.1107438E+00
          5   -1    0    0  501    0  0.00000000000E+00  0.00000000000E+00  0.27121476936E+04  0.27121517661E+04  0.47000000000E+01 0. -1.
         -5   -1    0    0    0  501 -0.00000000000E+00 -0.00000000000E+00 -0.26242150485E+02  0.26659716092E+02  0.47000000000E+01 0.  1.
          6    1    1    2  502    0 -0.18340798164E+03  0.64211901065E+02  0.16822332670E+04  0.17021323158E+04  0.17200000000E+03 0. -1.
         -6    1    1    2    0  502  0.18340798164E+03 -0.64211901065E+02  0.10036722762E+04  0.10366791664E+04  0.17200000000E+03 0.  1.
</event>
<event>
 4    1 -0.3291270E-004  0.7035502E+03  0.7818608E-02  0.9711180E-01
         -5   -1    0    0    0  501 -0.00000000000E+00  0.00000000000E+00  0.12134389019E+04  0.12134480041E+04  0.47000000000E+01 0.  1.
          5   -1    0    0  501    0  0.00000000000E+00 -0.00000000000E+00 -0.11171640793E+04  0.11171739659E+04  0.47000000000E+01 0. -1.
          6    1    1    2  502    0 -0.68078883598E+03  0.43880246494E+02 -0.88036713479E+03  0.11269557255E+04  0.17200000000E+03 0. -1.
         -6    1    1    2    0  502  0.68078883598E+03 -0.43880246494E+02  0.97664195743E+03  0.12036662445E+04  0.17200000000E+03 0.  1.
</event>
<event>
 4    1 -0.3291270E-004  0.1963758E+03  0.7818608E-02  0.1152833E+00
          5   -1    0    0  501    0  0.00000000000E+00  0.00000000000E+00  0.13981526008E+03  0.13989423487E+03  0.47000000000E+01 0. -1.
         -5   -1    0    0    0  501 -0.00000000000E+00 -0.00000000000E+00 -0.35470850045E+03  0.35473963732E+03  0.47000000000E+01 0.  1.
          6    1    1    2  502    0 -0.75085192570E+02  0.57807159231E+02 -0.22419444949E+03  0.29803792541E+03  0.17200000000E+03 0.  1.
         -6    1    1    2    0  502  0.75085192570E+02 -0.57807159231E+02  0.93012091249E+01  0.19659594679E+03  0.17200000000E+03 0. -1.
</event>
<event>
 4    1 -0.3291270E-004  0.2037577E+03  0.7818608E-02  0.1146607E+00
         -5   -1    0    0    0  501 -0.00000000000E+00  0.00000000000E+00  0.48303580117E+02  0.48531699457E+02  0.47000000000E+01 0.  1.
          5   -1    0    0  501    0  0.00000000000E+00 -0.00000000000E+00 -0.12319472629E+04  0.12319562284E+04  0.47000000000E+01 0. -1.
          6    1    1    2  502    0 -0.83903321097E+02  0.69953021012E+02 -0.94488288157E+03  0.96660273759E+03  0.17200000000E+03 0. -1.
         -6    1    1    2    0  502  0.83903321097E+02 -0.69953021012E+02 -0.23876080122E+03  0.31388519022E+03  0.17200000000E+03 0.  1.
</event>
<event>
 4    1 -0.3291270E-004  0.1758944E+03  0.7818608E-02  0.1171837E+00
         -5   -1    0    0    0  501 -0.00000000000E+00  0.00000000000E+00  0.66048983845E+02  0.66215997062E+02  0.47000000000E+01 0.  1.
          5   -1    0    0  501    0  0.00000000000E+00 -0.00000000000E+00 -0.57204735855E+03  0.57206666606E+03  0.47000000000E+01 0. -1.
          6    1    1    2  502    0  0.22373082934E+02  0.29228448641E+02 -0.38931143966E+03  0.42720282548E+03  0.17200000000E+03 0. -1.
         -6    1    1    2    0  502 -0.22373082934E+02 -0.29228448641E+02 -0.11668693504E+03  0.21107983764E+03  0.17200000000E+03 0.  1.
</event>
<event>
 4    1 -0.3291270E-004  0.3475074E+03  0.7818608E-02  0.1063643E+00
          5   -1    0    0  501    0  0.00000000000E+00  0.00000000000E+00  0.55257947272E+02  0.55457467818E+02  0.47000000000E+01 0. -1.
         -5   -1    0    0    0  501 -0.00000000000E+00 -0.00000000000E+00 -0.28897007108E+04  0.28897045330E+04  0.47000000000E+01 0.  1.
          6    1    1    2  502    0 -0.29539414112E+03 -0.62607711557E+02 -0.21463185180E+04  0.21742687517E+04  0.17200000000E+03 0. -1.
         -6    1    1    2    0  502  0.29539414112E+03  0.62607711557E+02 -0.68812424552E+03  0.77089324905E+03  0.17200000000E+03 0. -1.
</event>
<event>
 4    1 -0.3291270E-004  0.1854660E+03  0.7818608E-02  0.1162615E+00
         -5   -1    0    0    0  501 -0.00000000000E+00  0.00000000000E+00  0.78070793779E+03  0.78072208508E+03  0.47000000000E+01 0.  1.
          5   -1    0    0  501    0  0.00000000000E+00 -0.00000000000E+00 -0.47501853734E+02  0.47733804669E+02  0.47000000000E+01 0. -1.
          6    1    1    2  502    0 -0.18362893649E+02  0.66906110806E+02  0.25315490171E+03  0.31382324290E+03  0.17200000000E+03 0. -1.
         -6    1    1    2    0  502  0.18362893649E+02 -0.66906110806E+02  0.48005118234E+03  0.51463264684E+03  0.17200000000E+03 0.  1.
</event>
<event>
 4    1 -0.3291270E-004  0.1932367E+03  0.7818608E-02  0.1155574E+00
         -5   -1    0    0    0  501 -0.00000000000E+00  0.00000000000E+00  0.32464130223E+03  0.32467532262E+03  0.47000000000E+01 0.  1.
          5   -1    0    0  501    0  0.00000000000E+00 -0.00000000000E+00 -0.11591638693E+03  0.11601163199E+03  0.47000000000E+01 0. -1.
          6    1    1    2  502    0 -0.38168828429E+02  0.79369714256E+02  0.12465193637E+03  0.22995329144E+03  0.17200000000E+03 0. -1.
         -6    1    1    2    0  502  0.38168828429E+02 -0.79369714256E+02  0.84072978935E+02  0.21073366317E+03  0.17200000000E+03 0. -1.
</event>
<event>
 4    1 -0.3291270E-004  0.1803225E+03  0.7818608E-02  0.1167491E+00
         -5   -1    0    0    0  501 -0.00000000000E+00  0.00000000000E+00  0.44879839839E+03  0.44882300788E+03  0.47000000000E+01 0.  1.
          5   -1    0    0  501    0  0.00000000000E+00 -0.00000000000E+00 -0.94047834456E+02  0.94165201460E+02  0.47000000000E+01 0. -1.
          6    1    1    2  502    0 -0.33175323291E+02 -0.42797203811E+02  0.47077303314E+02  0.18636650777E+03  0.17200000000E+03 0. -1.
         -6    1    1    2    0  502  0.33175323291E+02  0.42797203811E+02  0.30767326062E+03  0.35662170157E+03  0.17200000000E+03 0.  1.
</event>
<event>
 4    1 -0.3291270E-004  0.7768061E+03  0.7818608E-02  0.9594210E-01
          5   -1    0    0  501    0  0.00000000000E+00  0.00000000000E+00  0.21012546406E+04  0.21012598969E+04  0.47000000000E+01 0. -1.
         -5   -1    0    0    0  501 -0.00000000000E+00 -0.00000000000E+00 -0.12721233788E+04  0.12721320611E+04  0.47000000000E+01 0.  1.
          6    1    1    2  502    0 -0.36229278424E+03  0.66527265684E+03  0.18987214104E+04  0.20514801397E+04  0.17200000000E+03 0. -1.
         -6    1    1    2    0  502  0.36229278424E+03 -0.66527265684E+03 -0.10695901486E+04  0.13219118183E+04  0.17200000000E+03 0.  1.
</event>
<event>
 4    1 -0.3291270E-004  0.1806001E+03  0.7818608E-02  0.1167224E+00
         -5   -1    0    0    0  501 -0.00000000000E+00  0.00000000000E+00  0.22091137542E+02  0.22585578538E+02  0.47000000000E+01 0.  1.
          5   -1    0    0  501    0  0.00000000000E+00 -0.00000000000E+00 -0.15144752518E+04  0.15144825448E+04  0.47000000000E+01 0. -1.
          6    1    1    2  502    0  0.42731966517E+02  0.34732800653E+02 -0.89244835491E+03  0.91053855195E+03  0.17200000000E+03 0.  1.
         -6    1    1    2    0  502 -0.42731966517E+02 -0.34732800653E+02 -0.59993575937E+03  0.62652957135E+03  0.17200000000E+03 0. -1.
</event>
<event>
 4    1 -0.3291270E-004  0.1891419E+03  0.7818608E-02  0.1159238E+00
          5   -1    0    0  501    0  0.00000000000E+00  0.00000000000E+00  0.58072248615E+03  0.58074150525E+03  0.47000000000E+01 0. -1.
         -5   -1    0    0    0  501 -0.00000000000E+00 -0.00000000000E+00 -0.10002553846E+03  0.10013589937E+03  0.47000000000E+01 0.  1.
          6    1    1    2  502    0 -0.66470351202E+02 -0.42099224077E+02  0.45147178169E+03  0.48949098247E+03  0.17200000000E+03 0. -1.
         -6    1    1    2    0  502  0.66470351202E+02  0.42099224077E+02  0.29225166004E+02  0.19138642215E+03  0.17200000000E+03 0.  1.
</event>
<event>
 4    1 -0.3291270E-004  0.1830438E+03  0.7818608E-02  0.1164889E+00
          5   -1    0    0  501    0  0.00000000000E+00  0.00000000000E+00  0.57958663137E+02  0.58148917725E+02  0.47000000000E+01 0. -1.
         -5   -1    0    0    0  501 -0.00000000000E+00 -0.00000000000E+00 -0.65337160224E+03  0.65338850664E+03  0.47000000000E+01 0.  1.
          6    1    1    2  502    0 -0.15760912272E+02  0.60602264742E+02 -0.17604291697E+03  0.25396092113E+03  0.17200000000E+03 0. -1.
         -6    1    1    2    0  502  0.15760912272E+02 -0.60602264742E+02 -0.41937002213E+03  0.45757650323E+03  0.17200000000E+03 0.  1.
</event>
<event>
 4    1 -0.3291270E-004  0.4335938E+03  0.7818608E-02  0.1032731E+00
         -5   -1    0    0    0  501 -0.00000000000E+00  0.00000000000E+00  0.55902896048E+03  0.55904871761E+03  0.47000000000E+01 0.  1.
          5   -1    0    0  501    0  0.00000000000E+00 -0.00000000000E+00 -0.45801866374E+03  0.45804277784E+03  0.47000000000E+01 0. -1.
          6    1    1    2  502    0 -0.17372874483E+03  0.35810323871E+03 -0.21168259165E+03  0.48250712530E+03  0.17200000000E+03 0. -1.
         -6    1    1    2    0  502  0.17372874483E+03 -0.35810323871E+03  0.31269288840E+03  0.53458437015E+03  0.17200000000E+03 0.  1.
</event>
<event>
 4    1 -0.3291270E-004  0.2310816E+03  0.7818608E-02  0.1125881E+00
         -5   -1    0    0    0  501 -0.00000000000E+00  0.00000000000E+00  0.27634742578E+02  0.28031571439E+02  0.47000000000E+01 0.  1.
          5   -1    0    0  501    0  0.00000000000E+00 -0.00000000000E+00 -0.19186485316E+04  0.19186542882E+04  0.47000000000E+01 0. -1.
          6    1    1    2  502    0  0.11440178369E+03  0.10357090724E+03 -0.96152770721E+03  0.98890557318E+03  0.17200000000E+03 0.  1.
         -6    1    1    2    0  502 -0.11440178369E+03 -0.10357090724E+03 -0.92948608181E+03  0.95778028651E+03  0.17200000000E+03 0.  1.
</event>
<event>
 4    1 -0.3291270E-004  0.1748973E+03  0.7818608E-02  0.1172835E+00
         -5   -1    0    0    0  501 -0.00000000000E+00  0.00000000000E+00  0.22263414847E+03  0.22268375349E+03  0.47000000000E+01 0.  1.
          5   -1    0    0  501    0  0.00000000000E+00 -0.00000000000E+00 -0.15733233091E+03  0.15740251697E+03  0.47000000000E+01 0. -1.
          6    1    1    2  502    0  0.54346906361E+00 -0.31698025319E+02 -0.35149855087E+02  0.17839442951E+03  0.17200000000E+03 0. -1.
         -6    1    1    2    0  502 -0.54346906361E+00  0.31698025319E+02  0.10045167265E+03  0.20169184095E+03  0.17200000000E+03 0.  1.
</event>
<event>
 4    1 -0.3291270E-004  0.1967978E+03  0.7818608E-02  0.1152469E+00
         -5   -1    0    0    0  501 -0.00000000000E+00  0.00000000000E+00  0.89197930223E+03  0.89199168472E+03  0.47000000000E+01 0.  1.
          5   -1    0    0  501    0  0.00000000000E+00 -0.00000000000E+00 -0.53816452632E+02  0.54021297410E+02  0.47000000000E+01 0. -1.
          6    1    1    2  502    0  0.89492290129E+02  0.33711931603E+02  0.21025323048E+03  0.28798573794E+03  0.17200000000E+03 0. -1.
         -6    1    1    2    0  502 -0.89492290129E+02 -0.33711931603E+02  0.62790961911E+03  0.65802724419E+03  0.17200000000E+03 0.  1.
</event>
<event>
 4    1 -0.3291270E-004  0.1989424E+03  0.7818608E-02  0.1150634E+00
         -5   -1    0    0    0  501 -0.00000000000E+00  0.00000000000E+00  0.22396881559E+03  0.22401812506E+03  0.47000000000E+01 0.  1.
          5   -1    0    0  501    0  0.00000000000E+00 -0.00000000000E+00 -0.19066536080E+03  0.19072328072E+03  0.47000000000E+01 0. -1.
          6    1    1    2  502    0 -0.86662134920E+02 -0.49837405095E+02  0.72933703518E+02  0.21189010757E+03  0.17200000000E+03 0.  1.
         -6    1    1    2    0  502  0.86662134920E+02  0.49837405095E+02 -0.39630248731E+02  0.20285129822E+03  0.17200000000E+03 0. -1.
</event>
<event>
 4    1 -0.3291270E-004  0.1849528E+03  0.7818608E-02  0.1163094E+00
         -5   -1    0    0    0  501 -0.00000000000E+00  0.00000000000E+00  0.12282378685E+03  0.12291367953E+03  0.47000000000E+01 0.  1.
          5   -1    0    0  501    0  0.00000000000E+00 -0.00000000000E+00 -0.29555595925E+03  0.29559332714E+03  0.47000000000E+01 0. -1.
          6    1    1    2  502    0 -0.59913681623E+02  0.32153967202E+02 -0.13692077262E+03  0.23011915354E+03  0.17200000000E+03 0. -1.
         -6    1    1    2    0  502  0.59913681623E+02 -0.32153967202E+02 -0.35811399789E+02  0.18838785313E+03  0.17200000000E+03 0.  1.
</event>
<event>
 4    1 -0.3291270E-004  0.1728595E+03  0.7818608E-02  0.1174898E+00
          5   -1    0    0  501    0  0.00000000000E+00  0.00000000000E+00  0.49440365130E+02  0.49663263125E+02  0.47000000000E+01 0. -1.
         -5   -1    0    0    0  501 -0.00000000000E+00 -0.00000000000E+00 -0.61399175269E+03  0.61400974127E+03  0.47000000000E+01 0.  1.
          6    1    1    2  502    0  0.10394541845E+02  0.13724939601E+02 -0.23744619119E+03  0.29370242454E+03  0.17200000000E+03 0. -1.
         -6    1    1    2    0  502 -0.10394541845E+02 -0.13724939601E+02 -0.32710519637E+03  0.36997057986E+03  0.17200000000E+03 0.  1.
</event>
<event>
 4    1 -0.3291270E-004  0.1954164E+03  0.7818608E-02  0.1153665E+00
          5   -1    0    0  501    0  0.00000000000E+00  0.00000000000E+00  0.35326385448E+03  0.35329511867E+03  0.47000000000E+01 0. -1.
         -5   -1    0    0    0  501 -0.00000000000E+00 -0.00000000000E+00 -0.13821019025E+03  0.13829008168E+03  0.47000000000E+01 0.  1.
          6    1    1    2  502    0  0.29283841434E+02 -0.88011471280E+02  0.22236766451E+03  0.29603199264E+03  0.17200000000E+03 0. -1.
         -6    1    1    2    0  502 -0.29283841434E+02  0.88011471280E+02 -0.73140002898E+01  0.19555320771E+03  0.17200000000E+03 0.  1.
</event>
<event>
 4    1 -0.3291270E-004  0.1949797E+03  0.7818608E-02  0.1154045E+00
          5   -1    0    0  501    0  0.00000000000E+00  0.00000000000E+00  0.33749711006E+03  0.33752983468E+03  0.47000000000E+01 0. -1.
         -5   -1    0    0    0  501 -0.00000000000E+00 -0.00000000000E+00 -0.11402986472E+03  0.11412668420E+03  0.47000000000E+01 0.  1.
          6    1    1    2  502    0  0.52490174551E+02 -0.75351640003E+02  0.13738488988E+03  0.23851980220E+03  0.17200000000E+03 0. -1.
         -6    1    1    2    0  502 -0.52490174551E+02  0.75351640003E+02  0.86082355461E+02  0.21313671668E+03  0.17200000000E+03 0.  1.
</event>
<event>
 4    1 -0.3291270E-004  0.1913940E+03  0.7818608E-02  0.1157210E+00
         -5   -1    0    0    0  501 -0.00000000000E+00  0.00000000000E+00  0.59737235812E+03  0.59739084714E+03  0.47000000000E+01 0.  1.
          5   -1    0    0  501    0  0.00000000000E+00 -0.00000000000E+00 -0.76084012624E+02  0.76229042871E+02  0.47000000000E+01 0. -1.
          6    1    1    2  502    0 -0.82845289549E+02  0.13576724894E+02  0.40937794594E+03  0.45190925204E+03  0.17200000000E+03 0.  1.
         -6    1    1    2    0  502  0.82845289549E+02 -0.13576724894E+02  0.11191039956E+03  0.22171063797E+03  0.17200000000E+03 0.  1.
</event>
<event>
 4    1 -0.3291270E-004  0.1732553E+03  0.7818608E-02  0.1174495E+00
          5   -1    0    0  501    0  0.00000000000E+00  0.00000000000E+00  0.56368621686E+03  0.56370581075E+03  0.47000000000E+01 0. -1.
         -5   -1    0    0    0  501 -0.00000000000E+00 -0.00000000000E+00 -0.10896587550E+03  0.10906719041E+03  0.47000000000E+01 0.  1.
          6    1    1    2  502    0  0.20665746163E+02  0.25138021390E+01  0.46796949617E+03  0.49901186520E+03  0.17200000000E+03 0. -1.
         -6    1    1    2    0  502 -0.20665746163E+02 -0.25138021390E+01 -0.13249154809E+02  0.17376113596E+03  0.17200000000E+03 0.  1.
</event>
<event>
 4    1 -0.3291270E-004  0.1824774E+03  0.7818608E-02  0.1165427E+00
         -5   -1    0    0    0  501 -0.00000000000E+00  0.00000000000E+00  0.24368580357E+03  0.24373112411E+03  0.47000000000E+01 0.  1.
          5   -1    0    0  501    0  0.00000000000E+00 -0.00000000000E+00 -0.16555277776E+03  0.16561948020E+03  0.47000000000E+01 0. -1.
          6    1    1    2  502    0 -0.51647220994E+02  0.32350582320E+02 -0.46578205611E+02  0.18832823700E+03  0.17200000000E+03 0. -1.
         -6    1    1    2    0  502  0.51647220994E+02 -0.32350582320E+02  0.12471123142E+03  0.22102236732E+03  0.17200000000E+03 0.  1.
</event>
<event>
 4    1 -0.3291270E-004  0.2368414E+03  0.7818608E-02  0.1121915E+00
          5   -1    0    0  501    0  0.00000000000E+00  0.00000000000E+00  0.47109958742E+03  0.47112303199E+03  0.47000000000E+01 0. -1.
         -5   -1    0    0    0  501 -0.00000000000E+00 -0.00000000000E+00 -0.14411358911E+03  0.14419020968E+03  0.47000000000E+01 0.  1.
          6    1    1    2  502    0  0.45932826159E+02 -0.15620506556E+03  0.29188238906E+03  0.37588452491E+03  0.17200000000E+03 0.  1.
         -6    1    1    2    0  502 -0.45932826159E+02  0.15620506556E+03  0.35103609248E+02  0.23942871676E+03  0.17200000000E+03 0.  1.
</event>
<event>
 4    1 -0.3291270E-004  0.2135501E+03  0.7818608E-02  0.1138785E+00
         -5   -1    0    0    0  501 -0.00000000000E+00  0.00000000000E+00  0.13664701460E+04  0.13664782288E+04  0.47000000000E+01 0.  1.
          5   -1    0    0  501    0  0.00000000000E+00 -0.00000000000E+00 -0.43924024147E+02  0.44174765390E+02  0.47000000000E+01 0. -1.
          6    1    1    2  502    0 -0.26864123738E+01 -0.12654029153E+03  0.31393506783E+03  0.37968261615E+03  0.17200000000E+03 0. -1.
         -6    1    1    2    0  502  0.26864123738E+01  0.12654029153E+03  0.10086110540E+04  0.10309703781E+04  0.17200000000E+03 0.  1.
</event>
<event>
 4    1 -0.3291270E-004  0.3670053E+03  0.7818608E-02  0.1055844E+00
          5   -1    0    0  501    0  0.00000000000E+00  0.00000000000E+00  0.73881422079E+03  0.73882917027E+03  0.47000000000E+01 0. -1.
         -5   -1    0    0    0  501 -0.00000000000E+00 -0.00000000000E+00 -0.25807869319E+03  0.25812148667E+03  0.47000000000E+01 0.  1.
          6    1    1    2  502    0  0.44272475561E+02 -0.32116791763E+03  0.51051009501E+03  0.62873956494E+03  0.17200000000E+03 0. -1.
         -6    1    1    2    0  502 -0.44272475561E+02  0.32116791763E+03 -0.29774567415E+02  0.36821109200E+03  0.17200000000E+03 0.  1.
</event>
<event>
 4    1 -0.3291270E-004  0.2170495E+03  0.7818608E-02  0.1136102E+00
          5   -1    0    0  501    0  0.00000000000E+00  0.00000000000E+00  0.50462175497E+03  0.50464364218E+03  0.47000000000E+01 0. -1.
         -5   -1    0    0    0  501 -0.00000000000E+00 -0.00000000000E+00 -0.93327340876E+02  0.93445612818E+02  0.47000000000E+01 0.  1.
          6    1    1    2  502    0 -0.32200419354E+02 -0.12841187910E+03  0.19856501310E+03  0.29417433968E+03  0.17200000000E+03 0. -1.
         -6    1    1    2    0  502  0.32200419354E+02  0.12841187910E+03  0.21272940100E+03  0.30391491531E+03  0.17200000000E+03 0.  1.
</event>
<event>
 4    1 -0.3291270E-004  0.1807982E+03  0.7818608E-02  0.1167033E+00
          5   -1    0    0  501    0  0.00000000000E+00  0.00000000000E+00  0.18354722086E+03  0.18360738625E+03  0.47000000000E+01 0. -1.
         -5   -1    0    0    0  501 -0.00000000000E+00 -0.00000000000E+00 -0.20740125137E+03  0.20745449879E+03  0.47000000000E+01 0.  1.
          6    1    1    2  502    0 -0.46540447735E+02 -0.30626391936E+02  0.61709128599E+02  0.19103927793E+03  0.17200000000E+03 0. -1.
         -6    1    1    2    0  502  0.46540447735E+02  0.30626391936E+02 -0.85563159114E+02  0.20002260711E+03  0.17200000000E+03 0.  1.
</event>
<event>
 4    1 -0.3291270E-004  0.2267093E+03  0.7818608E-02  0.1128978E+00
         -5   -1    0    0    0  501 -0.00000000000E+00  0.00000000000E+00  0.65216862929E+02  0.65386001638E+02  0.47000000000E+01 0.  1.
          5   -1    0    0  501    0  0.00000000000E+00 -0.00000000000E+00 -0.81737415100E+03  0.81738766367E+03  0.47000000000E+01 0. -1.
          6    1    1    2  502    0  0.17738508803E+02 -0.14662354387E+03 -0.46129739300E+03  0.51399650106E+03  0.17200000000E+03 0. -1.
         -6    1    1    2    0  502 -0.17738508803E+02  0.14662354387E+03 -0.29085989507E+03  0.36877716425E+03  0.17200000000E+03 0.  1.
</event>
<event>
 4    1 -0.3291270E-004  0.1864714E+03  0.7818608E-02  0.1161683E+00
         -5   -1    0    0    0  501 -0.00000000000E+00  0.00000000000E+00  0.59924099359E+02  0.60108133260E+02  0.47000000000E+01 0.  1.
          5   -1    0    0  501    0  0.00000000000E+00 -0.00000000000E+00 -0.77862359377E+03  0.77863777893E+03  0.47000000000E+01 0. -1.
          6    1    1    2  502    0  0.60753813902E+02  0.38685558899E+02 -0.57157326946E+03  0.60122175670E+03  0.17200000000E+03 0. -1.
         -6    1    1    2    0  502 -0.60753813902E+02 -0.38685558899E+02 -0.14712622495E+03  0.23752415549E+03  0.17200000000E+03 0.  1.
</event>
<event>
 4    1 -0.3291270E-004  0.1724213E+03  0.7818608E-02  0.1175346E+00
          5   -1    0    0  501    0  0.00000000000E+00  0.00000000000E+00  0.93318604466E+02  0.93436887467E+02  0.47000000000E+01 0. -1.
         -5   -1    0    0    0  501 -0.00000000000E+00 -0.00000000000E+00 -0.47116247502E+03  0.47118591645E+03  0.47000000000E+01 0.  1.
          6    1    1    2  502    0 -0.11133828107E+02  0.45996991270E+01 -0.28112307113E+02  0.17469808577E+03  0.17200000000E+03 0. -1.
         -6    1    1    2    0  502  0.11133828107E+02 -0.45996991270E+01 -0.34973156344E+03  0.38992471815E+03  0.17200000000E+03 0.  1.
</event>
<event>
 4    1 -0.3291270E-004  0.2330233E+03  0.7818608E-02  0.1124530E+00
          5   -1    0    0  501    0  0.00000000000E+00  0.00000000000E+00  0.15777472327E+03  0.15784471262E+03  0.47000000000E+01 0. -1.
         -5   -1    0    0    0  501 -0.00000000000E+00 -0.00000000000E+00 -0.38683831339E+03  0.38686686431E+03  0.47000000000E+01 0.  1.
          6    1    1    2  502    0 -0.15589092953E+03 -0.20344276214E+02 -0.23908513744E+02  0.23424664035E+03  0.17200000000E+03 0. -1.
         -6    1    1    2    0  502  0.15589092953E+03  0.20344276214E+02 -0.20515507637E+03  0.31046493658E+03  0.17200000000E+03 0.  1.
</event>
<event>
 4    1 -0.3291270E-004  0.1784174E+03  0.7818608E-02  0.1169344E+00
         -5   -1    0    0    0  501 -0.00000000000E+00  0.00000000000E+00  0.45291407161E+03  0.45293845748E+03  0.47000000000E+01 0.  1.
          5   -1    0    0  501    0  0.00000000000E+00 -0.00000000000E+00 -0.19005131101E+03  0.19010941801E+03  0.47000000000E+01 0. -1.
          6    1    1    2  502    0 -0.19419394911E+02  0.43262444696E+02 -0.12383035459E+03  0.21717897858E+03  0.17200000000E+03 0. -1.
         -6    1    1    2    0  502  0.19419394911E+02 -0.43262444696E+02  0.38669311519E+03  0.42586889691E+03  0.17200000000E+03 0.  1.
</event>
<event>
 4    1 -0.3291270E-004  0.1739536E+03  0.7818608E-02  0.1173787E+00
          5   -1    0    0  501    0  0.00000000000E+00  0.00000000000E+00  0.29113293492E+03  0.29117087044E+03  0.47000000000E+01 0. -1.
         -5   -1    0    0    0  501 -0.00000000000E+00 -0.00000000000E+00 -0.14959046967E+03  0.14966428638E+03  0.47000000000E+01 0.  1.
          6    1    1    2  502    0  0.34164151612E+01  0.25771495511E+02  0.19261534836E+03  0.25953904196E+03  0.17200000000E+03 0. -1.
         -6    1    1    2    0  502 -0.34164151612E+01 -0.25771495511E+02 -0.51072883119E+02  0.18129611486E+03  0.17200000000E+03 0.  1.
</event>
<event>
 4    1 -0.3291270E-004  0.1914984E+03  0.7818608E-02  0.1157117E+00
         -5   -1    0    0    0  501 -0.00000000000E+00  0.00000000000E+00  0.84557641986E+03  0.84558948185E+03  0.47000000000E+01 0.  1.
          5   -1    0    0  501    0  0.00000000000E+00 -0.00000000000E+00 -0.49266485675E+02  0.49490166809E+02  0.47000000000E+01 0. -1.
          6    1    1    2  502    0 -0.83400301098E+02 -0.11489504751E+02  0.24187243829E+03  0.30850266668E+03  0.17200000000E+03 0.  1.
         -6    1    1    2    0  502  0.83400301098E+02  0.11489504751E+02  0.55443749589E+03  0.58657698198E+03  0.17200000000E+03 0.  1.
</event>
<event>
 4    1 -0.3291270E-004  0.2092680E+03  0.7818608E-02  0.1142147E+00
          5   -1    0    0  501    0  0.00000000000E+00  0.00000000000E+00  0.39557332946E+02  0.39835569405E+02  0.47000000000E+01 0. -1.
         -5   -1    0    0    0  501 -0.00000000000E+00 -0.00000000000E+00 -0.13737402819E+04  0.13737483219E+04  0.47000000000E+01 0.  1.
          6    1    1    2  502    0 -0.10262431574E+03  0.60641064071E+02 -0.35330241028E+03  0.41062839886E+03  0.17200000000E+03 0. -1.
         -6    1    1    2    0  502  0.10262431574E+03 -0.60641064071E+02 -0.98088053863E+03  0.10029554925E+04  0.17200000000E+03 0.  1.
</event>
<event>
 4    1 -0.3291270E-004  0.6498095E+03  0.7818608E-02  0.9807137E-01
         -5   -1    0    0    0  501 -0.00000000000E+00  0.00000000000E+00  0.48345565660E+03  0.48347850201E+03  0.47000000000E+01 0.  1.
          5   -1    0    0  501    0  0.00000000000E+00 -0.00000000000E+00 -0.98604961146E+03  0.98606081266E+03  0.47000000000E+01 0. -1.
          6    1    1    2  502    0  0.53271359916E+03  0.32997673797E+03 -0.49969378817E+03  0.81972331202E+03  0.17200000000E+03 0. -1.
         -6    1    1    2    0  502 -0.53271359916E+03 -0.32997673797E+03 -0.29001666876E+01  0.64981600265E+03  0.17200000000E+03 0.  1.
</event>
<event>
 4    1 -0.3291270E-004  0.1769390E+03  0.7818608E-02  0.1170799E+00
         -5   -1    0    0    0  501 -0.00000000000E+00  0.00000000000E+00  0.15227188475E+04  0.15227261010E+04  0.47000000000E+01 0.  1.
          5   -1    0    0  501    0  0.00000000000E+00 -0.00000000000E+00 -0.20558634287E+02  0.21089036103E+02  0.47000000000E+01 0. -1.
          6    1    1    2  502    0  0.32228340494E+02  0.26167806175E+02  0.83911119453E+03  0.85756341852E+03  0.17200000000E+03 0.  1.
         -6    1    1    2    0  502 -0.32228340494E+02 -0.26167806175E+02  0.66304901870E+03  0.68625171855E+03  0.17200000000E+03 0.  1.
</event>
<event>
 4    1 -0.3291270E-004  0.2177975E+03  0.7818608E-02  0.1135536E+00
         -5   -1    0    0    0  501 -0.00000000000E+00  0.00000000000E+00  0.14819762607E+03  0.14827213620E+03  0.47000000000E+01 0.  1.
          5   -1    0    0  501    0  0.00000000000E+00 -0.00000000000E+00 -0.32898999363E+03  0.32902356436E+03  0.47000000000E+01 0. -1.
          6    1    1    2  502    0 -0.13338710887E+03 -0.77221717851E+01 -0.50760672831E+02  0.22363452027E+03  0.17200000000E+03 0. -1.
         -6    1    1    2    0  502  0.13338710887E+03  0.77221717851E+01 -0.13003169473E+03  0.25366118029E+03  0.17200000000E+03 0. -1.
</event>
<event>
 4    1 -0.3291270E-004  0.1872370E+03  0.7818608E-02  0.1160977E+00
          5   -1    0    0  501    0  0.00000000000E+00  0.00000000000E+00  0.24974597168E+03  0.24979019270E+03  0.47000000000E+01 0. -1.
         -5   -1    0    0    0  501 -0.00000000000E+00 -0.00000000000E+00 -0.15693300531E+03  0.15700336988E+03  0.47000000000E+01 0.  1.
          6    1    1    2  502    0  0.38072829833E+02 -0.63436234661E+02  0.11264379432E+03  0.21850931477E+03  0.17200000000E+03 0. -1.
         -6    1    1    2    0  502 -0.38072829833E+02  0.63436234661E+02 -0.19830827952E+02  0.18828424782E+03  0.17200000000E+03 0.  1.
</event>
<event>
 4    1 -0.3291270E-004  0.3590934E+03  0.7818608E-02  0.1058943E+00
          5   -1    0    0  501    0  0.00000000000E+00  0.00000000000E+00  0.13413518932E+03  0.13421750636E+03  0.47000000000E+01 0. -1.
         -5   -1    0    0    0  501 -0.00000000000E+00 -0.00000000000E+00 -0.15364818198E+04  0.15364890083E+04  0.47000000000E+01 0.  1.
          6    1    1    2  502    0  0.56613884343E+02  0.31009500372E+03 -0.18992760541E+03  0.40622720063E+03  0.17200000000E+03 0. -1.
         -6    1    1    2    0  502 -0.56613884343E+02 -0.31009500372E+03 -0.12124190251E+04  0.12644793140E+04  0.17200000000E+03 0.  1.
</event>
<event>
 4    1 -0.3291270E-004  0.2268084E+03  0.7818608E-02  0.1128907E+00
         -5   -1    0    0    0  501 -0.00000000000E+00  0.00000000000E+00  0.18754435116E+03  0.18760323465E+03  0.47000000000E+01 0.  1.
          5   -1    0    0  501    0  0.00000000000E+00 -0.00000000000E+00 -0.29015804325E+03  0.29019610622E+03  0.47000000000E+01 0. -1.
          6    1    1    2  502    0 -0.87363279145E+02  0.11927159521E+03  0.47609423854E+01  0.22685837551E+03  0.17200000000E+03 0. -1.
         -6    1    1    2    0  502  0.87363279145E+02 -0.11927159521E+03 -0.10737463448E+03  0.25094096536E+03  0.17200000000E+03 0. -1.
</event>
<event>
 4    1 -0.3291270E-004  0.3237490E+03  0.7818608E-02  0.1073937E+00
          5   -1    0    0  501    0  0.00000000000E+00  0.00000000000E+00  0.85726243767E+03  0.85727532161E+03  0.47000000000E+01 0. -1.
         -5   -1    0    0    0  501 -0.00000000000E+00 -0.00000000000E+00 -0.12644689783E+03  0.12653421660E+03  0.47000000000E+01 0.  1.
          6    1    1    2  502    0  0.24962675843E+03  0.11364815137E+03  0.45545416846E+03  0.55879506118E+03  0.17200000000E+03 0. -1.
         -6    1    1    2    0  502 -0.24962675843E+03 -0.11364815137E+03  0.27536137138E+03  0.42501447703E+03  0.17200000000E+03 0.  1.
</event>
<event>
 4    1 -0.3291270E-004  0.2393440E+03  0.7818608E-02  0.1120231E+00
          5   -1    0    0  501    0  0.00000000000E+00  0.00000000000E+00  0.16660996143E+03  0.16667624080E+03  0.47000000000E+01 0. -1.
         -5   -1    0    0    0  501 -0.00000000000E+00 -0.00000000000E+00 -0.42116219144E+03  0.42118841567E+03  0.47000000000E+01 0.  1.
          6    1    1    2  502    0  0.12886341618E+03  0.10533649154E+03 -0.12166280628E+01  0.23934710498E+03  0.17200000000E+03 0. -1.
         -6    1    1    2    0  502 -0.12886341618E+03 -0.10533649154E+03 -0.25333560195E+03  0.34851755149E+03  0.17200000000E+03 0.  1.
</event>
<event>
 4    1 -0.3291270E-004  0.1865296E+03  0.7818608E-02  0.1161629E+00
         -5   -1    0    0    0  501 -0.00000000000E+00  0.00000000000E+00  0.84859477511E+03  0.84860779064E+03  0.47000000000E+01 0.  1.
          5   -1    0    0  501    0  0.00000000000E+00 -0.00000000000E+00 -0.13872694057E+03  0.13880653457E+03  0.47000000000E+01 0. -1.
          6    1    1    2  502    0  0.21666740684E+02 -0.68846584238E+02 -0.59475052733E+02  0.19578197494E+03  0.17200000000E+03 0. -1.
         -6    1    1    2    0  502 -0.21666740684E+02  0.68846584238E+02  0.76934288727E+03  0.79163235028E+03  0.17200000000E+03 0.  1.
</event>
<event>
 4    1 -0.3291270E-004  0.2157169E+03  0.7818608E-02  0.1137117E+00
          5   -1    0    0  501    0  0.00000000000E+00  0.00000000000E+00  0.19916429166E+03  0.19921974067E+03  0.47000000000E+01 0. -1.
         -5   -1    0    0    0  501 -0.00000000000E+00 -0.00000000000E+00 -0.23388265938E+03  0.23392987914E+03  0.47000000000E+01 0.  1.
          6    1    1    2  502    0  0.12512146823E+03  0.35977859955E+02 -0.25723890574E+02  0.21724526868E+03  0.17200000000E+03 0. -1.
         -6    1    1    2    0  502 -0.12512146823E+03 -0.35977859955E+02 -0.89944771434E+01  0.21590435113E+03  0.17200000000E+03 0. -1.
</event>
<event>
 4    1 -0.3291270E-004  0.4012438E+03  0.7818608E-02  0.1043350E+00
         -5   -1    0    0    0  501 -0.00000000000E+00  0.00000000000E+00  0.25169648281E+03  0.25174036120E+03  0.47000000000E+01 0.  1.
          5   -1    0    0  501    0  0.00000000000E+00 -0.00000000000E+00 -0.65016069523E+03  0.65017768312E+03  0.47000000000E+01 0. -1.
          6    1    1    2  502    0  0.35546058641E+03  0.71136471108E+02 -0.25687303001E+03  0.47642457909E+03  0.17200000000E+03 0. -1.
         -6    1    1    2    0  502 -0.35546058641E+03 -0.71136471108E+02 -0.14159118241E+03  0.42549346523E+03  0.17200000000E+03 0.  1.
</event>
<event>
 4    1 -0.3291270E-004  0.1736199E+03  0.7818608E-02  0.1174125E+00
         -5   -1    0    0    0  501 -0.00000000000E+00  0.00000000000E+00  0.69594696161E+03  0.69596283189E+03  0.47000000000E+01 0.  1.
          5   -1    0    0  501    0  0.00000000000E+00 -0.00000000000E+00 -0.73825953622E+02  0.73975410970E+02  0.47000000000E+01 0. -1.
          6    1    1    2  502    0  0.10956914187E+02 -0.20971978896E+02  0.63351873228E+02  0.18481703847E+03  0.17200000000E+03 0. -1.
         -6    1    1    2    0  502 -0.10956914187E+02  0.20971978896E+02  0.55876913476E+03  0.58512120439E+03  0.17200000000E+03 0.  1.
</event>
<event>
 4    1 -0.3291270E-004  0.5557608E+03  0.7818608E-02  0.1000169E+00
          5   -1    0    0  501    0  0.00000000000E+00  0.00000000000E+00  0.16395437622E+04  0.16395504988E+04  0.47000000000E+01 0. -1.
         -5   -1    0    0    0  501 -0.00000000000E+00 -0.00000000000E+00 -0.21574658868E+03  0.21579777693E+03  0.47000000000E+01 0.  1.
          6    1    1    2  502    0 -0.34981074175E+03  0.39612943360E+03  0.10424193173E+04  0.11813162643E+04  0.17200000000E+03 0. -1.
         -6    1    1    2    0  502  0.34981074175E+03 -0.39612943360E+03  0.38137785614E+03  0.67403201138E+03  0.17200000000E+03 0.  1.
</event>
<event>
 4    1 -0.3291270E-004  0.1847496E+03  0.7818608E-02  0.1163284E+00
         -5   -1    0    0    0  501 -0.00000000000E+00  0.00000000000E+00  0.71920577109E+02  0.72073985679E+02  0.47000000000E+01 0.  1.
          5   -1    0    0  501    0  0.00000000000E+00 -0.00000000000E+00 -0.47547567436E+03  0.47549890316E+03  0.47000000000E+01 0. -1.
          6    1    1    2  502    0  0.15889606931E+02 -0.65543502916E+02 -0.21746355152E+03  0.28534685318E+03  0.17200000000E+03 0. -1.
         -6    1    1    2    0  502 -0.15889606931E+02  0.65543502916E+02 -0.18609154573E+03  0.26222603565E+03  0.17200000000E+03 0.  1.
</event>
<event>
 4    1 -0.3291270E-004  0.1914664E+03  0.7818608E-02  0.1157145E+00
         -5   -1    0    0    0  501 -0.00000000000E+00  0.00000000000E+00  0.15325346437E+03  0.15332551758E+03  0.47000000000E+01 0.  1.
          5   -1    0    0  501    0  0.00000000000E+00 -0.00000000000E+00 -0.24305786639E+03  0.24310330400E+03  0.47000000000E+01 0. -1.
          6    1    1    2  502    0 -0.84049331884E+02  0.33315209846E+01 -0.70329238498E+02  0.20397448617E+03  0.17200000000E+03 0. -1.
         -6    1    1    2    0  502  0.84049331884E+02 -0.33315209846E+01 -0.19475163528E+02  0.19245433541E+03  0.17200000000E+03 0.  1.
</event>
<event>
 4    1 -0.3291270E-004  0.2205239E+03  0.7818608E-02  0.1133493E+00
          5   -1    0    0  501    0  0.00000000000E+00  0.00000000000E+00  0.13961959452E+04  0.13962038560E+04  0.47000000000E+01 0. -1.
         -5   -1    0    0    0  501 -0.00000000000E+00 -0.00000000000E+00 -0.53510959323E+02  0.53716969085E+02  0.47000000000E+01 0.  1.
          6    1    1    2  502    0 -0.29118368589E+02  0.13490341556E+03  0.11005019462E+04  0.11223793229E+04  0.17200000000E+03 0. -1.
         -6    1    1    2    0  502  0.29118368589E+02 -0.13490341556E+03  0.24218303975E+03  0.32754150220E+03  0.17200000000E+03 0.  1.
</event>
<event>
 4    1 -0.3291270E-004  0.2035723E+03  0.7818608E-02  0.1146760E+00
          5   -1    0    0  501    0  0.00000000000E+00  0.00000000000E+00  0.66224619320E+03  0.66226287108E+03  0.47000000000E+01 0. -1.
         -5   -1    0    0    0  501 -0.00000000000E+00 -0.00000000000E+00 -0.69098775054E+02  0.69258434245E+02  0.47000000000E+01 0.  1.
          6    1    1    2  502    0 -0.74426345376E+02  0.79488319555E+02  0.18345284384E+03  0.27403762469E+03  0.17200000000E+03 0. -1.
         -6    1    1    2    0  502  0.74426345376E+02 -0.79488319555E+02  0.40969457430E+03  0.45748368063E+03  0.17200000000E+03 0. -1.
</event>
<event>
 4    1 -0.3291270E-004  0.1859518E+03  0.7818608E-02  0.1162164E+00
         -5   -1    0    0    0  501 -0.00000000000E+00  0.00000000000E+00  0.45115192177E+02  0.45359349258E+02  0.47000000000E+01 0.  1.
          5   -1    0    0  501    0  0.00000000000E+00 -0.00000000000E+00 -0.10570902750E+04  0.10571007234E+04  0.47000000000E+01 0. -1.
          6    1    1    2  502    0  0.61946772814E+02  0.34009887653E+02 -0.79614645587E+03  0.81757400541E+03  0.17200000000E+03 0. -1.
         -6    1    1    2    0  502 -0.61946772814E+02 -0.34009887653E+02 -0.21582862691E+03  0.28488606726E+03  0.17200000000E+03 0. -1.
</event>
<event>
 4    1 -0.3291270E-004  0.1728641E+03  0.7818608E-02  0.1174894E+00
          5   -1    0    0  501    0  0.00000000000E+00  0.00000000000E+00  0.24839377149E+03  0.24843823320E+03  0.47000000000E+01 0. -1.
         -5   -1    0    0    0  501 -0.00000000000E+00 -0.00000000000E+00 -0.12217737534E+03  0.12226774327E+03  0.47000000000E+01 0.  1.
          6    1    1    2  502    0  0.10611517289E+02  0.13616432430E+02  0.39539877947E+02  0.17732854671E+03  0.17200000000E+03 0.  1.
         -6    1    1    2    0  502 -0.10611517289E+02 -0.13616432430E+02  0.86676518208E+02  0.19337742976E+03  0.17200000000E+03 0. -1.
</event>
<event>
 4    1 -0.3291270E-004  0.1936688E+03  0.7818608E-02  0.1155193E+00
          5   -1    0    0  501    0  0.00000000000E+00  0.00000000000E+00  0.85114858292E+03  0.85116155940E+03  0.47000000000E+01 0. -1.
         -5   -1    0    0    0  501 -0.00000000000E+00 -0.00000000000E+00 -0.56497633972E+02  0.56692791821E+02  0.47000000000E+01 0.  1.
          6    1    1    2  502    0 -0.85062451375E+02 -0.26229623309E+02  0.61098425277E+03  0.64094412463E+03  0.17200000000E+03 0. -1.
         -6    1    1    2    0  502  0.85062451375E+02  0.26229623309E+02  0.18366669618E+03  0.26691022659E+03  0.17200000000E+03 0.  1.
</event>
<event>
 4    1 -0.3291270E-004  0.2025552E+03  0.7818608E-02  0.1147601E+00
          5   -1    0    0  501    0  0.00000000000E+00  0.00000000000E+00  0.11686988370E+03  0.11696435233E+03  0.47000000000E+01 0. -1.
         -5   -1    0    0    0  501 -0.00000000000E+00 -0.00000000000E+00 -0.11442542773E+04  0.11442639298E+04  0.47000000000E+01 0.  1.
          6    1    1    2  502    0 -0.99971782264E+02  0.38082273123E+02  0.11403830364E+02  0.20287598212E+03  0.17200000000E+03 0. -1.
         -6    1    1    2    0  502  0.99971782264E+02 -0.38082273123E+02 -0.10387882240E+04  0.10583523001E+04  0.17200000000E+03 0.  1.
</event>
<event>
 4    1 -0.3291270E-004  0.3078166E+03  0.7818608E-02  0.1081397E+00
         -5   -1    0    0    0  501 -0.00000000000E+00  0.00000000000E+00  0.21496462012E+03  0.21501599453E+03  0.47000000000E+01 0.  1.
          5   -1    0    0  501    0  0.00000000000E+00 -0.00000000000E+00 -0.44475076100E+03  0.44477559444E+03  0.47000000000E+01 0. -1.
          6    1    1    2  502    0  0.19455368065E+03 -0.16527538936E+03 -0.83251924698E+02  0.31887610752E+03  0.17200000000E+03 0.  1.
         -6    1    1    2    0  502 -0.19455368065E+03  0.16527538936E+03 -0.14653421618E+03  0.34091548145E+03  0.17200000000E+03 0.  1.
</event>
<event>
 4    1 -0.3291270E-004  0.2118726E+03  0.7818608E-02  0.1140092E+00
          5   -1    0    0  501    0  0.00000000000E+00  0.00000000000E+00  0.12009968114E+03  0.12019161123E+03  0.47000000000E+01 0. -1.
         -5   -1    0    0    0  501 -0.00000000000E+00 -0.00000000000E+00 -0.63552214561E+03  0.63553952478E+03  0.47000000000E+01 0.  1.
          6    1    1    2  502    0 -0.96040703539E+02 -0.77988305478E+02 -0.15115909517E+02  0.21241111847E+03  0.17200000000E+03 0. -1.
         -6    1    1    2    0  502  0.96040703539E+02  0.77988305478E+02 -0.50030655496E+03  0.54332001754E+03  0.17200000000E+03 0.  1.
</event>
<event>
 4    1 -0.3291270E-004  0.1961890E+03  0.7818608E-02  0.1152995E+00
          5   -1    0    0  501    0  0.00000000000E+00  0.00000000000E+00  0.26158523577E+03  0.26162745570E+03  0.47000000000E+01 0. -1.
         -5   -1    0    0    0  501 -0.00000000000E+00 -0.00000000000E+00 -0.17963833513E+03  0.17969980926E+03  0.47000000000E+01 0.  1.
          6    1    1    2  502    0  0.56240732945E+02  0.75783152953E+02  0.13493023479E+03  0.23810979521E+03  0.17200000000E+03 0. -1.
         -6    1    1    2    0  502 -0.56240732945E+02 -0.75783152953E+02 -0.52983334149E+02  0.20321746975E+03  0.17200000000E+03 0.  1.
</event>
<event>
 4    1 -0.3291270E-004  0.2019670E+03  0.7818608E-02  0.1148090E+00
          5   -1    0    0  501    0  0.00000000000E+00  0.00000000000E+00  0.15087122114E+03  0.15094441151E+03  0.47000000000E+01 0. -1.
         -5   -1    0    0    0  501 -0.00000000000E+00 -0.00000000000E+00 -0.33564257506E+03  0.33567548048E+03  0.47000000000E+01 0.  1.
          6    1    1    2  502    0 -0.74237381705E+02  0.75468509005E+02  0.15026259052E+02  0.20252524078E+03  0.17200000000E+03 0. -1.
         -6    1    1    2    0  502  0.74237381705E+02 -0.75468509005E+02 -0.19979761297E+03  0.28409465121E+03  0.17200000000E+03 0.  1.
</event>
<event>
 4    1 -0.3291270E-004  0.3402716E+03  0.7818608E-02  0.1066680E+00
          5   -1    0    0  501    0  0.00000000000E+00  0.00000000000E+00  0.12713239146E+03  0.12721923974E+03  0.47000000000E+01 0. -1.
         -5   -1    0    0    0  501 -0.00000000000E+00 -0.00000000000E+00 -0.96584120929E+03  0.96585264485E+03  0.47000000000E+01 0.  1.
          6    1    1    2  502    0  0.26344108489E+03  0.12961300057E+03 -0.28834437531E+03  0.44601257146E+03  0.17200000000E+03 0. -1.
         -6    1    1    2    0  502 -0.26344108489E+03 -0.12961300057E+03 -0.55036444252E+03  0.64705931313E+03  0.17200000000E+03 0.  1.
</event>
<event>
 4    1 -0.3291270E-004  0.3744517E+03  0.7818608E-02  0.1053004E+00
         -5   -1    0    0    0  501 -0.00000000000E+00  0.00000000000E+00  0.28625380626E+03  0.28629238830E+03  0.47000000000E+01 0.  1.
          5   -1    0    0  501    0  0.00000000000E+00 -0.00000000000E+00 -0.76407474104E+03  0.76408919630E+03  0.47000000000E+01 0. -1.
          6    1    1    2  502    0  0.28795392758E+03  0.16647114065E+03 -0.55359263433E+03  0.66834041465E+03  0.17200000000E+03 0.  1.
         -6    1    1    2    0  502 -0.28795392758E+03 -0.16647114065E+03  0.75771699541E+02  0.38204116994E+03  0.17200000000E+03 0.  1.
</event>
<event>
 4    1 -0.3291270E-004  0.4931535E+03  0.7818608E-02  0.1015582E+00
         -5   -1    0    0    0  501 -0.00000000000E+00  0.00000000000E+00  0.26800915585E+03  0.26805036396E+03  0.47000000000E+01 0.  1.
          5   -1    0    0  501    0  0.00000000000E+00 -0.00000000000E+00 -0.91029087014E+03  0.91030300354E+03  0.47000000000E+01 0. -1.
          6    1    1    2  502    0  0.47413357925E+02  0.45974813455E+03 -0.35482105779E+03  0.60753465480E+03  0.17200000000E+03 0. -1.
         -6    1    1    2    0  502 -0.47413357925E+02 -0.45974813455E+03 -0.28746065650E+03  0.57081871270E+03  0.17200000000E+03 0.  1.
</event>
<event>
 4    1 -0.3291270E-004  0.2369186E+03  0.7818608E-02  0.1121863E+00
         -5   -1    0    0    0  501 -0.00000000000E+00  0.00000000000E+00  0.38405270213E+03  0.38408146013E+03  0.47000000000E+01 0.  1.
          5   -1    0    0  501    0  0.00000000000E+00 -0.00000000000E+00 -0.19863735959E+03  0.19869295565E+03  0.47000000000E+01 0. -1.
          6    1    1    2  502    0 -0.15111576236E+03  0.60913404345E+02 -0.57140015393E+02  0.24371171047E+03  0.17200000000E+03 0. -1.
         -6    1    1    2    0  502  0.15111576236E+03 -0.60913404345E+02  0.24255535794E+03  0.33906270530E+03  0.17200000000E+03 0.  1.
</event>
<event>
 4    1 -0.3291270E-004  0.2155892E+03  0.7818608E-02  0.1137215E+00
         -5   -1    0    0    0  501 -0.00000000000E+00  0.00000000000E+00  0.83871657652E+02  0.84003243731E+02  0.47000000000E+01 0.  1.
          5   -1    0    0  501    0  0.00000000000E+00 -0.00000000000E+00 -0.56864177442E+03  0.56866119756E+03  0.47000000000E+01 0. -1.
          6    1    1    2  502    0 -0.45494274719E+00  0.12997889251E+03 -0.29547268437E+03  0.36576334791E+03  0.17200000000E+03 0. -1.
         -6    1    1    2    0  502  0.45494274719E+00 -0.12997889251E+03 -0.18929743240E+03  0.28690109338E+03  0.17200000000E+03 0. -1.
</event>
<event>
 4    1 -0.3291270E-004  0.2322152E+03  0.7818608E-02  0.1125090E+00
          5   -1    0    0  501    0  0.00000000000E+00  0.00000000000E+00  0.30043495153E+03  0.30047171265E+03  0.47000000000E+01 0. -1.
         -5   -1    0    0    0  501 -0.00000000000E+00 -0.00000000000E+00 -0.18160157418E+03  0.18166238395E+03  0.47000000000E+01 0.  1.
          6    1    1    2  502    0 -0.15367305301E+03 -0.26915998768E+02  0.85906880995E+02  0.24759618416E+03  0.17200000000E+03 0. -1.
         -6    1    1    2    0  502  0.15367305301E+03  0.26915998768E+02  0.32926496363E+02  0.23453791244E+03  0.17200000000E+03 0.  1.
</event>
<event>
 4    1 -0.3291270E-004  0.2039731E+03  0.7818608E-02  0.1146430E+00
          5   -1    0    0  501    0  0.00000000000E+00  0.00000000000E+00  0.34605445486E+02  0.34923156462E+02  0.47000000000E+01 0. -1.
         -5   -1    0    0    0  501 -0.00000000000E+00 -0.00000000000E+00 -0.17875982735E+04  0.17876044521E+04  0.47000000000E+01 0.  1.
          6    1    1    2  502    0 -0.74271074488E+02  0.80652586392E+02 -0.35251363476E+03  0.40727250691E+03  0.17200000000E+03 0. -1.
         -6    1    1    2    0  502  0.74271074488E+02 -0.80652586392E+02 -0.14004791932E+04  0.14152551017E+04  0.17200000000E+03 0.  1.
</event>
<event>
 4    1 -0.3291270E-004  0.2345345E+03  0.7818608E-02  0.1123488E+00
         -5   -1    0    0    0  501 -0.00000000000E+00  0.00000000000E+00  0.66522070094E+02  0.66687898525E+02  0.47000000000E+01 0.  1.
          5   -1    0    0  501    0  0.00000000000E+00 -0.00000000000E+00 -0.82870914376E+03  0.82872247161E+03  0.47000000000E+01 0. -1.
          6    1    1    2  502    0 -0.13739006535E+02 -0.15885112722E+03 -0.40812161209E+03  0.47071189827E+03  0.17200000000E+03 0.  1.
         -6    1    1    2    0  502  0.13739006535E+02  0.15885112722E+03 -0.35406546158E+03  0.42469847186E+03  0.17200000000E+03 0. -1.
</event>
<event>
 4    1 -0.3291270E-004  0.3185695E+03  0.7818608E-02  0.1076310E+00
         -5   -1    0    0    0  501 -0.00000000000E+00  0.00000000000E+00  0.12481637086E+04  0.12481725576E+04  0.47000000000E+01 0.  1.
          5   -1    0    0  501    0  0.00000000000E+00 -0.00000000000E+00 -0.93949368740E+02  0.94066858599E+02  0.47000000000E+01 0. -1.
          6    1    1    2  502    0 -0.54103987114E+02  0.26263148736E+03  0.33036390934E+03  0.45894101164E+03  0.17200000000E+03 0. -1.
         -6    1    1    2    0  502  0.54103987114E+02 -0.26263148736E+03  0.82385043056E+03  0.88329840457E+03  0.17200000000E+03 0.  1.
</event>
<event>
 4    1 -0.3291270E-004  0.1863636E+03  0.7818608E-02  0.1161783E+00
         -5   -1    0    0    0  501 -0.00000000000E+00  0.00000000000E+00  0.10520353325E+04  0.10520458312E+04  0.47000000000E+01 0.  1.
          5   -1    0    0  501    0  0.00000000000E+00 -0.00000000000E+00 -0.39264368413E+02  0.39544666226E+02  0.47000000000E+01 0. -1.
          6    1    1    2  502    0 -0.16881243221E+02 -0.69730938609E+02  0.72634641006E+03  0.74987364775E+03  0.17200000000E+03 0.  1.
         -6    1    1    2    0  502  0.16881243221E+02  0.69730938609E+02  0.28642455405E+03  0.34171684965E+03  0.17200000000E+03 0. -1.
</event>
<event>
 4    1 -0.3291270E-004  0.1816599E+03  0.7818608E-02  0.1166206E+00
          5   -1    0    0  501    0  0.00000000000E+00  0.00000000000E+00  0.16499859734E+03  0.16506552372E+03  0.47000000000E+01 0. -1.
         -5   -1    0    0    0  501 -0.00000000000E+00 -0.00000000000E+00 -0.23314919680E+03  0.23319656509E+03  0.47000000000E+01 0.  1.
          6    1    1    2  502    0  0.44006443368E+02 -0.38467481235E+02  0.41140341320E+02  0.18626014564E+03  0.17200000000E+03 0. -1.
         -6    1    1    2    0  502 -0.44006443368E+02  0.38467481235E+02 -0.10929094079E+03  0.21200194317E+03  0.17200000000E+03 0.  1.
</event>
<event>
 4    1 -0.3291270E-004  0.4529631E+03  0.7818608E-02  0.1026842E+00
          5   -1    0    0  501    0  0.00000000000E+00  0.00000000000E+00  0.44661804497E+03  0.44664277459E+03  0.47000000000E+01 0. -1.
         -5   -1    0    0    0  501 -0.00000000000E+00 -0.00000000000E+00 -0.62237461803E+03  0.62239236432E+03  0.47000000000E+01 0.  1.
          6    1    1    2  502    0 -0.15786246402E+02  0.41873898184E+03  0.18567905504E+03  0.48954290105E+03  0.17200000000E+03 0. -1.
         -6    1    1    2    0  502  0.15786246402E+02 -0.41873898184E+03 -0.36143562809E+03  0.57949223786E+03  0.17200000000E+03 0.  1.
</event>
<event>
 4    1 -0.3291270E-004  0.2652091E+03  0.7818608E-02  0.1104053E+00
         -5   -1    0    0    0  501 -0.00000000000E+00  0.00000000000E+00  0.12470615993E+04  0.12470704561E+04  0.47000000000E+01 0.  1.
          5   -1    0    0  501    0  0.00000000000E+00 -0.00000000000E+00 -0.65096580311E+02  0.65266030738E+02  0.47000000000E+01 0. -1.
          6    1    1    2  502    0 -0.15819478325E+03 -0.12540449244E+03  0.35004975679E+03  0.43917047761E+03  0.17200000000E+03 0. -1.
         -6    1    1    2    0  502  0.15819478325E+03  0.12540449244E+03  0.83191526218E+03  0.87316600920E+03  0.17200000000E+03 0.  1.
</event>
<event>
 4    1 -0.3291270E-004  0.2345558E+03  0.7818608E-02  0.1123474E+00
          5   -1    0    0  501    0  0.00000000000E+00  0.00000000000E+00  0.48059001017E+03  0.48061299178E+03  0.47000000000E+01 0. -1.
         -5   -1    0    0    0  501 -0.00000000000E+00 -0.00000000000E+00 -0.14156254443E+03  0.14164054499E+03  0.47000000000E+01 0.  1.
          6    1    1    2  502    0  0.72571484844E+02 -0.14200631075E+03  0.30573868637E+03  0.38534732002E+03  0.17200000000E+03 0.  1.
         -6    1    1    2    0  502 -0.72571484844E+02  0.14200631075E+03  0.33288779369E+02  0.23690621676E+03  0.17200000000E+03 0.  1.
</event>
<event>
 4    1 -0.3291270E-004  0.4379668E+03  0.7818608E-02  0.1031372E+00
          5   -1    0    0  501    0  0.00000000000E+00  0.00000000000E+00  0.14177024642E+04  0.14177102550E+04  0.47000000000E+01 0. -1.
         -5   -1    0    0    0  501 -0.00000000000E+00 -0.00000000000E+00 -0.29303790866E+03  0.29307559760E+03  0.47000000000E+01 0.  1.
          6    1    1    2  502    0 -0.10619315028E+03 -0.38852792633E+03  0.11899416675E+04  0.12679811145E+04  0.17200000000E+03 0. -1.
         -6    1    1    2    0  502  0.10619315028E+03  0.38852792633E+03 -0.65277111942E+02  0.44280473806E+03  0.17200000000E+03 0.  1.
</event>
<event>
 4    1 -0.3291270E-004  0.1732353E+03  0.7818608E-02  0.1174515E+00
          5   -1    0    0  501    0  0.00000000000E+00  0.00000000000E+00  0.41731405595E+03  0.41734052199E+03  0.47000000000E+01 0. -1.
         -5   -1    0    0    0  501 -0.00000000000E+00 -0.00000000000E+00 -0.11978877887E+03  0.11988094738E+03  0.47000000000E+01 0.  1.
          6    1    1    2  502    0  0.18675052248E+02  0.88163584273E+01  0.31865698843E+03  0.36270202926E+03  0.17200000000E+03 0. -1.
         -6    1    1    2    0  502 -0.18675052248E+02 -0.88163584273E+01 -0.21131711346E+02  0.17451944011E+03  0.17200000000E+03 0.  1.
</event>
<event>
 4    1 -0.3291270E-004  0.1789168E+03  0.7818608E-02  0.1168856E+00
          5   -1    0    0  501    0  0.00000000000E+00  0.00000000000E+00  0.89140782343E+02  0.89264601476E+02  0.47000000000E+01 0. -1.
         -5   -1    0    0    0  501 -0.00000000000E+00 -0.00000000000E+00 -0.65056293590E+03  0.65057991328E+03  0.47000000000E+01 0.  1.
          6    1    1    2  502    0 -0.48941908058E+02  0.56486733725E+01 -0.32973993635E+02  0.18192993743E+03  0.17200000000E+03 0. -1.
         -6    1    1    2    0  502  0.48941908058E+02 -0.56486733725E+01 -0.52844815992E+03  0.55791457733E+03  0.17200000000E+03 0.  1.
</event>
<event>
 4    1 -0.3291270E-004  0.3232037E+03  0.7818608E-02  0.1074184E+00
         -5   -1    0    0    0  501 -0.00000000000E+00  0.00000000000E+00  0.66035970113E+03  0.66037642665E+03  0.47000000000E+01 0.  1.
          5   -1    0    0  501    0  0.00000000000E+00 -0.00000000000E+00 -0.16249459825E+03  0.16256255553E+03  0.47000000000E+01 0. -1.
          6    1    1    2  502    0  0.16623834749E+03  0.21735095562E+03  0.18154404434E+03  0.37070050731E+03  0.17200000000E+03 0. -1.
         -6    1    1    2    0  502 -0.16623834749E+03 -0.21735095562E+03  0.31632105854E+03  0.45223847488E+03  0.17200000000E+03 0.  1.
</event>
<event>
 4    1 -0.3291270E-004  0.1806188E+03  0.7818608E-02  0.1167205E+00
          5   -1    0    0  501    0  0.00000000000E+00  0.00000000000E+00  0.36002079412E+02  0.36307571138E+02  0.47000000000E+01 0. -1.
         -5   -1    0    0    0  501 -0.00000000000E+00 -0.00000000000E+00 -0.92968559797E+03  0.92969747825E+03  0.47000000000E+01 0.  1.
          6    1    1    2  502    0 -0.32389270695E+02 -0.44610552895E+02 -0.36351574104E+03  0.40591484362E+03  0.17200000000E+03 0. -1.
         -6    1    1    2    0  502  0.32389270695E+02  0.44610552895E+02 -0.53016777751E+03  0.56009020577E+03  0.17200000000E+03 0.  1.
</event>
<event>
 4    1 -0.3291270E-004  0.1802159E+03  0.7818608E-02  0.1167594E+00
          5   -1    0    0  501    0  0.00000000000E+00  0.00000000000E+00  0.10752398327E+03  0.10762665552E+03  0.47000000000E+01 0. -1.
         -5   -1    0    0    0  501 -0.00000000000E+00 -0.00000000000E+00 -0.36135569761E+03  0.36138626177E+03  0.47000000000E+01 0.  1.
          6    1    1    2  502    0  0.34337402282E+02 -0.41409203709E+02 -0.22211144832E+03  0.28602670298E+03  0.17200000000E+03 0.  1.
         -6    1    1    2    0  502 -0.34337402282E+02  0.41409203709E+02 -0.31720266027E+02  0.18298621430E+03  0.17200000000E+03 0. -1.
</event>
<event>
 4    1 -0.3291270E-004  0.2136088E+03  0.7818608E-02  0.1138740E+00
          5   -1    0    0  501    0  0.00000000000E+00  0.00000000000E+00  0.62971917054E+03  0.62973670986E+03  0.47000000000E+01 0. -1.
         -5   -1    0    0    0  501 -0.00000000000E+00 -0.00000000000E+00 -0.73188046646E+02  0.73338803998E+02  0.47000000000E+01 0.  1.
          6    1    1    2  502    0  0.71692236770E+02  0.10442683280E+03  0.31552219857E+03  0.38102886769E+03  0.17200000000E+03 0. -1.
         -6    1    1    2    0  502 -0.71692236770E+02 -0.10442683280E+03  0.24100892532E+03  0.32204664617E+03  0.17200000000E+03 0.  1.
</event>
<event>
 4    1 -0.3291270E-004  0.1734555E+03  0.7818608E-02  0.1174291E+00
         -5   -1    0    0    0  501 -0.00000000000E+00  0.00000000000E+00  0.22587513159E+03  0.22592402500E+03  0.47000000000E+01 0.  1.
          5   -1    0    0  501    0  0.00000000000E+00 -0.00000000000E+00 -0.25659560287E+03  0.25663864364E+03  0.47000000000E+01 0. -1.
          6    1    1    2  502    0  0.85904430281E+01  0.20712631749E+02  0.15199400960E+03  0.23062737864E+03  0.17200000000E+03 0.  1.
         -6    1    1    2    0  502 -0.85904430281E+01 -0.20712631749E+02 -0.18271448087E+03  0.25193529000E+03  0.17200000000E+03 0. -1.
</event>
<event>
 4    1 -0.3291270E-004  0.1735185E+03  0.7818608E-02  0.1174228E+00
          5   -1    0    0  501    0  0.00000000000E+00  0.00000000000E+00  0.98241049189E+02  0.98353412477E+02  0.47000000000E+01 0. -1.
         -5   -1    0    0    0  501 -0.00000000000E+00 -0.00000000000E+00 -0.30719162846E+03  0.30722758111E+03  0.47000000000E+01 0.  1.
          6    1    1    2  502    0  0.11164323994E+01  0.22878404241E+02 -0.11615635823E+03  0.20880844657E+03  0.17200000000E+03 0.  1.
         -6    1    1    2    0  502 -0.11164323994E+01 -0.22878404241E+02 -0.92794221044E+02  0.19677254702E+03  0.17200000000E+03 0.  1.
</event>
<event>
 4    1 -0.3291270E-004  0.2871580E+03  0.7818608E-02  0.1091842E+00
         -5   -1    0    0    0  501 -0.00000000000E+00  0.00000000000E+00  0.10370639115E+03  0.10381283912E+03  0.47000000000E+01 0.  1.
          5   -1    0    0  501    0  0.00000000000E+00 -0.00000000000E+00 -0.79616590435E+03  0.79617977697E+03  0.47000000000E+01 0. -1.
          6    1    1    2  502    0  0.19064726005E+03  0.12856658891E+03 -0.32631071136E+03  0.43467047967E+03  0.17200000000E+03 0. -1.
         -6    1    1    2    0  502 -0.19064726005E+03 -0.12856658891E+03 -0.36614880184E+03  0.46532213642E+03  0.17200000000E+03 0.  1.
</event>
<event>
 4    1 -0.3291270E-004  0.2809727E+03  0.7818608E-02  0.1095159E+00
         -5   -1    0    0    0  501 -0.00000000000E+00  0.00000000000E+00  0.10195524086E+04  0.10195632418E+04  0.47000000000E+01 0.  1.
          5   -1    0    0  501    0  0.00000000000E+00 -0.00000000000E+00 -0.99467178145E+02  0.99578157887E+02  0.47000000000E+01 0. -1.
          6    1    1    2  502    0  0.15018933928E+03 -0.16372171870E+03  0.19635570973E+03  0.34278448558E+03  0.17200000000E+03 0. -1.
         -6    1    1    2    0  502 -0.15018933928E+03  0.16372171870E+03  0.72372952076E+03  0.77635691407E+03  0.17200000000E+03 0.  1.
</event>
<event>
 4    1 -0.3291270E-004  0.3252391E+03  0.7818608E-02  0.1073263E+00
         -5   -1    0    0    0  501 -0.00000000000E+00  0.00000000000E+00  0.20479974825E+03  0.20485367188E+03  0.47000000000E+01 0.  1.
          5   -1    0    0  501    0  0.00000000000E+00 -0.00000000000E+00 -0.65591692198E+03  0.65593376079E+03  0.47000000000E+01 0. -1.
          6    1    1    2  502    0  0.24935269874E+03  0.11840487976E+03 -0.42406327654E+03  0.53442506156E+03  0.17200000000E+03 0. -1.
         -6    1    1    2    0  502 -0.24935269874E+03 -0.11840487976E+03 -0.27053897193E+02  0.32636237110E+03  0.17200000000E+03 0.  1.
</event>
<event>
 4    1 -0.3291270E-004  0.2957083E+03  0.7818608E-02  0.1087406E+00
          5   -1    0    0  501    0  0.00000000000E+00  0.00000000000E+00  0.17605844588E+03  0.17612116956E+03  0.47000000000E+01 0. -1.
         -5   -1    0    0    0  501 -0.00000000000E+00 -0.00000000000E+00 -0.87675224190E+03  0.87676483944E+03  0.47000000000E+01 0.  1.
          6    1    1    2  502    0  0.20034578978E+03  0.13312017758E+03 -0.36714831538E+01  0.29573112273E+03  0.17200000000E+03 0. -1.
         -6    1    1    2    0  502 -0.20034578978E+03 -0.13312017758E+03 -0.69702231286E+03  0.75715488626E+03  0.17200000000E+03 0.  1.
</event>
<event>
 4    1 -0.3291270E-004  0.1821963E+03  0.7818608E-02  0.1165694E+00
         -5   -1    0    0    0  501 -0.00000000000E+00  0.00000000000E+00  0.63860543589E+03  0.63862273116E+03  0.47000000000E+01 0.  1.
          5   -1    0    0  501    0  0.00000000000E+00 -0.00000000000E+00 -0.51927517481E+02  0.52139783963E+02  0.47000000000E+01 0. -1.
          6    1    1    2  502    0 -0.54068952698E+02 -0.26230802514E+02  0.30604134520E+03  0.35616963882E+03  0.17200000000E+03 0. -1.
         -6    1    1    2    0  502  0.54068952698E+02  0.26230802514E+02  0.28063657321E+03  0.33459287630E+03  0.17200000000E+03 0. -1.
</event>
<event>
 4    1 -0.3291270E-004  0.1937070E+03  0.7818608E-02  0.1155160E+00
          5   -1    0    0  501    0  0.00000000000E+00  0.00000000000E+00  0.11552418514E+03  0.11561975330E+03  0.47000000000E+01 0. -1.
         -5   -1    0    0    0  501 -0.00000000000E+00 -0.00000000000E+00 -0.36071992084E+03  0.36075053886E+03  0.47000000000E+01 0.  1.
          6    1    1    2  502    0 -0.43051462777E+01  0.88993593745E+02 -0.47192810807E+02  0.19937290539E+03  0.17200000000E+03 0.  1.
         -6    1    1    2    0  502  0.43051462777E+01 -0.88993593745E+02 -0.19800292489E+03  0.27699738677E+03  0.17200000000E+03 0.  1.
</event>
<event>
 4    1 -0.3291270E-004  0.1805876E+03  0.7818608E-02  0.1167236E+00
          5   -1    0    0  501    0  0.00000000000E+00  0.00000000000E+00  0.13675152808E+03  0.13683227117E+03  0.47000000000E+01 0. -1.
         -5   -1    0    0    0  501 -0.00000000000E+00 -0.00000000000E+00 -0.25126016458E+03  0.25130411916E+03  0.47000000000E+01 0.  1.
          6    1    1    2  502    0 -0.54548572869E+02 -0.72334556676E+01 -0.13191594526E+02  0.18106873791E+03  0.17200000000E+03 0. -1.
         -6    1    1    2    0  502  0.54548572869E+02  0.72334556676E+01 -0.10131704197E+03  0.20706765241E+03  0.17200000000E+03 0.  1.
</event>
<event>
 4    1 -0.3291270E-004  0.3126327E+03  0.7818608E-02  0.1079091E+00
          5   -1    0    0  501    0  0.00000000000E+00  0.00000000000E+00  0.21841152870E+03  0.21846209252E+03  0.47000000000E+01 0. -1.
         -5   -1    0    0    0  501 -0.00000000000E+00 -0.00000000000E+00 -0.45555090508E+03  0.45557514981E+03  0.47000000000E+01 0.  1.
          6    1    1    2  502    0 -0.23411165187E+03 -0.11552894070E+03 -0.73452840666E+02  0.32114563906E+03  0.17200000000E+03 0. -1.
         -6    1    1    2    0  502  0.23411165187E+03  0.11552894070E+03 -0.16368653572E+03  0.35289160327E+03  0.17200000000E+03 0.  1.
</event>
<event>
 4    1 -0.3291270E-004  0.2002738E+03  0.7818608E-02  0.1149508E+00
         -5   -1    0    0    0  501 -0.00000000000E+00  0.00000000000E+00  0.12254550215E+03  0.12263559882E+03  0.47000000000E+01 0.  1.
          5   -1    0    0  501    0  0.00000000000E+00 -0.00000000000E+00 -0.37967170646E+03  0.37970079627E+03  0.47000000000E+01 0. -1.
          6    1    1    2  502    0  0.10237628291E+03 -0.66842743436E+01 -0.22203150362E+03  0.29901098881E+03  0.17200000000E+03 0. -1.
         -6    1    1    2    0  502 -0.10237628291E+03  0.66842743436E+01 -0.35094700687E+02  0.20332540629E+03  0.17200000000E+03 0.  1.
</event>
<event>
 4    1 -0.3291270E-004  0.2107200E+03  0.7818608E-02  0.1140997E+00
          5   -1    0    0  501    0  0.00000000000E+00  0.00000000000E+00  0.13989306130E+03  0.13997199220E+03  0.47000000000E+01 0. -1.
         -5   -1    0    0    0  501 -0.00000000000E+00 -0.00000000000E+00 -0.45743742015E+03  0.45746156489E+03  0.47000000000E+01 0.  1.
          6    1    1    2  502    0 -0.35815043160E+02 -0.11634525680E+03  0.65924610220E+01  0.21082314066E+03  0.17200000000E+03 0. -1.
         -6    1    1    2    0  502  0.35815043160E+02  0.11634525680E+03 -0.32413681987E+03  0.38661041643E+03  0.17200000000E+03 0.  1.
</event>
<event>
 4    1 -0.3291270E-004  0.1729593E+03  0.7818608E-02  0.1174796E+00
         -5   -1    0    0    0  501 -0.00000000000E+00  0.00000000000E+00  0.68047828536E+03  0.68049451640E+03  0.47000000000E+01 0.  1.
          5   -1    0    0  501    0  0.00000000000E+00 -0.00000000000E+00 -0.45280961828E+02  0.45524229857E+02  0.47000000000E+01 0. -1.
          6    1    1    2  502    0  0.10291270945E+02  0.15000650993E+02  0.38263234873E+03  0.41990766138E+03  0.17200000000E+03 0.  1.
         -6    1    1    2    0  502 -0.10291270945E+02 -0.15000650993E+02  0.25256497480E+03  0.30611108488E+03  0.17200000000E+03 0. -1.
</event>
<event>
 4    1 -0.3291270E-004  0.2890627E+03  0.7818608E-02  0.1090840E+00
          5   -1    0    0  501    0  0.00000000000E+00  0.00000000000E+00  0.11029323111E+03  0.11039332783E+03  0.47000000000E+01 0. -1.
         -5   -1    0    0    0  501 -0.00000000000E+00 -0.00000000000E+00 -0.19438491331E+04  0.19438548151E+04  0.47000000000E+01 0.  1.
          6    1    1    2  502    0 -0.21511897462E+03  0.87733040530E+02 -0.11426639645E+03  0.31082803766E+03  0.17200000000E+03 0. -1.
         -6    1    1    2    0  502  0.21511897462E+03 -0.87733040530E+02 -0.17192895056E+04  0.17434201053E+04  0.17200000000E+03 0.  1.
</event>
<event>
 4    1 -0.3291270E-004  0.4052751E+03  0.7818608E-02  0.1041968E+00
          5   -1    0    0  501    0  0.00000000000E+00  0.00000000000E+00  0.13259159248E+03  0.13267486723E+03  0.47000000000E+01 0. -1.
         -5   -1    0    0    0  501 -0.00000000000E+00 -0.00000000000E+00 -0.12471393111E+04  0.12471481673E+04  0.47000000000E+01 0.  1.
          6    1    1    2  502    0 -0.33517576075E+03 -0.14940243085E+03 -0.49910718832E+03  0.64292757164E+03  0.17200000000E+03 0.  1.
         -6    1    1    2    0  502  0.33517576075E+03  0.14940243085E+03 -0.61544053028E+03  0.73689546291E+03  0.17200000000E+03 0.  1.
</event>
<event>
 4    1 -0.3291270E-004  0.2100418E+03  0.7818608E-02  0.1141533E+00
          5   -1    0    0  501    0  0.00000000000E+00  0.00000000000E+00  0.42153145670E+03  0.42155765796E+03  0.47000000000E+01 0. -1.
         -5   -1    0    0    0  501 -0.00000000000E+00 -0.00000000000E+00 -0.17741967548E+03  0.17748191809E+03  0.47000000000E+01 0.  1.
          6    1    1    2  502    0  0.11596249908E+03 -0.32958234914E+02  0.31391397988E+03  0.37770296954E+03  0.17200000000E+03 0. -1.
         -6    1    1    2    0  502 -0.11596249908E+03  0.32958234914E+02 -0.69802198658E+02  0.22133660650E+03  0.17200000000E+03 0.  1.
</event>
<event>
 4    1 -0.3291270E-004  0.2410321E+03  0.7818608E-02  0.1119107E+00
         -5   -1    0    0    0  501 -0.00000000000E+00  0.00000000000E+00  0.12998178477E+03  0.13006673046E+03  0.47000000000E+01 0.  1.
          5   -1    0    0  501    0  0.00000000000E+00 -0.00000000000E+00 -0.44717490784E+03  0.44719960666E+03  0.47000000000E+01 0. -1.
          6    1    1    2  502    0 -0.14816616767E+03  0.80989164198E+02 -0.14934273558E+03  0.28354842731E+03  0.17200000000E+03 0. -1.
         -6    1    1    2    0  502  0.14816616767E+03 -0.80989164198E+02 -0.16785038749E+03  0.29371790981E+03  0.17200000000E+03 0.  1.
</event>
<event>
 4    1 -0.3291270E-004  0.1788869E+03  0.7818608E-02  0.1168885E+00
         -5   -1    0    0    0  501 -0.00000000000E+00  0.00000000000E+00  0.21542796942E+02  0.22049537412E+02  0.47000000000E+01 0.  1.
          5   -1    0    0  501    0  0.00000000000E+00 -0.00000000000E+00 -0.14905148504E+04  0.14905222606E+04  0.47000000000E+01 0. -1.
          6    1    1    2  502    0  0.39462137114E+02 -0.29313303814E+02 -0.64085603812E+03  0.66535478629E+03  0.17200000000E+03 0.  1.
         -6    1    1    2    0  502 -0.39462137114E+02  0.29313303814E+02 -0.82811601538E+03  0.84721701173E+03  0.17200000000E+03 0. -1.
</event>
<event>
 4    1 -0.3291270E-004  0.1847297E+03  0.7818608E-02  0.1163303E+00
         -5   -1    0    0    0  501 -0.00000000000E+00  0.00000000000E+00  0.10975188367E+04  0.10975289002E+04  0.47000000000E+01 0.  1.
          5   -1    0    0  501    0  0.00000000000E+00 -0.00000000000E+00 -0.41698258093E+02  0.41962301271E+02  0.47000000000E+01 0. -1.
          6    1    1    2  502    0  0.14405087263E+02 -0.65829670999E+02  0.23914920051E+03  0.30218767716E+03  0.17200000000E+03 0. -1.
         -6    1    1    2    0  502 -0.14405087263E+02  0.65829670999E+02  0.81667137809E+03  0.83730352436E+03  0.17200000000E+03 0.  1.
</event>
<event>
 4    1 -0.3291270E-004  0.1809489E+03  0.7818608E-02  0.1166888E+00
         -5   -1    0    0    0  501 -0.00000000000E+00  0.00000000000E+00  0.38882098936E+03  0.38884939471E+03  0.47000000000E+01 0.  1.
          5   -1    0    0  501    0  0.00000000000E+00 -0.00000000000E+00 -0.16162555758E+03  0.16169388010E+03  0.47000000000E+01 0. -1.
          6    1    1    2  502    0 -0.51916836335E+02  0.21520589744E+02 -0.76957769118E+02  0.19663415753E+03  0.17200000000E+03 0. -1.
         -6    1    1    2    0  502  0.51916836335E+02 -0.21520589744E+02  0.30415320090E+03  0.35390911728E+03  0.17200000000E+03 0.  1.
</event>
<event>
 4    1 -0.3291270E-004  0.1811205E+03  0.7818608E-02  0.1166723E+00
         -5   -1    0    0    0  501 -0.00000000000E+00  0.00000000000E+00  0.11149336655E+03  0.11159238677E+03  0.47000000000E+01 0.  1.
          5   -1    0    0  501    0  0.00000000000E+00 -0.00000000000E+00 -0.37954173166E+03  0.37957083142E+03  0.47000000000E+01 0. -1.
          6    1    1    2  502    0  0.57546225933E+01 -0.56458048126E+02 -0.17443226600E+02  0.18195849261E+03  0.17200000000E+03 0.  1.
         -6    1    1    2    0  502 -0.57546225933E+01  0.56458048126E+02 -0.25060513850E+03  0.30920472558E+03  0.17200000000E+03 0. -1.
</event>
<event>
 4    1 -0.3291270E-004  0.2093322E+03  0.7818608E-02  0.1142096E+00
         -5   -1    0    0    0  501 -0.00000000000E+00  0.00000000000E+00  0.60251308238E+03  0.60253141365E+03  0.47000000000E+01 0.  1.
          5   -1    0    0  501    0  0.00000000000E+00 -0.00000000000E+00 -0.10772513360E+03  0.10782761431E+03  0.47000000000E+01 0. -1.
          6    1    1    2  502    0  0.11566976194E+03  0.29265789434E+02  0.44997526241E+03  0.49628390770E+03  0.17200000000E+03 0. -1.
         -6    1    1    2    0  502 -0.11566976194E+03 -0.29265789434E+02  0.44812686367E+02  0.21407512027E+03  0.17200000000E+03 0. -1.
</event>
<event>
 4    1 -0.3291270E-004  0.2178368E+03  0.7818608E-02  0.1135506E+00
          5   -1    0    0  501    0  0.00000000000E+00  0.00000000000E+00  0.75500170595E+02  0.75646320200E+02  0.47000000000E+01 0. -1.
         -5   -1    0    0    0  501 -0.00000000000E+00 -0.00000000000E+00 -0.13506409513E+04  0.13506491289E+04  0.47000000000E+01 0.  1.
          6    1    1    2  502    0  0.87056587207E+02 -0.10143972025E+03 -0.11587119539E+03  0.24673670206E+03  0.17200000000E+03 0. -1.
         -6    1    1    2    0  502 -0.87056587207E+02  0.10143972025E+03 -0.11592695853E+04  0.11795587470E+04  0.17200000000E+03 0.  1.
</event>
<event>
 4    1 -0.3291270E-004  0.2076552E+03  0.7818608E-02  0.1143436E+00
          5   -1    0    0  501    0  0.00000000000E+00  0.00000000000E+00  0.14055860470E+03  0.14063716207E+03  0.47000000000E+01 0. -1.
         -5   -1    0    0    0  501 -0.00000000000E+00 -0.00000000000E+00 -0.46200801395E+03  0.46203191984E+03  0.47000000000E+01 0.  1.
          6    1    1    2  502    0  0.11046421671E+03  0.36528484186E+02  0.14023211629E+02  0.20812814273E+03  0.17200000000E+03 0. -1.
         -6    1    1    2    0  502 -0.11046421671E+03 -0.36528484186E+02 -0.33547262088E+03  0.39454093918E+03  0.17200000000E+03 0.  1.
</event>
<event>
 4    1 -0.3291270E-004  0.2486958E+03  0.7818608E-02  0.1114132E+00
         -5   -1    0    0    0  501 -0.00000000000E+00  0.00000000000E+00  0.16462257588E+03  0.16468965507E+03  0.47000000000E+01 0.  1.
          5   -1    0    0  501    0  0.00000000000E+00 -0.00000000000E+00 -0.50692731830E+03  0.50694910597E+03  0.47000000000E+01 0. -1.
          6    1    1    2  502    0 -0.12104497888E+03 -0.13271664583E+03 -0.34209807187E+03  0.42294288712E+03  0.17200000000E+03 0. -1.
         -6    1    1    2    0  502  0.12104497888E+03  0.13271664583E+03 -0.20667055193E+00  0.24869587392E+03  0.17200000000E+03 0.  1.
</event>
<event>
 4    1 -0.3291270E-004  0.1795746E+03  0.7818608E-02  0.1168215E+00
         -5   -1    0    0    0  501 -0.00000000000E+00  0.00000000000E+00  0.43446113251E+03  0.43448655407E+03  0.47000000000E+01 0.  1.
          5   -1    0    0  501    0  0.00000000000E+00 -0.00000000000E+00 -0.75498182784E+02  0.75644336230E+02  0.47000000000E+01 0. -1.
          6    1    1    2  502    0 -0.17495677193E+02 -0.48548466990E+02  0.21389036353E+03  0.27927789024E+03  0.17200000000E+03 0.  1.
         -6    1    1    2    0  502  0.17495677193E+02  0.48548466990E+02  0.14507258620E+03  0.23085300006E+03  0.17200000000E+03 0.  1.
</event>
<event>
 4    1 -0.3291270E-004  0.1787028E+03  0.7818608E-02  0.1169064E+00
         -5   -1    0    0    0  501 -0.00000000000E+00  0.00000000000E+00  0.10481420914E+03  0.10491953315E+03  0.47000000000E+01 0.  1.
          5   -1    0    0  501    0  0.00000000000E+00 -0.00000000000E+00 -0.31223658959E+03  0.31227196140E+03  0.47000000000E+01 0. -1.
          6    1    1    2  502    0 -0.47458408782E+02  0.99184600936E+01 -0.13674527037E+03  0.22501987775E+03  0.17200000000E+03 0. -1.
         -6    1    1    2    0  502  0.47458408782E+02 -0.99184600936E+01 -0.70677110080E+02  0.19217161680E+03  0.17200000000E+03 0.  1.
</event>
<event>
 4    1 -0.3291270E-004  0.2889930E+03  0.7818608E-02  0.1090876E+00
          5   -1    0    0  501    0  0.00000000000E+00  0.00000000000E+00  0.47095878626E+03  0.47098223783E+03  0.47000000000E+01 0. -1.
         -5   -1    0    0    0  501 -0.00000000000E+00 -0.00000000000E+00 -0.25685143837E+03  0.25689443628E+03  0.47000000000E+01 0.  1.
          6    1    1    2  502    0  0.67904450126E+02  0.22208541586E+03  0.30959567998E+03  0.42351674270E+03  0.17200000000E+03 0. -1.
         -6    1    1    2    0  502 -0.67904450126E+02 -0.22208541586E+03 -0.95488332092E+02  0.30435993141E+03  0.17200000000E+03 0.  1.
</event>
<event>
 4    1 -0.3291270E-004  0.1818132E+03  0.7818608E-02  0.1166060E+00
         -5   -1    0    0    0  501 -0.00000000000E+00  0.00000000000E+00  0.28573742749E+03  0.28577607924E+03  0.47000000000E+01 0.  1.
          5   -1    0    0  501    0  0.00000000000E+00 -0.00000000000E+00 -0.13011377427E+03  0.13019863384E+03  0.47000000000E+01 0. -1.
          6    1    1    2  502    0  0.19389047403E+02  0.55642537819E+02  0.83633273989E+01  0.18200541865E+03  0.17200000000E+03 0. -1.
         -6    1    1    2    0  502 -0.19389047403E+02 -0.55642537819E+02  0.14726032582E+03  0.23396929443E+03  0.17200000000E+03 0. -1.
</event>
<event>
 4    1 -0.3291270E-004  0.2062697E+03  0.7818608E-02  0.1144554E+00
          5   -1    0    0  501    0  0.00000000000E+00  0.00000000000E+00  0.31263198996E+03  0.31266731704E+03  0.47000000000E+01 0. -1.
         -5   -1    0    0    0  501 -0.00000000000E+00 -0.00000000000E+00 -0.13943665119E+03  0.13951584030E+03  0.47000000000E+01 0.  1.
          6    1    1    2  502    0  0.80675592227E+02  0.80340874201E+02  0.12202617231E+03  0.23966141529E+03  0.17200000000E+03 0. -1.
         -6    1    1    2    0  502 -0.80675592227E+02 -0.80340874201E+02  0.51169166458E+02  0.21252174205E+03  0.17200000000E+03 0.  1.
</event>
<event>
 4    1 -0.3291270E-004  0.1994423E+03  0.7818608E-02  0.1150210E+00
         -5   -1    0    0    0  501 -0.00000000000E+00  0.00000000000E+00  0.47859089556E+02  0.48089317453E+02  0.47000000000E+01 0.  1.
          5   -1    0    0  501    0  0.00000000000E+00 -0.00000000000E+00 -0.87291149983E+03  0.87292415279E+03  0.47000000000E+01 0. -1.
          6    1    1    2  502    0 -0.10092099591E+03  0.28596855328E+01 -0.30913845486E+03  0.36789102937E+03  0.17200000000E+03 0.  1.
         -6    1    1    2    0  502  0.10092099591E+03 -0.28596855328E+01 -0.51591395541E+03  0.55312244088E+03  0.17200000000E+03 0.  1.
</event>
<event>
 4    1 -0.3291270E-004  0.1791081E+03  0.7818608E-02  0.1168669E+00
         -5   -1    0    0    0  501 -0.00000000000E+00  0.00000000000E+00  0.10660263764E+03  0.10670619641E+03  0.47000000000E+01 0.  1.
          5   -1    0    0  501    0  0.00000000000E+00 -0.00000000000E+00 -0.32043820213E+03  0.32047266870E+03  0.47000000000E+01 0. -1.
          6    1    1    2  502    0  0.30540218592E+02 -0.39535037920E+02 -0.53865204539E+02  0.18703257587E+03  0.17200000000E+03 0.  1.
         -6    1    1    2    0  502 -0.30540218592E+02  0.39535037920E+02 -0.15997035995E+03  0.24014628924E+03  0.17200000000E+03 0. -1.
</event>
<event>
 4    1 -0.3291270E-004  0.2132741E+03  0.7818608E-02  0.1138999E+00
          5   -1    0    0  501    0  0.00000000000E+00  0.00000000000E+00  0.11967693618E+03  0.11976919075E+03  0.47000000000E+01 0. -1.
         -5   -1    0    0    0  501 -0.00000000000E+00 -0.00000000000E+00 -0.56523947272E+03  0.56525901277E+03  0.47000000000E+01 0.  1.
          6    1    1    2  502    0 -0.10728716775E+03 -0.66266902813E+02 -0.26627486109E+02  0.21492989971E+03  0.17200000000E+03 0. -1.
         -6    1    1    2    0  502  0.10728716775E+03  0.66266902813E+02 -0.41893505043E+03  0.47009830381E+03  0.17200000000E+03 0.  1.
</event>
<event>
 4    1 -0.3291270E-004  0.2384282E+03  0.7818608E-02  0.1120844E+00
         -5   -1    0    0    0  501 -0.00000000000E+00  0.00000000000E+00  0.23224215765E+03  0.23228971090E+03  0.47000000000E+01 0.  1.
          5   -1    0    0  501    0  0.00000000000E+00 -0.00000000000E+00 -0.34879378080E+03  0.34882544564E+03  0.47000000000E+01 0. -1.
          6    1    1    2  502    0  0.88173525872E+02 -0.13960459869E+03 -0.21699899717E+03  0.32239196549E+03  0.17200000000E+03 0. -1.
         -6    1    1    2    0  502 -0.88173525872E+02  0.13960459869E+03  0.10044737402E+03  0.25872319105E+03  0.17200000000E+03 0.  1.
</event>
<event>
 4    1 -0.3291270E-004  0.1910887E+03  0.7818608E-02  0.1157483E+00
         -5   -1    0    0    0  501 -0.00000000000E+00  0.00000000000E+00  0.21351888042E+04  0.21351939771E+04  0.47000000000E+01 0.  1.
          5   -1    0    0  501    0  0.00000000000E+00 -0.00000000000E+00 -0.26490400296E+02  0.26904113214E+02  0.47000000000E+01 0. -1.
          6    1    1    2  502    0  0.81687336298E+02  0.16064009404E+02  0.40612127490E+03  0.44883110770E+03  0.17200000000E+03 0. -1.
         -6    1    1    2    0  502 -0.81687336298E+02 -0.16064009404E+02  0.17025771290E+04  0.17132669826E+04  0.17200000000E+03 0.  1.
</event>
<event>
 4    1 -0.3291270E-004  0.2558266E+03  0.7818608E-02  0.1109677E+00
          5   -1    0    0  501    0  0.00000000000E+00  0.00000000000E+00  0.22000834909E+03  0.22005854600E+03  0.47000000000E+01 0. -1.
         -5   -1    0    0    0  501 -0.00000000000E+00 -0.00000000000E+00 -0.29859822868E+03  0.29863521589E+03  0.47000000000E+01 0.  1.
          6    1    1    2  502    0 -0.16791962443E+03  0.87557011791E+02 -0.22687303756E+02  0.25683057516E+03  0.17200000000E+03 0. -1.
         -6    1    1    2    0  502  0.16791962443E+03 -0.87557011791E+02 -0.55902575835E+02  0.26186318674E+03  0.17200000000E+03 0.  1.
</event>
<event>
 4    1 -0.3291270E-004  0.1990631E+03  0.7818608E-02  0.1150532E+00
          5   -1    0    0  501    0  0.00000000000E+00  0.00000000000E+00  0.12216413971E+03  0.12225451742E+03  0.47000000000E+01 0. -1.
         -5   -1    0    0    0  501 -0.00000000000E+00 -0.00000000000E+00 -0.52036080433E+03  0.52038202956E+03  0.47000000000E+01 0.  1.
          6    1    1    2  502    0  0.96848666442E+02  0.25738538702E+02 -0.39638862282E+03  0.44356518897E+03  0.17200000000E+03 0.  1.
         -6    1    1    2    0  502 -0.96848666442E+02 -0.25738538702E+02 -0.18080418084E+01  0.19907135801E+03  0.17200000000E+03 0. -1.
</event>
<event>
 4    1 -0.3291270E-004  0.2564631E+03  0.7818608E-02  0.1109287E+00
          5   -1    0    0  501    0  0.00000000000E+00  0.00000000000E+00  0.78250157287E+02  0.78391180087E+02  0.47000000000E+01 0. -1.
         -5   -1    0    0    0  501 -0.00000000000E+00 -0.00000000000E+00 -0.90325214527E+03  0.90326437322E+03  0.47000000000E+01 0.  1.
          6    1    1    2  502    0  0.12837099871E+03  0.14039304299E+03 -0.28226475328E+03  0.38137476421E+03  0.17200000000E+03 0. -1.
         -6    1    1    2    0  502 -0.12837099871E+03 -0.14039304299E+03 -0.54273723470E+03  0.60028078910E+03  0.17200000000E+03 0.  1.
</event>
<event>
 4    1 -0.3291270E-004  0.1741859E+03  0.7818608E-02  0.1173552E+00
         -5   -1    0    0    0  501 -0.00000000000E+00  0.00000000000E+00  0.21518506551E+03  0.21523638730E+03  0.47000000000E+01 0.  1.
          5   -1    0    0  501    0  0.00000000000E+00 -0.00000000000E+00 -0.17819990155E+03  0.17826187173E+03  0.47000000000E+01 0. -1.
          6    1    1    2  502    0 -0.17853280514E+02  0.20928563395E+02 -0.71502134388E+02  0.18829046607E+03  0.17200000000E+03 0. -1.
         -6    1    1    2    0  502  0.17853280514E+02 -0.20928563395E+02  0.10848729834E+03  0.20520779296E+03  0.17200000000E+03 0.  1.
</event>
<event>
 4    1 -0.3291270E-004  0.4113650E+03  0.7818608E-02  0.1039914E+00
          5   -1    0    0  501    0  0.00000000000E+00  0.00000000000E+00  0.68527477528E+03  0.68529089271E+03  0.47000000000E+01 0. -1.
         -5   -1    0    0    0  501 -0.00000000000E+00 -0.00000000000E+00 -0.24829587688E+03  0.24834035612E+03  0.47000000000E+01 0.  1.
          6    1    1    2  502    0 -0.37232503343E+03  0.31799915441E+02  0.25351460271E+03  0.48320887712E+03  0.17200000000E+03 0. -1.
         -6    1    1    2    0  502  0.37232503343E+03 -0.31799915441E+02  0.18346429569E+03  0.45042237171E+03  0.17200000000E+03 0.  1.
</event>
<event>
 4    1 -0.3291270E-004  0.1887663E+03  0.7818608E-02  0.1159579E+00
         -5   -1    0    0    0  501 -0.00000000000E+00  0.00000000000E+00  0.80468233306E+03  0.80469605886E+03  0.47000000000E+01 0.  1.
          5   -1    0    0  501    0  0.00000000000E+00 -0.00000000000E+00 -0.64150850001E+02  0.64322791885E+02  0.47000000000E+01 0. -1.
          6    1    1    2  502    0 -0.20568505314E+01 -0.77746377443E+02  0.12802844483E+03  0.22808772989E+03  0.17200000000E+03 0. -1.
         -6    1    1    2    0  502  0.20568505314E+01  0.77746377443E+02  0.61250303823E+03  0.64093112086E+03  0.17200000000E+03 0.  1.
</event>
<event>
 4    1 -0.3291270E-004  0.2204999E+03  0.7818608E-02  0.1133511E+00
         -5   -1    0    0    0  501 -0.00000000000E+00  0.00000000000E+00  0.13365574748E+03  0.13373835962E+03  0.47000000000E+01 0.  1.
          5   -1    0    0  501    0  0.00000000000E+00 -0.00000000000E+00 -0.63373977135E+03  0.63375719940E+03  0.47000000000E+01 0. -1.
          6    1    1    2  502    0 -0.45530252816E+02  0.13024277366E+03 -0.50058316316E+03  0.54699514372E+03  0.17200000000E+03 0. -1.
         -6    1    1    2    0  502  0.45530252816E+02 -0.13024277366E+03  0.49913928436E+00  0.22050041531E+03  0.17200000000E+03 0.  1.
</event>
<event>
 4    1 -0.3291270E-004  0.6258247E+03  0.7818608E-02  0.9853231E-01
          5   -1    0    0  501    0  0.00000000000E+00  0.00000000000E+00  0.13776884477E+03  0.13784899197E+03  0.47000000000E+01 0. -1.
         -5   -1    0    0    0  501 -0.00000000000E+00 -0.00000000000E+00 -0.31453716073E+04  0.31453751188E+04  0.47000000000E+01 0.  1.
          6    1    1    2  502    0  0.60143436974E+03 -0.18689877509E+02 -0.20136672498E+04  0.21086755098E+04  0.17200000000E+03 0. -1.
         -6    1    1    2    0  502 -0.60143436974E+03  0.18689877509E+02 -0.99393551273E+03  0.11745486010E+04  0.17200000000E+03 0.  1.
</event>
<event>
 4    1 -0.3291270E-004  0.2368880E+03  0.7818608E-02  0.1121883E+00
         -5   -1    0    0    0  501 -0.00000000000E+00  0.00000000000E+00  0.10997765419E+04  0.10997865848E+04  0.47000000000E+01 0.  1.
          5   -1    0    0  501    0  0.00000000000E+00 -0.00000000000E+00 -0.51381305144E+02  0.51595818807E+02  0.47000000000E+01 0. -1.
          6    1    1    2  502    0 -0.10556369353E+03 -0.12404932323E+03  0.46896726622E+03  0.52540101330E+03  0.17200000000E+03 0. -1.
         -6    1    1    2    0  502  0.10556369353E+03  0.12404932323E+03  0.57942797056E+03  0.62598139034E+03  0.17200000000E+03 0. -1.
</event>
<event>
 4    1 -0.3291270E-004  0.3598574E+03  0.7818608E-02  0.1058640E+00
         -5   -1    0    0    0  501 -0.00000000000E+00  0.00000000000E+00  0.28774549035E+03  0.28778387240E+03  0.47000000000E+01 0.  1.
          5   -1    0    0  501    0  0.00000000000E+00 -0.00000000000E+00 -0.45115335939E+03  0.45117784042E+03  0.47000000000E+01 0. -1.
          6    1    1    2  502    0  0.30411793389E+03  0.86172033933E+02 -0.10070077499E+03  0.37368166028E+03  0.17200000000E+03 0.  1.
         -6    1    1    2    0  502 -0.30411793389E+03 -0.86172033933E+02 -0.62707094053E+02  0.36528005255E+03  0.17200000000E+03 0. -1.
</event>
<event>
 4    1 -0.3291270E-004  0.3472159E+03  0.7818608E-02  0.1063764E+00
         -5   -1    0    0    0  501 -0.00000000000E+00  0.00000000000E+00  0.84414361503E+03  0.84415669919E+03  0.47000000000E+01 0.  1.
          5   -1    0    0  501    0  0.00000000000E+00 -0.00000000000E+00 -0.28499861290E+03  0.28503736484E+03  0.47000000000E+01 0. -1.
          6    1    1    2  502    0 -0.30159419231E+03  0.39774564184E+01 -0.11923561161E+03  0.36711852047E+03  0.17200000000E+03 0. -1.
         -6    1    1    2    0  502  0.30159419231E+03 -0.39774564184E+01  0.67838061374E+03  0.76207554356E+03  0.17200000000E+03 0.  1.
</event>
<event>
 4    1 -0.3291270E-004  0.2047930E+03  0.7818608E-02  0.1145757E+00
          5   -1    0    0  501    0  0.00000000000E+00  0.00000000000E+00  0.34805709785E+03  0.34808882970E+03  0.47000000000E+01 0. -1.
         -5   -1    0    0    0  501 -0.00000000000E+00 -0.00000000000E+00 -0.13291065983E+03  0.13299373480E+03  0.47000000000E+01 0.  1.
          6    1    1    2  502    0 -0.44823086590E+02 -0.10172053138E+03  0.18129510471E+03  0.27351067728E+03  0.17200000000E+03 0.  1.
         -6    1    1    2    0  502  0.44823086590E+02  0.10172053138E+03  0.33851333315E+02  0.20757188722E+03  0.17200000000E+03 0.  1.
</event>
<event>
 4    1 -0.3291270E-004  0.1781740E+03  0.7818608E-02  0.1169582E+00
          5   -1    0    0  501    0  0.00000000000E+00  0.00000000000E+00  0.68187484152E+02  0.68349272088E+02  0.47000000000E+01 0. -1.
         -5   -1    0    0    0  501 -0.00000000000E+00 -0.00000000000E+00 -0.55957836428E+03  0.55959810200E+03  0.47000000000E+01 0.  1.
          6    1    1    2  502    0  0.71319293923E+01 -0.45946810829E+02 -0.11653000128E+03  0.21289719359E+03  0.17200000000E+03 0. -1.
         -6    1    1    2    0  502 -0.71319293923E+01  0.45946810829E+02 -0.37486087884E+03  0.41505018050E+03  0.17200000000E+03 0.  1.
</event>
<event>
 4    1 -0.3291270E-004  0.2238190E+03  0.7818608E-02  0.1131067E+00
          5   -1    0    0  501    0  0.00000000000E+00  0.00000000000E+00  0.16304339014E+03  0.16311111877E+03  0.47000000000E+01 0. -1.
         -5   -1    0    0    0  501 -0.00000000000E+00 -0.00000000000E+00 -0.31076730878E+03  0.31080284781E+03  0.47000000000E+01 0.  1.
          6    1    1    2  502    0 -0.40126211957E+02 -0.13748022734E+03 -0.99600342753E+02  0.24497990544E+03  0.17200000000E+03 0. -1.
         -6    1    1    2    0  502  0.40126211957E+02  0.13748022734E+03 -0.48123575891E+02  0.22893406114E+03  0.17200000000E+03 0.  1.
</event>
<event>
 4    1 -0.3291270E-004  0.2820009E+03  0.7818608E-02  0.1094601E+00
         -5   -1    0    0    0  501 -0.00000000000E+00  0.00000000000E+00  0.14628075156E+03  0.14635623757E+03  0.47000000000E+01 0.  1.
          5   -1    0    0  501    0  0.00000000000E+00 -0.00000000000E+00 -0.63031720958E+03  0.63033473226E+03  0.47000000000E+01 0. -1.
          6    1    1    2  502    0  0.20494158229E+03  0.89103525332E+02 -0.38620205768E+03  0.47820133808E+03  0.17200000000E+03 0. -1.
         -6    1    1    2    0  502 -0.20494158229E+03 -0.89103525332E+02 -0.97834400339E+02  0.29848963176E+03  0.17200000000E+03 0.  1.
</event>
<event>
 4    1 -0.3291270E-004  0.1910933E+03  0.7818608E-02  0.1157479E+00
         -5   -1    0    0    0  501 -0.00000000000E+00  0.00000000000E+00  0.84537230121E+02  0.84667781810E+02  0.47000000000E+01 0.  1.
          5   -1    0    0  501    0  0.00000000000E+00 -0.00000000000E+00 -0.44613302123E+03  0.44615777774E+03  0.47000000000E+01 0. -1.
          6    1    1    2  502    0  0.13091788427E+02 -0.82226920585E+02 -0.22888568164E+03  0.29816994593E+03  0.17200000000E+03 0. -1.
         -6    1    1    2    0  502 -0.13091788427E+02  0.82226920585E+02 -0.13271010947E+03  0.23265561362E+03  0.17200000000E+03 0.  1.
</event>
<event>
 4    1 -0.3291270E-004  0.2905392E+03  0.7818608E-02  0.1090068E+00
          5   -1    0    0  501    0  0.00000000000E+00  0.00000000000E+00  0.84784392636E+03  0.84785695342E+03  0.47000000000E+01 0. -1.
         -5   -1    0    0    0  501 -0.00000000000E+00 -0.00000000000E+00 -0.21031145109E+03  0.21036396188E+03  0.47000000000E+01 0.  1.
          6    1    1    2  502    0  0.31812877890E+02 -0.23198490295E+03  0.70275948559E+03  0.76044983331E+03  0.17200000000E+03 0. -1.
         -6    1    1    2    0  502 -0.31812877890E+02  0.23198490295E+03 -0.65227010320E+02  0.29777108199E+03  0.17200000000E+03 0.  1.
</event>
<event>
 4    1 -0.3291270E-004  0.1999068E+03  0.7818608E-02  0.1149818E+00
          5   -1    0    0  501    0  0.00000000000E+00  0.00000000000E+00  0.43650958843E+03  0.43653489069E+03  0.47000000000E+01 0. -1.
         -5   -1    0    0    0  501 -0.00000000000E+00 -0.00000000000E+00 -0.10343089187E+03  0.10353762308E+03  0.47000000000E+01 0.  1.
          6    1    1    2  502    0 -0.48382334987E+02 -0.89654116239E+02  0.25833601399E+03  0.32664997631E+03  0.17200000000E+03 0.  1.
         -6    1    1    2    0  502  0.48382334987E+02  0.89654116239E+02  0.74742682570E+02  0.21342253746E+03  0.17200000000E+03 0.  1.
</event>
<event>
 4    1 -0.3291270E-004  0.2195199E+03  0.7818608E-02  0.1134241E+00
         -5   -1    0    0    0  501 -0.00000000000E+00  0.00000000000E+00  0.51416132419E+03  0.51418280532E+03  0.47000000000E+01 0.  1.
          5   -1    0    0  501    0  0.00000000000E+00 -0.00000000000E+00 -0.25371851148E+03  0.25376204024E+03  0.47000000000E+01 0. -1.
          6    1    1    2  502    0  0.32035821700E+02  0.13258472233E+03 -0.17470953979E+03  0.28055734843E+03  0.17200000000E+03 0. -1.
         -6    1    1    2    0  502 -0.32035821700E+02 -0.13258472233E+03  0.43515235250E+03  0.48738749712E+03  0.17200000000E+03 0.  1.
</event>
<event>
 4    1 -0.3291270E-004  0.3061225E+03  0.7818608E-02  0.1082219E+00
         -5   -1    0    0    0  501 -0.00000000000E+00  0.00000000000E+00  0.41941701736E+03  0.41944335071E+03  0.47000000000E+01 0.  1.
          5   -1    0    0  501    0  0.00000000000E+00 -0.00000000000E+00 -0.22551032045E+03  0.22555929294E+03  0.47000000000E+01 0. -1.
          6    1    1    2  502    0 -0.87882372642E+02  0.23749462706E+03  0.65565769939E+02  0.31306529589E+03  0.17200000000E+03 0. -1.
         -6    1    1    2    0  502  0.87882372642E+02 -0.23749462706E+03  0.12834092697E+03  0.33193734776E+03  0.17200000000E+03 0.  1.
</event>
<event>
 4    1 -0.3291270E-004  0.1935389E+03  0.7818608E-02  0.1155308E+00
          5   -1    0    0  501    0  0.00000000000E+00  0.00000000000E+00  0.33788583162E+02  0.34113902622E+02  0.47000000000E+01 0. -1.
         -5   -1    0    0    0  501 -0.00000000000E+00 -0.00000000000E+00 -0.11369006063E+04  0.11369103213E+04  0.47000000000E+01 0.  1.
          6    1    1    2  502    0 -0.30958887050E+02 -0.83155561087E+02 -0.45037078872E+03  0.49019500952E+03  0.17200000000E+03 0.  1.
         -6    1    1    2    0  502  0.30958887050E+02  0.83155561087E+02 -0.65274123442E+03  0.68082921437E+03  0.17200000000E+03 0.  1.
</event>
<event>
 4    1 -0.3291270E-004  0.2306381E+03  0.7818608E-02  0.1126191E+00
         -5   -1    0    0    0  501 -0.00000000000E+00  0.00000000000E+00  0.62953451623E+02  0.63128654914E+02  0.47000000000E+01 0.  1.
          5   -1    0    0  501    0  0.00000000000E+00 -0.00000000000E+00 -0.97956818116E+03  0.97957945647E+03  0.47000000000E+01 0. -1.
          6    1    1    2  502    0 -0.63358070897E+02  0.13998465355E+03 -0.26409998349E+03  0.35063192903E+03  0.17200000000E+03 0. -1.
         -6    1    1    2    0  502  0.63358070897E+02 -0.13998465355E+03 -0.65251474604E+03  0.69207618235E+03  0.17200000000E+03 0. -1.
</event>
<event>
 4    1 -0.3291270E-004  0.1745623E+03  0.7818608E-02  0.1173172E+00
          5   -1    0    0  501    0  0.00000000000E+00  0.00000000000E+00  0.38273055847E+03  0.38275941581E+03  0.47000000000E+01 0. -1.
         -5   -1    0    0    0  501 -0.00000000000E+00 -0.00000000000E+00 -0.91404334893E+02  0.91525091845E+02  0.47000000000E+01 0.  1.
          6    1    1    2  502    0  0.20351291472E+02 -0.21767149286E+02  0.60213888244E+02  0.18465561511E+03  0.17200000000E+03 0.  1.
         -6    1    1    2    0  502 -0.20351291472E+02  0.21767149286E+02  0.23111233534E+03  0.28962889254E+03  0.17200000000E+03 0. -1.
</event>
<event>
 4    1 -0.3291270E-004  0.2216212E+03  0.7818608E-02  0.1132680E+00
         -5   -1    0    0    0  501 -0.00000000000E+00  0.00000000000E+00  0.11999788448E+04  0.11999880491E+04  0.47000000000E+01 0.  1.
          5   -1    0    0  501    0  0.00000000000E+00 -0.00000000000E+00 -0.58302299198E+02  0.58491436055E+02  0.47000000000E+01 0. -1.
          6    1    1    2  502    0  0.19789681467E+02  0.13834856807E+03  0.22664491770E+03  0.31699191866E+03  0.17200000000E+03 0. -1.
         -6    1    1    2    0  502 -0.19789681467E+02 -0.13834856807E+03  0.91503162792E+03  0.94148756650E+03  0.17200000000E+03 0.  1.
</event>
<event>
 4    1 -0.3291270E-004  0.1746117E+03  0.7818608E-02  0.1173122E+00
         -5   -1    0    0    0  501 -0.00000000000E+00  0.00000000000E+00  0.31592468579E+03  0.31595964472E+03  0.47000000000E+01 0.  1.
          5   -1    0    0  501    0  0.00000000000E+00 -0.00000000000E+00 -0.10166669113E+03  0.10177527246E+03  0.47000000000E+01 0. -1.
          6    1    1    2  502    0 -0.29141940319E+02  0.74819033817E+01  0.59670940324E+02  0.18452602170E+03  0.17200000000E+03 0. -1.
         -6    1    1    2    0  502  0.29141940319E+02 -0.74819033817E+01  0.15458705434E+03  0.23320889548E+03  0.17200000000E+03 0. -1.
</event>
<event>
 4    1 -0.3291270E-004  0.2240625E+03  0.7818608E-02  0.1130890E+00
          5   -1    0    0  501    0  0.00000000000E+00  0.00000000000E+00  0.40718444665E+03  0.40721157105E+03  0.47000000000E+01 0. -1.
         -5   -1    0    0    0  501 -0.00000000000E+00 -0.00000000000E+00 -0.14505127151E+03  0.14512739702E+03  0.47000000000E+01 0.  1.
          6    1    1    2  502    0 -0.24698893347E+02 -0.14145661533E+03  0.23816798868E+03  0.32699847123E+03  0.17200000000E+03 0. -1.
         -6    1    1    2    0  502  0.24698893347E+02  0.14145661533E+03  0.23965186464E+02  0.22534049684E+03  0.17200000000E+03 0.  1.
</event>
<event>
 4    1 -0.3291270E-004  0.2148999E+03  0.7818608E-02  0.1137744E+00
         -5   -1    0    0    0  501 -0.00000000000E+00  0.00000000000E+00  0.40113598064E+02  0.40388002546E+02  0.47000000000E+01 0.  1.
          5   -1    0    0  501    0  0.00000000000E+00 -0.00000000000E+00 -0.13254291656E+04  0.13254374987E+04  0.47000000000E+01 0. -1.
          6    1    1    2  502    0  0.11266239120E+03  0.62491132658E+02 -0.89314251515E+03  0.91863241202E+03  0.17200000000E+03 0. -1.
         -6    1    1    2    0  502 -0.11266239120E+03 -0.62491132658E+02 -0.39217305238E+03  0.44719308924E+03  0.17200000000E+03 0.  1.
</event>
<event>
 4    1 -0.3291270E-004  0.6260272E+03  0.7818608E-02  0.9852832E-01
         -5   -1    0    0    0  501 -0.00000000000E+00  0.00000000000E+00  0.51604518786E+03  0.51606659058E+03  0.47000000000E+01 0.  1.
          5   -1    0    0  501    0  0.00000000000E+00 -0.00000000000E+00 -0.87868183752E+03  0.87869440740E+03  0.47000000000E+01 0. -1.
          6    1    1    2  502    0 -0.53569372699E+03  0.27451470759E+03  0.75617012866E+02  0.63057753406E+03  0.17200000000E+03 0. -1.
         -6    1    1    2    0  502  0.53569372699E+03 -0.27451470759E+03 -0.43825366253E+03  0.76418346393E+03  0.17200000000E+03 0.  1.
</event>
<event>
 4    1 -0.3291270E-004  0.1922511E+03  0.7818608E-02  0.1156447E+00
          5   -1    0    0  501    0  0.00000000000E+00  0.00000000000E+00  0.38814333171E+03  0.38817178665E+03  0.47000000000E+01 0. -1.
         -5   -1    0    0    0  501 -0.00000000000E+00 -0.00000000000E+00 -0.11239853749E+03  0.11249676097E+03  0.47000000000E+01 0.  1.
          6    1    1    2  502    0  0.77296967169E+02 -0.37438561984E+02  0.39820004192E+02  0.19633160670E+03  0.17200000000E+03 0. -1.
         -6    1    1    2    0  502 -0.77296967169E+02  0.37438561984E+02  0.23592479004E+03  0.30433694092E+03  0.17200000000E+03 0. -1.
</event>
<event>
 4    1 -0.3291270E-004  0.1871011E+03  0.7818608E-02  0.1161102E+00
          5   -1    0    0  501    0  0.00000000000E+00  0.00000000000E+00  0.37821388686E+02  0.38112300404E+02  0.47000000000E+01 0. -1.
         -5   -1    0    0    0  501 -0.00000000000E+00 -0.00000000000E+00 -0.92176239899E+03  0.92177438139E+03  0.47000000000E+01 0.  1.
          6    1    1    2  502    0 -0.72113194177E+02 -0.14916966764E+02 -0.43959949776E+03  0.47775992622E+03  0.17200000000E+03 0. -1.
         -6    1    1    2    0  502  0.72113194177E+02  0.14916966764E+02 -0.44434151254E+03  0.48212675557E+03  0.17200000000E+03 0.  1.
</event>
<event>
 4    1 -0.3291270E-004  0.1877079E+03  0.7818608E-02  0.1160545E+00
         -5   -1    0    0    0  501 -0.00000000000E+00  0.00000000000E+00  0.75214294302E+02  0.75360998317E+02  0.47000000000E+01 0.  1.
          5   -1    0    0  501    0  0.00000000000E+00 -0.00000000000E+00 -0.46784186091E+03  0.46786546872E+03  0.47000000000E+01 0. -1.
          6    1    1    2  502    0 -0.74189597004E+02  0.12089583993E+02 -0.19540694326E+03  0.27095779712E+03  0.17200000000E+03 0. -1.
         -6    1    1    2    0  502  0.74189597004E+02 -0.12089583993E+02 -0.19722062335E+03  0.27226866992E+03  0.17200000000E+03 0. -1.
</event>
<event>
 4    1 -0.3291270E-004  0.1802612E+03  0.7818608E-02  0.1167550E+00
         -5   -1    0    0    0  501 -0.00000000000E+00  0.00000000000E+00  0.67569136269E+03  0.67570770871E+03  0.47000000000E+01 0.  1.
          5   -1    0    0  501    0  0.00000000000E+00 -0.00000000000E+00 -0.48502528237E+02  0.48729716245E+02  0.47000000000E+01 0. -1.
          6    1    1    2  502    0 -0.47597052081E+02  0.25389377520E+02  0.27532360740E+03  0.32908538201E+03  0.17200000000E+03 0.  1.
         -6    1    1    2    0  502  0.47597052081E+02 -0.25389377520E+02  0.35186522705E+03  0.39535204295E+03  0.17200000000E+03 0.  1.
</event>
<event>
 4    1 -0.3291270E-004  0.1877075E+03  0.7818608E-02  0.1160545E+00
         -5   -1    0    0    0  501 -0.00000000000E+00  0.00000000000E+00  0.71253193194E+02  0.71408035545E+02  0.47000000000E+01 0.  1.
          5   -1    0    0  501    0  0.00000000000E+00 -0.00000000000E+00 -0.49984341486E+03  0.49986551129E+03  0.47000000000E+01 0. -1.
          6    1    1    2  502    0  0.54850521967E+02 -0.51395619136E+02 -0.18286326914E+03  0.26205546098E+03  0.17200000000E+03 0.  1.
         -6    1    1    2    0  502 -0.54850521967E+02  0.51395619136E+02 -0.24572695253E+03  0.30921808586E+03  0.17200000000E+03 0.  1.
</event>
<event>
 4    1 -0.3291270E-004  0.3061069E+03  0.7818608E-02  0.1082227E+00
         -5   -1    0    0    0  501 -0.00000000000E+00  0.00000000000E+00  0.13211041056E+03  0.13219398843E+03  0.47000000000E+01 0.  1.
          5   -1    0    0  501    0  0.00000000000E+00 -0.00000000000E+00 -0.13155727033E+04  0.13155810988E+04  0.47000000000E+01 0. -1.
          6    1    1    2  502    0 -0.23152360192E+03  0.10253900147E+03 -0.10832691500E+04  0.11256880013E+04  0.17200000000E+03 0. -1.
         -6    1    1    2    0  502  0.23152360192E+03 -0.10253900147E+03 -0.10019314274E+03  0.32208708592E+03  0.17200000000E+03 0.  1.
</event>
<event>
 4    1 -0.3291270E-004  0.2161888E+03  0.7818608E-02  0.1136757E+00
          5   -1    0    0  501    0  0.00000000000E+00  0.00000000000E+00  0.47655111227E+03  0.47657428866E+03  0.47000000000E+01 0. -1.
         -5   -1    0    0    0  501 -0.00000000000E+00 -0.00000000000E+00 -0.10315232458E+03  0.10325934372E+03  0.47000000000E+01 0.  1.
          6    1    1    2  502    0  0.82357401229E+02 -0.10183729234E+03  0.12190146623E+03  0.24818852334E+03  0.17200000000E+03 0. -1.
         -6    1    1    2    0  502 -0.82357401229E+02  0.10183729234E+03  0.25149732146E+03  0.33164510904E+03  0.17200000000E+03 0.  1.
</event>
<event>
 4    1 -0.3291270E-004  0.3191450E+03  0.7818608E-02  0.1076043E+00
          5   -1    0    0  501    0  0.00000000000E+00  0.00000000000E+00  0.29672913280E+03  0.29676635297E+03  0.47000000000E+01 0. -1.
         -5   -1    0    0    0  501 -0.00000000000E+00 -0.00000000000E+00 -0.41460767201E+03  0.41463431080E+03  0.47000000000E+01 0.  1.
          6    1    1    2  502    0  0.23642351134E+03  0.12795876082E+03  0.88687765410E+02  0.33123864647E+03  0.17200000000E+03 0. -1.
         -6    1    1    2    0  502 -0.23642351134E+03 -0.12795876082E+03 -0.20656630462E+03  0.38016201729E+03  0.17200000000E+03 0.  1.
</event>
<event>
 4    1 -0.3291270E-004  0.1827195E+03  0.7818608E-02  0.1165197E+00
          5   -1    0    0  501    0  0.00000000000E+00  0.00000000000E+00  0.12063301478E+04  0.12063393036E+04  0.47000000000E+01 0. -1.
         -5   -1    0    0    0  501 -0.00000000000E+00 -0.00000000000E+00 -0.41564845378E+02  0.41829730711E+02  0.47000000000E+01 0.  1.
          6    1    1    2  502    0 -0.53142388412E+02 -0.31277987654E+02  0.94435779000E+03  0.96187216484E+03  0.17200000000E+03 0. -1.
         -6    1    1    2    0  502  0.53142388412E+02  0.31277987654E+02  0.22040751243E+03  0.28629686951E+03  0.17200000000E+03 0.  1.
</event>
<event>
 4    1 -0.3291270E-004  0.1738612E+03  0.7818608E-02  0.1173880E+00
          5   -1    0    0  501    0  0.00000000000E+00  0.00000000000E+00  0.29210457168E+03  0.29214238103E+03  0.47000000000E+01 0. -1.
         -5   -1    0    0    0  501 -0.00000000000E+00 -0.00000000000E+00 -0.11374770120E+03  0.11384476066E+03  0.47000000000E+01 0.  1.
          6    1    1    2  502    0 -0.24298497197E+02  0.73013687027E+01  0.27945077897E+02  0.17609274355E+03  0.17200000000E+03 0.  1.
         -6    1    1    2    0  502  0.24298497197E+02 -0.73013687027E+01  0.15041179258E+03  0.22989439814E+03  0.17200000000E+03 0. -1.
</event>
<event>
 4    1 -0.3291270E-004  0.2459440E+03  0.7818608E-02  0.1115895E+00
          5   -1    0    0  501    0  0.00000000000E+00  0.00000000000E+00  0.44092300480E+03  0.44094805381E+03  0.47000000000E+01 0. -1.
         -5   -1    0    0    0  501 -0.00000000000E+00 -0.00000000000E+00 -0.15585506679E+03  0.15592591781E+03  0.47000000000E+01 0.  1.
          6    1    1    2  502    0  0.13482044263E+03 -0.11281799889E+03  0.24598074907E+03  0.34784332901E+03  0.17200000000E+03 0. -1.
         -6    1    1    2    0  502 -0.13482044263E+03  0.11281799889E+03  0.39087188943E+02  0.24903064262E+03  0.17200000000E+03 0.  1.
</event>
<event>
 4    1 -0.3291270E-004  0.2228654E+03  0.7818608E-02  0.1131765E+00
          5   -1    0    0  501    0  0.00000000000E+00  0.00000000000E+00  0.12856310297E+04  0.12856396208E+04  0.47000000000E+01 0. -1.
         -5   -1    0    0    0  501 -0.00000000000E+00 -0.00000000000E+00 -0.47640625647E+02  0.47871904204E+02  0.47000000000E+01 0.  1.
          6    1    1    2  502    0 -0.14168783242E+03 -0.30902395010E+01  0.32747221571E+03  0.39611493723E+03  0.17200000000E+03 0.  1.
         -6    1    1    2    0  502  0.14168783242E+03  0.30902395010E+01  0.91051818839E+03  0.93739658780E+03  0.17200000000E+03 0. -1.
</event>
<event>
 4    1 -0.3291270E-004  0.1938309E+03  0.7818608E-02  0.1155051E+00
          5   -1    0    0  501    0  0.00000000000E+00  0.00000000000E+00  0.61001849925E+03  0.61003660499E+03  0.47000000000E+01 0. -1.
         -5   -1    0    0    0  501 -0.00000000000E+00 -0.00000000000E+00 -0.61480389553E+02  0.61659778621E+02  0.47000000000E+01 0.  1.
          6    1    1    2  502    0  0.87951206591E+02  0.15843088790E+02  0.27474448067E+03  0.33623644636E+03  0.17200000000E+03 0. -1.
         -6    1    1    2    0  502 -0.87951206591E+02 -0.15843088790E+02  0.27379362902E+03  0.33545993725E+03  0.17200000000E+03 0. -1.
</event>
<event>
 4    1 -0.3291270E-004  0.2123975E+03  0.7818608E-02  0.1139681E+00
          5   -1    0    0  501    0  0.00000000000E+00  0.00000000000E+00  0.32329709690E+03  0.32333125872E+03  0.47000000000E+01 0. -1.
         -5   -1    0    0    0  501 -0.00000000000E+00 -0.00000000000E+00 -0.16169912625E+03  0.16176741770E+03  0.47000000000E+01 0.  1.
          6    1    1    2  502    0  0.78101685582E+02 -0.97102153107E+02 -0.91252040676E+01  0.21259344011E+03  0.17200000000E+03 0.  1.
         -6    1    1    2    0  502 -0.78101685582E+02  0.97102153107E+02  0.17072317472E+03  0.27250523631E+03  0.17200000000E+03 0. -1.
</event>
<event>
 4    1 -0.3291270E-004  0.2328486E+03  0.7818608E-02  0.1124651E+00
         -5   -1    0    0    0  501 -0.00000000000E+00  0.00000000000E+00  0.55781644765E+03  0.55783624771E+03  0.47000000000E+01 0.  1.
          5   -1    0    0  501    0  0.00000000000E+00 -0.00000000000E+00 -0.14297511639E+03  0.14305234674E+03  0.47000000000E+01 0. -1.
          6    1    1    2  502    0  0.11319763863E+03  0.10872339167E+03  0.90347889178E+01  0.23302383719E+03  0.17200000000E+03 0. -1.
         -6    1    1    2    0  502 -0.11319763863E+03 -0.10872339167E+03  0.40580654233E+03  0.46786475726E+03  0.17200000000E+03 0.  1.
</event>
<event>
 4    1 -0.3291270E-004  0.1939808E+03  0.7818608E-02  0.1154919E+00
         -5   -1    0    0    0  501 -0.00000000000E+00  0.00000000000E+00  0.66769550422E+02  0.66934765732E+02  0.47000000000E+01 0.  1.
          5   -1    0    0  501    0  0.00000000000E+00 -0.00000000000E+00 -0.71258238462E+03  0.71259788442E+03  0.47000000000E+01 0. -1.
          6    1    1    2  502    0 -0.61156253654E+02  0.65608350385E+02 -0.50164783020E+03  0.53784671473E+03  0.17200000000E+03 0. -1.
         -6    1    1    2    0  502  0.61156253654E+02 -0.65608350385E+02 -0.14416500400E+03  0.24168593542E+03  0.17200000000E+03 0.  1.
</event>
<event>
 4    1 -0.3291270E-004  0.3271064E+03  0.7818608E-02  0.1072424E+00
          5   -1    0    0  501    0  0.00000000000E+00  0.00000000000E+00  0.49599568277E+03  0.49601795061E+03  0.47000000000E+01 0. -1.
         -5   -1    0    0    0  501 -0.00000000000E+00 -0.00000000000E+00 -0.26110058271E+03  0.26114288099E+03  0.47000000000E+01 0.  1.
          6    1    1    2  502    0  0.27419512344E+03 -0.47240437262E+02  0.27533967770E+03  0.42756351896E+03  0.17200000000E+03 0. -1.
         -6    1    1    2    0  502 -0.27419512344E+03  0.47240437262E+02 -0.40444577639E+02  0.32959731263E+03  0.17200000000E+03 0.  1.
</event>
<event>
 4    1 -0.3291270E-004  0.1747934E+03  0.7818608E-02  0.1172939E+00
         -5   -1    0    0    0  501 -0.00000000000E+00  0.00000000000E+00  0.17963177613E+03  0.17969325250E+03  0.47000000000E+01 0.  1.
          5   -1    0    0  501    0  0.00000000000E+00 -0.00000000000E+00 -0.17305578790E+03  0.17311959948E+03  0.47000000000E+01 0. -1.
          6    1    1    2  502    0 -0.31754813491E+01  0.30962058347E+02 -0.20289041308E+02  0.17596697968E+03  0.17200000000E+03 0. -1.
         -6    1    1    2    0  502  0.31754813491E+01 -0.30962058347E+02  0.26865029539E+02  0.17684587230E+03  0.17200000000E+03 0.  1.
</event>
<event>
 4    1 -0.3291270E-004  0.1854006E+03  0.7818608E-02  0.1162676E+00
          5   -1    0    0  501    0  0.00000000000E+00  0.00000000000E+00  0.32797320893E+03  0.32800688373E+03  0.47000000000E+01 0. -1.
         -5   -1    0    0    0  501 -0.00000000000E+00 -0.00000000000E+00 -0.10472298995E+03  0.10482840561E+03  0.47000000000E+01 0.  1.
          6    1    1    2  502    0 -0.52833804763E+02 -0.44698678710E+02  0.11366329955E+03  0.21746891380E+03  0.17200000000E+03 0.  1.
         -6    1    1    2    0  502  0.52833804763E+02  0.44698678710E+02  0.10958691944E+03  0.21536637555E+03  0.17200000000E+03 0.  1.
</event>
<event>
 4    1 -0.3291270E-004  0.2401671E+03  0.7818608E-02  0.1119682E+00
         -5   -1    0    0    0  501 -0.00000000000E+00  0.00000000000E+00  0.36634237252E+03  0.36637252067E+03  0.47000000000E+01 0.  1.
          5   -1    0    0  501    0  0.00000000000E+00 -0.00000000000E+00 -0.21431699856E+03  0.21436852818E+03  0.47000000000E+01 0. -1.
          6    1    1    2  502    0 -0.29749624359E+02  0.16495810115E+03 -0.73624631603E+02  0.25119872942E+03  0.17200000000E+03 0. -1.
         -6    1    1    2    0  502  0.29749624359E+02 -0.16495810115E+03  0.22565000556E+03  0.32954231943E+03  0.17200000000E+03 0.  1.
</event>
<event>
 4    1 -0.3291270E-004  0.2350766E+03  0.7818608E-02  0.1123117E+00
         -5   -1    0    0    0  501 -0.00000000000E+00  0.00000000000E+00  0.18994147062E+03  0.18999961121E+03  0.47000000000E+01 0.  1.
          5   -1    0    0  501    0  0.00000000000E+00 -0.00000000000E+00 -0.35175249177E+03  0.35178389029E+03  0.47000000000E+01 0. -1.
          6    1    1    2  502    0 -0.70391502693E+01 -0.16008581937E+03  0.31829966096E+02  0.23722176532E+03  0.17200000000E+03 0.  1.
         -6    1    1    2    0  502  0.70391502693E+01  0.16008581937E+03 -0.19364098725E+03  0.30456173618E+03  0.17200000000E+03 0. -1.
</event>
<event>
 4    1 -0.3291270E-004  0.1992586E+03  0.7818608E-02  0.1150366E+00
         -5   -1    0    0    0  501 -0.00000000000E+00  0.00000000000E+00  0.11799748617E+03  0.11809105276E+03  0.47000000000E+01 0.  1.
          5   -1    0    0  501    0  0.00000000000E+00 -0.00000000000E+00 -0.52904423914E+03  0.52906511599E+03  0.47000000000E+01 0. -1.
          6    1    1    2  502    0  0.45321905760E+01  0.10049604354E+03 -0.40084207241E+03  0.44763641779E+03  0.17200000000E+03 0. -1.
         -6    1    1    2    0  502 -0.45321905760E+01 -0.10049604354E+03 -0.10204680556E+02  0.19951975096E+03  0.17200000000E+03 0.  1.
</event>
<event>
 4    1 -0.3291270E-004  0.2830574E+03  0.7818608E-02  0.1094031E+00
         -5   -1    0    0    0  501 -0.00000000000E+00  0.00000000000E+00  0.28715030520E+03  0.28718876680E+03  0.47000000000E+01 0.  1.
          5   -1    0    0  501    0  0.00000000000E+00 -0.00000000000E+00 -0.31691576886E+03  0.31695061847E+03  0.47000000000E+01 0. -1.
          6    1    1    2  502    0 -0.68075135529E+02 -0.21425041602E+03  0.89662329913E+02  0.29691884118E+03  0.17200000000E+03 0.  1.
         -6    1    1    2    0  502  0.68075135529E+02  0.21425041602E+03 -0.11942779357E+03  0.30722054410E+03  0.17200000000E+03 0. -1.
</event>
<event>
 4    1 -0.3291270E-004  0.1746244E+03  0.7818608E-02  0.1173109E+00
         -5   -1    0    0    0  501 -0.00000000000E+00  0.00000000000E+00  0.10281568723E+03  0.10292305641E+03  0.47000000000E+01 0.  1.
          5   -1    0    0  501    0  0.00000000000E+00 -0.00000000000E+00 -0.33514473606E+03  0.33517769035E+03  0.47000000000E+01 0. -1.
          6    1    1    2  502    0 -0.26759645203E+02  0.13914583607E+02 -0.41610270528E+02  0.17951353392E+03  0.17200000000E+03 0.  1.
         -6    1    1    2    0  502  0.26759645203E+02 -0.13914583607E+02 -0.19071877830E+03  0.25858721284E+03  0.17200000000E+03 0. -1.
</event>
<event>
 4    1 -0.3291270E-004  0.1855214E+03  0.7818608E-02  0.1162564E+00
          5   -1    0    0  501    0  0.00000000000E+00  0.00000000000E+00  0.17253824383E+03  0.17260224675E+03  0.47000000000E+01 0. -1.
         -5   -1    0    0    0  501 -0.00000000000E+00 -0.00000000000E+00 -0.23712058957E+03  0.23716716467E+03  0.47000000000E+01 0.  1.
          6    1    1    2  502    0 -0.10535632884E+02  0.68725487839E+02 -0.11403975641E+03  0.21776881843E+03  0.17200000000E+03 0.  1.
         -6    1    1    2    0  502  0.10535632884E+02 -0.68725487839E+02  0.49457410663E+02  0.19200059299E+03  0.17200000000E+03 0. -1.
</event>
<event>
 4    1 -0.3291270E-004  0.2909989E+03  0.7818608E-02  0.1089829E+00
          5   -1    0    0  501    0  0.00000000000E+00  0.00000000000E+00  0.13884502634E+03  0.13892455269E+03  0.47000000000E+01 0. -1.
         -5   -1    0    0    0  501 -0.00000000000E+00 -0.00000000000E+00 -0.68895247594E+03  0.68896850734E+03  0.47000000000E+01 0.  1.
          6    1    1    2  502    0  0.21285732495E+03  0.98934795721E+02 -0.13460323038E+03  0.32062183989E+03  0.17200000000E+03 0. -1.
         -6    1    1    2    0  502 -0.21285732495E+03 -0.98934795721E+02 -0.41550421922E+03  0.50727122013E+03  0.17200000000E+03 0.  1.
</event>
<event>
 4    1 -0.3291270E-004  0.1721033E+03  0.7818608E-02  0.1175672E+00
          5   -1    0    0  501    0  0.00000000000E+00  0.00000000000E+00  0.43383235990E+02  0.43637084744E+02  0.47000000000E+01 0. -1.
         -5   -1    0    0    0  501 -0.00000000000E+00 -0.00000000000E+00 -0.68050055512E+03  0.68051678563E+03  0.47000000000E+01 0.  1.
          6    1    1    2  502    0 -0.56539236366E+01 -0.18897610531E+01 -0.32011798273E+03  0.36344884223E+03  0.17200000000E+03 0.  1.
         -6    1    1    2    0  502  0.56539236366E+01  0.18897610531E+01 -0.31699933640E+03  0.36070502815E+03  0.17200000000E+03 0. -1.
</event>
<event>
 4    1 -0.3291270E-004  0.2079610E+03  0.7818608E-02  0.1143191E+00
          5   -1    0    0  501    0  0.00000000000E+00  0.00000000000E+00  0.11416654186E+04  0.11416750930E+04  0.47000000000E+01 0. -1.
         -5   -1    0    0    0  501 -0.00000000000E+00 -0.00000000000E+00 -0.52068017160E+02  0.52279713188E+02  0.47000000000E+01 0.  1.
          6    1    1    2  502    0  0.65549167595E+01  0.11670821287E+03  0.85733145781E+03  0.88219329086E+03  0.17200000000E+03 0. -1.
         -6    1    1    2    0  502 -0.65549167595E+01 -0.11670821287E+03  0.23226594364E+03  0.31176151536E+03  0.17200000000E+03 0.  1.
</event>
<event>
 4    1 -0.3291270E-004  0.1864201E+03  0.7818608E-02  0.1161730E+00
         -5   -1    0    0    0  501 -0.00000000000E+00  0.00000000000E+00  0.19814585992E+03  0.19820159384E+03  0.47000000000E+01 0.  1.
          5   -1    0    0  501    0  0.00000000000E+00 -0.00000000000E+00 -0.21147161125E+03  0.21152383404E+03  0.47000000000E+01 0. -1.
          6    1    1    2  502    0  0.87295988072E+01  0.71359887417E+02  0.78069010809E+02  0.20210692684E+03  0.17200000000E+03 0.  1.
         -6    1    1    2    0  502 -0.87295988072E+01 -0.71359887417E+02 -0.91394762146E+02  0.20761850104E+03  0.17200000000E+03 0.  1.
</event>
<event>
 4    1 -0.3291270E-004  0.2740647E+03  0.7818608E-02  0.1098976E+00
         -5   -1    0    0    0  501 -0.00000000000E+00  0.00000000000E+00  0.88612761494E+02  0.88737317402E+02  0.47000000000E+01 0.  1.
          5   -1    0    0  501    0  0.00000000000E+00 -0.00000000000E+00 -0.87809189908E+03  0.87810447740E+03  0.47000000000E+01 0. -1.
          6    1    1    2  502    0  0.15738343789E+03  0.14407598788E+03 -0.48582941252E+03  0.55780073044E+03  0.17200000000E+03 0.  1.
         -6    1    1    2    0  502 -0.15738343789E+03 -0.14407598788E+03 -0.30364972506E+03  0.40904106436E+03  0.17200000000E+03 0.  1.
</event>
<event>
 4    1 -0.3291270E-004  0.2194089E+03  0.7818608E-02  0.1134324E+00
          5   -1    0    0  501    0  0.00000000000E+00  0.00000000000E+00  0.72943846443E+03  0.72945360606E+03  0.47000000000E+01 0. -1.
         -5   -1    0    0    0  501 -0.00000000000E+00 -0.00000000000E+00 -0.72023540442E+02  0.72176730168E+02  0.47000000000E+01 0.  1.
          6    1    1    2  502    0  0.36121660771E+02 -0.13134496142E+03  0.44546706755E+03  0.49656941261E+03  0.17200000000E+03 0. -1.
         -6    1    1    2    0  502 -0.36121660771E+02  0.13134496142E+03  0.21194785643E+03  0.30506092361E+03  0.17200000000E+03 0.  1.
</event>
<event>
 4    1 -0.3291270E-004  0.3736589E+03  0.7818608E-02  0.1053303E+00
         -5   -1    0    0    0  501 -0.00000000000E+00  0.00000000000E+00  0.77017407341E+03  0.77018841419E+03  0.47000000000E+01 0.  1.
          5   -1    0    0  501    0  0.00000000000E+00 -0.00000000000E+00 -0.18416964402E+03  0.18422960614E+03  0.47000000000E+01 0. -1.
          6    1    1    2  502    0 -0.20025126668E+03  0.26445496257E+03  0.23281135112E+03  0.44025233928E+03  0.17200000000E+03 0. -1.
         -6    1    1    2    0  502  0.20025126668E+03 -0.26445496257E+03  0.35319307827E+03  0.51416568106E+03  0.17200000000E+03 0.  1.
</event>
<event>
 4    1 -0.3291270E-004  0.1771671E+03  0.7818608E-02  0.1170573E+00
         -5   -1    0    0    0  501 -0.00000000000E+00  0.00000000000E+00  0.20455442020E+04  0.20455496015E+04  0.47000000000E+01 0.  1.
          5   -1    0    0  501    0  0.00000000000E+00 -0.00000000000E+00 -0.27773030309E+02  0.28167911043E+02  0.47000000000E+01 0. -1.
          6    1    1    2  502    0  0.40887882692E+02 -0.11505256464E+02  0.31217798448E+03  0.35894746673E+03  0.17200000000E+03 0. -1.
         -6    1    1    2    0  502 -0.40887882692E+02  0.11505256464E+02  0.17055931872E+04  0.17147700458E+04  0.17200000000E+03 0.  1.
</event>
<event>
 4    1 -0.3291270E-004  0.1826415E+03  0.7818608E-02  0.1165271E+00
          5   -1    0    0  501    0  0.00000000000E+00  0.00000000000E+00  0.21371166977E+03  0.21376334530E+03  0.47000000000E+01 0. -1.
         -5   -1    0    0    0  501 -0.00000000000E+00 -0.00000000000E+00 -0.16512783347E+03  0.16519470750E+03  0.47000000000E+01 0.  1.
          6    1    1    2  502    0 -0.57132297593E+02  0.22578754386E+02  0.68867277823E+02  0.19519375383E+03  0.17200000000E+03 0. -1.
         -6    1    1    2    0  502  0.57132297593E+02 -0.22578754386E+02 -0.20283441527E+02  0.18376429898E+03  0.17200000000E+03 0.  1.
</event>
<event>
 4    1 -0.3291270E-004  0.2262037E+03  0.7818608E-02  0.1129341E+00
          5   -1    0    0  501    0  0.00000000000E+00  0.00000000000E+00  0.32999186496E+03  0.33002533378E+03  0.47000000000E+01 0. -1.
         -5   -1    0    0    0  501 -0.00000000000E+00 -0.00000000000E+00 -0.22665396528E+03  0.22670269071E+03  0.47000000000E+01 0.  1.
          6    1    1    2  502    0 -0.68754944842E+02  0.12983397609E+03  0.20817004969E+03  0.30741319649E+03  0.17200000000E+03 0. -1.
         -6    1    1    2    0  502  0.68754944842E+02 -0.12983397609E+03 -0.10483215001E+03  0.24931482801E+03  0.17200000000E+03 0.  1.
</event>
<event>
 4    1 -0.3291270E-004  0.1775152E+03  0.7818608E-02  0.1170230E+00
          5   -1    0    0  501    0  0.00000000000E+00  0.00000000000E+00  0.36243015598E+03  0.36246062953E+03  0.47000000000E+01 0. -1.
         -5   -1    0    0    0  501 -0.00000000000E+00 -0.00000000000E+00 -0.16256465714E+03  0.16263258515E+03  0.47000000000E+01 0.  1.
          6    1    1    2  502    0 -0.40451270939E+02  0.17068885989E+02  0.27904232422E+03  0.33072083529E+03  0.17200000000E+03 0. -1.
         -6    1    1    2    0  502  0.40451270939E+02 -0.17068885989E+02 -0.79176825390E+02  0.19437237939E+03  0.17200000000E+03 0.  1.
</event>
<event>
 4    1 -0.3291270E-004  0.5839380E+03  0.7818608E-02  0.9939302E-01
         -5   -1    0    0    0  501 -0.00000000000E+00  0.00000000000E+00  0.34883714695E+03  0.34886880785E+03  0.47000000000E+01 0.  1.
          5   -1    0    0  501    0  0.00000000000E+00 -0.00000000000E+00 -0.15536994007E+04  0.15537065095E+04  0.47000000000E+01 0. -1.
          6    1    1    2  502    0 -0.36292626273E+03 -0.42389164257E+03 -0.11817863422E+04  0.13181815336E+04  0.17200000000E+03 0. -1.
         -6    1    1    2    0  502  0.36292626273E+03  0.42389164257E+03 -0.23075911509E+02  0.58439378377E+03  0.17200000000E+03 0.  1.
</event>
<event>
 4    1 -0.3291270E-004  0.2127376E+03  0.7818608E-02  0.1139416E+00
          5   -1    0    0  501    0  0.00000000000E+00  0.00000000000E+00  0.39395422612E+03  0.39398226138E+03  0.47000000000E+01 0. -1.
         -5   -1    0    0    0  501 -0.00000000000E+00 -0.00000000000E+00 -0.11615196902E+03  0.11624702106E+03  0.47000000000E+01 0.  1.
          6    1    1    2  502    0 -0.57489234989E+02 -0.11121280983E+03  0.11138587926E+03  0.24013353641E+03  0.17200000000E+03 0.  1.
         -6    1    1    2    0  502  0.57489234989E+02  0.11121280983E+03  0.16641637785E+03  0.27009574604E+03  0.17200000000E+03 0. -1.
</event>
<event>
 4    1 -0.3291270E-004  0.2537925E+03  0.7818608E-02  0.1110931E+00
         -5   -1    0    0    0  501 -0.00000000000E+00  0.00000000000E+00  0.38873978831E+03  0.38876819959E+03  0.47000000000E+01 0.  1.
          5   -1    0    0  501    0  0.00000000000E+00 -0.00000000000E+00 -0.16562468637E+03  0.16569135987E+03  0.47000000000E+01 0. -1.
          6    1    1    2  502    0 -0.20865118036E+02 -0.18544892327E+03  0.11240880553E+03  0.27757232545E+03  0.17200000000E+03 0.  1.
         -6    1    1    2    0  502  0.20865118036E+02  0.18544892327E+03  0.11070629641E+03  0.27688723401E+03  0.17200000000E+03 0.  1.
</event>
<event>
 4    1 -0.3291270E-004  0.1930645E+03  0.7818608E-02  0.1155726E+00
          5   -1    0    0  501    0  0.00000000000E+00  0.00000000000E+00  0.94762383186E+02  0.94878866282E+02  0.47000000000E+01 0. -1.
         -5   -1    0    0    0  501 -0.00000000000E+00 -0.00000000000E+00 -0.39310524425E+03  0.39313334005E+03  0.47000000000E+01 0.  1.
          6    1    1    2  502    0  0.71451067089E+02  0.50839394084E+02 -0.15372118041E+03  0.24678756104E+03  0.17200000000E+03 0. -1.
         -6    1    1    2    0  502 -0.71451067089E+02 -0.50839394084E+02 -0.14462168066E+03  0.24122464529E+03  0.17200000000E+03 0. -1.
</event>
<event>
 4    1 -0.3291270E-004  0.4562236E+03  0.7818608E-02  0.1025882E+00
         -5   -1    0    0    0  501 -0.00000000000E+00  0.00000000000E+00  0.10751304833E+03  0.10761573102E+03  0.47000000000E+01 0.  1.
          5   -1    0    0  501    0  0.00000000000E+00 -0.00000000000E+00 -0.20007756334E+04  0.20007811537E+04  0.47000000000E+01 0. -1.
          6    1    1    2  502    0  0.74478698874E+02  0.41594334805E+03 -0.11378827213E+04  0.12259351667E+04  0.17200000000E+03 0. -1.
         -6    1    1    2    0  502 -0.74478698874E+02 -0.41594334805E+03 -0.75537986372E+03  0.88246171808E+03  0.17200000000E+03 0.  1.
</event>
<event>
 4    1 -0.3291270E-004  0.3391922E+03  0.7818608E-02  0.1067140E+00
         -5   -1    0    0    0  501 -0.00000000000E+00  0.00000000000E+00  0.34580837811E+03  0.34584031629E+03  0.47000000000E+01 0.  1.
          5   -1    0    0  501    0  0.00000000000E+00 -0.00000000000E+00 -0.53973618580E+03  0.53975664911E+03  0.47000000000E+01 0. -1.
          6    1    1    2  502    0  0.21477178442E+03  0.19834429601E+03 -0.37123436047E+03  0.50285816046E+03  0.17200000000E+03 0. -1.
         -6    1    1    2    0  502 -0.21477178442E+03 -0.19834429601E+03  0.17730655278E+03  0.38273880494E+03  0.17200000000E+03 0.  1.
</event>
<event>
 4    1 -0.3291270E-004  0.3937007E+03  0.7818608E-02  0.1045983E+00
         -5   -1    0    0    0  501 -0.00000000000E+00  0.00000000000E+00  0.33222675923E+03  0.33226000293E+03  0.47000000000E+01 0.  1.
          5   -1    0    0  501    0  0.00000000000E+00 -0.00000000000E+00 -0.81978367347E+03  0.81979714643E+03  0.47000000000E+01 0. -1.
          6    1    1    2  502    0  0.14266651976E+03  0.32413343159E+03 -0.62191975021E+03  0.73606004717E+03  0.17200000000E+03 0. -1.
         -6    1    1    2    0  502 -0.14266651976E+03 -0.32413343159E+03  0.13436283597E+03  0.41599710218E+03  0.17200000000E+03 0.  1.
</event>
<event>
 4    1 -0.3291270E-004  0.1747316E+03  0.7818608E-02  0.1173001E+00
         -5   -1    0    0    0  501 -0.00000000000E+00  0.00000000000E+00  0.12350710154E+03  0.12359649724E+03  0.47000000000E+01 0.  1.
          5   -1    0    0  501    0  0.00000000000E+00 -0.00000000000E+00 -0.53938990918E+03  0.53941038563E+03  0.47000000000E+01 0. -1.
          6    1    1    2  502    0  0.14071554435E+02 -0.27370180518E+02 -0.45198561700E+03  0.48458449563E+03  0.17200000000E+03 0. -1.
         -6    1    1    2    0  502 -0.14071554435E+02  0.27370180518E+02  0.36102809357E+02  0.17842238724E+03  0.17200000000E+03 0.  1.
</event>
<event>
 4    1 -0.3291270E-004  0.2616235E+03  0.7818608E-02  0.1106172E+00
          5   -1    0    0  501    0  0.00000000000E+00  0.00000000000E+00  0.21365752655E+03  0.21370921518E+03  0.47000000000E+01 0. -1.
         -5   -1    0    0    0  501 -0.00000000000E+00 -0.00000000000E+00 -0.43454206076E+03  0.43456747757E+03  0.47000000000E+01 0.  1.
          6    1    1    2  502    0 -0.19664970522E+03  0.13848254057E+02  0.55776969608E+02  0.26750317950E+03  0.17200000000E+03 0. -1.
         -6    1    1    2    0  502  0.19664970522E+03 -0.13848254057E+02 -0.27666150381E+03  0.38077351325E+03  0.17200000000E+03 0.  1.
</event>
<event>
 4    1 -0.3291270E-004  0.1947896E+03  0.7818608E-02  0.1154211E+00
         -5   -1    0    0    0  501 -0.00000000000E+00  0.00000000000E+00  0.26077194571E+03  0.26081429729E+03  0.47000000000E+01 0.  1.
          5   -1    0    0  501    0  0.00000000000E+00 -0.00000000000E+00 -0.19276441584E+03  0.19282170524E+03  0.47000000000E+01 0. -1.
          6    1    1    2  502    0 -0.77476513694E+02 -0.48542594868E+02  0.14639165611E+03  0.24366680256E+03  0.17200000000E+03 0.  1.
         -6    1    1    2    0  502  0.77476513694E+02  0.48542594868E+02 -0.78384126238E+02  0.20996919997E+03  0.17200000000E+03 0.  1.
</event>
<event>
 4    1 -0.3291270E-004  0.2767178E+03  0.7818608E-02  0.1097495E+00
         -5   -1    0    0    0  501 -0.00000000000E+00  0.00000000000E+00  0.33516613020E+03  0.33519908238E+03  0.47000000000E+01 0.  1.
          5   -1    0    0  501    0  0.00000000000E+00 -0.00000000000E+00 -0.24309867722E+03  0.24314410720E+03  0.47000000000E+01 0. -1.
          6    1    1    2  502    0  0.21365067315E+03 -0.36635371440E+02  0.11714271498E+03  0.30049155770E+03  0.17200000000E+03 0. -1.
         -6    1    1    2    0  502 -0.21365067315E+03  0.36635371440E+02 -0.25075261999E+02  0.27785163188E+03  0.17200000000E+03 0.  1.
</event>
<event>
 4    1 -0.3291270E-004  0.3089609E+03  0.7818608E-02  0.1080845E+00
          5   -1    0    0  501    0  0.00000000000E+00  0.00000000000E+00  0.13060510996E+03  0.13068965050E+03  0.47000000000E+01 0. -1.
         -5   -1    0    0    0  501 -0.00000000000E+00 -0.00000000000E+00 -0.83523200440E+03  0.83524522817E+03  0.47000000000E+01 0.  1.
          6    1    1    2  502    0 -0.23089410664E+03 -0.11207475250E+03 -0.18134384890E+03  0.35824911746E+03  0.17200000000E+03 0. -1.
         -6    1    1    2    0  502  0.23089410664E+03  0.11207475250E+03 -0.52328304554E+03  0.60768576121E+03  0.17200000000E+03 0.  1.
</event>
<event>
 4    1 -0.3291270E-004  0.3506869E+03  0.7818608E-02  0.1062333E+00
         -5   -1    0    0    0  501 -0.00000000000E+00  0.00000000000E+00  0.68167441729E+03  0.68169061985E+03  0.47000000000E+01 0.  1.
          5   -1    0    0  501    0  0.00000000000E+00 -0.00000000000E+00 -0.28320083119E+03  0.28323982909E+03  0.47000000000E+01 0. -1.
          6    1    1    2  502    0 -0.24931271638E+03 -0.17674969385E+03  0.48993828156E+03  0.60251207835E+03  0.17200000000E+03 0.  1.
         -6    1    1    2    0  502  0.24931271638E+03  0.17674969385E+03 -0.91464695453E+02  0.36241837059E+03  0.17200000000E+03 0. -1.
</event>
<event>
 4    1 -0.3291270E-004  0.2723148E+03  0.7818608E-02  0.1099962E+00
         -5   -1    0    0    0  501 -0.00000000000E+00  0.00000000000E+00  0.17872170044E+03  0.17878348975E+03  0.47000000000E+01 0.  1.
          5   -1    0    0  501    0  0.00000000000E+00 -0.00000000000E+00 -0.43053229271E+03  0.43055794624E+03  0.47000000000E+01 0. -1.
          6    1    1    2  502    0  0.16960693238E+03 -0.12571734157E+03 -0.18418770904E+03  0.32875594845E+03  0.17200000000E+03 0. -1.
         -6    1    1    2    0  502 -0.16960693238E+03  0.12571734157E+03 -0.67622883241E+02  0.28058548754E+03  0.17200000000E+03 0.  1.
</event>
<event>
 4    1 -0.3291270E-004  0.1880460E+03  0.7818608E-02  0.1160236E+00
          5   -1    0    0  501    0  0.00000000000E+00  0.00000000000E+00  0.16070998795E+03  0.16077869954E+03  0.47000000000E+01 0. -1.
         -5   -1    0    0    0  501 -0.00000000000E+00 -0.00000000000E+00 -0.26750769255E+03  0.26754897790E+03  0.47000000000E+01 0.  1.
          6    1    1    2  502    0  0.30318718798E+02 -0.69699860397E+02  0.36938076817E+02  0.19163954907E+03  0.17200000000E+03 0. -1.
         -6    1    1    2    0  502 -0.30318718798E+02  0.69699860397E+02 -0.14373578142E+03  0.23668812837E+03  0.17200000000E+03 0.  1.
</event>
<event>
 4    1 -0.3291270E-004  0.6865808E+03  0.7818608E-02  0.9740460E-01
          5   -1    0    0  501    0  0.00000000000E+00  0.00000000000E+00  0.45100845510E+03  0.45103294400E+03  0.47000000000E+01 0. -1.
         -5   -1    0    0    0  501 -0.00000000000E+00 -0.00000000000E+00 -0.11448837708E+04  0.11448934180E+04  0.47000000000E+01 0.  1.
          6    1    1    2  502    0 -0.54822747116E+03 -0.37584023403E+03 -0.11141196379E+03  0.69556154820E+03  0.17200000000E+03 0. -1.
         -6    1    1    2    0  502  0.54822747116E+03  0.37584023403E+03 -0.58246335190E+03  0.90036481382E+03  0.17200000000E+03 0.  1.
</event>
<event>
 4    1 -0.3291270E-004  0.3863629E+03  0.7818608E-02  0.1048607E+00
          5   -1    0    0  501    0  0.00000000000E+00  0.00000000000E+00  0.11281688406E+03  0.11291474363E+03  0.47000000000E+01 0. -1.
         -5   -1    0    0    0  501 -0.00000000000E+00 -0.00000000000E+00 -0.16799223314E+04  0.16799289061E+04  0.47000000000E+01 0.  1.
          6    1    1    2  502    0  0.26431802185E+03 -0.22322247461E+03 -0.37008036973E+03  0.53501006524E+03  0.17200000000E+03 0. -1.
         -6    1    1    2    0  502 -0.26431802185E+03  0.22322247461E+03 -0.11970250776E+04  0.12578335845E+04  0.17200000000E+03 0.  1.
</event>
<event>
 4    1 -0.3291270E-004  0.4170403E+03  0.7818608E-02  0.1038034E+00
          5   -1    0    0  501    0  0.00000000000E+00  0.00000000000E+00  0.15655104786E+04  0.15655175338E+04  0.47000000000E+01 0. -1.
         -5   -1    0    0    0  501 -0.00000000000E+00 -0.00000000000E+00 -0.11431142160E+03  0.11440800282E+03  0.47000000000E+01 0.  1.
          6    1    1    2  502    0 -0.37935269103E+03  0.20740439226E+02  0.86764350532E+03  0.96266706723E+03  0.17200000000E+03 0. -1.
         -6    1    1    2    0  502  0.37935269103E+03 -0.20740439226E+02  0.58355555169E+03  0.71725846940E+03  0.17200000000E+03 0.  1.
</event>
<event>
 4    1 -0.3291270E-004  0.2198600E+03  0.7818608E-02  0.1133988E+00
          5   -1    0    0  501    0  0.00000000000E+00  0.00000000000E+00  0.62483715230E+03  0.62485482865E+03  0.47000000000E+01 0. -1.
         -5   -1    0    0    0  501 -0.00000000000E+00 -0.00000000000E+00 -0.84152533982E+02  0.84283681550E+02  0.47000000000E+01 0.  1.
          6    1    1    2  502    0 -0.13029126141E+03 -0.42173310850E+02  0.37163963462E+03  0.43180368105E+03  0.17200000000E+03 0. -1.
         -6    1    1    2    0  502  0.13029126141E+03  0.42173310850E+02  0.16904498369E+03  0.27733482915E+03  0.17200000000E+03 0.  1.
</event>
<event>
 4    1 -0.3291270E-004  0.2682267E+03  0.7818608E-02  0.1102299E+00
         -5   -1    0    0    0  501 -0.00000000000E+00  0.00000000000E+00  0.20844071029E+03  0.20849369225E+03  0.47000000000E+01 0.  1.
          5   -1    0    0  501    0  0.00000000000E+00 -0.00000000000E+00 -0.42430878524E+03  0.42433481501E+03  0.47000000000E+01 0. -1.
          6    1    1    2  502    0 -0.20437448394E+02 -0.20480197655E+03 -0.24467627808E+03  0.36305925129E+03  0.17200000000E+03 0. -1.
         -6    1    1    2    0  502  0.20437448394E+02  0.20480197655E+03  0.28808203130E+02  0.26976925596E+03  0.17200000000E+03 0.  1.
</event>
<event>
 4    1 -0.3291270E-004  0.2548208E+03  0.7818608E-02  0.1110296E+00
          5   -1    0    0  501    0  0.00000000000E+00  0.00000000000E+00  0.18316357450E+02  0.18909758069E+02  0.47000000000E+01 0. -1.
         -5   -1    0    0    0  501 -0.00000000000E+00 -0.00000000000E+00 -0.35070342172E+04  0.35070373666E+04  0.47000000000E+01 0.  1.
          6    1    1    2  502    0  0.69395892985E+02  0.17473937529E+03 -0.16145297834E+04  0.16345152372E+04  0.17200000000E+03 0. -1.
         -6    1    1    2    0  502 -0.69395892985E+02 -0.17473937529E+03 -0.18741880764E+04  0.18914318875E+04  0.17200000000E+03 0.  1.
</event>
<event>
 4    1 -0.3291270E-004  0.5385583E+03  0.7818608E-02  0.1004177E+00
          5   -1    0    0  501    0  0.00000000000E+00  0.00000000000E+00  0.85753077624E+03  0.85754365615E+03  0.47000000000E+01 0. -1.
         -5   -1    0    0    0  501 -0.00000000000E+00 -0.00000000000E+00 -0.41894439505E+03  0.41897075810E+03  0.47000000000E+01 0.  1.
          6    1    1    2  502    0 -0.43638540466E+03  0.26462952176E+03  0.49948086340E+03  0.73452442988E+03  0.17200000000E+03 0. -1.
         -6    1    1    2    0  502  0.43638540466E+03 -0.26462952176E+03 -0.60894482201E+02  0.54198998437E+03  0.17200000000E+03 0.  1.
</event>
<event>
 4    1 -0.3291270E-004  0.2835366E+03  0.7818608E-02  0.1093773E+00
         -5   -1    0    0    0  501 -0.00000000000E+00  0.00000000000E+00  0.37506947776E+03  0.37509892448E+03  0.47000000000E+01 0.  1.
          5   -1    0    0  501    0  0.00000000000E+00 -0.00000000000E+00 -0.32292146466E+03  0.32295566621E+03  0.47000000000E+01 0. -1.
          6    1    1    2  502    0  0.91992600473E+02 -0.20578227146E+03 -0.17635103075E+03  0.33390517791E+03  0.17200000000E+03 0. -1.
         -6    1    1    2    0  502 -0.91992600473E+02  0.20578227146E+03  0.22849904385E+03  0.36414941278E+03  0.17200000000E+03 0.  1.
</event>
<event>
 4    1 -0.3291270E-004  0.1864871E+03  0.7818608E-02  0.1161668E+00
         -5   -1    0    0    0  501 -0.00000000000E+00  0.00000000000E+00  0.41177958103E+03  0.41180640276E+03  0.47000000000E+01 0.  1.
          5   -1    0    0  501    0  0.00000000000E+00 -0.00000000000E+00 -0.91260910257E+02  0.91381856738E+02  0.47000000000E+01 0. -1.
          6    1    1    2  502    0 -0.30945402927E+02 -0.65083222643E+02  0.91139618780E+02  0.20756655305E+03  0.17200000000E+03 0. -1.
         -6    1    1    2    0  502  0.30945402927E+02  0.65083222643E+02  0.22937905199E+03  0.29562170645E+03  0.17200000000E+03 0. -1.
</event>
<event>
 4    1 -0.3291270E-004  0.2150715E+03  0.7818608E-02  0.1137612E+00
         -5   -1    0    0    0  501 -0.00000000000E+00  0.00000000000E+00  0.53368304341E+03  0.53370373881E+03  0.47000000000E+01 0.  1.
          5   -1    0    0  501    0  0.00000000000E+00 -0.00000000000E+00 -0.87540127445E+02  0.87666207361E+02  0.47000000000E+01 0. -1.
          6    1    1    2  502    0  0.65781441778E+02 -0.11110608337E+03  0.25546929362E+03  0.33394658229E+03  0.17200000000E+03 0.  1.
         -6    1    1    2    0  502 -0.65781441778E+02  0.11110608337E+03  0.19067362235E+03  0.28742336388E+03  0.17200000000E+03 0.  1.
</event>
<event>
 4    1 -0.3291270E-004  0.1725284E+03  0.7818608E-02  0.1175236E+00
          5   -1    0    0  501    0  0.00000000000E+00  0.00000000000E+00  0.47831273715E+03  0.47833582818E+03  0.47000000000E+01 0. -1.
         -5   -1    0    0    0  501 -0.00000000000E+00 -0.00000000000E+00 -0.87440884309E+02  0.87567107116E+02  0.47000000000E+01 0.  1.
          6    1    1    2  502    0 -0.12995924052E+02  0.36281914944E+01  0.34755269682E+03  0.38801924551E+03  0.17200000000E+03 0. -1.
         -6    1    1    2    0  502  0.12995924052E+02 -0.36281914944E+01  0.43319156023E+02  0.17788368979E+03  0.17200000000E+03 0.  1.
</event>
<event>
 4    1 -0.3291270E-004  0.1744301E+03  0.7818608E-02  0.1173305E+00
          5   -1    0    0  501    0  0.00000000000E+00  0.00000000000E+00  0.49946959997E+02  0.50167607208E+02  0.47000000000E+01 0. -1.
         -5   -1    0    0    0  501 -0.00000000000E+00 -0.00000000000E+00 -0.76007721014E+03  0.76009174142E+03  0.47000000000E+01 0.  1.
          6    1    1    2  502    0  0.11928210284E+02 -0.26449470587E+02 -0.17363359862E+03  0.24611883972E+03  0.17200000000E+03 0. -1.
         -6    1    1    2    0  502 -0.11928210284E+02  0.26449470587E+02 -0.53649665152E+03  0.56414050891E+03  0.17200000000E+03 0.  1.
</event>
<event>
 4    1 -0.3291270E-004  0.1895876E+03  0.7818608E-02  0.1158834E+00
          5   -1    0    0  501    0  0.00000000000E+00  0.00000000000E+00  0.79930011057E+02  0.80068075208E+02  0.47000000000E+01 0. -1.
         -5   -1    0    0    0  501 -0.00000000000E+00 -0.00000000000E+00 -0.96472602019E+03  0.96473746896E+03  0.47000000000E+01 0.  1.
          6    1    1    2  502    0 -0.20234856852E+02  0.77136271714E+02 -0.60528070819E+02  0.19901532906E+03  0.17200000000E+03 0. -1.
         -6    1    1    2    0  502  0.20234856852E+02 -0.77136271714E+02 -0.82426793831E+03  0.84579021511E+03  0.17200000000E+03 0.  1.
</event>
<event>
 4    1 -0.3291270E-004  0.2952607E+03  0.7818608E-02  0.1087634E+00
          5   -1    0    0  501    0  0.00000000000E+00  0.00000000000E+00  0.55247762859E+03  0.55249761998E+03  0.47000000000E+01 0. -1.
         -5   -1    0    0    0  501 -0.00000000000E+00 -0.00000000000E+00 -0.64956291528E+03  0.64957991880E+03  0.47000000000E+01 0.  1.
          6    1    1    2  502    0  0.18514668254E+03 -0.15269442807E+03  0.47442611822E+03  0.55880141738E+03  0.17200000000E+03 0. -1.
         -6    1    1    2    0  502 -0.18514668254E+03  0.15269442807E+03 -0.57151140492E+03  0.64327612141E+03  0.17200000000E+03 0.  1.
</event>
<event>
 4    1 -0.3291270E-004  0.1979984E+03  0.7818608E-02  0.1151439E+00
         -5   -1    0    0    0  501 -0.00000000000E+00  0.00000000000E+00  0.88826005200E+02  0.88950262506E+02  0.47000000000E+01 0.  1.
          5   -1    0    0  501    0  0.00000000000E+00 -0.00000000000E+00 -0.63145872588E+03  0.63147621689E+03  0.47000000000E+01 0. -1.
          6    1    1    2  502    0  0.50470323074E+02  0.84095940709E+02 -0.46917083543E+03  0.50923928911E+03  0.17200000000E+03 0. -1.
         -6    1    1    2    0  502 -0.50470323074E+02 -0.84095940709E+02 -0.73461885253E+02  0.21118719028E+03  0.17200000000E+03 0.  1.
</event>
<event>
 4    1 -0.3291270E-004  0.2090047E+03  0.7818608E-02  0.1142357E+00
         -5   -1    0    0    0  501 -0.00000000000E+00  0.00000000000E+00  0.16458792741E+04  0.16458859848E+04  0.47000000000E+01 0.  1.
          5   -1    0    0  501    0  0.00000000000E+00 -0.00000000000E+00 -0.45355661192E+02  0.45598530701E+02  0.47000000000E+01 0. -1.
          6    1    1    2  502    0  0.23026154817E+02 -0.11648504956E+03  0.25446048712E+03  0.32929183118E+03  0.17200000000E+03 0. -1.
         -6    1    1    2    0  502 -0.23026154817E+02  0.11648504956E+03  0.13460631258E+04  0.13621926843E+04  0.17200000000E+03 0.  1.
</event>
<event>
 4    1 -0.3291270E-004  0.2416474E+03  0.7818608E-02  0.1118700E+00
          5   -1    0    0  501    0  0.00000000000E+00  0.00000000000E+00  0.33692508474E+03  0.33695786491E+03  0.47000000000E+01 0. -1.
         -5   -1    0    0    0  501 -0.00000000000E+00 -0.00000000000E+00 -0.22798960616E+03  0.22803804620E+03  0.47000000000E+01 0.  1.
          6    1    1    2  502    0 -0.13147451956E+03  0.10734939564E+03  0.19287683529E+03  0.30918427455E+03  0.17200000000E+03 0. -1.
         -6    1    1    2    0  502  0.13147451956E+03 -0.10734939564E+03 -0.83941356701E+02  0.25581163657E+03  0.17200000000E+03 0.  1.
</event>
<event>
 4    1 -0.3291270E-004  0.3087947E+03  0.7818608E-02  0.1080925E+00
         -5   -1    0    0    0  501 -0.00000000000E+00  0.00000000000E+00  0.12652706227E+04  0.12652793520E+04  0.47000000000E+01 0.  1.
          5   -1    0    0  501    0  0.00000000000E+00 -0.00000000000E+00 -0.10073879871E+03  0.10084837909E+03  0.47000000000E+01 0. -1.
          6    1    1    2  502    0 -0.49447628375E+02 -0.25164481556E+03  0.23911610136E+03  0.39055177772E+03  0.17200000000E+03 0. -1.
         -6    1    1    2    0  502  0.49447628375E+02  0.25164481556E+03  0.92541572260E+03  0.97557595336E+03  0.17200000000E+03 0.  1.
</event>
<event>
 4    1 -0.3291270E-004  0.3718297E+03  0.7818608E-02  0.1053996E+00
         -5   -1    0    0    0  501 -0.00000000000E+00  0.00000000000E+00  0.52201110995E+03  0.52203226807E+03  0.47000000000E+01 0.  1.
          5   -1    0    0  501    0  0.00000000000E+00 -0.00000000000E+00 -0.26489505825E+03  0.26493675072E+03  0.47000000000E+01 0. -1.
          6    1    1    2  502    0  0.11777732088E+03 -0.30789905973E+03  0.12141591010E+03  0.39115105972E+03  0.17200000000E+03 0. -1.
         -6    1    1    2    0  502 -0.11777732088E+03  0.30789905973E+03  0.13570014161E+03  0.39581795908E+03  0.17200000000E+03 0.  1.
</event>
<event>
 4    1 -0.3291270E-004  0.3000244E+03  0.7818608E-02  0.1085228E+00
          5   -1    0    0  501    0  0.00000000000E+00  0.00000000000E+00  0.33205201678E+03  0.33208527798E+03  0.47000000000E+01 0. -1.
         -5   -1    0    0    0  501 -0.00000000000E+00 -0.00000000000E+00 -0.50624456702E+03  0.50626638406E+03  0.47000000000E+01 0.  1.
          6    1    1    2  502    0  0.40855231060E+02 -0.24240771279E+03  0.19861727100E+03  0.35981032429E+03  0.17200000000E+03 0. -1.
         -6    1    1    2    0  502 -0.40855231060E+02  0.24240771279E+03 -0.37280982124E+03  0.47854133775E+03  0.17200000000E+03 0.  1.
</event>
<event>
 4    1 -0.3291270E-004  0.2370400E+03  0.7818608E-02  0.1121781E+00
          5   -1    0    0  501    0  0.00000000000E+00  0.00000000000E+00  0.43590698574E+03  0.43593232298E+03  0.47000000000E+01 0. -1.
         -5   -1    0    0    0  501 -0.00000000000E+00 -0.00000000000E+00 -0.75637092108E+03  0.75638552356E+03  0.47000000000E+01 0.  1.
          6    1    1    2  502    0 -0.15462730120E+03 -0.51907294813E+02  0.38276200653E+03  0.45021630710E+03  0.17200000000E+03 0. -1.
         -6    1    1    2    0  502  0.15462730120E+03  0.51907294813E+02 -0.70322594186E+03  0.74210153944E+03  0.17200000000E+03 0.  1.
</event>
<event>
 4    1 -0.3291270E-004  0.2133127E+03  0.7818608E-02  0.1138969E+00
         -5   -1    0    0    0  501 -0.00000000000E+00  0.00000000000E+00  0.43793097630E+03  0.43795619644E+03  0.47000000000E+01 0.  1.
          5   -1    0    0  501    0  0.00000000000E+00 -0.00000000000E+00 -0.11416828165E+03  0.11426498385E+03  0.47000000000E+01 0. -1.
          6    1    1    2  502    0  0.52335628168E+02 -0.11480106600E+03  0.78806152109E+02  0.22740429270E+03  0.17200000000E+03 0. -1.
         -6    1    1    2    0  502 -0.52335628168E+02  0.11480106600E+03  0.24495654254E+03  0.32481688759E+03  0.17200000000E+03 0.  1.
</event>
<event>
 4    1 -0.3291270E-004  0.2692047E+03  0.7818608E-02  0.1101736E+00
          5   -1    0    0  501    0  0.00000000000E+00  0.00000000000E+00  0.39318604891E+03  0.39321413893E+03  0.47000000000E+01 0. -1.
         -5   -1    0    0    0  501 -0.00000000000E+00 -0.00000000000E+00 -0.20764285534E+03  0.20769604082E+03  0.47000000000E+01 0.  1.
          6    1    1    2  502    0 -0.20161173912E+03  0.47327219876E+02  0.19359132725E+03  0.33158522446E+03  0.17200000000E+03 0. -1.
         -6    1    1    2    0  502  0.20161173912E+03 -0.47327219876E+02 -0.80481336830E+01  0.26932495530E+03  0.17200000000E+03 0.  1.
</event>
<event>
 4    1 -0.3291270E-004  0.5293467E+03  0.7818608E-02  0.1006391E+00
          5   -1    0    0  501    0  0.00000000000E+00  0.00000000000E+00  0.77653693928E+03  0.77655116256E+03  0.47000000000E+01 0. -1.
         -5   -1    0    0    0  501 -0.00000000000E+00 -0.00000000000E+00 -0.87599342552E+03  0.87600603397E+03  0.47000000000E+01 0.  1.
          6    1    1    2  502    0  0.25225747699E+03  0.43242356152E+03  0.58391971656E+03  0.78814351906E+03  0.17200000000E+03 0. -1.
         -6    1    1    2    0  502 -0.25225747699E+03 -0.43242356152E+03 -0.68337620279E+03  0.86441367747E+03  0.17200000000E+03 0.  1.
</event>
<event>
 4    1 -0.3291270E-004  0.1860881E+03  0.7818608E-02  0.1162038E+00
          5   -1    0    0  501    0  0.00000000000E+00  0.00000000000E+00  0.17943478075E+03  0.17949632460E+03  0.47000000000E+01 0. -1.
         -5   -1    0    0    0  501 -0.00000000000E+00 -0.00000000000E+00 -0.36084166845E+03  0.36087227614E+03  0.47000000000E+01 0.  1.
          6    1    1    2  502    0 -0.53294106921E+02  0.46952453365E+02  0.93612486192E+02  0.20830768656E+03  0.17200000000E+03 0. -1.
         -6    1    1    2    0  502  0.53294106921E+02 -0.46952453365E+02 -0.27501937389E+03  0.33206091418E+03  0.17200000000E+03 0.  1.
</event>
<event>
 4    1 -0.3291270E-004  0.1726682E+03  0.7818608E-02  0.1175094E+00
          5   -1    0    0  501    0  0.00000000000E+00  0.00000000000E+00  0.20295353052E+02  0.20832459180E+02  0.47000000000E+01 0. -1.
         -5   -1    0    0    0  501 -0.00000000000E+00 -0.00000000000E+00 -0.17788075553E+04  0.17788137645E+04  0.47000000000E+01 0.  1.
          6    1    1    2  502    0  0.66088502674E+01 -0.13660931628E+02 -0.49203233927E+03  0.52145001759E+03  0.17200000000E+03 0. -1.
         -6    1    1    2    0  502 -0.66088502674E+01  0.13660931628E+02 -0.12664798630E+04  0.12781962061E+04  0.17200000000E+03 0.  1.
</event>
<event>
 4    1 -0.3291270E-004  0.2377778E+03  0.7818608E-02  0.1121282E+00
          5   -1    0    0  501    0  0.00000000000E+00  0.00000000000E+00  0.10451904521E+04  0.10452010195E+04  0.47000000000E+01 0. -1.
         -5   -1    0    0    0  501 -0.00000000000E+00 -0.00000000000E+00 -0.60145788666E+02  0.60329146308E+02  0.47000000000E+01 0.  1.
          6    1    1    2  502    0  0.61238832138E+02  0.15232886230E+03  0.66919420863E+03  0.71018248762E+03  0.17200000000E+03 0. -1.
         -6    1    1    2    0  502 -0.61238832138E+02 -0.15232886230E+03  0.31585045482E+03  0.39534767820E+03  0.17200000000E+03 0.  1.
</event>
<event>
 4    1 -0.3291270E-004  0.2066758E+03  0.7818608E-02  0.1144226E+00
         -5   -1    0    0    0  501 -0.00000000000E+00  0.00000000000E+00  0.19639887845E+03  0.19645510799E+03  0.47000000000E+01 0.  1.
          5   -1    0    0  501    0  0.00000000000E+00 -0.00000000000E+00 -0.33709213115E+03  0.33712489508E+03  0.47000000000E+01 0. -1.
          6    1    1    2  502    0 -0.90648699352E+02  0.70097878342E+02 -0.22931298023E+03  0.30870591531E+03  0.17200000000E+03 0. -1.
         -6    1    1    2    0  502  0.90648699352E+02 -0.70097878342E+02  0.88619727529E+02  0.22487408777E+03  0.17200000000E+03 0.  1.
</event>
<event>
 4    1 -0.3291270E-004  0.1806062E+03  0.7818608E-02  0.1167218E+00
         -5   -1    0    0    0  501 -0.00000000000E+00  0.00000000000E+00  0.48021211771E+03  0.48023511741E+03  0.47000000000E+01 0.  1.
          5   -1    0    0  501    0  0.00000000000E+00 -0.00000000000E+00 -0.22064343421E+03  0.22069348667E+03  0.47000000000E+01 0. -1.
          6    1    1    2  502    0 -0.36654726850E+02  0.41122160377E+02 -0.16180172828E+03  0.24248381461E+03  0.17200000000E+03 0. -1.
         -6    1    1    2    0  502  0.36654726850E+02 -0.41122160377E+02  0.42137041177E+03  0.45844478947E+03  0.17200000000E+03 0.  1.
</event>
<event>
 4    1 -0.3291270E-004  0.1844285E+03  0.7818608E-02  0.1163585E+00
          5   -1    0    0  501    0  0.00000000000E+00  0.00000000000E+00  0.13430106861E+04  0.13430189102E+04  0.47000000000E+01 0. -1.
         -5   -1    0    0    0  501 -0.00000000000E+00 -0.00000000000E+00 -0.47817805516E+02  0.48048231231E+02  0.47000000000E+01 0.  1.
          6    1    1    2  502    0 -0.49760336833E+02 -0.44201586440E+02  0.11253008255E+04  0.11403139126E+04  0.17200000000E+03 0. -1.
         -6    1    1    2    0  502  0.49760336833E+02  0.44201586440E+02  0.16989205510E+03  0.25075322880E+03  0.17200000000E+03 0.  1.
</event>
<event>
 4    1 -0.3291270E-004  0.1965042E+03  0.7818608E-02  0.1152722E+00
          5   -1    0    0  501    0  0.00000000000E+00  0.00000000000E+00  0.13151833103E+03  0.13160228493E+03  0.47000000000E+01 0. -1.
         -5   -1    0    0    0  501 -0.00000000000E+00 -0.00000000000E+00 -0.29660788881E+03  0.29664512419E+03  0.47000000000E+01 0.  1.
          6    1    1    2  502    0 -0.36494521638E+02  0.87738506716E+02 -0.10479302848E+03  0.22270041421E+03  0.17200000000E+03 0.  1.
         -6    1    1    2    0  502  0.36494521638E+02 -0.87738506716E+02 -0.60296529300E+02  0.20554699491E+03  0.17200000000E+03 0. -1.
</event>
<event>
 4    1 -0.3291270E-004  0.2383395E+03  0.7818608E-02  0.1120904E+00
         -5   -1    0    0    0  501 -0.00000000000E+00  0.00000000000E+00  0.56390828654E+02  0.56586354859E+02  0.47000000000E+01 0.  1.
          5   -1    0    0  501    0  0.00000000000E+00 -0.00000000000E+00 -0.11339447513E+04  0.11339544916E+04  0.47000000000E+01 0. -1.
          6    1    1    2  502    0  0.15780170312E+03 -0.48170077951E+02 -0.73917050980E+03  0.77664585010E+03  0.17200000000E+03 0. -1.
         -6    1    1    2    0  502 -0.15780170312E+03  0.48170077951E+02 -0.33838341287E+03  0.41389499638E+03  0.17200000000E+03 0.  1.
</event>
<event>
 4    1 -0.3291270E-004  0.1917777E+03  0.7818608E-02  0.1156868E+00
         -5   -1    0    0    0  501 -0.00000000000E+00  0.00000000000E+00  0.71757200463E+02  0.71910957568E+02  0.47000000000E+01 0.  1.
          5   -1    0    0  501    0  0.00000000000E+00 -0.00000000000E+00 -0.65842620740E+03  0.65844298204E+03  0.47000000000E+01 0. -1.
          6    1    1    2  502    0  0.83071373863E+02  0.17141003199E+02 -0.46562208009E+03  0.50356984483E+03  0.17200000000E+03 0. -1.
         -6    1    1    2    0  502 -0.83071373863E+02 -0.17141003199E+02 -0.12104692684E+03  0.22678409478E+03  0.17200000000E+03 0.  1.
</event>
<event>
 4    1 -0.3291270E-004  0.1793872E+03  0.7818608E-02  0.1168397E+00
          5   -1    0    0  501    0  0.00000000000E+00  0.00000000000E+00  0.62070448460E+02  0.62248137097E+02  0.47000000000E+01 0. -1.
         -5   -1    0    0    0  501 -0.00000000000E+00 -0.00000000000E+00 -0.53179204333E+03  0.53181281232E+03  0.47000000000E+01 0.  1.
          6    1    1    2  502    0  0.23822186123E+02 -0.45036386491E+02 -0.18619294248E+03  0.25854899824E+03  0.17200000000E+03 0.  1.
         -6    1    1    2    0  502 -0.23822186123E+02  0.45036386491E+02 -0.28352865239E+03  0.33551195118E+03  0.17200000000E+03 0. -1.
</event>
<event>
 4    1 -0.3291270E-004  0.1909272E+03  0.7818608E-02  0.1157628E+00
          5   -1    0    0  501    0  0.00000000000E+00  0.00000000000E+00  0.57550751604E+02  0.57742350231E+02  0.47000000000E+01 0. -1.
         -5   -1    0    0    0  501 -0.00000000000E+00 -0.00000000000E+00 -0.68060252378E+03  0.68061875185E+03  0.47000000000E+01 0.  1.
          6    1    1    2  502    0 -0.82875043114E+02 -0.95605332299E+00 -0.21304431951E+03  0.28607878090E+03  0.17200000000E+03 0. -1.
         -6    1    1    2    0  502  0.82875043114E+02  0.95605332299E+00 -0.41000745267E+03  0.45228232118E+03  0.17200000000E+03 0.  1.
</event>
<event>
 4    1 -0.3291270E-004  0.1820445E+03  0.7818608E-02  0.1165839E+00
          5   -1    0    0  501    0  0.00000000000E+00  0.00000000000E+00  0.17821763492E+02  0.18431094757E+02  0.47000000000E+01 0. -1.
         -5   -1    0    0    0  501 -0.00000000000E+00 -0.00000000000E+00 -0.18687178136E+04  0.18687237240E+04  0.47000000000E+01 0.  1.
          6    1    1    2  502    0 -0.47832319587E+02  0.35612834914E+02 -0.78562234170E+03  0.80643826086E+03  0.17200000000E+03 0. -1.
         -6    1    1    2    0  502  0.47832319587E+02 -0.35612834914E+02 -0.10652737084E+04  0.10807165579E+04  0.17200000000E+03 0.  1.
</event>
<event>
 4    1 -0.3291270E-004  0.2286106E+03  0.7818608E-02  0.1127622E+00
         -5   -1    0    0    0  501 -0.00000000000E+00  0.00000000000E+00  0.12591118144E+04  0.12591205864E+04  0.47000000000E+01 0.  1.
          5   -1    0    0  501    0  0.00000000000E+00 -0.00000000000E+00 -0.72984474835E+02  0.73135651818E+02  0.47000000000E+01 0. -1.
          6    1    1    2  502    0 -0.84010477267E+02  0.12498413449E+03  0.15527027528E+03  0.27635421573E+03  0.17200000000E+03 0. -1.
         -6    1    1    2    0  502  0.84010477267E+02 -0.12498413449E+03  0.10308570643E+04  0.10559020225E+04  0.17200000000E+03 0.  1.
</event>
<event>
 4    1 -0.3291270E-004  0.1943747E+03  0.7818608E-02  0.1154574E+00
         -5   -1    0    0    0  501 -0.00000000000E+00  0.00000000000E+00  0.26915590133E+02  0.27322865740E+02  0.47000000000E+01 0.  1.
          5   -1    0    0  501    0  0.00000000000E+00 -0.00000000000E+00 -0.14079973628E+04  0.14080052073E+04  0.47000000000E+01 0. -1.
          6    1    1    2  502    0  0.89995030549E+02 -0.99214981156E+01 -0.61587715413E+03  0.64582211996E+03  0.17200000000E+03 0.  1.
         -6    1    1    2    0  502 -0.89995030549E+02  0.99214981156E+01 -0.76520461857E+03  0.78950595307E+03  0.17200000000E+03 0. -1.
</event>
<event>
 4    1 -0.3291270E-004  0.2185031E+03  0.7818608E-02  0.1135004E+00
         -5   -1    0    0    0  501 -0.00000000000E+00  0.00000000000E+00  0.18539661752E+03  0.18545618293E+03  0.47000000000E+01 0.  1.
          5   -1    0    0  501    0  0.00000000000E+00 -0.00000000000E+00 -0.27275729477E+03  0.27279778564E+03  0.47000000000E+01 0. -1.
          6    1    1    2  502    0 -0.11928778184E+03  0.62690005875E+02  0.10679424821E+02  0.21876394092E+03  0.17200000000E+03 0.  1.
         -6    1    1    2    0  502  0.11928778184E+03 -0.62690005875E+02 -0.98040102071E+02  0.23949002766E+03  0.17200000000E+03 0.  1.
</event>
<event>
 4    1 -0.3291270E-004  0.2485113E+03  0.7818608E-02  0.1114249E+00
         -5   -1    0    0    0  501 -0.00000000000E+00  0.00000000000E+00  0.23488012426E+03  0.23492714354E+03  0.47000000000E+01 0.  1.
          5   -1    0    0  501    0  0.00000000000E+00 -0.00000000000E+00 -0.35150717309E+03  0.35153859352E+03  0.47000000000E+01 0. -1.
          6    1    1    2  502    0 -0.34618810678E+02 -0.17599835615E+03 -0.20557088465E+03  0.32251708797E+03  0.17200000000E+03 0. -1.
         -6    1    1    2    0  502  0.34618810678E+02  0.17599835615E+03  0.88943835822E+02  0.26394864908E+03  0.17200000000E+03 0.  1.
</event>
<event>
 4    1 -0.3291270E-004  0.1884061E+03  0.7818608E-02  0.1159907E+00
          5   -1    0    0  501    0  0.00000000000E+00  0.00000000000E+00  0.21527091142E+03  0.21532221275E+03  0.47000000000E+01 0. -1.
         -5   -1    0    0    0  501 -0.00000000000E+00 -0.00000000000E+00 -0.21946884283E+03  0.21951916311E+03  0.47000000000E+01 0.  1.
          6    1    1    2  502    0  0.69247697382E+02 -0.33430477579E+02  0.10639806908E+03  0.21637326435E+03  0.17200000000E+03 0. -1.
         -6    1    1    2    0  502 -0.69247697382E+02  0.33430477579E+02 -0.11059600049E+03  0.21846811151E+03  0.17200000000E+03 0.  1.
</event>
<event>
 4    1 -0.3291270E-004  0.1970871E+03  0.7818608E-02  0.1152220E+00
         -5   -1    0    0    0  501 -0.00000000000E+00  0.00000000000E+00  0.12184726577E+03  0.12193787835E+03  0.47000000000E+01 0.  1.
          5   -1    0    0  501    0  0.00000000000E+00 -0.00000000000E+00 -0.32848969982E+03  0.32852332168E+03  0.47000000000E+01 0. -1.
          6    1    1    2  502    0 -0.67548800927E+02 -0.68531028565E+02 -0.64170771802E+02  0.20727091049E+03  0.17200000000E+03 0.  1.
         -6    1    1    2    0  502  0.67548800927E+02  0.68531028565E+02 -0.14247166224E+03  0.24319028954E+03  0.17200000000E+03 0. -1.
</event>
<event>
 4    1 -0.3291270E-004  0.1927215E+03  0.7818608E-02  0.1156029E+00
          5   -1    0    0  501    0  0.00000000000E+00  0.00000000000E+00  0.28737682371E+03  0.28741525500E+03  0.47000000000E+01 0. -1.
         -5   -1    0    0    0  501 -0.00000000000E+00 -0.00000000000E+00 -0.14511343814E+03  0.14518953106E+03  0.47000000000E+01 0.  1.
          6    1    1    2  502    0 -0.52007897539E+02 -0.69661588737E+02 -0.57235049083E+00  0.19272230265E+03  0.17200000000E+03 0.  1.
         -6    1    1    2    0  502  0.52007897539E+02  0.69661588737E+02  0.14283573606E+03  0.23988248341E+03  0.17200000000E+03 0.  1.
</event>
<event>
 4    1 -0.3291270E-004  0.1960083E+03  0.7818608E-02  0.1153151E+00
         -5   -1    0    0    0  501 -0.00000000000E+00  0.00000000000E+00  0.83458339012E+03  0.83459662416E+03  0.47000000000E+01 0.  1.
          5   -1    0    0  501    0  0.00000000000E+00 -0.00000000000E+00 -0.56114198439E+02  0.56310685189E+02  0.47000000000E+01 0. -1.
          6    1    1    2  502    0  0.11545714269E+02 -0.93284180450E+02  0.19957928530E+03  0.27973403969E+03  0.17200000000E+03 0. -1.
         -6    1    1    2    0  502 -0.11545714269E+02  0.93284180450E+02  0.57888990637E+03  0.61117326966E+03  0.17200000000E+03 0.  1.
</event>
<event>
 4    1 -0.3291270E-004  0.4196139E+03  0.7818608E-02  0.1037192E+00
          5   -1    0    0  501    0  0.00000000000E+00  0.00000000000E+00  0.85445006256E+02  0.85574173055E+02  0.47000000000E+01 0. -1.
         -5   -1    0    0    0  501 -0.00000000000E+00 -0.00000000000E+00 -0.20687874995E+04  0.20687928384E+04  0.47000000000E+01 0.  1.
          6    1    1    2  502    0  0.35626805307E+03 -0.13987447634E+03 -0.10657480286E+04  0.11453796992E+04  0.17200000000E+03 0.  1.
         -6    1    1    2    0  502 -0.35626805307E+03  0.13987447634E+03 -0.91759446459E+03  0.10089873122E+04  0.17200000000E+03 0.  1.
</event>
<event>
 4    1 -0.3291270E-004  0.2608382E+03  0.7818608E-02  0.1106641E+00
         -5   -1    0    0    0  501 -0.00000000000E+00  0.00000000000E+00  0.21751049756E+04  0.21751100535E+04  0.47000000000E+01 0.  1.
          5   -1    0    0  501    0  0.00000000000E+00 -0.00000000000E+00 -0.35999743931E+02  0.36305255310E+02  0.47000000000E+01 0. -1.
          6    1    1    2  502    0 -0.72654744683E+02 -0.18213687487E+03  0.66342798684E+03  0.71286271248E+03  0.17200000000E+03 0. -1.
         -6    1    1    2    0  502  0.72654744683E+02  0.18213687487E+03  0.14756772449E+04  0.14985525964E+04  0.17200000000E+03 0.  1.
</event>
<event>
 4    1 -0.3291270E-004  0.1960843E+03  0.7818608E-02  0.1153085E+00
          5   -1    0    0  501    0  0.00000000000E+00  0.00000000000E+00  0.20903162706E+03  0.20908445928E+03  0.47000000000E+01 0. -1.
         -5   -1    0    0    0  501 -0.00000000000E+00 -0.00000000000E+00 -0.18386202985E+03  0.18392209226E+03  0.47000000000E+01 0.  1.
          6    1    1    2  502    0  0.10895510254E+02 -0.93521823747E+02  0.10106540937E+02  0.19634455895E+03  0.17200000000E+03 0.  1.
         -6    1    1    2    0  502 -0.10895510254E+02  0.93521823747E+02  0.15063056275E+02  0.19666199258E+03  0.17200000000E+03 0.  1.
</event>
<event>
 4    1 -0.3291270E-004  0.1944284E+03  0.7818608E-02  0.1154527E+00
          5   -1    0    0  501    0  0.00000000000E+00  0.00000000000E+00  0.49275269204E+03  0.49277510643E+03  0.47000000000E+01 0. -1.
         -5   -1    0    0    0  501 -0.00000000000E+00 -0.00000000000E+00 -0.12233502516E+03  0.12242527672E+03  0.47000000000E+01 0.  1.
          6    1    1    2  502    0  0.69525812855E+01 -0.90388393100E+02  0.37313626747E+03  0.42075298465E+03  0.17200000000E+03 0. -1.
         -6    1    1    2    0  502 -0.69525812855E+01  0.90388393100E+02 -0.27186005842E+01  0.19444739850E+03  0.17200000000E+03 0.  1.
</event>
<event>
 4    1 -0.3291270E-004  0.2043548E+03  0.7818608E-02  0.1146116E+00
          5   -1    0    0  501    0  0.00000000000E+00  0.00000000000E+00  0.57019588179E+03  0.57021525199E+03  0.47000000000E+01 0. -1.
         -5   -1    0    0    0  501 -0.00000000000E+00 -0.00000000000E+00 -0.73521126122E+02  0.73671201878E+02  0.47000000000E+01 0.  1.
          6    1    1    2  502    0 -0.86304413511E+02 -0.68763587922E+02  0.22529090805E+03  0.30416586933E+03  0.17200000000E+03 0.  1.
         -6    1    1    2    0  502  0.86304413511E+02  0.68763587922E+02  0.27138384761E+03  0.33972058454E+03  0.17200000000E+03 0.  1.
</event>
<event>
 4    1 -0.3291270E-004  0.5650651E+03  0.7818608E-02  0.9980659E-01
         -5   -1    0    0    0  501 -0.00000000000E+00  0.00000000000E+00  0.21891621800E+03  0.21896666528E+03  0.47000000000E+01 0.  1.
          5   -1    0    0  501    0  0.00000000000E+00 -0.00000000000E+00 -0.14588234786E+04  0.14588310498E+04  0.47000000000E+01 0. -1.
          6    1    1    2  502    0 -0.58500264869E+02  0.53506286310E+03 -0.63553866126E+03  0.85041633240E+03  0.17200000000E+03 0. -1.
         -6    1    1    2    0  502  0.58500264869E+02 -0.53506286310E+03 -0.60436859936E+03  0.82738138265E+03  0.17200000000E+03 0.  1.
</event>
<event>
 4    1 -0.3291270E-004  0.1905937E+03  0.7818608E-02  0.1157927E+00
          5   -1    0    0  501    0  0.00000000000E+00  0.00000000000E+00  0.74392167730E+02  0.74540489800E+02  0.47000000000E+01 0. -1.
         -5   -1    0    0    0  501 -0.00000000000E+00 -0.00000000000E+00 -0.76453179291E+03  0.76454623953E+03  0.47000000000E+01 0.  1.
          6    1    1    2  502    0  0.39149297207E+02  0.72175342177E+02 -0.92621158745E+02  0.21190711771E+03  0.17200000000E+03 0. -1.
         -6    1    1    2    0  502 -0.39149297207E+02 -0.72175342177E+02 -0.59751846644E+03  0.62717961161E+03  0.17200000000E+03 0.  1.
</event>
<event>
 4    1 -0.3291270E-004  0.2902478E+03  0.7818608E-02  0.1090220E+00
          5   -1    0    0  501    0  0.00000000000E+00  0.00000000000E+00  0.15222972056E+03  0.15230225809E+03  0.47000000000E+01 0. -1.
         -5   -1    0    0    0  501 -0.00000000000E+00 -0.00000000000E+00 -0.10935369887E+04  0.10935470890E+04  0.47000000000E+01 0.  1.
          6    1    1    2  502    0  0.88217862313E+02 -0.21651182839E+03 -0.32788918121E+02  0.29209395101E+03  0.17200000000E+03 0. -1.
         -6    1    1    2    0  502 -0.88217862313E+02  0.21651182839E+03 -0.90851835007E+03  0.95375539604E+03  0.17200000000E+03 0.  1.
</event>
<event>
 4    1 -0.3291270E-004  0.2461971E+03  0.7818608E-02  0.1115732E+00
         -5   -1    0    0    0  501 -0.00000000000E+00  0.00000000000E+00  0.14987956175E+03  0.14995323615E+03  0.47000000000E+01 0.  1.
          5   -1    0    0  501    0  0.00000000000E+00 -0.00000000000E+00 -0.55300456422E+03  0.55302453657E+03  0.47000000000E+01 0. -1.
          6    1    1    2  502    0  0.40482400047E+02 -0.17143563559E+03 -0.38386017812E+03  0.45602811121E+03  0.17200000000E+03 0. -1.
         -6    1    1    2    0  502 -0.40482400047E+02  0.17143563559E+03 -0.19264824347E+02  0.24694966151E+03  0.17200000000E+03 0.  1.
</event>
<event>
 4    1 -0.3291270E-004  0.6027573E+03  0.7818608E-02  0.9899702E-01
         -5   -1    0    0    0  501 -0.00000000000E+00  0.00000000000E+00  0.22978222286E+04  0.22978270353E+04  0.47000000000E+01 0.  1.
          5   -1    0    0  501    0  0.00000000000E+00 -0.00000000000E+00 -0.28052364211E+03  0.28056301214E+03  0.47000000000E+01 0. -1.
          6    1    1    2  502    0 -0.39915726852E+03  0.41761927341E+03  0.15698660375E+03  0.62286529546E+03  0.17200000000E+03 0. -1.
         -6    1    1    2    0  502  0.39915726852E+03 -0.41761927341E+03  0.18603119827E+04  0.19555247520E+04  0.17200000000E+03 0.  1.
</event>
<event>
 4    1 -0.3291270E-004  0.1783535E+03  0.7818608E-02  0.1169406E+00
         -5   -1    0    0    0  501 -0.00000000000E+00  0.00000000000E+00  0.24092742098E+03  0.24097326030E+03  0.47000000000E+01 0.  1.
          5   -1    0    0  501    0  0.00000000000E+00 -0.00000000000E+00 -0.15266982181E+03  0.15274215035E+03  0.47000000000E+01 0. -1.
          6    1    1    2  502    0  0.19166083808E+02  0.43111938337E+02 -0.28396652972E+02  0.18059996649E+03  0.17200000000E+03 0.  1.
         -6    1    1    2    0  502 -0.19166083808E+02 -0.43111938337E+02  0.11665425214E+03  0.21311544415E+03  0.17200000000E+03 0.  1.
</event>
<event>
 4    1 -0.3291270E-004  0.1773670E+03  0.7818608E-02  0.1170376E+00
         -5   -1    0    0    0  501 -0.00000000000E+00  0.00000000000E+00  0.53905398995E+03  0.53907447916E+03  0.47000000000E+01 0.  1.
          5   -1    0    0  501    0  0.00000000000E+00 -0.00000000000E+00 -0.58506459552E+02  0.58694938532E+02  0.47000000000E+01 0. -1.
          6    1    1    2  502    0 -0.61829730858E+01  0.42858136917E+02  0.22027088795E+03  0.28280437255E+03  0.17200000000E+03 0. -1.
         -6    1    1    2    0  502  0.61829730858E+01 -0.42858136917E+02  0.26027664245E+03  0.31496504514E+03  0.17200000000E+03 0.  1.
</event>
<event>
 4    1 -0.3291270E-004  0.2008842E+03  0.7818608E-02  0.1148995E+00
          5   -1    0    0  501    0  0.00000000000E+00  0.00000000000E+00  0.31596856677E+03  0.31600352085E+03  0.47000000000E+01 0. -1.
         -5   -1    0    0    0  501 -0.00000000000E+00 -0.00000000000E+00 -0.13345085691E+03  0.13353359581E+03  0.47000000000E+01 0.  1.
          6    1    1    2  502    0  0.33714902435E+02 -0.98151759734E+02  0.13817482093E+03  0.24381702919E+03  0.17200000000E+03 0. -1.
         -6    1    1    2    0  502 -0.33714902435E+02  0.98151759734E+02  0.44342888936E+02  0.20572008746E+03  0.17200000000E+03 0.  1.
</event>
<event>
 4    1 -0.3291270E-004  0.1793546E+03  0.7818608E-02  0.1168429E+00
         -5   -1    0    0    0  501 -0.00000000000E+00  0.00000000000E+00  0.22422382455E+04  0.22422431714E+04  0.47000000000E+01 0.  1.
          5   -1    0    0  501    0  0.00000000000E+00 -0.00000000000E+00 -0.22149064092E+02  0.22642240175E+02  0.47000000000E+01 0. -1.
          6    1    1    2  502    0 -0.23111946094E+02 -0.45275801377E+02  0.43100123221E+03  0.46682986453E+03  0.17200000000E+03 0. -1.
         -6    1    1    2    0  502  0.23111946094E+02  0.45275801377E+02  0.17890879492E+04  0.17980555470E+04  0.17200000000E+03 0.  1.
</event>
<event>
 4    1 -0.3291270E-004  0.2120847E+03  0.7818608E-02  0.1139926E+00
          5   -1    0    0  501    0  0.00000000000E+00  0.00000000000E+00  0.21007870606E+03  0.21013127502E+03  0.47000000000E+01 0. -1.
         -5   -1    0    0    0  501 -0.00000000000E+00 -0.00000000000E+00 -0.25188266865E+03  0.25192651462E+03  0.47000000000E+01 0.  1.
          6    1    1    2  502    0 -0.98510260364E+02  0.75443017726E+02  0.68670395306E+02  0.22292497283E+03  0.17200000000E+03 0. -1.
         -6    1    1    2    0  502  0.98510260364E+02 -0.75443017726E+02 -0.11047435789E+03  0.23913281680E+03  0.17200000000E+03 0.  1.
</event>
<event>
 4    1 -0.3291270E-004  0.1910799E+03  0.7818608E-02  0.1157491E+00
          5   -1    0    0  501    0  0.00000000000E+00  0.00000000000E+00  0.95344851829E+03  0.95346010248E+03  0.47000000000E+01 0. -1.
         -5   -1    0    0    0  501 -0.00000000000E+00 -0.00000000000E+00 -0.66375525928E+02  0.66541719562E+02  0.47000000000E+01 0.  1.
          6    1    1    2  502    0  0.29142082920E+02 -0.77963221120E+02  0.77558317714E+03  0.79877455487E+03  0.17200000000E+03 0. -1.
         -6    1    1    2    0  502 -0.29142082920E+02  0.77963221120E+02  0.11148981522E+03  0.22122726718E+03  0.17200000000E+03 0.  1.
</event>
<event>
 4    1 -0.3291270E-004  0.1909122E+03  0.7818608E-02  0.1157641E+00
          5   -1    0    0  501    0  0.00000000000E+00  0.00000000000E+00  0.87379310683E+02  0.87505622307E+02  0.47000000000E+01 0. -1.
         -5   -1    0    0    0  501 -0.00000000000E+00 -0.00000000000E+00 -0.42569822101E+03  0.42572416583E+03  0.47000000000E+01 0.  1.
          6    1    1    2  502    0 -0.63421714328E+02  0.53302640442E+02 -0.20650866321E+03  0.28123533439E+03  0.17200000000E+03 0. -1.
         -6    1    1    2    0  502  0.63421714328E+02 -0.53302640442E+02 -0.13181024712E+03  0.23199445375E+03  0.17200000000E+03 0. -1.
</event>
<event>
 4    1 -0.3291270E-004  0.2182979E+03  0.7818608E-02  0.1135158E+00
         -5   -1    0    0    0  501 -0.00000000000E+00  0.00000000000E+00  0.80221938546E+02  0.80359501144E+02  0.47000000000E+01 0.  1.
          5   -1    0    0  501    0  0.00000000000E+00 -0.00000000000E+00 -0.61223902269E+03  0.61225706277E+03  0.47000000000E+01 0. -1.
          6    1    1    2  502    0  0.10397446856E+03 -0.85201372317E+02 -0.20522132830E+03  0.29961601684E+03  0.17200000000E+03 0.  1.
         -6    1    1    2    0  502 -0.10397446856E+03  0.85201372317E+02 -0.32679575584E+03  0.39300054707E+03  0.17200000000E+03 0.  1.
</event>
<event>
 4    1 -0.3291270E-004  0.2821979E+03  0.7818608E-02  0.1094495E+00
          5   -1    0    0  501    0  0.00000000000E+00  0.00000000000E+00  0.12444771284E+03  0.12453643335E+03  0.47000000000E+01 0. -1.
         -5   -1    0    0    0  501 -0.00000000000E+00 -0.00000000000E+00 -0.78329983853E+03  0.78331393900E+03  0.47000000000E+01 0.  1.
          6    1    1    2  502    0  0.19216819908E+03 -0.11455581815E+03 -0.13500699559E+03  0.31282989159E+03  0.17200000000E+03 0. -1.
         -6    1    1    2    0  502 -0.19216819908E+03  0.11455581815E+03 -0.52384513009E+03  0.59502048077E+03  0.17200000000E+03 0.  1.
</event>
<event>
 4    1 -0.3291270E-004  0.2222245E+03  0.7818608E-02  0.1132235E+00
          5   -1    0    0  501    0  0.00000000000E+00  0.00000000000E+00  0.14583649283E+03  0.14591220868E+03  0.47000000000E+01 0. -1.
         -5   -1    0    0    0  501 -0.00000000000E+00 -0.00000000000E+00 -0.36327368068E+03  0.36330408348E+03  0.47000000000E+01 0.  1.
          6    1    1    2  502    0  0.20720107135E+02 -0.13917758753E+03 -0.42164182292E+02  0.22618917299E+03  0.17200000000E+03 0.  1.
         -6    1    1    2    0  502 -0.20720107135E+02  0.13917758753E+03 -0.17527300555E+03  0.28302711917E+03  0.17200000000E+03 0. -1.
</event>
<event>
 4    1 -0.3291270E-004  0.1839361E+03  0.7818608E-02  0.1164047E+00
          5   -1    0    0  501    0  0.00000000000E+00  0.00000000000E+00  0.54234027191E+02  0.54437300680E+02  0.47000000000E+01 0. -1.
         -5   -1    0    0    0  501 -0.00000000000E+00 -0.00000000000E+00 -0.84681937339E+03  0.84683241621E+03  0.47000000000E+01 0.  1.
          6    1    1    2  502    0  0.58355366119E+02 -0.29037135976E+02 -0.16436119266E+03  0.24667206099E+03  0.17200000000E+03 0. -1.
         -6    1    1    2    0  502 -0.58355366119E+02  0.29037135976E+02 -0.62822415354E+03  0.65459765590E+03  0.17200000000E+03 0.  1.
</event>
<event>
 4    1 -0.3291270E-004  0.2243607E+03  0.7818608E-02  0.1130673E+00
         -5   -1    0    0    0  501 -0.00000000000E+00  0.00000000000E+00  0.14978470193E+03  0.14985842296E+03  0.47000000000E+01 0.  1.
          5   -1    0    0  501    0  0.00000000000E+00 -0.00000000000E+00 -0.34496913262E+03  0.34500114849E+03  0.47000000000E+01 0. -1.
          6    1    1    2  502    0  0.46044317054E+02 -0.13650512609E+03 -0.13771698817E+03  0.26325595418E+03  0.17200000000E+03 0.  1.
         -6    1    1    2    0  502 -0.46044317054E+02  0.13650512609E+03 -0.57467442517E+02  0.23160361727E+03  0.17200000000E+03 0.  1.
</event>
<event>
 4    1 -0.3291270E-004  0.2324344E+03  0.7818608E-02  0.1124938E+00
          5   -1    0    0  501    0  0.00000000000E+00  0.00000000000E+00  0.65296457373E+03  0.65298148867E+03  0.47000000000E+01 0. -1.
         -5   -1    0    0    0  501 -0.00000000000E+00 -0.00000000000E+00 -0.10607932350E+03  0.10618339265E+03  0.47000000000E+01 0.  1.
          6    1    1    2  502    0  0.10104473841E+03 -0.11929682591E+03  0.45170169039E+03  0.50799624894E+03  0.17200000000E+03 0. -1.
         -6    1    1    2    0  502 -0.10104473841E+03  0.11929682591E+03  0.95183559837E+02  0.25116863239E+03  0.17200000000E+03 0.  1.
</event>
<event>
 4    1 -0.3291270E-004  0.2180651E+03  0.7818608E-02  0.1135334E+00
         -5   -1    0    0    0  501 -0.00000000000E+00  0.00000000000E+00  0.60285437607E+03  0.60287269696E+03  0.47000000000E+01 0.  1.
          5   -1    0    0  501    0  0.00000000000E+00 -0.00000000000E+00 -0.87761395781E+02  0.87887158274E+02  0.47000000000E+01 0. -1.
          6    1    1    2  502    0  0.10213782486E+03 -0.86811558260E+02  0.14720940337E+03  0.26310262324E+03  0.17200000000E+03 0. -1.
         -6    1    1    2    0  502 -0.10213782486E+03  0.86811558260E+02  0.36788357691E+03  0.42765723199E+03  0.17200000000E+03 0.  1.
</event>
<event>
 4    1 -0.3291270E-004  0.2256765E+03  0.7818608E-02  0.1129720E+00
         -5   -1    0    0    0  501 -0.00000000000E+00  0.00000000000E+00  0.60327792522E+02  0.60510598663E+02  0.47000000000E+01 0.  1.
          5   -1    0    0  501    0  0.00000000000E+00 -0.00000000000E+00 -0.84414135879E+03  0.84415444299E+03  0.47000000000E+01 0. -1.
          6    1    1    2  502    0 -0.11196149052E+03 -0.93864234808E+02 -0.41025222349E+03  0.46822724912E+03  0.17200000000E+03 0.  1.
         -6    1    1    2    0  502  0.11196149052E+03  0.93864234808E+02 -0.37356134277E+03  0.43643779253E+03  0.17200000000E+03 0. -1.
</event>
<event>
 4    1 -0.3291270E-004  0.2169358E+03  0.7818608E-02  0.1136188E+00
          5   -1    0    0  501    0  0.00000000000E+00  0.00000000000E+00  0.22271808983E+03  0.22276767615E+03  0.47000000000E+01 0. -1.
         -5   -1    0    0    0  501 -0.00000000000E+00 -0.00000000000E+00 -0.21582638034E+03  0.21587754967E+03  0.47000000000E+01 0.  1.
          6    1    1    2  502    0 -0.81831652655E+02 -0.10383026604E+03  0.35533940727E+02  0.21982676012E+03  0.17200000000E+03 0.  1.
         -6    1    1    2    0  502  0.81831652655E+02  0.10383026604E+03 -0.28642231234E+02  0.21881846570E+03  0.17200000000E+03 0. -1.
</event>
<event>
 4    1 -0.3291270E-004  0.2403598E+03  0.7818608E-02  0.1119553E+00
          5   -1    0    0  501    0  0.00000000000E+00  0.00000000000E+00  0.61081080343E+03  0.61082888568E+03  0.47000000000E+01 0. -1.
         -5   -1    0    0    0  501 -0.00000000000E+00 -0.00000000000E+00 -0.12015897590E+03  0.12025086066E+03  0.47000000000E+01 0.  1.
          6    1    1    2  502    0 -0.38523238820E+01 -0.16785116534E+03  0.41413834370E+03  0.47883548514E+03  0.17200000000E+03 0. -1.
         -6    1    1    2    0  502  0.38523238820E+01  0.16785116534E+03  0.76513483824E+02  0.25224426121E+03  0.17200000000E+03 0.  1.
</event>
<event>
 4    1 -0.3291270E-004  0.2121729E+03  0.7818608E-02  0.1139857E+00
         -5   -1    0    0    0  501 -0.00000000000E+00  0.00000000000E+00  0.13166270998E+03  0.13174657187E+03  0.47000000000E+01 0.  1.
          5   -1    0    0  501    0  0.00000000000E+00 -0.00000000000E+00 -0.73130451395E+03  0.73131961694E+03  0.47000000000E+01 0. -1.
          6    1    1    2  502    0 -0.42121098014E+02  0.11687245525E+03 -0.61477120658E+03  0.65035451419E+03  0.17200000000E+03 0. -1.
         -6    1    1    2    0  502  0.42121098014E+02 -0.11687245525E+03  0.15129402613E+02  0.21271167462E+03  0.17200000000E+03 0.  1.
</event>
<event>
 4    1 -0.3291270E-004  0.2462188E+03  0.7818608E-02  0.1115718E+00
          5   -1    0    0  501    0  0.00000000000E+00  0.00000000000E+00  0.13089701457E+03  0.13098136670E+03  0.47000000000E+01 0. -1.
         -5   -1    0    0    0  501 -0.00000000000E+00 -0.00000000000E+00 -0.46606704003E+03  0.46609073773E+03  0.47000000000E+01 0.  1.
          6    1    1    2  502    0  0.16383694050E+03  0.64785307814E+02 -0.14295840150E+03  0.28471175553E+03  0.17200000000E+03 0.  1.
         -6    1    1    2    0  502 -0.16383694050E+03 -0.64785307814E+02 -0.19221162396E+03  0.31236034890E+03  0.17200000000E+03 0. -1.
</event>
<event>
 4    1 -0.3291270E-004  0.2630309E+03  0.7818608E-02  0.1105336E+00
          5   -1    0    0  501    0  0.00000000000E+00  0.00000000000E+00  0.25413595427E+03  0.25417941154E+03  0.47000000000E+01 0. -1.
         -5   -1    0    0    0  501 -0.00000000000E+00 -0.00000000000E+00 -0.29453687279E+03  0.29457436996E+03  0.47000000000E+01 0.  1.
          6    1    1    2  502    0  0.19096614528E+03  0.55974775491E+02  0.55432747503E+02  0.26880854456E+03  0.17200000000E+03 0. -1.
         -6    1    1    2    0  502 -0.19096614528E+03 -0.55974775491E+02 -0.95833666031E+02  0.27994523693E+03  0.17200000000E+03 0.  1.
</event>
<event>
 4    1 -0.3291270E-004  0.1767171E+03  0.7818608E-02  0.1171019E+00
          5   -1    0    0  501    0  0.00000000000E+00  0.00000000000E+00  0.98254912534E+02  0.98367259985E+02  0.47000000000E+01 0. -1.
         -5   -1    0    0    0  501 -0.00000000000E+00 -0.00000000000E+00 -0.39032305638E+03  0.39035135243E+03  0.47000000000E+01 0.  1.
          6    1    1    2  502    0 -0.39964161978E+02  0.69133410152E+01 -0.40522937694E+02  0.18130371482E+03  0.17200000000E+03 0. -1.
         -6    1    1    2    0  502  0.39964161978E+02 -0.69133410152E+01 -0.25154520615E+03  0.30741489760E+03  0.17200000000E+03 0.  1.
</event>
<event>
 4    1 -0.3291270E-004  0.2766532E+03  0.7818608E-02  0.1097531E+00
         -5   -1    0    0    0  501 -0.00000000000E+00  0.00000000000E+00  0.22597297914E+03  0.22602185138E+03  0.47000000000E+01 0.  1.
          5   -1    0    0  501    0  0.00000000000E+00 -0.00000000000E+00 -0.57491708699E+03  0.57493629813E+03  0.47000000000E+01 0. -1.
          6    1    1    2  502    0  0.20791147277E+03 -0.61039273289E+02 -0.43121498703E+03  0.51233127801E+03  0.17200000000E+03 0. -1.
         -6    1    1    2    0  502 -0.20791147277E+03  0.61039273289E+02  0.82270879185E+02  0.28862687150E+03  0.17200000000E+03 0.  1.
</event>
<event>
 4    1 -0.3291270E-004  0.2564396E+03  0.7818608E-02  0.1109301E+00
         -5   -1    0    0    0  501 -0.00000000000E+00  0.00000000000E+00  0.52253006050E+03  0.52255119761E+03  0.47000000000E+01 0.  1.
          5   -1    0    0  501    0  0.00000000000E+00 -0.00000000000E+00 -0.38795516179E+03  0.38798363053E+03  0.47000000000E+01 0. -1.
          6    1    1    2  502    0 -0.11035681391E+03  0.15491499762E+03 -0.30692980944E+03  0.39995898638E+03  0.17200000000E+03 0. -1.
         -6    1    1    2    0  502  0.11035681391E+03 -0.15491499762E+03  0.44150470816E+03  0.51057584176E+03  0.17200000000E+03 0.  1.
</event>
<event>
 4    1 -0.3291270E-004  0.2182796E+03  0.7818608E-02  0.1135172E+00
         -5   -1    0    0    0  501 -0.00000000000E+00  0.00000000000E+00  0.27696070586E+03  0.27700058229E+03  0.47000000000E+01 0.  1.
          5   -1    0    0  501    0  0.00000000000E+00 -0.00000000000E+00 -0.18241696696E+03  0.18247750502E+03  0.47000000000E+01 0. -1.
          6    1    1    2  502    0 -0.99274191340E+02  0.90590443011E+02 -0.77516601945E+01  0.21841721925E+03  0.17200000000E+03 0. -1.
         -6    1    1    2    0  502  0.99274191340E+02 -0.90590443011E+02  0.10229539909E+03  0.24106086805E+03  0.17200000000E+03 0. -1.
</event>
<event>
 4    1 -0.3291270E-004  0.2224078E+03  0.7818608E-02  0.1132101E+00
         -5   -1    0    0    0  501 -0.00000000000E+00  0.00000000000E+00  0.72136124933E+02  0.72289076079E+02  0.47000000000E+01 0.  1.
          5   -1    0    0  501    0  0.00000000000E+00 -0.00000000000E+00 -0.69661513427E+03  0.69663098933E+03  0.47000000000E+01 0. -1.
          6    1    1    2  502    0 -0.10454136264E+03 -0.94616702186E+02 -0.36223256396E+03  0.42506193340E+03  0.17200000000E+03 0.  1.
         -6    1    1    2    0  502  0.10454136264E+03  0.94616702186E+02 -0.26224644538E+03  0.34385813201E+03  0.17200000000E+03 0. -1.
</event>
<event>
 4    1 -0.3291270E-004  0.1770401E+03  0.7818608E-02  0.1170699E+00
         -5   -1    0    0    0  501 -0.00000000000E+00  0.00000000000E+00  0.13766601270E+03  0.13774621974E+03  0.47000000000E+01 0.  1.
          5   -1    0    0  501    0  0.00000000000E+00 -0.00000000000E+00 -0.24240296453E+03  0.24244852488E+03  0.47000000000E+01 0. -1.
          6    1    1    2  502    0 -0.25919289961E+02 -0.32975389201E+02 -0.99483569645E+02  0.20307675030E+03  0.17200000000E+03 0. -1.
         -6    1    1    2    0  502  0.25919289961E+02  0.32975389201E+02 -0.52533821874E+01  0.17711799431E+03  0.17200000000E+03 0.  1.
</event>
<event>
 4    1 -0.3291270E-004  0.1784055E+03  0.7818608E-02  0.1169355E+00
         -5   -1    0    0    0  501 -0.00000000000E+00  0.00000000000E+00  0.21774211971E+02  0.22275688698E+02  0.47000000000E+01 0.  1.
          5   -1    0    0  501    0  0.00000000000E+00 -0.00000000000E+00 -0.18065023548E+04  0.18065084688E+04  0.47000000000E+01 0. -1.
          6    1    1    2  502    0 -0.65693642552E+01  0.46918902800E+02 -0.13015712545E+04  0.13137413256E+04  0.17200000000E+03 0. -1.
         -6    1    1    2    0  502  0.65693642552E+01 -0.46918902800E+02 -0.48315688831E+03  0.51504283191E+03  0.17200000000E+03 0.  1.
</event>
<event>
 4    1 -0.3291270E-004  0.2572414E+03  0.7818608E-02  0.1108812E+00
          5   -1    0    0  501    0  0.00000000000E+00  0.00000000000E+00  0.43956720769E+03  0.43959233396E+03  0.47000000000E+01 0. -1.
         -5   -1    0    0    0  501 -0.00000000000E+00 -0.00000000000E+00 -0.16767401629E+03  0.16773987522E+03  0.47000000000E+01 0.  1.
          6    1    1    2  502    0 -0.17629146190E+03 -0.74232361123E+02  0.38719499941E+02  0.26013904484E+03  0.17200000000E+03 0.  1.
         -6    1    1    2    0  502  0.17629146190E+03  0.74232361123E+02  0.23317369145E+03  0.34719316434E+03  0.17200000000E+03 0. -1.
</event>
<event>
 4    1 -0.3291270E-004  0.2667223E+03  0.7818608E-02  0.1103170E+00
         -5   -1    0    0    0  501 -0.00000000000E+00  0.00000000000E+00  0.34208096265E+03  0.34211324881E+03  0.47000000000E+01 0.  1.
          5   -1    0    0  501    0  0.00000000000E+00 -0.00000000000E+00 -0.27636364923E+03  0.27640361180E+03  0.47000000000E+01 0. -1.
          6    1    1    2  502    0 -0.18356153817E+03 -0.88667544663E+02 -0.12104951394E+03  0.29290571281E+03  0.17200000000E+03 0. -1.
         -6    1    1    2    0  502  0.18356153817E+03  0.88667544663E+02  0.18676682736E+03  0.32561114780E+03  0.17200000000E+03 0.  1.
</event>
<event>
 4    1 -0.3291270E-004  0.1906199E+03  0.7818608E-02  0.1157903E+00
          5   -1    0    0  501    0  0.00000000000E+00  0.00000000000E+00  0.37789607568E+03  0.37792530216E+03  0.47000000000E+01 0. -1.
         -5   -1    0    0    0  501 -0.00000000000E+00 -0.00000000000E+00 -0.17720594014E+03  0.17726825779E+03  0.47000000000E+01 0.  1.
          6    1    1    2  502    0 -0.23652767864E+02 -0.78692326240E+02  0.28812824970E+03  0.34547622771E+03  0.17200000000E+03 0. -1.
         -6    1    1    2    0  502  0.23652767864E+02  0.78692326240E+02 -0.87438114160E+02  0.20971733225E+03  0.17200000000E+03 0.  1.
</event>
<event>
 4    1 -0.3291270E-004  0.2596067E+03  0.7818608E-02  0.1107380E+00
          5   -1    0    0  501    0  0.00000000000E+00  0.00000000000E+00  0.18918728881E+03  0.18924566110E+03  0.47000000000E+01 0. -1.
         -5   -1    0    0    0  501 -0.00000000000E+00 -0.00000000000E+00 -0.63141771217E+03  0.63143520431E+03  0.47000000000E+01 0.  1.
          6    1    1    2  502    0 -0.11602792380E+02 -0.19410566547E+03  0.49821366089E+02  0.26434409900E+03  0.17200000000E+03 0. -1.
         -6    1    1    2    0  502  0.11602792380E+02  0.19410566547E+03 -0.49205178945E+03  0.55633676641E+03  0.17200000000E+03 0.  1.
</event>
<event>
 4    1 -0.3291270E-004  0.1740793E+03  0.7818608E-02  0.1173659E+00
          5   -1    0    0  501    0  0.00000000000E+00  0.00000000000E+00  0.25187057359E+03  0.25191442166E+03  0.47000000000E+01 0. -1.
         -5   -1    0    0    0  501 -0.00000000000E+00 -0.00000000000E+00 -0.12447257448E+03  0.12456127728E+03  0.47000000000E+01 0.  1.
          6    1    1    2  502    0 -0.12761189365E+02 -0.23595473769E+02  0.98498509625E+02  0.20001387636E+03  0.17200000000E+03 0.  1.
         -6    1    1    2    0  502  0.12761189365E+02  0.23595473769E+02  0.28899489484E+02  0.17646182258E+03  0.17200000000E+03 0.  1.
</event>
<event>
 4    1 -0.3291270E-004  0.1957899E+03  0.7818608E-02  0.1153340E+00
          5   -1    0    0  501    0  0.00000000000E+00  0.00000000000E+00  0.35527961098E+03  0.35531069781E+03  0.47000000000E+01 0. -1.
         -5   -1    0    0    0  501 -0.00000000000E+00 -0.00000000000E+00 -0.44718336309E+03  0.44720806145E+03  0.47000000000E+01 0.  1.
          6    1    1    2  502    0 -0.78133599506E+02  0.51427902602E+02  0.30357063857E+03  0.36123236447E+03  0.17200000000E+03 0. -1.
         -6    1    1    2    0  502  0.78133599506E+02 -0.51427902602E+02 -0.39547439069E+03  0.44128639479E+03  0.17200000000E+03 0.  1.
</event>
<event>
 4    1 -0.3291270E-004  0.2328030E+03  0.7818608E-02  0.1124682E+00
         -5   -1    0    0    0  501 -0.00000000000E+00  0.00000000000E+00  0.21254423505E+03  0.21259619436E+03  0.47000000000E+01 0.  1.
          5   -1    0    0  501    0  0.00000000000E+00 -0.00000000000E+00 -0.51698480660E+03  0.51700617042E+03  0.47000000000E+01 0. -1.
          6    1    1    2  502    0 -0.62765941645E+02  0.14378337548E+03  0.10750420287E+03  0.25642616117E+03  0.17200000000E+03 0.  1.
         -6    1    1    2    0  502  0.62765941645E+02 -0.14378337548E+03 -0.41194477441E+03  0.47317620361E+03  0.17200000000E+03 0.  1.
</event>
<event>
 4    1 -0.3291270E-004  0.1766330E+03  0.7818608E-02  0.1171102E+00
          5   -1    0    0  501    0  0.00000000000E+00  0.00000000000E+00  0.59023076326E+02  0.59209910818E+02  0.47000000000E+01 0. -1.
         -5   -1    0    0    0  501 -0.00000000000E+00 -0.00000000000E+00 -0.74118754447E+03  0.74120244608E+03  0.47000000000E+01 0.  1.
          6    1    1    2  502    0 -0.10126347748E+02 -0.38892951107E+02 -0.55590862877E+03  0.58329547238E+03  0.17200000000E+03 0.  1.
         -6    1    1    2    0  502  0.10126347748E+02  0.38892951107E+02 -0.12625583937E+03  0.21711688451E+03  0.17200000000E+03 0. -1.
</event>
<event>
 4    1 -0.3291270E-004  0.3365794E+03  0.7818608E-02  0.1068262E+00
         -5   -1    0    0    0  501 -0.00000000000E+00  0.00000000000E+00  0.70513867365E+03  0.70515433706E+03  0.47000000000E+01 0.  1.
          5   -1    0    0  501    0  0.00000000000E+00 -0.00000000000E+00 -0.48426963533E+03  0.48429244234E+03  0.47000000000E+01 0. -1.
          6    1    1    2  502    0  0.26633651084E+03 -0.11298913242E+03 -0.37573883231E+03  0.50444558790E+03  0.17200000000E+03 0. -1.
         -6    1    1    2    0  502 -0.26633651084E+03  0.11298913242E+03  0.59660787062E+03  0.68500119149E+03  0.17200000000E+03 0.  1.
</event>
<event>
 4    1 -0.3291270E-004  0.2317294E+03  0.7818608E-02  0.1125428E+00
         -5   -1    0    0    0  501 -0.00000000000E+00  0.00000000000E+00  0.24125073612E+03  0.24129651402E+03  0.47000000000E+01 0.  1.
          5   -1    0    0  501    0  0.00000000000E+00 -0.00000000000E+00 -0.96802419974E+03  0.96803560951E+03  0.47000000000E+01 0. -1.
          6    1    1    2  502    0 -0.34151354580E+02 -0.15148659332E+03 -0.89401276258E+03  0.92355688652E+03  0.17200000000E+03 0. -1.
         -6    1    1    2    0  502  0.34151354580E+02  0.15148659332E+03  0.16723929896E+03  0.28577523702E+03  0.17200000000E+03 0.  1.
</event>
<event>
 4    1 -0.3291270E-004  0.1839034E+03  0.7818608E-02  0.1164078E+00
          5   -1    0    0  501    0  0.00000000000E+00  0.00000000000E+00  0.19493964584E+03  0.19499629617E+03  0.47000000000E+01 0. -1.
         -5   -1    0    0    0  501 -0.00000000000E+00 -0.00000000000E+00 -0.18172417522E+03  0.18178494399E+03  0.47000000000E+01 0.  1.
          6    1    1    2  502    0 -0.49758817870E+02  0.41958441394E+02  0.46967576132E+02  0.18980622742E+03  0.17200000000E+03 0.  1.
         -6    1    1    2    0  502  0.49758817870E+02 -0.41958441394E+02 -0.33752105514E+02  0.18697501273E+03  0.17200000000E+03 0.  1.
</event>
<event>
 4    1 -0.3291270E-004  0.2081632E+03  0.7818608E-02  0.1143029E+00
          5   -1    0    0  501    0  0.00000000000E+00  0.00000000000E+00  0.14220933712E+04  0.14221011379E+04  0.47000000000E+01 0. -1.
         -5   -1    0    0    0  501 -0.00000000000E+00 -0.00000000000E+00 -0.49525573109E+02  0.49748089328E+02  0.47000000000E+01 0.  1.
          6    1    1    2  502    0 -0.11200482395E+03 -0.34682049491E+02  0.11436410913E+04  0.11624314478E+04  0.17200000000E+03 0. -1.
         -6    1    1    2    0  502  0.11200482395E+03  0.34682049491E+02  0.22892670685E+03  0.30941777947E+03  0.17200000000E+03 0.  1.
</event>
<event>
 4    1 -0.3291270E-004  0.3330778E+03  0.7818608E-02  0.1069783E+00
         -5   -1    0    0    0  501 -0.00000000000E+00  0.00000000000E+00  0.61610097757E+03  0.61611890457E+03  0.47000000000E+01 0.  1.
          5   -1    0    0  501    0  0.00000000000E+00 -0.00000000000E+00 -0.20092274810E+03  0.20097771196E+03  0.47000000000E+01 0. -1.
          6    1    1    2  502    0 -0.26375501777E+03  0.10858233957E+03  0.75833564138E+02  0.34160146855E+03  0.17200000000E+03 0.  1.
         -6    1    1    2    0  502  0.26375501777E+03 -0.10858233957E+03  0.33934466533E+03  0.47549514798E+03  0.17200000000E+03 0. -1.
</event>
<event>
 4    1 -0.3291270E-004  0.2434742E+03  0.7818608E-02  0.1117500E+00
         -5   -1    0    0    0  501 -0.00000000000E+00  0.00000000000E+00  0.15441645457E+04  0.15441716984E+04  0.47000000000E+01 0.  1.
          5   -1    0    0  501    0  0.00000000000E+00 -0.00000000000E+00 -0.57016899539E+02  0.57210286078E+02  0.47000000000E+01 0. -1.
          6    1    1    2  502    0 -0.14566052936E+03  0.92079900704E+02  0.28506001203E+03  0.37488519361E+03  0.17200000000E+03 0. -1.
         -6    1    1    2    0  502  0.14566052936E+03 -0.92079900704E+02  0.12020876341E+04  0.12264967909E+04  0.17200000000E+03 0.  1.
</event>
<event>
 4    1 -0.3291270E-004  0.2138295E+03  0.7818608E-02  0.1138569E+00
          5   -1    0    0  501    0  0.00000000000E+00  0.00000000000E+00  0.47329835100E+03  0.47332168666E+03  0.47000000000E+01 0. -1.
         -5   -1    0    0    0  501 -0.00000000000E+00 -0.00000000000E+00 -0.21699131717E+03  0.21704221186E+03  0.47000000000E+01 0.  1.
          6    1    1    2  502    0 -0.69029957204E+02  0.10664867458E+03  0.38528697236E+03  0.44064625932E+03  0.17200000000E+03 0. -1.
         -6    1    1    2    0  502  0.69029957204E+02 -0.10664867458E+03 -0.12897993853E+03  0.24971763919E+03  0.17200000000E+03 0.  1.
</event>
<event>
 4    1 -0.3291270E-004  0.2204172E+03  0.7818608E-02  0.1133572E+00
          5   -1    0    0  501    0  0.00000000000E+00  0.00000000000E+00  0.53189047405E+03  0.53191123920E+03  0.47000000000E+01 0. -1.
         -5   -1    0    0    0  501 -0.00000000000E+00 -0.00000000000E+00 -0.11377457996E+03  0.11387161650E+03  0.47000000000E+01 0.  1.
          6    1    1    2  502    0  0.72897775883E+02 -0.11698572080E+03  0.65498526658E+02  0.22994303989E+03  0.17200000000E+03 0.  1.
         -6    1    1    2    0  502 -0.72897775883E+02  0.11698572080E+03  0.35261736743E+03  0.41583981581E+03  0.17200000000E+03 0. -1.
</event>
<event>
 4    1 -0.3291270E-004  0.2171318E+03  0.7818608E-02  0.1136040E+00
         -5   -1    0    0    0  501 -0.00000000000E+00  0.00000000000E+00  0.12252250523E+03  0.12261261880E+03  0.47000000000E+01 0.  1.
          5   -1    0    0  501    0  0.00000000000E+00 -0.00000000000E+00 -0.51703247955E+03  0.51705384140E+03  0.47000000000E+01 0. -1.
          6    1    1    2  502    0 -0.53091133627E+02 -0.12142307893E+03 -0.35913550491E+03  0.41967194742E+03  0.17200000000E+03 0. -1.
         -6    1    1    2    0  502  0.53091133627E+02  0.12142307893E+03 -0.35374469409E+02  0.21999451278E+03  0.17200000000E+03 0. -1.
</event>
<event>
 4    1 -0.3291270E-004  0.2046305E+03  0.7818608E-02  0.1145890E+00
         -5   -1    0    0    0  501 -0.00000000000E+00  0.00000000000E+00  0.48240921393E+02  0.48469335634E+02  0.47000000000E+01 0.  1.
          5   -1    0    0  501    0  0.00000000000E+00 -0.00000000000E+00 -0.87297852527E+03  0.87299117726E+03  0.47000000000E+01 0. -1.
          6    1    1    2  502    0  0.82707538697E+02 -0.73817995164E+02 -0.45435799527E+03  0.49831197180E+03  0.17200000000E+03 0. -1.
         -6    1    1    2    0  502 -0.82707538697E+02  0.73817995164E+02 -0.37037960860E+03  0.42314854110E+03  0.17200000000E+03 0.  1.
</event>
<event>
 4    1 -0.3291270E-004  0.1866938E+03  0.7818608E-02  0.1161478E+00
          5   -1    0    0  501    0  0.00000000000E+00  0.00000000000E+00  0.43352636266E+02  0.43606663152E+02  0.47000000000E+01 0. -1.
         -5   -1    0    0    0  501 -0.00000000000E+00 -0.00000000000E+00 -0.82152935897E+03  0.82154280329E+03  0.47000000000E+01 0.  1.
          6    1    1    2  502    0  0.54290788696E+02 -0.48198551618E+02 -0.32133549168E+03  0.37163300221E+03  0.17200000000E+03 0. -1.
         -6    1    1    2    0  502 -0.54290788696E+02  0.48198551618E+02 -0.45684123102E+03  0.49351646424E+03  0.17200000000E+03 0.  1.
</event>
<event>
 4    1 -0.3291270E-004  0.3131049E+03  0.7818608E-02  0.1078867E+00
          5   -1    0    0  501    0  0.00000000000E+00  0.00000000000E+00  0.20702854985E+03  0.20708189311E+03  0.47000000000E+01 0. -1.
         -5   -1    0    0    0  501 -0.00000000000E+00 -0.00000000000E+00 -0.11311110872E+04  0.11311208519E+04  0.47000000000E+01 0.  1.
          6    1    1    2  502    0 -0.32065358705E+02 -0.25965839733E+03  0.48159881173E+02  0.31678706522E+03  0.17200000000E+03 0. -1.
         -6    1    1    2    0  502  0.32065358705E+02  0.25965839733E+03 -0.97224241850E+03  0.10214156798E+04  0.17200000000E+03 0.  1.
</event>
<event>
 4    1 -0.3291270E-004  0.2374925E+03  0.7818608E-02  0.1121475E+00
         -5   -1    0    0    0  501 -0.00000000000E+00  0.00000000000E+00  0.31265745406E+03  0.31269277826E+03  0.47000000000E+01 0.  1.
          5   -1    0    0  501    0  0.00000000000E+00 -0.00000000000E+00 -0.21244929470E+03  0.21250127721E+03  0.47000000000E+01 0. -1.
          6    1    1    2  502    0  0.16369446479E+03 -0.47745404041E+01 -0.51991862707E+02  0.24311690157E+03  0.17200000000E+03 0. -1.
         -6    1    1    2    0  502 -0.16369446479E+03  0.47745404041E+01  0.15220002207E+03  0.28207715391E+03  0.17200000000E+03 0.  1.
</event>
<event>
 4    1 -0.3291270E-004  0.1902573E+03  0.7818608E-02  0.1158229E+00
         -5   -1    0    0    0  501 -0.00000000000E+00  0.00000000000E+00  0.11283872535E+04  0.11283970418E+04  0.47000000000E+01 0.  1.
          5   -1    0    0  501    0  0.00000000000E+00 -0.00000000000E+00 -0.33866940784E+02  0.34191514709E+02  0.47000000000E+01 0. -1.
          6    1    1    2  502    0 -0.21595970239E+02 -0.78405821188E+02  0.68674307728E+03  0.71261063205E+03  0.17200000000E+03 0.  1.
         -6    1    1    2    0  502  0.21595970239E+02  0.78405821188E+02  0.40777723548E+03  0.44997792446E+03  0.17200000000E+03 0. -1.
</event>
<event>
 4    1 -0.3291270E-004  0.1962869E+03  0.7818608E-02  0.1152910E+00
          5   -1    0    0  501    0  0.00000000000E+00  0.00000000000E+00  0.57272102661E+03  0.57274031142E+03  0.47000000000E+01 0. -1.
         -5   -1    0    0    0  501 -0.00000000000E+00 -0.00000000000E+00 -0.69600519961E+02  0.69759030805E+02  0.47000000000E+01 0.  1.
          6    1    1    2  502    0  0.20825821725E+02 -0.92254201877E+02  0.19160896649E+03  0.27430375253E+03  0.17200000000E+03 0.  1.
         -6    1    1    2    0  502 -0.20825821725E+02  0.92254201877E+02  0.31151154016E+03  0.36819558969E+03  0.17200000000E+03 0.  1.
</event>
<event>
 4    1 -0.3291270E-004  0.2485747E+03  0.7818608E-02  0.1114209E+00
         -5   -1    0    0    0  501 -0.00000000000E+00  0.00000000000E+00  0.80319367926E+02  0.80456763943E+02  0.47000000000E+01 0.  1.
          5   -1    0    0  501    0  0.00000000000E+00 -0.00000000000E+00 -0.18964154112E+04  0.18964212354E+04  0.47000000000E+01 0. -1.
          6    1    1    2  502    0  0.13126572225E+03 -0.12237109409E+03 -0.16703124507E+04  0.16887075109E+04  0.17200000000E+03 0. -1.
         -6    1    1    2    0  502 -0.13126572225E+03  0.12237109409E+03 -0.14578359262E+03  0.28817048840E+03  0.17200000000E+03 0.  1.
</event>
<event>
 4    1 -0.3291270E-004  0.2234013E+03  0.7818608E-02  0.1131372E+00
          5   -1    0    0  501    0  0.00000000000E+00  0.00000000000E+00  0.25969820572E+03  0.25974073237E+03  0.47000000000E+01 0. -1.
         -5   -1    0    0    0  501 -0.00000000000E+00 -0.00000000000E+00 -0.19344777151E+03  0.19350485860E+03  0.47000000000E+01 0.  1.
          6    1    1    2  502    0  0.12112491872E+03 -0.75185651005E+02  0.52103592246E+02  0.22939684474E+03  0.17200000000E+03 0. -1.
         -6    1    1    2    0  502 -0.12112491872E+03  0.75185651005E+02  0.14146841968E+02  0.22384874623E+03  0.17200000000E+03 0.  1.
</event>
<event>
 4    1 -0.3291270E-004  0.1776912E+03  0.7818608E-02  0.1170056E+00
         -5   -1    0    0    0  501 -0.00000000000E+00  0.00000000000E+00  0.61198717711E+03  0.61200522460E+03  0.47000000000E+01 0.  1.
          5   -1    0    0  501    0  0.00000000000E+00 -0.00000000000E+00 -0.10061805275E+03  0.10072776449E+03  0.47000000000E+01 0. -1.
          6    1    1    2  502    0  0.17974273254E+02 -0.40830146630E+02  0.68347730831E+01  0.17782263494E+03  0.17200000000E+03 0. -1.
         -6    1    1    2    0  502 -0.17974273254E+02  0.40830146630E+02  0.50453435127E+03  0.53491035416E+03  0.17200000000E+03 0.  1.
</event>
<event>
 4    1 -0.3291270E-004  0.2410035E+03  0.7818608E-02  0.1119126E+00
          5   -1    0    0  501    0  0.00000000000E+00  0.00000000000E+00  0.22931784337E+03  0.22936600290E+03  0.47000000000E+01 0. -1.
         -5   -1    0    0    0  501 -0.00000000000E+00 -0.00000000000E+00 -0.26513069052E+03  0.26517234595E+03  0.47000000000E+01 0.  1.
          6    1    1    2  502    0 -0.12849993900E+03  0.10948268395E+03  0.34564046494E+02  0.24346943487E+03  0.17200000000E+03 0. -1.
         -6    1    1    2    0  502  0.12849993900E+03 -0.10948268395E+03 -0.70376893645E+02  0.25106891398E+03  0.17200000000E+03 0.  1.
</event>
<event>
 4    1 -0.3291270E-004  0.1769265E+03  0.7818608E-02  0.1170811E+00
         -5   -1    0    0    0  501 -0.00000000000E+00  0.00000000000E+00  0.57034884834E+02  0.57228210596E+02  0.47000000000E+01 0.  1.
          5   -1    0    0  501    0  0.00000000000E+00 -0.00000000000E+00 -0.72023092494E+03  0.72024626014E+03  0.47000000000E+01 0. -1.
          6    1    1    2  502    0 -0.32027238455E+02  0.26329205987E+02 -0.52182901288E+03  0.55100679649E+03  0.17200000000E+03 0. -1.
         -6    1    1    2    0  502  0.32027238455E+02 -0.26329205987E+02 -0.14136702722E+03  0.22646767424E+03  0.17200000000E+03 0.  1.
</event>
<event>
 4    1 -0.3291270E-004  0.6084852E+03  0.7818608E-02  0.9887957E-01
         -5   -1    0    0    0  501 -0.00000000000E+00  0.00000000000E+00  0.30223513341E+03  0.30227167560E+03  0.47000000000E+01 0.  1.
          5   -1    0    0  501    0  0.00000000000E+00 -0.00000000000E+00 -0.13397224569E+04  0.13397307011E+04  0.47000000000E+01 0. -1.
          6    1    1    2  502    0  0.55034778829E+03  0.19439010818E+03 -0.75905257298E+03  0.97283863553E+03  0.17200000000E+03 0. -1.
         -6    1    1    2    0  502 -0.55034778829E+03 -0.19439010818E+03 -0.27843475052E+03  0.66916374120E+03  0.17200000000E+03 0.  1.
</event>
<event>
 4    1 -0.3291270E-004  0.2061919E+03  0.7818608E-02  0.1144618E+00
         -5   -1    0    0    0  501 -0.00000000000E+00  0.00000000000E+00  0.35971807468E+03  0.35974877797E+03  0.47000000000E+01 0.  1.
          5   -1    0    0  501    0  0.00000000000E+00 -0.00000000000E+00 -0.13241971000E+03  0.13250309278E+03  0.47000000000E+01 0. -1.
          6    1    1    2  502    0 -0.35093562263E+02 -0.10816446282E+03  0.32769826227E+02  0.20877971798E+03  0.17200000000E+03 0.  1.
         -6    1    1    2    0  502  0.35093562263E+02  0.10816446282E+03  0.19452853845E+03  0.28347215278E+03  0.17200000000E+03 0.  1.
</event>
<event>
 4    1 -0.3291270E-004  0.2709072E+03  0.7818608E-02  0.1100762E+00
         -5   -1    0    0    0  501 -0.00000000000E+00  0.00000000000E+00  0.10750928875E+03  0.10761197502E+03  0.47000000000E+01 0.  1.
          5   -1    0    0  501    0  0.00000000000E+00 -0.00000000000E+00 -0.72816404385E+03  0.72817921198E+03  0.47000000000E+01 0. -1.
          6    1    1    2  502    0  0.20893345568E+03  0.12390948692E+02 -0.20535247754E+03  0.33994170757E+03  0.17200000000E+03 0. -1.
         -6    1    1    2    0  502 -0.20893345568E+03 -0.12390948692E+02 -0.41530227755E+03  0.49584947943E+03  0.17200000000E+03 0.  1.
</event>
<event>
 4    1 -0.3291270E-004  0.1777883E+03  0.7818608E-02  0.1169961E+00
          5   -1    0    0  501    0  0.00000000000E+00  0.00000000000E+00  0.12955442291E+03  0.12963964862E+03  0.47000000000E+01 0. -1.
         -5   -1    0    0    0  501 -0.00000000000E+00 -0.00000000000E+00 -0.37634327259E+03  0.37637261965E+03  0.47000000000E+01 0.  1.
          6    1    1    2  502    0 -0.44557740470E+02 -0.62673661382E+01  0.26733192239E+02  0.17978691744E+03  0.17200000000E+03 0. -1.
         -6    1    1    2    0  502  0.44557740470E+02  0.62673661382E+01 -0.27352204192E+03  0.32622535084E+03  0.17200000000E+03 0.  1.
</event>
<event>
 4    1 -0.3291270E-004  0.2313279E+03  0.7818608E-02  0.1125709E+00
          5   -1    0    0  501    0  0.00000000000E+00  0.00000000000E+00  0.27326914514E+03  0.27330956017E+03  0.47000000000E+01 0. -1.
         -5   -1    0    0    0  501 -0.00000000000E+00 -0.00000000000E+00 -0.26735430284E+03  0.26739561187E+03  0.47000000000E+01 0.  1.
          6    1    1    2  502    0  0.61797547508E+02  0.14180861315E+03  0.14285558697E+03  0.27188294976E+03  0.17200000000E+03 0. -1.
         -6    1    1    2    0  502 -0.61797547508E+02 -0.14180861315E+03 -0.13694074468E+03  0.26882222229E+03  0.17200000000E+03 0.  1.
</event>
<event>
 4    1 -0.3291270E-004  0.5252848E+03  0.7818608E-02  0.1007382E+00
         -5   -1    0    0    0  501 -0.00000000000E+00  0.00000000000E+00  0.14479869200E+04  0.14479945478E+04  0.47000000000E+01 0.  1.
          5   -1    0    0  501    0  0.00000000000E+00 -0.00000000000E+00 -0.21116349564E+03  0.21121579461E+03  0.47000000000E+01 0. -1.
          6    1    1    2  502    0  0.19613303586E+02  0.49593892193E+03  0.35905952474E+03  0.63627654229E+03  0.17200000000E+03 0. -1.
         -6    1    1    2    0  502 -0.19613303586E+02 -0.49593892193E+03  0.87776389958E+03  0.10229338001E+04  0.17200000000E+03 0.  1.
</event>
<event>
 4    1 -0.3291270E-004  0.1978454E+03  0.7818608E-02  0.1151570E+00
          5   -1    0    0  501    0  0.00000000000E+00  0.00000000000E+00  0.38975266452E+02  0.39257628494E+02  0.47000000000E+01 0. -1.
         -5   -1    0    0    0  501 -0.00000000000E+00 -0.00000000000E+00 -0.11323028426E+04  0.11323125970E+04  0.47000000000E+01 0.  1.
          6    1    1    2  502    0 -0.78064805550E+02  0.58861559896E+02 -0.34674598260E+03  0.39921870390E+03  0.17200000000E+03 0. -1.
         -6    1    1    2    0  502  0.78064805550E+02 -0.58861559896E+02 -0.74658159356E+03  0.77235152162E+03  0.17200000000E+03 0.  1.
</event>
<event>
 4    1 -0.3291270E-004  0.3266152E+03  0.7818608E-02  0.1072644E+00
         -5   -1    0    0    0  501 -0.00000000000E+00  0.00000000000E+00  0.84835604747E+03  0.84836906667E+03  0.47000000000E+01 0.  1.
          5   -1    0    0  501    0  0.00000000000E+00 -0.00000000000E+00 -0.12752059565E+03  0.12760717971E+03  0.47000000000E+01 0. -1.
          6    1    1    2  502    0 -0.21322528811E+03  0.17784398731E+03  0.30194505454E+03  0.44480144253E+03  0.17200000000E+03 0. -1.
         -6    1    1    2    0  502  0.21322528811E+03 -0.17784398731E+03  0.41889039729E+03  0.53117480386E+03  0.17200000000E+03 0.  1.
</event>
<event>
 4    1 -0.3291270E-004  0.2289986E+03  0.7818608E-02  0.1127347E+00
          5   -1    0    0  501    0  0.00000000000E+00  0.00000000000E+00  0.12081466279E+03  0.12090604925E+03  0.47000000000E+01 0. -1.
         -5   -1    0    0    0  501 -0.00000000000E+00 -0.00000000000E+00 -0.86669980158E+03  0.86671254523E+03  0.47000000000E+01 0.  1.
          6    1    1    2  502    0 -0.10739510679E+03 -0.10640796501E+03 -0.23965483445E+02  0.23024923100E+03  0.17200000000E+03 0. -1.
         -6    1    1    2    0  502  0.10739510679E+03  0.10640796501E+03 -0.72191965534E+03  0.75736936349E+03  0.17200000000E+03 0.  1.
</event>
<event>
 4    1 -0.3291270E-004  0.1792478E+03  0.7818608E-02  0.1168533E+00
          5   -1    0    0  501    0  0.00000000000E+00  0.00000000000E+00  0.25286266685E+04  0.25286310365E+04  0.47000000000E+01 0. -1.
         -5   -1    0    0    0  501 -0.00000000000E+00 -0.00000000000E+00 -0.13895504259E+02  0.14668845852E+02  0.47000000000E+01 0.  1.
          6    1    1    2  502    0  0.46419758981E+02  0.19773312025E+02  0.16802793193E+04  0.16898131166E+04  0.17200000000E+03 0.  1.
         -6    1    1    2    0  502 -0.46419758981E+02 -0.19773312025E+02  0.83445184493E+03  0.85348676580E+03  0.17200000000E+03 0.  1.
</event>
<event>
 4    1 -0.3291270E-004  0.2123259E+03  0.7818608E-02  0.1139737E+00
          5   -1    0    0  501    0  0.00000000000E+00  0.00000000000E+00  0.44936729198E+03  0.44939187031E+03  0.47000000000E+01 0. -1.
         -5   -1    0    0    0  501 -0.00000000000E+00 -0.00000000000E+00 -0.16382098114E+03  0.16388838843E+03  0.47000000000E+01 0.  1.
          6    1    1    2  502    0  0.35433902998E+02 -0.11934297605E+03  0.33373748474E+03  0.39555406221E+03  0.17200000000E+03 0. -1.
         -6    1    1    2    0  502 -0.35433902998E+02  0.11934297605E+03 -0.48191173899E+02  0.21772619653E+03  0.17200000000E+03 0.  1.
</event>
<event>
 4    1 -0.3291270E-004  0.3241569E+03  0.7818608E-02  0.1073752E+00
          5   -1    0    0  501    0  0.00000000000E+00  0.00000000000E+00  0.45355211005E+03  0.45357646162E+03  0.47000000000E+01 0. -1.
         -5   -1    0    0    0  501 -0.00000000000E+00 -0.00000000000E+00 -0.54109233317E+03  0.54111274520E+03  0.47000000000E+01 0.  1.
          6    1    1    2  502    0 -0.13150073913E+03 -0.24124931682E+03  0.33233328127E+03  0.46424464143E+03  0.17200000000E+03 0. -1.
         -6    1    1    2    0  502  0.13150073913E+03  0.24124931682E+03 -0.41987350439E+03  0.53044456538E+03  0.17200000000E+03 0.  1.
</event>
<event>
 4    1 -0.3291270E-004  0.4512043E+03  0.7818608E-02  0.1027364E+00
         -5   -1    0    0    0  501 -0.00000000000E+00  0.00000000000E+00  0.26277315960E+03  0.26281518869E+03  0.47000000000E+01 0.  1.
          5   -1    0    0  501    0  0.00000000000E+00 -0.00000000000E+00 -0.82746602373E+03  0.82747937160E+03  0.47000000000E+01 0. -1.
          6    1    1    2  502    0  0.43999907141E+02 -0.41480759721E+03 -0.42007500041E+03  0.61648060837E+03  0.17200000000E+03 0. -1.
         -6    1    1    2    0  502 -0.43999907141E+02  0.41480759721E+03 -0.14461786372E+03  0.47381395192E+03  0.17200000000E+03 0.  1.
</event>
<event>
 4    1 -0.3291270E-004  0.2251481E+03  0.7818608E-02  0.1130102E+00
         -5   -1    0    0    0  501 -0.00000000000E+00  0.00000000000E+00  0.19283538336E+03  0.19289265168E+03  0.47000000000E+01 0.  1.
          5   -1    0    0  501    0  0.00000000000E+00 -0.00000000000E+00 -0.76176726020E+03  0.76178175924E+03  0.47000000000E+01 0. -1.
          6    1    1    2  502    0 -0.13318513904E+03  0.58046510537E+02 -0.67078311465E+03  0.70756036177E+03  0.17200000000E+03 0. -1.
         -6    1    1    2    0  502  0.13318513904E+03 -0.58046510537E+02  0.10185123781E+03  0.24711404916E+03  0.17200000000E+03 0.  1.
</event>
<event>
 4    1 -0.3291270E-004  0.1781302E+03  0.7818608E-02  0.1169625E+00
         -5   -1    0    0    0  501 -0.00000000000E+00  0.00000000000E+00  0.56743017101E+03  0.56744963563E+03  0.47000000000E+01 0.  1.
          5   -1    0    0  501    0  0.00000000000E+00 -0.00000000000E+00 -0.11456290825E+03  0.11465927763E+03  0.47000000000E+01 0. -1.
          6    1    1    2  502    0 -0.82913016607E+01 -0.45580786874E+02 -0.17649295573E+02  0.17900237833E+03  0.17200000000E+03 0. -1.
         -6    1    1    2    0  502  0.82913016607E+01  0.45580786874E+02  0.47051655833E+03  0.50310653492E+03  0.17200000000E+03 0.  1.
</event>
<event>
 4    1 -0.3291270E-004  0.1797339E+03  0.7818608E-02  0.1168061E+00
         -5   -1    0    0    0  501 -0.00000000000E+00  0.00000000000E+00  0.57893320504E+03  0.57895228292E+03  0.47000000000E+01 0.  1.
          5   -1    0    0  501    0  0.00000000000E+00 -0.00000000000E+00 -0.80389724788E+02  0.80527000760E+02  0.47000000000E+01 0. -1.
          6    1    1    2  502    0  0.19274129635E+02 -0.48464174236E+02  0.66674021190E+02  0.19170209534E+03  0.17200000000E+03 0. -1.
         -6    1    1    2    0  502 -0.19274129635E+02  0.48464174236E+02  0.43186945907E+03  0.46777718834E+03  0.17200000000E+03 0.  1.
</event>
<event>
 4    1 -0.3291270E-004  0.1816681E+03  0.7818608E-02  0.1166198E+00
          5   -1    0    0  501    0  0.00000000000E+00  0.00000000000E+00  0.73714312596E+02  0.73863995841E+02  0.47000000000E+01 0. -1.
         -5   -1    0    0    0  501 -0.00000000000E+00 -0.00000000000E+00 -0.53419055589E+03  0.53421123163E+03  0.47000000000E+01 0.  1.
          6    1    1    2  502    0 -0.56856353787E+02 -0.13662773146E+02 -0.10749788240E+03  0.21109029124E+03  0.17200000000E+03 0. -1.
         -6    1    1    2    0  502  0.56856353787E+02  0.13662773146E+02 -0.35297836089E+03  0.39698493623E+03  0.17200000000E+03 0.  1.
</event>
<event>
 4    1 -0.3291270E-004  0.1735732E+03  0.7818608E-02  0.1174172E+00
          5   -1    0    0  501    0  0.00000000000E+00  0.00000000000E+00  0.40550732683E+03  0.40553456340E+03  0.47000000000E+01 0. -1.
         -5   -1    0    0    0  501 -0.00000000000E+00 -0.00000000000E+00 -0.74937527516E+02  0.75084772293E+02  0.47000000000E+01 0.  1.
          6    1    1    2  502    0 -0.21431715203E+02  0.91835964054E+01  0.18922428801E+03  0.25677517020E+03  0.17200000000E+03 0.  1.
         -6    1    1    2    0  502  0.21431715203E+02 -0.91835964054E+01  0.14134551131E+03  0.22384416550E+03  0.17200000000E+03 0.  1.
</event>
<event>
 4    1 -0.3291270E-004  0.2347893E+03  0.7818608E-02  0.1123314E+00
         -5   -1    0    0    0  501 -0.00000000000E+00  0.00000000000E+00  0.11601947578E+04  0.11602042777E+04  0.47000000000E+01 0.  1.
          5   -1    0    0  501    0  0.00000000000E+00 -0.00000000000E+00 -0.53169224396E+02  0.53376553119E+02  0.47000000000E+01 0. -1.
          6    1    1    2  502    0 -0.94656804239E+01 -0.15953806648E+03  0.35386432443E+03  0.42467158354E+03  0.17200000000E+03 0. -1.
         -6    1    1    2    0  502  0.94656804239E+01  0.15953806648E+03  0.75316120899E+03  0.78890924731E+03  0.17200000000E+03 0.  1.
</event>
<event>
 4    1 -0.3291270E-004  0.3065162E+03  0.7818608E-02  0.1082028E+00
         -5   -1    0    0    0  501 -0.00000000000E+00  0.00000000000E+00  0.26721128577E+03  0.26725261691E+03  0.47000000000E+01 0.  1.
          5   -1    0    0  501    0  0.00000000000E+00 -0.00000000000E+00 -0.73539420591E+03  0.73540922491E+03  0.47000000000E+01 0. -1.
          6    1    1    2  502    0 -0.25171084825E+03 -0.31777638671E+02 -0.59628503884E+03  0.67045359048E+03  0.17200000000E+03 0. -1.
         -6    1    1    2    0  502  0.25171084825E+03  0.31777638671E+02  0.12810211870E+03  0.33220825134E+03  0.17200000000E+03 0.  1.
</event>
<event>
 4    1 -0.3291270E-004  0.2611201E+03  0.7818608E-02  0.1106472E+00
         -5   -1    0    0    0  501 -0.00000000000E+00  0.00000000000E+00  0.85740904466E+03  0.85742192639E+03  0.47000000000E+01 0.  1.
          5   -1    0    0  501    0  0.00000000000E+00 -0.00000000000E+00 -0.80042498309E+02  0.80180368767E+02  0.47000000000E+01 0. -1.
          6    1    1    2  502    0 -0.19485293153E+03  0.25140360964E+02  0.42931720954E+03  0.50249076517E+03  0.17200000000E+03 0. -1.
         -6    1    1    2    0  502  0.19485293153E+03 -0.25140360964E+02  0.34804933681E+03  0.43511152999E+03  0.17200000000E+03 0. -1.
</event>
<event>
 4    1 -0.3291270E-004  0.2687421E+03  0.7818608E-02  0.1102002E+00
         -5   -1    0    0    0  501 -0.00000000000E+00  0.00000000000E+00  0.51478738659E+03  0.51480884160E+03  0.47000000000E+01 0.  1.
          5   -1    0    0  501    0  0.00000000000E+00 -0.00000000000E+00 -0.14068744481E+03  0.14076593028E+03  0.47000000000E+01 0. -1.
          6    1    1    2  502    0 -0.18366646028E+03 -0.94365955676E+02  0.16839928869E+03  0.31714448230E+03  0.17200000000E+03 0. -1.
         -6    1    1    2    0  502  0.18366646028E+03  0.94365955676E+02  0.20570065310E+03  0.33843028958E+03  0.17200000000E+03 0. -1.
</event>
<event>
 4    1 -0.3291270E-004  0.1881173E+03  0.7818608E-02  0.1160170E+00
          5   -1    0    0  501    0  0.00000000000E+00  0.00000000000E+00  0.40306976975E+03  0.40309717103E+03  0.47000000000E+01 0. -1.
         -5   -1    0    0    0  501 -0.00000000000E+00 -0.00000000000E+00 -0.18506577551E+03  0.18512544737E+03  0.47000000000E+01 0.  1.
          6    1    1    2  502    0 -0.27315654297E+02 -0.71119357047E+02  0.32225924456E+03  0.37314759629E+03  0.17200000000E+03 0. -1.
         -6    1    1    2    0  502  0.27315654297E+02  0.71119357047E+02 -0.10425525031E+03  0.21507502211E+03  0.17200000000E+03 0.  1.
</event>
<event>
 4    1 -0.3291270E-004  0.2003605E+03  0.7818608E-02  0.1149435E+00
         -5   -1    0    0    0  501 -0.00000000000E+00  0.00000000000E+00  0.41205829141E+03  0.41208509500E+03  0.47000000000E+01 0.  1.
          5   -1    0    0  501    0  0.00000000000E+00 -0.00000000000E+00 -0.11166176398E+03  0.11176063500E+03  0.47000000000E+01 0. -1.
          6    1    1    2  502    0  0.10229906181E+03  0.97587280847E+01  0.56441431138E+02  0.20815851165E+03  0.17200000000E+03 0. -1.
         -6    1    1    2    0  502 -0.10229906181E+03 -0.97587280847E+01  0.24395509630E+03  0.31568721835E+03  0.17200000000E+03 0.  1.
</event>
<event>
 4    1 -0.3291270E-004  0.2028572E+03  0.7818608E-02  0.1147351E+00
          5   -1    0    0  501    0  0.00000000000E+00  0.00000000000E+00  0.23306033909E+03  0.23310772543E+03  0.47000000000E+01 0. -1.
         -5   -1    0    0    0  501 -0.00000000000E+00 -0.00000000000E+00 -0.20215573367E+03  0.20221036239E+03  0.47000000000E+01 0.  1.
          6    1    1    2  502    0  0.56033020114E+02 -0.91800520292E+02  0.93014996924E+02  0.22316546445E+03  0.17200000000E+03 0. -1.
         -6    1    1    2    0  502 -0.56033020114E+02  0.91800520292E+02 -0.62110391510E+02  0.21215262337E+03  0.17200000000E+03 0.  1.
</event>
<event>
 4    1 -0.3291270E-004  0.2006975E+03  0.7818608E-02  0.1149152E+00
          5   -1    0    0  501    0  0.00000000000E+00  0.00000000000E+00  0.20631636270E+03  0.20636989005E+03  0.47000000000E+01 0. -1.
         -5   -1    0    0    0  501 -0.00000000000E+00 -0.00000000000E+00 -0.21117175949E+03  0.21122405641E+03  0.47000000000E+01 0.  1.
          6    1    1    2  502    0  0.10324652194E+03 -0.59691618923E+01  0.55115804875E+02  0.20812791051E+03  0.17200000000E+03 0. -1.
         -6    1    1    2    0  502 -0.10324652194E+03  0.59691618923E+01 -0.59971201666E+02  0.20946603595E+03  0.17200000000E+03 0.  1.
</event>
<event>
 4    1 -0.3291270E-004  0.1970604E+03  0.7818608E-02  0.1152243E+00
          5   -1    0    0  501    0  0.00000000000E+00  0.00000000000E+00  0.12483953513E+04  0.12484041987E+04  0.47000000000E+01 0. -1.
         -5   -1    0    0    0  501 -0.00000000000E+00 -0.00000000000E+00 -0.94570502310E+02  0.94687221456E+02  0.47000000000E+01 0.  1.
          6    1    1    2  502    0 -0.68687389109E+02 -0.67311433007E+02  0.11271352045E+04  0.11442318627E+04  0.17200000000E+03 0. -1.
         -6    1    1    2    0  502  0.68687389109E+02  0.67311433007E+02  0.26689644502E+02  0.19885955738E+03  0.17200000000E+03 0.  1.
</event>
<event>
 4    1 -0.3291270E-004  0.3491999E+03  0.7818608E-02  0.1062944E+00
         -5   -1    0    0    0  501 -0.00000000000E+00  0.00000000000E+00  0.74999507513E+03  0.75000980175E+03  0.47000000000E+01 0.  1.
          5   -1    0    0  501    0  0.00000000000E+00 -0.00000000000E+00 -0.16609111630E+03  0.16615760263E+03  0.47000000000E+01 0. -1.
          6    1    1    2  502    0  0.48731903778E+02 -0.29996965881E+03  0.35893348656E+03  0.50077324452E+03  0.17200000000E+03 0. -1.
         -6    1    1    2    0  502 -0.48731903778E+02  0.29996965881E+03  0.22497047227E+03  0.41539415986E+03  0.17200000000E+03 0.  1.
</event>
<event>
 4    1 -0.3291270E-004  0.1783209E+03  0.7818608E-02  0.1169438E+00
          5   -1    0    0  501    0  0.00000000000E+00  0.00000000000E+00  0.28830816820E+04  0.28830855129E+04  0.47000000000E+01 0. -1.
         -5   -1    0    0    0  501 -0.00000000000E+00 -0.00000000000E+00 -0.42136826059E+02  0.42398138052E+02  0.47000000000E+01 0.  1.
          6    1    1    2  502    0  0.46159462859E+02 -0.91458954914E+01  0.26779910852E+04  0.26839214958E+04  0.17200000000E+03 0. -1.
         -6    1    1    2    0  502 -0.46159462859E+02  0.91458954914E+01  0.16295377074E+03  0.24156215518E+03  0.17200000000E+03 0.  1.
</event>
<event>
 4    1 -0.3291270E-004  0.1870364E+03  0.7818608E-02  0.1161162E+00
         -5   -1    0    0    0  501 -0.00000000000E+00  0.00000000000E+00  0.20664986530E+03  0.20670330628E+03  0.47000000000E+01 0.  1.
          5   -1    0    0  501    0  0.00000000000E+00 -0.00000000000E+00 -0.17187089856E+03  0.17193514990E+03  0.47000000000E+01 0. -1.
          6    1    1    2  502    0  0.67375212960E+02  0.29311805168E+02 -0.63067648987E+01  0.18714266357E+03  0.17200000000E+03 0.  1.
         -6    1    1    2    0  502 -0.67375212960E+02 -0.29311805168E+02  0.41085731637E+02  0.19149579261E+03  0.17200000000E+03 0.  1.
</event>
<event>
 4    1 -0.3291270E-004  0.1993929E+03  0.7818608E-02  0.1150252E+00
         -5   -1    0    0    0  501 -0.00000000000E+00  0.00000000000E+00  0.17139312795E+03  0.17145755833E+03  0.47000000000E+01 0.  1.
          5   -1    0    0  501    0  0.00000000000E+00 -0.00000000000E+00 -0.27249105327E+03  0.27253158370E+03  0.47000000000E+01 0. -1.
          6    1    1    2  502    0 -0.98891665604E+01 -0.10037799012E+03  0.35182840289E+02  0.20247313098E+03  0.17200000000E+03 0. -1.
         -6    1    1    2    0  502  0.98891665604E+01  0.10037799012E+03 -0.13628076562E+03  0.24151601105E+03  0.17200000000E+03 0. -1.
</event>
<event>
 4    1 -0.3291270E-004  0.1892935E+03  0.7818608E-02  0.1159100E+00
         -5   -1    0    0    0  501 -0.00000000000E+00  0.00000000000E+00  0.29373685352E+03  0.29377445280E+03  0.47000000000E+01 0.  1.
          5   -1    0    0  501    0  0.00000000000E+00 -0.00000000000E+00 -0.12734001424E+03  0.12742672101E+03  0.47000000000E+01 0. -1.
          6    1    1    2  502    0 -0.59125112664E+02 -0.52461781284E+02  0.12672130119E+03  0.22779443720E+03  0.17200000000E+03 0. -1.
         -6    1    1    2    0  502  0.59125112664E+02  0.52461781284E+02  0.39675538090E+02  0.19340673661E+03  0.17200000000E+03 0. -1.
</event>
<event>
 4    1 -0.3291270E-004  0.2565003E+03  0.7818608E-02  0.1109264E+00
          5   -1    0    0  501    0  0.00000000000E+00  0.00000000000E+00  0.34844886021E+03  0.34848055639E+03  0.47000000000E+01 0. -1.
         -5   -1    0    0    0  501 -0.00000000000E+00 -0.00000000000E+00 -0.20702911169E+03  0.20708245480E+03  0.47000000000E+01 0.  1.
          6    1    1    2  502    0  0.38495959448E+02 -0.18635031720E+03 -0.11822988775E+02  0.25677258942E+03  0.17200000000E+03 0.  1.
         -6    1    1    2    0  502 -0.38495959448E+02  0.18635031720E+03  0.15324273730E+03  0.29879042178E+03  0.17200000000E+03 0.  1.
</event>
<event>
 4    1 -0.3291270E-004  0.2783082E+03  0.7818608E-02  0.1096617E+00
         -5   -1    0    0    0  501 -0.00000000000E+00  0.00000000000E+00  0.14069336513E+04  0.14069415017E+04  0.47000000000E+01 0.  1.
          5   -1    0    0  501    0  0.00000000000E+00 -0.00000000000E+00 -0.77609642769E+02  0.77751827314E+02  0.47000000000E+01 0. -1.
          6    1    1    2  502    0  0.55646025173E+02 -0.21160092642E+03  0.26395326936E+03  0.38357106327E+03  0.17200000000E+03 0. -1.
         -6    1    1    2    0  502 -0.55646025173E+02  0.21160092642E+03  0.10653707391E+04  0.11011222657E+04  0.17200000000E+03 0.  1.
</event>
<event>
 4    1 -0.3291270E-004  0.1827907E+03  0.7818608E-02  0.1165129E+00
         -5   -1    0    0    0  501 -0.00000000000E+00  0.00000000000E+00  0.69590970090E+03  0.69592557203E+03  0.47000000000E+01 0.  1.
          5   -1    0    0  501    0  0.00000000000E+00 -0.00000000000E+00 -0.63949402718E+02  0.64121884782E+02  0.47000000000E+01 0. -1.
          6    1    1    2  502    0  0.30209409484E+02 -0.53998302726E+02  0.50614975213E+03  0.53814495882E+03  0.17200000000E+03 0.  1.
         -6    1    1    2    0  502 -0.30209409484E+02  0.53998302726E+02  0.12581054605E+03  0.22190249799E+03  0.17200000000E+03 0.  1.
</event>
<event>
 4    1 -0.3291270E-004  0.2482757E+03  0.7818608E-02  0.1114399E+00
         -5   -1    0    0    0  501 -0.00000000000E+00  0.00000000000E+00  0.39143502171E+03  0.39146323738E+03  0.47000000000E+01 0.  1.
          5   -1    0    0  501    0  0.00000000000E+00 -0.00000000000E+00 -0.32643397351E+03  0.32646780708E+03  0.47000000000E+01 0. -1.
          6    1    1    2  502    0 -0.17207388782E+03  0.49471068001E+02 -0.22577445928E+03  0.33558145941E+03  0.17200000000E+03 0. -1.
         -6    1    1    2    0  502  0.17207388782E+03 -0.49471068001E+02  0.29077550748E+03  0.38234958505E+03  0.17200000000E+03 0.  1.
</event>
<event>
 4    1 -0.3291270E-004  0.1792796E+03  0.7818608E-02  0.1168502E+00
          5   -1    0    0  501    0  0.00000000000E+00  0.00000000000E+00  0.21940443233E+03  0.21945476739E+03  0.47000000000E+01 0. -1.
         -5   -1    0    0    0  501 -0.00000000000E+00 -0.00000000000E+00 -0.22346790449E+03  0.22351732446E+03  0.47000000000E+01 0.  1.
          6    1    1    2  502    0  0.38016705808E+02  0.33345277607E+02  0.12801512567E+03  0.22029309989E+03  0.17200000000E+03 0. -1.
         -6    1    1    2    0  502 -0.38016705808E+02 -0.33345277607E+02 -0.13207859782E+03  0.22267899196E+03  0.17200000000E+03 0.  1.
</event>
<event>
 4    1 -0.3291270E-004  0.1965528E+03  0.7818608E-02  0.1152680E+00
          5   -1    0    0  501    0  0.00000000000E+00  0.00000000000E+00  0.92443135284E+03  0.92444330065E+03  0.47000000000E+01 0. -1.
         -5   -1    0    0    0  501 -0.00000000000E+00 -0.00000000000E+00 -0.65762697492E+02  0.65930435927E+02  0.47000000000E+01 0.  1.
          6    1    1    2  502    0  0.53491588173E+02 -0.78661648563E+02  0.72868503905E+03  0.75472835583E+03  0.17200000000E+03 0. -1.
         -6    1    1    2    0  502 -0.53491588173E+02  0.78661648563E+02  0.12998361630E+03  0.23564538074E+03  0.17200000000E+03 0.  1.
</event>
<event>
 4    1 -0.3291270E-004  0.1779062E+03  0.7818608E-02  0.1169845E+00
          5   -1    0    0  501    0  0.00000000000E+00  0.00000000000E+00  0.40430199647E+03  0.40432931423E+03  0.47000000000E+01 0. -1.
         -5   -1    0    0    0  501 -0.00000000000E+00 -0.00000000000E+00 -0.78262274387E+02  0.78403275392E+02  0.47000000000E+01 0.  1.
          6    1    1    2  502    0 -0.25424025776E+02 -0.37686227447E+02  0.17064025371E+03  0.24651314166E+03  0.17200000000E+03 0. -1.
         -6    1    1    2    0  502  0.25424025776E+02  0.37686227447E+02  0.15539946837E+03  0.23621944796E+03  0.17200000000E+03 0.  1.
</event>
<event>
 4    1 -0.3291270E-004  0.1960867E+03  0.7818608E-02  0.1153083E+00
          5   -1    0    0  501    0  0.00000000000E+00  0.00000000000E+00  0.62548799403E+02  0.62725132975E+02  0.47000000000E+01 0. -1.
         -5   -1    0    0    0  501 -0.00000000000E+00 -0.00000000000E+00 -0.68800035182E+03  0.68801640541E+03  0.47000000000E+01 0.  1.
          6    1    1    2  502    0  0.84975084398E+02  0.40561425195E+02 -0.43609026413E+03  0.47814716631E+03  0.17200000000E+03 0.  1.
         -6    1    1    2    0  502 -0.84975084398E+02 -0.40561425195E+02 -0.18936128829E+03  0.27259437207E+03  0.17200000000E+03 0. -1.
</event>
<event>
 4    1 -0.3291270E-004  0.2373292E+03  0.7818608E-02  0.1121585E+00
          5   -1    0    0  501    0  0.00000000000E+00  0.00000000000E+00  0.29279585793E+02  0.29654411885E+02  0.47000000000E+01 0. -1.
         -5   -1    0    0    0  501 -0.00000000000E+00 -0.00000000000E+00 -0.22273733410E+04  0.22273782997E+04  0.47000000000E+01 0.  1.
          6    1    1    2  502    0 -0.24009462462E+02 -0.16175509554E+03 -0.15242668555E+04  0.15426323645E+04  0.17200000000E+03 0.  1.
         -6    1    1    2    0  502  0.24009462462E+02  0.16175509554E+03 -0.67382689968E+03  0.71440034711E+03  0.17200000000E+03 0. -1.
</event>
<event>
 4    1 -0.3291270E-004  0.2234259E+03  0.7818608E-02  0.1131354E+00
          5   -1    0    0  501    0  0.00000000000E+00  0.00000000000E+00  0.15082658154E+03  0.15089979357E+03  0.47000000000E+01 0. -1.
         -5   -1    0    0    0  501 -0.00000000000E+00 -0.00000000000E+00 -0.36742884918E+03  0.36745890819E+03  0.47000000000E+01 0.  1.
          6    1    1    2  502    0  0.12181422754E+02 -0.14208010213E+03 -0.26480661720E+02  0.22498970627E+03  0.17200000000E+03 0. -1.
         -6    1    1    2    0  502 -0.12181422754E+02  0.14208010213E+03 -0.19012160592E+03  0.29336899550E+03  0.17200000000E+03 0.  1.
</event>
<event>
 4    1 -0.3291270E-004  0.1763523E+03  0.7818608E-02  0.1171381E+00
         -5   -1    0    0    0  501 -0.00000000000E+00  0.00000000000E+00  0.53994452540E+03  0.53996498082E+03  0.47000000000E+01 0.  1.
          5   -1    0    0  501    0  0.00000000000E+00 -0.00000000000E+00 -0.62523857651E+02  0.62700261368E+02  0.47000000000E+01 0. -1.
          6    1    1    2  502    0 -0.25864929343E+02 -0.29105513269E+02  0.32414618599E+03  0.36901338101E+03  0.17200000000E+03 0.  1.
         -6    1    1    2    0  502  0.25864929343E+02  0.29105513269E+02  0.15327448176E+03  0.23365186118E+03  0.17200000000E+03 0. -1.
</event>
<event>
 4    1 -0.3291270E-004  0.3088941E+03  0.7818608E-02  0.1080877E+00
          5   -1    0    0  501    0  0.00000000000E+00  0.00000000000E+00  0.25605676455E+03  0.25609989588E+03  0.47000000000E+01 0. -1.
         -5   -1    0    0    0  501 -0.00000000000E+00 -0.00000000000E+00 -0.56229746054E+03  0.56231710283E+03  0.47000000000E+01 0.  1.
          6    1    1    2  502    0  0.25554645754E+03 -0.22968750540E+02  0.84579586738E+02  0.32026436260E+03  0.17200000000E+03 0. -1.
         -6    1    1    2    0  502 -0.25554645754E+03  0.22968750540E+02 -0.39082028273E+03  0.49815263610E+03  0.17200000000E+03 0.  1.
</event>
<event>
 4    1 -0.3291270E-004  0.1748344E+03  0.7818608E-02  0.1172898E+00
         -5   -1    0    0    0  501 -0.00000000000E+00  0.00000000000E+00  0.55897461189E+03  0.55899437094E+03  0.47000000000E+01 0.  1.
          5   -1    0    0  501    0  0.00000000000E+00 -0.00000000000E+00 -0.56767516374E+02  0.56961749580E+02  0.47000000000E+01 0. -1.
          6    1    1    2  502    0  0.26915384011E+01 -0.31238380034E+02  0.19052082153E+03  0.25858318623E+03  0.17200000000E+03 0. -1.
         -6    1    1    2    0  502 -0.26915384011E+01  0.31238380034E+02  0.31168627399E+03  0.35737293428E+03  0.17200000000E+03 0. -1.
</event>
<event>
 4    1 -0.3291270E-004  0.1840973E+03  0.7818608E-02  0.1163896E+00
         -5   -1    0    0    0  501 -0.00000000000E+00  0.00000000000E+00  0.26559560596E+02  0.26972212720E+02  0.47000000000E+01 0.  1.
          5   -1    0    0  501    0  0.00000000000E+00 -0.00000000000E+00 -0.15409984454E+04  0.15410056128E+04  0.47000000000E+01 0. -1.
          6    1    1    2  502    0 -0.30847299499E+02 -0.57933159775E+02 -0.10884734898E+04  0.11039322193E+04  0.17200000000E+03 0. -1.
         -6    1    1    2    0  502  0.30847299499E+02  0.57933159775E+02 -0.42596539495E+03  0.46404560615E+03  0.17200000000E+03 0.  1.
</event>
<event>
 4    1 -0.3291270E-004  0.2144518E+03  0.7818608E-02  0.1138088E+00
          5   -1    0    0  501    0  0.00000000000E+00  0.00000000000E+00  0.12836607527E+03  0.12845208943E+03  0.47000000000E+01 0. -1.
         -5   -1    0    0    0  501 -0.00000000000E+00 -0.00000000000E+00 -0.54858273591E+03  0.54860286924E+03  0.47000000000E+01 0.  1.
          6    1    1    2  502    0 -0.12807972576E+03 -0.10701670544E+01 -0.10620451456E+02  0.21471459056E+03  0.17200000000E+03 0. -1.
         -6    1    1    2    0  502  0.12807972576E+03  0.10701670544E+01 -0.40959620919E+03  0.46234036812E+03  0.17200000000E+03 0.  1.
</event>
<event>
 4    1 -0.3291270E-004  0.1757551E+03  0.7818608E-02  0.1171976E+00
         -5   -1    0    0    0  501 -0.00000000000E+00  0.00000000000E+00  0.33410322429E+03  0.33413628130E+03  0.47000000000E+01 0.  1.
          5   -1    0    0  501    0  0.00000000000E+00 -0.00000000000E+00 -0.10285616656E+03  0.10296349353E+03  0.47000000000E+01 0. -1.
          6    1    1    2  502    0 -0.31275748854E+02  0.18102052341E+02  0.45853342484E+02  0.18163806259E+03  0.17200000000E+03 0.  1.
         -6    1    1    2    0  502  0.31275748854E+02 -0.18102052341E+02  0.18539371524E+03  0.25546171223E+03  0.17200000000E+03 0.  1.
</event>
<event>
 4    1 -0.3291270E-004  0.2194984E+03  0.7818608E-02  0.1134258E+00
         -5   -1    0    0    0  501 -0.00000000000E+00  0.00000000000E+00  0.56815501305E+02  0.57009571026E+02  0.47000000000E+01 0.  1.
          5   -1    0    0  501    0  0.00000000000E+00 -0.00000000000E+00 -0.10273184446E+04  0.10273291958E+04  0.47000000000E+01 0. -1.
          6    1    1    2  502    0  0.12834453460E+03 -0.46078333742E+02 -0.71278024285E+03  0.74581177720E+03  0.17200000000E+03 0. -1.
         -6    1    1    2    0  502 -0.12834453460E+03  0.46078333742E+02 -0.25772270040E+03  0.33852698962E+03  0.17200000000E+03 0.  1.
</event>
<event>
 4    1 -0.3291270E-004  0.1884807E+03  0.7818608E-02  0.1159839E+00
          5   -1    0    0  501    0  0.00000000000E+00  0.00000000000E+00  0.12964594812E+03  0.12973111370E+03  0.47000000000E+01 0. -1.
         -5   -1    0    0    0  501 -0.00000000000E+00 -0.00000000000E+00 -0.27425458095E+03  0.27429485079E+03  0.47000000000E+01 0.  1.
          6    1    1    2  502    0 -0.59257464282E+02  0.49290200667E+02 -0.80344263227E+02  0.20489063324E+03  0.17200000000E+03 0.  1.
         -6    1    1    2    0  502  0.59257464282E+02 -0.49290200667E+02 -0.64264369607E+02  0.19913533126E+03  0.17200000000E+03 0. -1.
</event>
<event>
 4    1 -0.3291270E-004  0.2326173E+03  0.7818608E-02  0.1124811E+00
         -5   -1    0    0    0  501 -0.00000000000E+00  0.00000000000E+00  0.51936962279E+03  0.51939088852E+03  0.47000000000E+01 0.  1.
          5   -1    0    0  501    0  0.00000000000E+00 -0.00000000000E+00 -0.19500934711E+03  0.19506597720E+03  0.47000000000E+01 0. -1.
          6    1    1    2  502    0 -0.13670362631E+03  0.76412719345E+02 -0.81649587083E+02  0.24653080983E+03  0.17200000000E+03 0. -1.
         -6    1    1    2    0  502  0.13670362631E+03 -0.76412719345E+02  0.40600986276E+03  0.46792605589E+03  0.17200000000E+03 0.  1.
</event>
<event>
 4    1 -0.3291270E-004  0.1866977E+03  0.7818608E-02  0.1161474E+00
          5   -1    0    0  501    0  0.00000000000E+00  0.00000000000E+00  0.19431967684E+02  0.19992282713E+02  0.47000000000E+01 0. -1.
         -5   -1    0    0    0  501 -0.00000000000E+00 -0.00000000000E+00 -0.19044104111E+04  0.19044162108E+04  0.47000000000E+01 0.  1.
          6    1    1    2  502    0 -0.15857080248E+02  0.70855978061E+02 -0.12002640474E+04  0.12146974109E+04  0.17200000000E+03 0.  1.
         -6    1    1    2    0  502  0.15857080248E+02 -0.70855978061E+02 -0.68471439603E+03  0.70971108259E+03  0.17200000000E+03 0. -1.
</event>
<event>
 4    1 -0.3291270E-004  0.1960247E+03  0.7818608E-02  0.1153137E+00
          5   -1    0    0  501    0  0.00000000000E+00  0.00000000000E+00  0.88462654455E+03  0.88463902996E+03  0.47000000000E+01 0. -1.
         -5   -1    0    0    0  501 -0.00000000000E+00 -0.00000000000E+00 -0.50878835460E+02  0.51095458681E+02  0.47000000000E+01 0.  1.
          6    1    1    2  502    0 -0.87234036573E+02  0.35098265702E+02  0.59704275197E+03  0.62839932613E+03  0.17200000000E+03 0.  1.
         -6    1    1    2    0  502  0.87234036573E+02 -0.35098265702E+02  0.23670495712E+03  0.30733516251E+03  0.17200000000E+03 0.  1.
</event>
<event>
 4    1 -0.3291270E-004  0.2584555E+03  0.7818608E-02  0.1108075E+00
          5   -1    0    0  501    0  0.00000000000E+00  0.00000000000E+00  0.64823570132E+03  0.64825273965E+03  0.47000000000E+01 0. -1.
         -5   -1    0    0    0  501 -0.00000000000E+00 -0.00000000000E+00 -0.12242420003E+03  0.12251438591E+03  0.47000000000E+01 0.  1.
          6    1    1    2  502    0 -0.15717394284E+03 -0.11185518278E+03  0.41643700370E+03  0.49012142197E+03  0.17200000000E+03 0. -1.
         -6    1    1    2    0  502  0.15717394284E+03  0.11185518278E+03  0.10937449759E+03  0.28064570359E+03  0.17200000000E+03 0.  1.
</event>
<event>
 4    1 -0.3291270E-004  0.1928272E+03  0.7818608E-02  0.1155936E+00
         -5   -1    0    0    0  501 -0.00000000000E+00  0.00000000000E+00  0.30057724664E+03  0.30061399035E+03  0.47000000000E+01 0.  1.
          5   -1    0    0  501    0  0.00000000000E+00 -0.00000000000E+00 -0.19013612226E+03  0.19019420335E+03  0.47000000000E+01 0. -1.
          6    1    1    2  502    0  0.27116166931E+02 -0.82843385079E+02 -0.89892415953E+02  0.21275093280E+03  0.17200000000E+03 0. -1.
         -6    1    1    2    0  502 -0.27116166931E+02  0.82843385079E+02  0.20033354033E+03  0.27805726090E+03  0.17200000000E+03 0.  1.
</event>
<event>
 4    1 -0.3291270E-004  0.2007210E+03  0.7818608E-02  0.1149132E+00
          5   -1    0    0  501    0  0.00000000000E+00  0.00000000000E+00  0.32959293731E+03  0.32962644664E+03  0.47000000000E+01 0. -1.
         -5   -1    0    0    0  501 -0.00000000000E+00 -0.00000000000E+00 -0.14797610120E+03  0.14805072282E+03  0.47000000000E+01 0.  1.
          6    1    1    2  502    0  0.89674407217E+02  0.51608298296E+02  0.19054134949E+03  0.27675787546E+03  0.17200000000E+03 0. -1.
         -6    1    1    2    0  502 -0.89674407217E+02 -0.51608298296E+02 -0.89245133854E+01  0.20091929400E+03  0.17200000000E+03 0.  1.
</event>
<event>
 4    1 -0.3291270E-004  0.2086302E+03  0.7818608E-02  0.1142655E+00
         -5   -1    0    0    0  501 -0.00000000000E+00  0.00000000000E+00  0.94433436703E+03  0.94434606303E+03  0.47000000000E+01 0.  1.
          5   -1    0    0  501    0  0.00000000000E+00 -0.00000000000E+00 -0.49266199679E+02  0.49489882106E+02  0.47000000000E+01 0. -1.
          6    1    1    2  502    0  0.10189406203E+03 -0.59666990725E+02  0.31913173584E+03  0.38127629677E+03  0.17200000000E+03 0. -1.
         -6    1    1    2    0  502 -0.10189406203E+03  0.59666990725E+02  0.57593643151E+03  0.61255964836E+03  0.17200000000E+03 0.  1.
</event>
<event>
 4    1 -0.3291270E-004  0.2184783E+03  0.7818608E-02  0.1135023E+00
         -5   -1    0    0    0  501 -0.00000000000E+00  0.00000000000E+00  0.72651560548E+03  0.72653080803E+03  0.47000000000E+01 0.  1.
          5   -1    0    0  501    0  0.00000000000E+00 -0.00000000000E+00 -0.10063945744E+03  0.10074914588E+03  0.47000000000E+01 0. -1.
          6    1    1    2  502    0 -0.10098437183E+02  0.13433829089E+03  0.69056650764E+02  0.22913222350E+03  0.17200000000E+03 0. -1.
         -6    1    1    2    0  502  0.10098437183E+02 -0.13433829089E+03  0.55681949728E+03  0.59814773040E+03  0.17200000000E+03 0.  1.
</event>
<event>
 4    1 -0.3291270E-004  0.1894710E+03  0.7818608E-02  0.1158939E+00
         -5   -1    0    0    0  501 -0.00000000000E+00  0.00000000000E+00  0.31868966667E+03  0.31872432233E+03  0.47000000000E+01 0.  1.
          5   -1    0    0  501    0  0.00000000000E+00 -0.00000000000E+00 -0.11290382442E+03  0.11300160869E+03  0.47000000000E+01 0. -1.
          6    1    1    2  502    0 -0.75417186755E+02  0.25049728266E+02  0.90928396957E+02  0.21015997316E+03  0.17200000000E+03 0.  1.
         -6    1    1    2    0  502  0.75417186755E+02 -0.25049728266E+02  0.11485744530E+03  0.22156595787E+03  0.17200000000E+03 0.  1.
</event>
<event>
 4    1 -0.3291270E-004  0.2813564E+03  0.7818608E-02  0.1094950E+00
          5   -1    0    0  501    0  0.00000000000E+00  0.00000000000E+00  0.11439684234E+03  0.11449335150E+03  0.47000000000E+01 0. -1.
         -5   -1    0    0    0  501 -0.00000000000E+00 -0.00000000000E+00 -0.10116900480E+04  0.10117009653E+04  0.47000000000E+01 0.  1.
          6    1    1    2  502    0 -0.69831249004E+02  0.21142611362E+03 -0.13192570039E+03  0.31075037455E+03  0.17200000000E+03 0. -1.
         -6    1    1    2    0  502  0.69831249004E+02 -0.21142611362E+03 -0.76536750524E+03  0.81544394224E+03  0.17200000000E+03 0.  1.
</event>
<event>
 4    1 -0.3291270E-004  0.1781605E+03  0.7818608E-02  0.1169595E+00
          5   -1    0    0  501    0  0.00000000000E+00  0.00000000000E+00  0.26188291947E+03  0.26192509141E+03  0.47000000000E+01 0. -1.
         -5   -1    0    0    0  501 -0.00000000000E+00 -0.00000000000E+00 -0.20948569671E+03  0.20953841444E+03  0.47000000000E+01 0.  1.
          6    1    1    2  502    0 -0.16935807312E+02 -0.43247491152E+02  0.17927159284E+03  0.25274388432E+03  0.17200000000E+03 0. -1.
         -6    1    1    2    0  502  0.16935807312E+02  0.43247491152E+02 -0.12687437008E+03  0.21871962153E+03  0.17200000000E+03 0.  1.
</event>
<event>
 4    1 -0.3291270E-004  0.2212485E+03  0.7818608E-02  0.1132956E+00
          5   -1    0    0  501    0  0.00000000000E+00  0.00000000000E+00  0.61279919168E+02  0.61459893371E+02  0.47000000000E+01 0. -1.
         -5   -1    0    0    0  501 -0.00000000000E+00 -0.00000000000E+00 -0.98897830620E+03  0.98898947423E+03  0.47000000000E+01 0.  1.
          6    1    1    2  502    0 -0.84649038546E+02 -0.11046020850E+03 -0.23273549427E+03  0.32111793423E+03  0.17200000000E+03 0. -1.
         -6    1    1    2    0  502  0.84649038546E+02  0.11046020850E+03 -0.69496289276E+03  0.72933143337E+03  0.17200000000E+03 0.  1.
</event>
<event>
 4    1 -0.3291270E-004  0.2749136E+03  0.7818608E-02  0.1098500E+00
          5   -1    0    0  501    0  0.00000000000E+00  0.00000000000E+00  0.41795649539E+03  0.41798292075E+03  0.47000000000E+01 0. -1.
         -5   -1    0    0    0  501 -0.00000000000E+00 -0.00000000000E+00 -0.26413704745E+03  0.26417885955E+03  0.47000000000E+01 0.  1.
          6    1    1    2  502    0  0.19143147487E+03  0.96682371691E+02  0.26850852412E+03  0.38428416321E+03  0.17200000000E+03 0. -1.
         -6    1    1    2    0  502 -0.19143147487E+03 -0.96682371691E+02 -0.11468907618E+03  0.29787761709E+03  0.17200000000E+03 0.  1.
</event>
<event>
 4    1 -0.3291270E-004  0.4222377E+03  0.7818608E-02  0.1036340E+00
          5   -1    0    0  501    0  0.00000000000E+00  0.00000000000E+00  0.11825498184E+04  0.11825591584E+04  0.47000000000E+01 0. -1.
         -5   -1    0    0    0  501 -0.00000000000E+00 -0.00000000000E+00 -0.98701540825E+03  0.98702659849E+03  0.47000000000E+01 0.  1.
          6    1    1    2  502    0  0.38509148124E+03  0.20129617684E+02  0.10962815779E+04  0.11747842136E+04  0.17200000000E+03 0. -1.
         -6    1    1    2    0  502 -0.38509148124E+03 -0.20129617684E+02 -0.90074716770E+03  0.99480154330E+03  0.17200000000E+03 0.  1.
</event>
<event>
 4    1 -0.3291270E-004  0.2672523E+03  0.7818608E-02  0.1102863E+00
         -5   -1    0    0    0  501 -0.00000000000E+00  0.00000000000E+00  0.14078864589E+04  0.14078943039E+04  0.47000000000E+01 0.  1.
          5   -1    0    0  501    0  0.00000000000E+00 -0.00000000000E+00 -0.11557269609E+03  0.11566822417E+03  0.47000000000E+01 0. -1.
          6    1    1    2  502    0 -0.20429531950E+03 -0.10160306653E+02  0.75452445907E+02  0.27769926358E+03  0.17200000000E+03 0.  1.
         -6    1    1    2    0  502  0.20429531950E+03  0.10160306653E+02  0.12168613169E+04  0.12458632645E+04  0.17200000000E+03 0.  1.
</event>
<event>
 4    1 -0.3291270E-004  0.1761103E+03  0.7818608E-02  0.1171622E+00
          5   -1    0    0  501    0  0.00000000000E+00  0.00000000000E+00  0.18739668123E+03  0.18745561111E+03  0.47000000000E+01 0. -1.
         -5   -1    0    0    0  501 -0.00000000000E+00 -0.00000000000E+00 -0.28441707517E+03  0.28445590634E+03  0.47000000000E+01 0.  1.
          6    1    1    2  502    0 -0.37759174943E+02  0.22523314420E+01  0.10410540937E+03  0.20457948223E+03  0.17200000000E+03 0. -1.
         -6    1    1    2    0  502  0.37759174943E+02 -0.22523314420E+01 -0.20112580332E+03  0.26733203521E+03  0.17200000000E+03 0.  1.
</event>
<event>
 4    1 -0.3291270E-004  0.3555870E+03  0.7818608E-02  0.1060345E+00
          5   -1    0    0  501    0  0.00000000000E+00  0.00000000000E+00  0.22539408659E+03  0.22544308433E+03  0.47000000000E+01 0. -1.
         -5   -1    0    0    0  501 -0.00000000000E+00 -0.00000000000E+00 -0.12875083633E+04  0.12875169418E+04  0.47000000000E+01 0.  1.
          6    1    1    2  502    0 -0.29433909514E+03  0.10110683471E+03  0.37237011159E+02  0.35753138317E+03  0.17200000000E+03 0. -1.
         -6    1    1    2    0  502  0.29433909514E+03 -0.10110683471E+03 -0.10993512878E+04  0.11554286430E+04  0.17200000000E+03 0.  1.
</event>
<event>
 4    1 -0.3291270E-004  0.2005131E+03  0.7818608E-02  0.1149307E+00
         -5   -1    0    0    0  501 -0.00000000000E+00  0.00000000000E+00  0.38780292258E+03  0.38783140250E+03  0.47000000000E+01 0.  1.
          5   -1    0    0  501    0  0.00000000000E+00 -0.00000000000E+00 -0.14610851268E+03  0.14618408763E+03  0.47000000000E+01 0. -1.
          6    1    1    2  502    0  0.10227629276E+03  0.12691641480E+02 -0.23132000903E+02  0.20184302636E+03  0.17200000000E+03 0. -1.
         -6    1    1    2    0  502 -0.10227629276E+03 -0.12691641480E+02  0.26482641081E+03  0.33217246377E+03  0.17200000000E+03 0.  1.
</event>
<event>
 4    1 -0.3291270E-004  0.3110302E+03  0.7818608E-02  0.1079853E+00
          5   -1    0    0  501    0  0.00000000000E+00  0.00000000000E+00  0.80306813346E+03  0.80308188685E+03  0.47000000000E+01 0. -1.
         -5   -1    0    0    0  501 -0.00000000000E+00 -0.00000000000E+00 -0.29205096657E+03  0.29208878286E+03  0.47000000000E+01 0.  1.
          6    1    1    2  502    0  0.13483422568E+03  0.22130414591E+03  0.67525265427E+03  0.74344195504E+03  0.17200000000E+03 0. -1.
         -6    1    1    2    0  502 -0.13483422568E+03 -0.22130414591E+03 -0.16423548738E+03  0.35172871467E+03  0.17200000000E+03 0.  1.
</event>
<event>
 4    1 -0.3291270E-004  0.2303605E+03  0.7818608E-02  0.1126386E+00
         -5   -1    0    0    0  501 -0.00000000000E+00  0.00000000000E+00  0.11112645721E+03  0.11122580407E+03  0.47000000000E+01 0.  1.
          5   -1    0    0  501    0  0.00000000000E+00 -0.00000000000E+00 -0.53374066757E+03  0.53376136074E+03  0.47000000000E+01 0. -1.
          6    1    1    2  502    0 -0.91629217628E+02 -0.12282531243E+03 -0.31625497180E+03  0.39125845433E+03  0.17200000000E+03 0. -1.
         -6    1    1    2    0  502  0.91629217628E+02  0.12282531243E+03 -0.10635923856E+03  0.25372871048E+03  0.17200000000E+03 0.  1.
</event>
<event>
 4    1 -0.3291270E-004  0.1970919E+03  0.7818608E-02  0.1152216E+00
         -5   -1    0    0    0  501 -0.00000000000E+00  0.00000000000E+00  0.17337488975E+03  0.17343858393E+03  0.47000000000E+01 0.  1.
          5   -1    0    0  501    0  0.00000000000E+00 -0.00000000000E+00 -0.25830028134E+03  0.25834303811E+03  0.47000000000E+01 0. -1.
          6    1    1    2  502    0 -0.82079153470E+02  0.50241681146E+02 -0.12120539764E+03  0.23137839652E+03  0.17200000000E+03 0. -1.
         -6    1    1    2    0  502  0.82079153470E+02 -0.50241681146E+02  0.36280006054E+02  0.20040322552E+03  0.17200000000E+03 0.  1.
</event>
<event>
 4    1 -0.3291270E-004  0.2302545E+03  0.7818608E-02  0.1126461E+00
         -5   -1    0    0    0  501 -0.00000000000E+00  0.00000000000E+00  0.46299012299E+03  0.46301397818E+03  0.47000000000E+01 0.  1.
          5   -1    0    0  501    0  0.00000000000E+00 -0.00000000000E+00 -0.12730825223E+03  0.12739498061E+03  0.47000000000E+01 0. -1.
          6    1    1    2  502    0  0.15151097424E+03 -0.21853131777E+02  0.74011791989E+02  0.24185714800E+03  0.17200000000E+03 0. -1.
         -6    1    1    2    0  502 -0.15151097424E+03  0.21853131777E+02  0.26167007877E+03  0.34855181079E+03  0.17200000000E+03 0.  1.
</event>
<event>
 4    1 -0.3291270E-004  0.2142956E+03  0.7818608E-02  0.1138209E+00
          5   -1    0    0  501    0  0.00000000000E+00  0.00000000000E+00  0.32245756127E+03  0.32249181202E+03  0.47000000000E+01 0. -1.
         -5   -1    0    0    0  501 -0.00000000000E+00 -0.00000000000E+00 -0.22284761654E+03  0.22289717405E+03  0.47000000000E+01 0.  1.
          6    1    1    2  502    0 -0.44727368726E+01 -0.12774430282E+03  0.21367977616E+03  0.30262461734E+03  0.17200000000E+03 0. -1.
         -6    1    1    2    0  502  0.44727368726E+01  0.12774430282E+03 -0.11406983143E+03  0.24276436873E+03  0.17200000000E+03 0.  1.
</event>
<event>
 4    1 -0.3291270E-004  0.2259340E+03  0.7818608E-02  0.1129535E+00
         -5   -1    0    0    0  501 -0.00000000000E+00  0.00000000000E+00  0.73613758320E+02  0.73763645612E+02  0.47000000000E+01 0.  1.
          5   -1    0    0  501    0  0.00000000000E+00 -0.00000000000E+00 -0.10725244346E+04  0.10725347326E+04  0.47000000000E+01 0. -1.
          6    1    1    2  502    0 -0.13304389815E+03 -0.61331063159E+02 -0.84056745357E+03  0.87040210371E+03  0.17200000000E+03 0. -1.
         -6    1    1    2    0  502  0.13304389815E+03  0.61331063159E+02 -0.15834322267E+03  0.27589627454E+03  0.17200000000E+03 0. -1.
</event>
<event>
 4    1 -0.3291270E-004  0.1832958E+03  0.7818608E-02  0.1164651E+00
         -5   -1    0    0    0  501 -0.00000000000E+00  0.00000000000E+00  0.32643999215E+03  0.32647382510E+03  0.47000000000E+01 0.  1.
          5   -1    0    0  501    0  0.00000000000E+00 -0.00000000000E+00 -0.11028291093E+03  0.11038301701E+03  0.47000000000E+01 0. -1.
          6    1    1    2  502    0  0.61788396802E+02 -0.13983752593E+02  0.51321850510E+02  0.19034516977E+03  0.17200000000E+03 0. -1.
         -6    1    1    2    0  502 -0.61788396802E+02  0.13983752593E+02  0.16483523070E+03  0.24651167233E+03  0.17200000000E+03 0.  1.
</event>
<event>
 4    1 -0.3291270E-004  0.2442625E+03  0.7818608E-02  0.1116985E+00
          5   -1    0    0  501    0  0.00000000000E+00  0.00000000000E+00  0.81120194630E+03  0.81121556178E+03  0.47000000000E+01 0. -1.
         -5   -1    0    0    0  501 -0.00000000000E+00 -0.00000000000E+00 -0.14788471341E+03  0.14795938112E+03  0.47000000000E+01 0.  1.
          6    1    1    2  502    0  0.45288710325E+02 -0.16741897057E+03  0.67173526846E+03  0.71476740964E+03  0.17200000000E+03 0. -1.
         -6    1    1    2    0  502 -0.45288710325E+02  0.16741897057E+03 -0.84180355721E+01  0.24440753326E+03  0.17200000000E+03 0.  1.
</event>
<event>
 4    1 -0.3291270E-004  0.1796754E+03  0.7818608E-02  0.1168118E+00
          5   -1    0    0  501    0  0.00000000000E+00  0.00000000000E+00  0.23473714179E+03  0.23478418971E+03  0.47000000000E+01 0. -1.
         -5   -1    0    0    0  501 -0.00000000000E+00 -0.00000000000E+00 -0.16827216652E+03  0.16833779144E+03  0.47000000000E+01 0.  1.
          6    1    1    2  502    0 -0.43893891328E+02  0.27795260219E+02  0.11949646166E+03  0.21578381435E+03  0.17200000000E+03 0.  1.
         -6    1    1    2    0  502  0.43893891328E+02 -0.27795260219E+02 -0.53031486395E+02  0.18733816679E+03  0.17200000000E+03 0.  1.
</event>
<event>
 4    1 -0.3291270E-004  0.2315093E+03  0.7818608E-02  0.1125582E+00
         -5   -1    0    0    0  501 -0.00000000000E+00  0.00000000000E+00  0.21863857641E+03  0.21868908774E+03  0.47000000000E+01 0.  1.
          5   -1    0    0  501    0  0.00000000000E+00 -0.00000000000E+00 -0.33728208383E+03  0.33731482931E+03  0.47000000000E+01 0. -1.
          6    1    1    2  502    0  0.34510416601E+02  0.15106809180E+03 -0.20468916227E+03  0.30902134289E+03  0.17200000000E+03 0. -1.
         -6    1    1    2    0  502 -0.34510416601E+02 -0.15106809180E+03  0.86045654850E+02  0.24698257415E+03  0.17200000000E+03 0.  1.
</event>
<event>
 4    1 -0.3291270E-004  0.2040735E+03  0.7818608E-02  0.1146347E+00
         -5   -1    0    0    0  501 -0.00000000000E+00  0.00000000000E+00  0.52492383506E+02  0.52702374958E+02  0.47000000000E+01 0.  1.
          5   -1    0    0  501    0  0.00000000000E+00 -0.00000000000E+00 -0.15756033006E+04  0.15756103106E+04  0.47000000000E+01 0. -1.
          6    1    1    2  502    0  0.46330838822E+02  0.99576266181E+02 -0.13358318015E+04  0.13513299306E+04  0.17200000000E+03 0. -1.
         -6    1    1    2    0  502 -0.46330838822E+02 -0.99576266181E+02 -0.18727911561E+03  0.27698275498E+03  0.17200000000E+03 0.  1.
</event>
<event>
 4    1 -0.3291270E-004  0.2074683E+03  0.7818608E-02  0.1143587E+00
         -5   -1    0    0    0  501 -0.00000000000E+00  0.00000000000E+00  0.60176005846E+03  0.60177841267E+03  0.47000000000E+01 0.  1.
          5   -1    0    0  501    0  0.00000000000E+00 -0.00000000000E+00 -0.34975963646E+03  0.34979121387E+03  0.47000000000E+01 0. -1.
          6    1    1    2  502    0  0.11575374851E+03 -0.77574853442E+01 -0.29836008886E+03  0.36340315284E+03  0.17200000000E+03 0. -1.
         -6    1    1    2    0  502 -0.11575374851E+03  0.77574853442E+01  0.55036051085E+03  0.58816647370E+03  0.17200000000E+03 0.  1.
</event>
<event>
 4    1 -0.3291270E-004  0.1738137E+03  0.7818608E-02  0.1173928E+00
         -5   -1    0    0    0  501 -0.00000000000E+00  0.00000000000E+00  0.17501805834E+03  0.17508115474E+03  0.47000000000E+01 0.  1.
          5   -1    0    0  501    0  0.00000000000E+00 -0.00000000000E+00 -0.29426109501E+03  0.29429862731E+03  0.47000000000E+01 0. -1.
          6    1    1    2  502    0 -0.56744715944E+00 -0.25037607107E+02 -0.21056470513E+03  0.27303607603E+03  0.17200000000E+03 0. -1.
         -6    1    1    2    0  502  0.56744715944E+00  0.25037607107E+02  0.91321668454E+02  0.19634370602E+03  0.17200000000E+03 0. -1.
</event>
<event>
 4    1 -0.3291270E-004  0.3372993E+03  0.7818608E-02  0.1067952E+00
         -5   -1    0    0    0  501 -0.00000000000E+00  0.00000000000E+00  0.35703421419E+03  0.35706514826E+03  0.47000000000E+01 0.  1.
          5   -1    0    0  501    0  0.00000000000E+00 -0.00000000000E+00 -0.68138753291E+03  0.68140374229E+03  0.47000000000E+01 0. -1.
          6    1    1    2  502    0 -0.18221535694E+03 -0.22579716842E+03 -0.54103665347E+03  0.63756682628E+03  0.17200000000E+03 0. -1.
         -6    1    1    2    0  502  0.18221535694E+03  0.22579716842E+03  0.21668333475E+03  0.40090206426E+03  0.17200000000E+03 0.  1.
</event>
<event>
 4    1 -0.3291270E-004  0.3784159E+03  0.7818608E-02  0.1051521E+00
          5   -1    0    0  501    0  0.00000000000E+00  0.00000000000E+00  0.54702133137E+03  0.54704152216E+03  0.47000000000E+01 0. -1.
         -5   -1    0    0    0  501 -0.00000000000E+00 -0.00000000000E+00 -0.10342582130E+04  0.10342688921E+04  0.47000000000E+01 0.  1.
          6    1    1    2  502    0 -0.11090883869E+03 -0.31829833262E+03  0.43969391207E+03  0.58011148529E+03  0.17200000000E+03 0. -1.
         -6    1    1    2    0  502  0.11090883869E+03  0.31829833262E+03 -0.92693079367E+03  0.10011989289E+04  0.17200000000E+03 0.  1.
</event>
<event>
 4    1 -0.3291270E-004  0.2163339E+03  0.7818608E-02  0.1136646E+00
         -5   -1    0    0    0  501 -0.00000000000E+00  0.00000000000E+00  0.10286876392E+03  0.10297607775E+03  0.47000000000E+01 0.  1.
          5   -1    0    0  501    0  0.00000000000E+00 -0.00000000000E+00 -0.48731065688E+03  0.48733332156E+03  0.47000000000E+01 0. -1.
          6    1    1    2  502    0  0.12711969413E+03 -0.32510597431E+02 -0.26868610575E+03  0.34495300985E+03  0.17200000000E+03 0. -1.
         -6    1    1    2    0  502 -0.12711969413E+03  0.32510597431E+02 -0.11575578722E+03  0.24535638947E+03  0.17200000000E+03 0.  1.
</event>
<event>
 4    1 -0.3291270E-004  0.4605965E+03  0.7818608E-02  0.1024608E+00
          5   -1    0    0  501    0  0.00000000000E+00  0.00000000000E+00  0.15237094952E+04  0.15237167440E+04  0.47000000000E+01 0. -1.
         -5   -1    0    0    0  501 -0.00000000000E+00 -0.00000000000E+00 -0.19487952345E+03  0.19493619125E+03  0.47000000000E+01 0.  1.
          6    1    1    2  502    0 -0.39518984623E+03 -0.16245026146E+03  0.11237171635E+04  0.12144502318E+04  0.17200000000E+03 0. -1.
         -6    1    1    2    0  502  0.39518984623E+03  0.16245026146E+03  0.20511280832E+03  0.50420270343E+03  0.17200000000E+03 0.  1.
</event>
<event>
 4    1 -0.3291270E-004  0.1887123E+03  0.7818608E-02  0.1159628E+00
          5   -1    0    0  501    0  0.00000000000E+00  0.00000000000E+00  0.39778412834E+02  0.40055113626E+02  0.47000000000E+01 0. -1.
         -5   -1    0    0    0  501 -0.00000000000E+00 -0.00000000000E+00 -0.94556816541E+03  0.94557984615E+03  0.47000000000E+01 0.  1.
          6    1    1    2  502    0  0.55434533871E+02  0.54363223294E+02 -0.33548534419E+03  0.38491916523E+03  0.17200000000E+03 0. -1.
         -6    1    1    2    0  502 -0.55434533871E+02 -0.54363223294E+02 -0.57030440839E+03  0.60071579455E+03  0.17200000000E+03 0.  1.
</event>
<event>
 4    1 -0.3291270E-004  0.2361349E+03  0.7818608E-02  0.1122395E+00
         -5   -1    0    0    0  501 -0.00000000000E+00  0.00000000000E+00  0.95862043064E+03  0.95863195234E+03  0.47000000000E+01 0.  1.
          5   -1    0    0  501    0  0.00000000000E+00 -0.00000000000E+00 -0.60772285248E+02  0.60953758328E+02  0.47000000000E+01 0. -1.
          6    1    1    2  502    0  0.77327537423E+02 -0.14211308363E+03  0.34139522993E+03  0.41510285425E+03  0.17200000000E+03 0. -1.
         -6    1    1    2    0  502 -0.77327537423E+02  0.14211308363E+03  0.55645291546E+03  0.60448285642E+03  0.17200000000E+03 0. -1.
</event>
<event>
 4    1 -0.3291270E-004  0.1997391E+03  0.7818608E-02  0.1149959E+00
          5   -1    0    0  501    0  0.00000000000E+00  0.00000000000E+00  0.24807224562E+03  0.24811676494E+03  0.47000000000E+01 0. -1.
         -5   -1    0    0    0  501 -0.00000000000E+00 -0.00000000000E+00 -0.21637548251E+03  0.21642652201E+03  0.47000000000E+01 0.  1.
          6    1    1    2  502    0 -0.95405805652E+02  0.34776760714E+02  0.13361007994E+03  0.24030677123E+03  0.17200000000E+03 0.  1.
         -6    1    1    2    0  502  0.95405805652E+02 -0.34776760714E+02 -0.10191331683E+03  0.22423651573E+03  0.17200000000E+03 0.  1.
</event>
<event>
 4    1 -0.3291270E-004  0.2990980E+03  0.7818608E-02  0.1085692E+00
         -5   -1    0    0    0  501 -0.00000000000E+00  0.00000000000E+00  0.20308978608E+04  0.20309032992E+04  0.47000000000E+01 0.  1.
          5   -1    0    0  501    0  0.00000000000E+00 -0.00000000000E+00 -0.45064901185E+02  0.45309329270E+02  0.47000000000E+01 0. -1.
          6    1    1    2  502    0  0.30902657470E+01 -0.24467545106E+03  0.82779969757E+03  0.88017723521E+03  0.17200000000E+03 0. -1.
         -6    1    1    2    0  502 -0.30902657470E+01  0.24467545106E+03  0.11580332620E+04  0.11960353933E+04  0.17200000000E+03 0.  1.
</event>
<event>
 4    1 -0.3291270E-004  0.1786573E+03  0.7818608E-02  0.1169109E+00
         -5   -1    0    0    0  501 -0.00000000000E+00  0.00000000000E+00  0.40840951507E+03  0.40843655811E+03  0.47000000000E+01 0.  1.
          5   -1    0    0  501    0  0.00000000000E+00 -0.00000000000E+00 -0.88476430196E+02  0.88601177759E+02  0.47000000000E+01 0. -1.
          6    1    1    2  502    0 -0.45177741660E+02  0.17129282859E+02  0.74742063642E+02  0.19366160371E+03  0.17200000000E+03 0. -1.
         -6    1    1    2    0  502  0.45177741660E+02 -0.17129282859E+02  0.24519102123E+03  0.30337613216E+03  0.17200000000E+03 0.  1.
</event>
<event>
 4    1 -0.3291270E-004  0.5633278E+03  0.7818608E-02  0.9984553E-01
          5   -1    0    0  501    0  0.00000000000E+00  0.00000000000E+00  0.18579338248E+04  0.18579397695E+04  0.47000000000E+01 0. -1.
         -5   -1    0    0    0  501 -0.00000000000E+00 -0.00000000000E+00 -0.25483777676E+03  0.25488111437E+03  0.47000000000E+01 0.  1.
          6    1    1    2  502    0  0.39117914697E+03 -0.36706004838E+03  0.14082595654E+04  0.15167508720E+04  0.17200000000E+03 0. -1.
         -6    1    1    2    0  502 -0.39117914697E+03  0.36706004838E+03  0.19483648260E+03  0.59607001191E+03  0.17200000000E+03 0.  1.
</event>
<event>
 4    1 -0.3291270E-004  0.1797388E+03  0.7818608E-02  0.1168056E+00
         -5   -1    0    0    0  501 -0.00000000000E+00  0.00000000000E+00  0.16804526969E+04  0.16804592695E+04  0.47000000000E+01 0.  1.
          5   -1    0    0  501    0  0.00000000000E+00 -0.00000000000E+00 -0.18949682331E+02  0.19523843383E+02  0.47000000000E+01 0. -1.
          6    1    1    2  502    0 -0.45195110814E+02 -0.26066186445E+02  0.80420803483E+03  0.82404891081E+03  0.17200000000E+03 0.  1.
         -6    1    1    2    0  502  0.45195110814E+02  0.26066186445E+02  0.85729497973E+03  0.87593420209E+03  0.17200000000E+03 0.  1.
</event>
<event>
 4    1 -0.3291270E-004  0.1969490E+03  0.7818608E-02  0.1152339E+00
          5   -1    0    0  501    0  0.00000000000E+00  0.00000000000E+00  0.10009871911E+04  0.10009982252E+04  0.47000000000E+01 0. -1.
         -5   -1    0    0    0  501 -0.00000000000E+00 -0.00000000000E+00 -0.40933823823E+02  0.41202766081E+02  0.47000000000E+01 0.  1.
          6    1    1    2  502    0 -0.86136576909E+02 -0.42253770445E+02  0.35595123684E+03  0.40680483528E+03  0.17200000000E+03 0. -1.
         -6    1    1    2    0  502  0.86136576909E+02  0.42253770445E+02  0.60410213049E+03  0.63539615600E+03  0.17200000000E+03 0.  1.
</event>
<event>
 4    1 -0.3291270E-004  0.2876670E+03  0.7818608E-02  0.1091574E+00
          5   -1    0    0  501    0  0.00000000000E+00  0.00000000000E+00  0.16462481852E+03  0.16469189680E+03  0.47000000000E+01 0. -1.
         -5   -1    0    0    0  501 -0.00000000000E+00 -0.00000000000E+00 -0.52232522016E+03  0.52234636556E+03  0.47000000000E+01 0.  1.
          6    1    1    2  502    0 -0.21990833211E+03 -0.69344360254E+02 -0.11191672762E+03  0.30867080969E+03  0.17200000000E+03 0. -1.
         -6    1    1    2    0  502  0.21990833211E+03  0.69344360254E+02 -0.24578367401E+03  0.37836745267E+03  0.17200000000E+03 0.  1.
</event>
<event>
 4    1 -0.3291270E-004  0.2355647E+03  0.7818608E-02  0.1122783E+00
         -5   -1    0    0    0  501 -0.00000000000E+00  0.00000000000E+00  0.20916468589E+03  0.20921748451E+03  0.47000000000E+01 0.  1.
          5   -1    0    0  501    0  0.00000000000E+00 -0.00000000000E+00 -0.26538165150E+03  0.26542326755E+03  0.47000000000E+01 0. -1.
          6    1    1    2  502    0  0.15579085866E+03  0.40446472061E+02 -0.34491021142E+02  0.23807633079E+03  0.17200000000E+03 0. -1.
         -6    1    1    2    0  502 -0.15579085866E+03 -0.40446472061E+02 -0.21725944474E+02  0.23656442126E+03  0.17200000000E+03 0.  1.
</event>
<event>
 4    1 -0.3291270E-004  0.1879303E+03  0.7818608E-02  0.1160341E+00
          5   -1    0    0  501    0  0.00000000000E+00  0.00000000000E+00  0.19234999880E+04  0.19235057301E+04  0.47000000000E+01 0. -1.
         -5   -1    0    0    0  501 -0.00000000000E+00 -0.00000000000E+00 -0.21671902921E+02  0.22175693365E+02  0.47000000000E+01 0.  1.
          6    1    1    2  502    0 -0.27703577321E+02 -0.70472102155E+02  0.55848548183E+03  0.58925702269E+03  0.17200000000E+03 0.  1.
         -6    1    1    2    0  502  0.27703577321E+02  0.70472102155E+02  0.13433426032E+04  0.13564244007E+04  0.17200000000E+03 0. -1.
</event>
<event>
 4    1 -0.3291270E-004  0.2119890E+03  0.7818608E-02  0.1140000E+00
         -5   -1    0    0    0  501 -0.00000000000E+00  0.00000000000E+00  0.15970773858E+03  0.15977688119E+03  0.47000000000E+01 0.  1.
          5   -1    0    0  501    0  0.00000000000E+00 -0.00000000000E+00 -0.29936931292E+03  0.29940620487E+03  0.47000000000E+01 0. -1.
          6    1    1    2  502    0 -0.12072178242E+03 -0.27957246373E+02 -0.13334278433E+02  0.21240800210E+03  0.17200000000E+03 0. -1.
         -6    1    1    2    0  502  0.12072178242E+03  0.27957246373E+02 -0.12632729590E+03  0.24677508396E+03  0.17200000000E+03 0.  1.
</event>
<event>
 4    1 -0.3291270E-004  0.2782903E+03  0.7818608E-02  0.1096626E+00
          5   -1    0    0  501    0  0.00000000000E+00  0.00000000000E+00  0.45755258753E+03  0.45757672619E+03  0.47000000000E+01 0. -1.
         -5   -1    0    0    0  501 -0.00000000000E+00 -0.00000000000E+00 -0.26785093847E+03  0.26789217092E+03  0.47000000000E+01 0.  1.
          6    1    1    2  502    0  0.17792920251E+03  0.12728970147E+03  0.31495701009E+03  0.42028964704E+03  0.17200000000E+03 0. -1.
         -6    1    1    2    0  502 -0.17792920251E+03 -0.12728970147E+03 -0.12525536103E+03  0.30517925007E+03  0.17200000000E+03 0.  1.
</event>
<event>
 4    1 -0.3291270E-004  0.1964299E+03  0.7818608E-02  0.1152787E+00
          5   -1    0    0  501    0  0.00000000000E+00  0.00000000000E+00  0.11424269479E+03  0.11433933406E+03  0.47000000000E+01 0. -1.
         -5   -1    0    0    0  501 -0.00000000000E+00 -0.00000000000E+00 -0.37906674830E+03  0.37909588452E+03  0.47000000000E+01 0.  1.
          6    1    1    2  502    0 -0.45742279306E+02  0.83116571019E+02 -0.50714893087E+02  0.20287119282E+03  0.17200000000E+03 0. -1.
         -6    1    1    2    0  502  0.45742279306E+02 -0.83116571019E+02 -0.21410916042E+03  0.29056402577E+03  0.17200000000E+03 0.  1.
</event>
<event>
 4    1 -0.3291270E-004  0.2611104E+03  0.7818608E-02  0.1106478E+00
         -5   -1    0    0    0  501 -0.00000000000E+00  0.00000000000E+00  0.53398771441E+03  0.53400839800E+03  0.47000000000E+01 0.  1.
          5   -1    0    0  501    0  0.00000000000E+00 -0.00000000000E+00 -0.12932145401E+03  0.12940683315E+03  0.47000000000E+01 0. -1.
          6    1    1    2  502    0  0.11608175899E+03 -0.15849191164E+03  0.24045557891E+03  0.35496133065E+03  0.17200000000E+03 0.  1.
         -6    1    1    2    0  502 -0.11608175899E+03  0.15849191164E+03  0.16421068149E+03  0.30845390051E+03  0.17200000000E+03 0. -1.
</event>
<event>
 4    1 -0.3291270E-004  0.1782461E+03  0.7818608E-02  0.1169511E+00
         -5   -1    0    0    0  501 -0.00000000000E+00  0.00000000000E+00  0.75446506781E+03  0.75447970718E+03  0.47000000000E+01 0.  1.
          5   -1    0    0  501    0  0.00000000000E+00 -0.00000000000E+00 -0.47769083004E+02  0.47999742614E+02  0.47000000000E+01 0. -1.
          6    1    1    2  502    0  0.40489981306E+02  0.23414736688E+02  0.21387129379E+03  0.27841088123E+03  0.17200000000E+03 0. -1.
         -6    1    1    2    0  502 -0.40489981306E+02 -0.23414736688E+02  0.49282469102E+03  0.52406856857E+03  0.17200000000E+03 0. -1.
</event>
<event>
 4    1 -0.3291270E-004  0.4828564E+03  0.7818608E-02  0.1018353E+00
         -5   -1    0    0    0  501 -0.00000000000E+00  0.00000000000E+00  0.16159048227E+04  0.16159116579E+04  0.47000000000E+01 0.  1.
          5   -1    0    0  501    0  0.00000000000E+00 -0.00000000000E+00 -0.16874867853E+03  0.16881411820E+03  0.47000000000E+01 0. -1.
          6    1    1    2  502    0 -0.30179721048E+03 -0.33538743065E+03  0.38357112121E+03  0.61666610894E+03  0.17200000000E+03 0. -1.
         -6    1    1    2    0  502  0.30179721048E+03  0.33538743065E+03  0.10635850230E+04  0.11680596672E+04  0.17200000000E+03 0.  1.
</event>
<event>
 4    1 -0.3291270E-004  0.1760863E+03  0.7818608E-02  0.1171645E+00
         -5   -1    0    0    0  501 -0.00000000000E+00  0.00000000000E+00  0.27145762091E+03  0.27149830561E+03  0.47000000000E+01 0.  1.
          5   -1    0    0  501    0  0.00000000000E+00 -0.00000000000E+00 -0.12209241335E+03  0.12218284412E+03  0.47000000000E+01 0. -1.
          6    1    1    2  502    0  0.36914640771E+02  0.77263663192E+01  0.12494134066E+03  0.21590906893E+03  0.17200000000E+03 0.  1.
         -6    1    1    2    0  502 -0.36914640771E+02 -0.77263663192E+01  0.24423866903E+02  0.17777208081E+03  0.17200000000E+03 0. -1.
</event>
<event>
 4    1 -0.3291270E-004  0.1973283E+03  0.7818608E-02  0.1152013E+00
          5   -1    0    0  501    0  0.00000000000E+00  0.00000000000E+00  0.81579825433E+02  0.81715102139E+02  0.47000000000E+01 0. -1.
         -5   -1    0    0    0  501 -0.00000000000E+00 -0.00000000000E+00 -0.87119322747E+03  0.87120590539E+03  0.47000000000E+01 0.  1.
          6    1    1    2  502    0 -0.70822702879E+02  0.65868092066E+02 -0.74241255099E+02  0.21083221944E+03  0.17200000000E+03 0. -1.
         -6    1    1    2    0  502  0.70822702879E+02 -0.65868092066E+02 -0.71537214694E+03  0.74208878809E+03  0.17200000000E+03 0.  1.
</event>
<event>
 4    1 -0.3291270E-004  0.1825203E+03  0.7818608E-02  0.1165386E+00
          5   -1    0    0  501    0  0.00000000000E+00  0.00000000000E+00  0.15184631674E+03  0.15191903735E+03  0.47000000000E+01 0. -1.
         -5   -1    0    0    0  501 -0.00000000000E+00 -0.00000000000E+00 -0.29266756313E+03  0.29270529977E+03  0.47000000000E+01 0.  1.
          6    1    1    2  502    0 -0.60970535652E+02 -0.34999867784E+01  0.40920948228E+02  0.18705127674E+03  0.17200000000E+03 0. -1.
         -6    1    1    2    0  502  0.60970535652E+02  0.34999867784E+01 -0.18174219462E+03  0.25757306037E+03  0.17200000000E+03 0.  1.
</event>
<event>
 4    1 -0.3291270E-004  0.6381300E+03  0.7818608E-02  0.9829311E-01
         -5   -1    0    0    0  501 -0.00000000000E+00  0.00000000000E+00  0.19826360489E+04  0.19826416197E+04  0.47000000000E+01 0.  1.
          5   -1    0    0  501    0  0.00000000000E+00 -0.00000000000E+00 -0.21210850542E+03  0.21216057143E+03  0.47000000000E+01 0. -1.
          6    1    1    2  502    0  0.58941142218E+03 -0.17383910431E+03  0.68947865865E+03  0.93946297401E+03  0.17200000000E+03 0. -1.
         -6    1    1    2    0  502 -0.58941142218E+03  0.17383910431E+03  0.10810488848E+04  0.12553392171E+04  0.17200000000E+03 0.  1.
</event>
<event>
 4    1 -0.3291270E-004  0.3729597E+03  0.7818608E-02  0.1053567E+00
          5   -1    0    0  501    0  0.00000000000E+00  0.00000000000E+00  0.43296320888E+03  0.43298871838E+03  0.47000000000E+01 0. -1.
         -5   -1    0    0    0  501 -0.00000000000E+00 -0.00000000000E+00 -0.85182239252E+03  0.85183535874E+03  0.47000000000E+01 0.  1.
          6    1    1    2  502    0  0.39279792166E+02  0.32859099762E+03  0.29757429180E+03  0.47712619393E+03  0.17200000000E+03 0. -1.
         -6    1    1    2    0  502 -0.39279792166E+02 -0.32859099762E+03 -0.71643347544E+03  0.80769788319E+03  0.17200000000E+03 0.  1.
</event>
<event>
 4    1 -0.3291270E-004  0.3063219E+03  0.7818608E-02  0.1082122E+00
          5   -1    0    0  501    0  0.00000000000E+00  0.00000000000E+00  0.37774668527E+03  0.37777592331E+03  0.47000000000E+01 0. -1.
         -5   -1    0    0    0  501 -0.00000000000E+00 -0.00000000000E+00 -0.37412384167E+03  0.37415336282E+03  0.47000000000E+01 0.  1.
          6    1    1    2  502    0  0.18626440070E+03 -0.17191471921E+03  0.21978879888E+03  0.37701487207E+03  0.17200000000E+03 0. -1.
         -6    1    1    2    0  502 -0.18626440070E+03  0.17191471921E+03 -0.21616595528E+03  0.37491441406E+03  0.17200000000E+03 0.  1.
</event>
<event>
 4    1 -0.3291270E-004  0.2984053E+03  0.7818608E-02  0.1086041E+00
         -5   -1    0    0    0  501 -0.00000000000E+00  0.00000000000E+00  0.32987184962E+03  0.32990533062E+03  0.47000000000E+01 0.  1.
          5   -1    0    0  501    0  0.00000000000E+00 -0.00000000000E+00 -0.27001337341E+03  0.27005427570E+03  0.47000000000E+01 0. -1.
          6    1    1    2  502    0  0.67115051751E+02  0.23442968372E+03  0.23082128208E+02  0.29929666123E+03  0.17200000000E+03 0. -1.
         -6    1    1    2    0  502 -0.67115051751E+02 -0.23442968372E+03  0.36776348003E+02  0.30066294509E+03  0.17200000000E+03 0.  1.
</event>
<event>
 4    1 -0.3291270E-004  0.1730977E+03  0.7818608E-02  0.1174655E+00
         -5   -1    0    0    0  501 -0.00000000000E+00  0.00000000000E+00  0.60199153788E+02  0.60382349381E+02  0.47000000000E+01 0.  1.
          5   -1    0    0  501    0  0.00000000000E+00 -0.00000000000E+00 -0.65735121047E+03  0.65736801253E+03  0.47000000000E+01 0. -1.
          6    1    1    2  502    0 -0.19216341344E+02  0.30883462940E+01 -0.47591938956E+03  0.50642084378E+03  0.17200000000E+03 0. -1.
         -6    1    1    2    0  502  0.19216341344E+02 -0.30883462940E+01 -0.12123266712E+03  0.21132951813E+03  0.17200000000E+03 0.  1.
</event>
<event>
 4    1 -0.3291270E-004  0.1733682E+03  0.7818608E-02  0.1174380E+00
         -5   -1    0    0    0  501 -0.00000000000E+00  0.00000000000E+00  0.83079781338E+03  0.83081110772E+03  0.47000000000E+01 0.  1.
          5   -1    0    0  501    0  0.00000000000E+00 -0.00000000000E+00 -0.36513733860E+02  0.36814980109E+02  0.47000000000E+01 0. -1.
          6    1    1    2  502    0 -0.12187802123E+02 -0.17999774651E+02  0.34648991627E+03  0.38744263638E+03  0.17200000000E+03 0. -1.
         -6    1    1    2    0  502  0.12187802123E+02  0.17999774651E+02  0.44779416325E+03  0.48018345145E+03  0.17200000000E+03 0.  1.
</event>
<event>
 4    1 -0.3291270E-004  0.2092723E+03  0.7818608E-02  0.1142144E+00
         -5   -1    0    0    0  501 -0.00000000000E+00  0.00000000000E+00  0.22810843971E+03  0.22815685453E+03  0.47000000000E+01 0.  1.
          5   -1    0    0  501    0  0.00000000000E+00 -0.00000000000E+00 -0.21408207982E+03  0.21413366597E+03  0.47000000000E+01 0. -1.
          6    1    1    2  502    0  0.58960619279E+02 -0.10360772082E+03  0.78190579248E+02  0.22340250921E+03  0.17200000000E+03 0.  1.
         -6    1    1    2    0  502 -0.58960619279E+02  0.10360772082E+03 -0.64164219357E+02  0.21888801129E+03  0.17200000000E+03 0. -1.
</event>
<event>
 4    1 -0.3291270E-004  0.1787767E+03  0.7818608E-02  0.1168992E+00
         -5   -1    0    0    0  501 -0.00000000000E+00  0.00000000000E+00  0.93136949010E+02  0.93255462419E+02  0.47000000000E+01 0.  1.
          5   -1    0    0  501    0  0.00000000000E+00 -0.00000000000E+00 -0.35620626391E+03  0.35623726987E+03  0.47000000000E+01 0. -1.
          6    1    1    2  502    0 -0.45693031186E+02  0.17007096527E+02 -0.87958402595E+02  0.19924300494E+03  0.17200000000E+03 0. -1.
         -6    1    1    2    0  502  0.45693031186E+02 -0.17007096527E+02 -0.17511091230E+03  0.25024972735E+03  0.17200000000E+03 0. -1.
</event>
<event>
 4    1 -0.3291270E-004  0.1926732E+03  0.7818608E-02  0.1156072E+00
         -5   -1    0    0    0  501 -0.00000000000E+00  0.00000000000E+00  0.47770602560E+02  0.48001254869E+02  0.47000000000E+01 0.  1.
          5   -1    0    0  501    0  0.00000000000E+00 -0.00000000000E+00 -0.78671113740E+03  0.78672517674E+03  0.47000000000E+01 0. -1.
          6    1    1    2  502    0  0.64775103105E+02 -0.57820083705E+02 -0.42038467699E+03  0.46243513351E+03  0.17200000000E+03 0. -1.
         -6    1    1    2    0  502 -0.64775103105E+02  0.57820083705E+02 -0.31855585785E+03  0.37229129809E+03  0.17200000000E+03 0.  1.
</event>
<event>
 4    1 -0.3291270E-004  0.2486910E+03  0.7818608E-02  0.1114135E+00
          5   -1    0    0  501    0  0.00000000000E+00  0.00000000000E+00  0.22433939918E+03  0.22438862721E+03  0.47000000000E+01 0. -1.
         -5   -1    0    0    0  501 -0.00000000000E+00 -0.00000000000E+00 -0.33365309652E+03  0.33368619812E+03  0.47000000000E+01 0.  1.
          6    1    1    2  502    0  0.42125269125E+02 -0.17461007130E+03  0.61734985280E+02  0.25623899724E+03  0.17200000000E+03 0. -1.
         -6    1    1    2    0  502 -0.42125269125E+02  0.17461007130E+03 -0.17104868262E+03  0.30183582810E+03  0.17200000000E+03 0.  1.
</event>
<event>
 4    1 -0.3291270E-004  0.1806909E+03  0.7818608E-02  0.1167136E+00
         -5   -1    0    0    0  501 -0.00000000000E+00  0.00000000000E+00  0.19966916471E+03  0.19972447355E+03  0.47000000000E+01 0.  1.
          5   -1    0    0  501    0  0.00000000000E+00 -0.00000000000E+00 -0.19182978200E+03  0.19188735045E+03  0.47000000000E+01 0. -1.
          6    1    1    2  502    0  0.21229403423E+02 -0.51132281195E+02  0.79269997642E+02  0.19731429314E+03  0.17200000000E+03 0.  1.
         -6    1    1    2    0  502 -0.21229403423E+02  0.51132281195E+02 -0.71430614931E+02  0.19429753086E+03  0.17200000000E+03 0. -1.
</event>
<event>
 4    1 -0.3291270E-004  0.5368567E+03  0.7818608E-02  0.1004583E+00
         -5   -1    0    0    0  501 -0.00000000000E+00  0.00000000000E+00  0.22745660646E+03  0.22750515999E+03  0.47000000000E+01 0.  1.
          5   -1    0    0  501    0  0.00000000000E+00 -0.00000000000E+00 -0.14259686361E+04  0.14259763816E+04  0.47000000000E+01 0. -1.
          6    1    1    2  502    0 -0.26887313843E+03 -0.43166927791E+03 -0.87534724577E+03  0.10268631509E+04  0.17200000000E+03 0. -1.
         -6    1    1    2    0  502  0.26887313843E+03  0.43166927791E+03 -0.32316478383E+03  0.62661839071E+03  0.17200000000E+03 0.  1.
</event>
<event>
 4    1 -0.3291270E-004  0.2488622E+03  0.7818608E-02  0.1114026E+00
         -5   -1    0    0    0  501 -0.00000000000E+00  0.00000000000E+00  0.19840058981E+03  0.19845625220E+03  0.47000000000E+01 0.  1.
          5   -1    0    0  501    0  0.00000000000E+00 -0.00000000000E+00 -0.31378311687E+03  0.31381831437E+03  0.47000000000E+01 0. -1.
          6    1    1    2  502    0 -0.15190567489E+03 -0.96296684024E+02 -0.76772993465E+02  0.26043517033E+03  0.17200000000E+03 0. -1.
         -6    1    1    2    0  502  0.15190567489E+03  0.96296684024E+02 -0.38609533595E+02  0.25183939625E+03  0.17200000000E+03 0.  1.
</event>
<event>
 4    1 -0.3291270E-004  0.2163293E+03  0.7818608E-02  0.1136650E+00
         -5   -1    0    0    0  501 -0.00000000000E+00  0.00000000000E+00  0.17175914618E+03  0.17182343931E+03  0.47000000000E+01 0.  1.
          5   -1    0    0  501    0  0.00000000000E+00 -0.00000000000E+00 -0.33220492965E+03  0.33223817553E+03  0.47000000000E+01 0. -1.
          6    1    1    2  502    0  0.79819548170E+01  0.13096042734E+03 -0.18720452233E+03  0.28608369110E+03  0.17200000000E+03 0. -1.
         -6    1    1    2    0  502 -0.79819548170E+01 -0.13096042734E+03  0.26758738864E+02  0.21797792374E+03  0.17200000000E+03 0.  1.
</event>
<event>
 4    1 -0.3291270E-004  0.3071325E+03  0.7818608E-02  0.1081729E+00
         -5   -1    0    0    0  501 -0.00000000000E+00  0.00000000000E+00  0.57880345804E+03  0.57882254020E+03  0.47000000000E+01 0.  1.
          5   -1    0    0  501    0  0.00000000000E+00 -0.00000000000E+00 -0.19256030438E+03  0.19261765450E+03  0.47000000000E+01 0. -1.
          6    1    1    2  502    0 -0.23106721540E+03  0.10655656359E+03  0.41819570342E+02  0.30996650745E+03  0.17200000000E+03 0. -1.
         -6    1    1    2    0  502  0.23106721540E+03 -0.10655656359E+03  0.34442358332E+03  0.46147368725E+03  0.17200000000E+03 0.  1.
</event>
<event>
 4    1 -0.3291270E-004  0.2813565E+03  0.7818608E-02  0.1094950E+00
          5   -1    0    0  501    0  0.00000000000E+00  0.00000000000E+00  0.15649215934E+04  0.15649286513E+04  0.47000000000E+01 0. -1.
         -5   -1    0    0    0  501 -0.00000000000E+00 -0.00000000000E+00 -0.53307037457E+02  0.53513832254E+02  0.47000000000E+01 0.  1.
          6    1    1    2  502    0 -0.32552220769E+02 -0.22026760961E+03  0.94215461340E+03  0.98326841832E+03  0.17200000000E+03 0. -1.
         -6    1    1    2    0  502  0.32552220769E+02  0.22026760961E+03  0.56945994258E+03  0.63517406522E+03  0.17200000000E+03 0.  1.
</event>
<event>
 4    1 -0.3291270E-004  0.4634495E+03  0.7818608E-02  0.1023786E+00
         -5   -1    0    0    0  501 -0.00000000000E+00  0.00000000000E+00  0.52345988721E+03  0.52348098678E+03  0.47000000000E+01 0.  1.
          5   -1    0    0  501    0  0.00000000000E+00 -0.00000000000E+00 -0.11166872809E+04  0.11166971717E+04  0.47000000000E+01 0. -1.
          6    1    1    2  502    0  0.38679128787E+03  0.18866346992E+03 -0.94886716953E+03  0.10559992001E+04  0.17200000000E+03 0. -1.
         -6    1    1    2    0  502 -0.38679128787E+03 -0.18866346992E+03  0.35563977583E+03  0.58417895838E+03  0.17200000000E+03 0.  1.
</event>
<event>
 4    1 -0.3291270E-004  0.4185045E+03  0.7818608E-02  0.1037554E+00
          5   -1    0    0  501    0  0.00000000000E+00  0.00000000000E+00  0.22022422215E+03  0.22027436987E+03  0.47000000000E+01 0. -1.
         -5   -1    0    0    0  501 -0.00000000000E+00 -0.00000000000E+00 -0.10809243504E+04  0.10809345685E+04  0.47000000000E+01 0.  1.
          6    1    1    2  502    0  0.77520963483E+02  0.37356732503E+03 -0.95838775001E+02  0.42933799844E+03  0.17200000000E+03 0. -1.
         -6    1    1    2    0  502 -0.77520963483E+02 -0.37356732503E+03 -0.76486135327E+03  0.87187093990E+03  0.17200000000E+03 0.  1.
</event>
<event>
 4    1 -0.3291270E-004  0.6043392E+03  0.7818608E-02  0.9896444E-01
         -5   -1    0    0    0  501 -0.00000000000E+00  0.00000000000E+00  0.49125444824E+03  0.49127693098E+03  0.47000000000E+01 0.  1.
          5   -1    0    0  501    0  0.00000000000E+00 -0.00000000000E+00 -0.10048027755E+04  0.10048137677E+04  0.47000000000E+01 0. -1.
          6    1    1    2  502    0 -0.52666289849E+02 -0.57694723452E+03 -0.63830336865E+03  0.87900912392E+03  0.17200000000E+03 0. -1.
         -6    1    1    2    0  502  0.52666289849E+02  0.57694723452E+03  0.12475504139E+03  0.61708157472E+03  0.17200000000E+03 0.  1.
</event>
<event>
 4    1 -0.3291270E-004  0.2193671E+03  0.7818608E-02  0.1134356E+00
         -5   -1    0    0    0  501 -0.00000000000E+00  0.00000000000E+00  0.61524934816E+03  0.61526729997E+03  0.47000000000E+01 0.  1.
          5   -1    0    0  501    0  0.00000000000E+00 -0.00000000000E+00 -0.78136697446E+02  0.78277924652E+02  0.47000000000E+01 0. -1.
          6    1    1    2  502    0  0.84485966611E+02  0.10677107299E+03  0.26443316395E+03  0.34357945046E+03  0.17200000000E+03 0. -1.
         -6    1    1    2    0  502 -0.84485966611E+02 -0.10677107299E+03  0.27267948676E+03  0.34996577416E+03  0.17200000000E+03 0. -1.
</event>
<event>
 4    1 -0.3291270E-004  0.1941998E+03  0.7818608E-02  0.1154727E+00
         -5   -1    0    0    0  501 -0.00000000000E+00  0.00000000000E+00  0.10133077136E+03  0.10143971226E+03  0.47000000000E+01 0.  1.
          5   -1    0    0  501    0  0.00000000000E+00 -0.00000000000E+00 -0.40951793043E+03  0.40954490028E+03  0.47000000000E+01 0. -1.
          6    1    1    2  502    0 -0.67343490979E+02 -0.59953608418E+02 -0.23155790104E+03  0.30221290917E+03  0.17200000000E+03 0. -1.
         -6    1    1    2    0  502  0.67343490979E+02  0.59953608418E+02 -0.76629258039E+02  0.20877170337E+03  0.17200000000E+03 0.  1.
</event>
<event>
 4    1 -0.3291270E-004  0.2595387E+03  0.7818608E-02  0.1107421E+00
          5   -1    0    0  501    0  0.00000000000E+00  0.00000000000E+00  0.14379317062E+03  0.14386996183E+03  0.47000000000E+01 0. -1.
         -5   -1    0    0    0  501 -0.00000000000E+00 -0.00000000000E+00 -0.55491899874E+03  0.55493890219E+03  0.47000000000E+01 0.  1.
          6    1    1    2  502    0 -0.92300006653E+02  0.17104684440E+03 -0.67481861173E+02  0.26816807378E+03  0.17200000000E+03 0. -1.
         -6    1    1    2    0  502  0.92300006653E+02 -0.17104684440E+03 -0.34364396694E+03  0.43064079024E+03  0.17200000000E+03 0.  1.
</event>
<event>
 4    1 -0.3291270E-004  0.1726771E+03  0.7818608E-02  0.1175084E+00
          5   -1    0    0  501    0  0.00000000000E+00  0.00000000000E+00  0.84917842434E+03  0.84919143093E+03  0.47000000000E+01 0. -1.
         -5   -1    0    0    0  501 -0.00000000000E+00 -0.00000000000E+00 -0.11133585433E+03  0.11143501452E+03  0.47000000000E+01 0.  1.
          6    1    1    2  502    0  0.10435833200E+01  0.15241384568E+02  0.76639275061E+03  0.78560501339E+03  0.17200000000E+03 0. -1.
         -6    1    1    2    0  502 -0.10435833200E+01 -0.15241384568E+02 -0.28550180601E+02  0.17502143206E+03  0.17200000000E+03 0.  1.
</event>
<event>
 4    1 -0.3291270E-004  0.1728072E+03  0.7818608E-02  0.1174952E+00
          5   -1    0    0  501    0  0.00000000000E+00  0.00000000000E+00  0.44716011797E+03  0.44718481761E+03  0.47000000000E+01 0. -1.
         -5   -1    0    0    0  501 -0.00000000000E+00 -0.00000000000E+00 -0.10666749126E+03  0.10677098712E+03  0.47000000000E+01 0.  1.
          6    1    1    2  502    0  0.13656380311E+02  0.95833812754E+01  0.33972133849E+03  0.38114685588E+03  0.17200000000E+03 0. -1.
         -6    1    1    2    0  502 -0.13656380311E+02 -0.95833812754E+01  0.77128822663E+00  0.17280894886E+03  0.17200000000E+03 0.  1.
</event>
<event>
 4    1 -0.3291270E-004  0.2359499E+03  0.7818608E-02  0.1122521E+00
         -5   -1    0    0    0  501 -0.00000000000E+00  0.00000000000E+00  0.29876654492E+02  0.30244081796E+02  0.47000000000E+01 0.  1.
          5   -1    0    0  501    0  0.00000000000E+00 -0.00000000000E+00 -0.18597820494E+04  0.18597879882E+04  0.47000000000E+01 0. -1.
          6    1    1    2  502    0 -0.15511902684E+03 -0.45016029297E+02 -0.97744381501E+03  0.10055191529E+04  0.17200000000E+03 0. -1.
         -6    1    1    2    0  502  0.15511902684E+03  0.45016029297E+02 -0.85246157987E+03  0.88451291711E+03  0.17200000000E+03 0.  1.
</event>
<event>
 4    1 -0.3291270E-004  0.2064466E+03  0.7818608E-02  0.1144411E+00
         -5   -1    0    0    0  501 -0.00000000000E+00  0.00000000000E+00  0.23889894458E+03  0.23894517305E+03  0.47000000000E+01 0.  1.
          5   -1    0    0  501    0  0.00000000000E+00 -0.00000000000E+00 -0.18777744824E+03  0.18783625866E+03  0.47000000000E+01 0. -1.
          6    1    1    2  502    0 -0.10683430352E+02 -0.11367529528E+03 -0.22345053697E+02  0.20765237746E+03  0.17200000000E+03 0. -1.
         -6    1    1    2    0  502  0.10683430352E+02  0.11367529528E+03  0.73466550043E+02  0.21912905425E+03  0.17200000000E+03 0.  1.
</event>
<event>
 4    1 -0.3291270E-004  0.2066198E+03  0.7818608E-02  0.1144271E+00
          5   -1    0    0  501    0  0.00000000000E+00  0.00000000000E+00  0.50801506433E+03  0.50803680534E+03  0.47000000000E+01 0. -1.
         -5   -1    0    0    0  501 -0.00000000000E+00 -0.00000000000E+00 -0.90933408287E+02  0.91054789785E+02  0.47000000000E+01 0.  1.
          6    1    1    2  502    0  0.11190879784E+03  0.24169747063E+02  0.29150127721E+03  0.35730204355E+03  0.17200000000E+03 0. -1.
         -6    1    1    2    0  502 -0.11190879784E+03 -0.24169747063E+02  0.12558037882E+03  0.24178955158E+03  0.17200000000E+03 0.  1.
</event>
<event>
 4    1 -0.3291270E-004  0.2463917E+03  0.7818608E-02  0.1115607E+00
         -5   -1    0    0    0  501 -0.00000000000E+00  0.00000000000E+00  0.29529723899E+04  0.29529761301E+04  0.47000000000E+01 0.  1.
          5   -1    0    0  501    0  0.00000000000E+00 -0.00000000000E+00 -0.20710914656E+02  0.21237513647E+02  0.47000000000E+01 0. -1.
          6    1    1    2  502    0 -0.38977054141E+02  0.17206298657E+03  0.12558619083E+04  0.12798038971E+04  0.17200000000E+03 0.  1.
         -6    1    1    2    0  502  0.38977054141E+02 -0.17206298657E+03  0.16763995669E+04  0.16944097467E+04  0.17200000000E+03 0.  1.
</event>
<event>
 4    1 -0.3291270E-004  0.1735066E+03  0.7818608E-02  0.1174240E+00
          5   -1    0    0  501    0  0.00000000000E+00  0.00000000000E+00  0.40770189933E+02  0.41040204522E+02  0.47000000000E+01 0. -1.
         -5   -1    0    0    0  501 -0.00000000000E+00 -0.00000000000E+00 -0.10871692437E+04  0.10871794031E+04  0.47000000000E+01 0.  1.
          6    1    1    2  502    0  0.20742292042E+02  0.95025940632E+01 -0.20248854256E+03  0.26665736787E+03  0.17200000000E+03 0. -1.
         -6    1    1    2    0  502 -0.20742292042E+02 -0.95025940632E+01 -0.84391051126E+03  0.86156223976E+03  0.17200000000E+03 0.  1.
</event>
<event>
 4    1 -0.3291270E-004  0.2246432E+03  0.7818608E-02  0.1130468E+00
         -5   -1    0    0    0  501 -0.00000000000E+00  0.00000000000E+00  0.25808666106E+03  0.25812945322E+03  0.47000000000E+01 0.  1.
          5   -1    0    0  501    0  0.00000000000E+00 -0.00000000000E+00 -0.20028986058E+03  0.20034499807E+03  0.47000000000E+01 0. -1.
          6    1    1    2  502    0 -0.13263630248E+02  0.14389106011E+03 -0.67416501069E+01  0.22474432343E+03  0.17200000000E+03 0.  1.
         -6    1    1    2    0  502  0.13263630248E+02 -0.14389106011E+03  0.64538450586E+02  0.23373012786E+03  0.17200000000E+03 0.  1.
</event>
<event>
 4    1 -0.3291270E-004  0.3203050E+03  0.7818608E-02  0.1075509E+00
          5   -1    0    0  501    0  0.00000000000E+00  0.00000000000E+00  0.18120338548E+03  0.18126432884E+03  0.47000000000E+01 0. -1.
         -5   -1    0    0    0  501 -0.00000000000E+00 -0.00000000000E+00 -0.59592486241E+03  0.59594339634E+03  0.47000000000E+01 0.  1.
          6    1    1    2  502    0 -0.26792000947E+03  0.35073692608E+02 -0.12031784264E+03  0.34215738870E+03  0.17200000000E+03 0. -1.
         -6    1    1    2    0  502  0.26792000947E+03 -0.35073692608E+02 -0.29440363429E+03  0.43505033648E+03  0.17200000000E+03 0.  1.
</event>
<event>
 4    1 -0.3291270E-004  0.2210428E+03  0.7818608E-02  0.1133108E+00
         -5   -1    0    0    0  501 -0.00000000000E+00  0.00000000000E+00  0.12158087039E+04  0.12158177883E+04  0.47000000000E+01 0.  1.
          5   -1    0    0  501    0  0.00000000000E+00 -0.00000000000E+00 -0.40181264897E+02  0.40455210402E+02  0.47000000000E+01 0. -1.
          6    1    1    2  502    0  0.71817257535E+02  0.11882008146E+03  0.62486157118E+03  0.66280609033E+03  0.17200000000E+03 0.  1.
         -6    1    1    2    0  502 -0.71817257535E+02 -0.11882008146E+03  0.55076586779E+03  0.59346690840E+03  0.17200000000E+03 0.  1.
</event>
<event>
 4    1 -0.3291270E-004  0.1752985E+03  0.7818608E-02  0.1172432E+00
          5   -1    0    0  501    0  0.00000000000E+00  0.00000000000E+00  0.15451324703E+03  0.15458471305E+03  0.47000000000E+01 0. -1.
         -5   -1    0    0    0  501 -0.00000000000E+00 -0.00000000000E+00 -0.20282750149E+03  0.20288194932E+03  0.47000000000E+01 0.  1.
          6    1    1    2  502    0 -0.16503696002E+02 -0.29549582982E+02  0.12250712584E+01  0.17530273995E+03  0.17200000000E+03 0. -1.
         -6    1    1    2    0  502  0.16503696002E+02  0.29549582982E+02 -0.49539325716E+02  0.18216392241E+03  0.17200000000E+03 0.  1.
</event>
<event>
 4    1 -0.3291270E-004  0.2082674E+03  0.7818608E-02  0.1142945E+00
          5   -1    0    0  501    0  0.00000000000E+00  0.00000000000E+00  0.21233110941E+03  0.21238312086E+03  0.47000000000E+01 0. -1.
         -5   -1    0    0    0  501 -0.00000000000E+00 -0.00000000000E+00 -0.28935478741E+03  0.28939295602E+03  0.47000000000E+01 0.  1.
          6    1    1    2  502    0 -0.31349956607E+02  0.11317453877E+03 -0.17461033587E+03  0.27177944256E+03  0.17200000000E+03 0.  1.
         -6    1    1    2    0  502  0.31349956607E+02 -0.11317453877E+03  0.97586657875E+02  0.22999663432E+03  0.17200000000E+03 0.  1.
</event>
<event>
 4    1 -0.3291270E-004  0.1755810E+03  0.7818608E-02  0.1172150E+00
         -5   -1    0    0    0  501 -0.00000000000E+00  0.00000000000E+00  0.19908462008E+02  0.20455729259E+02  0.47000000000E+01 0.  1.
          5   -1    0    0  501    0  0.00000000000E+00 -0.00000000000E+00 -0.16097398683E+04  0.16097467296E+04  0.47000000000E+01 0. -1.
          6    1    1    2  502    0 -0.34478381489E+02 -0.74778557947E+01 -0.61012437287E+03  0.63488615317E+03  0.17200000000E+03 0.  1.
         -6    1    1    2    0  502  0.34478381489E+02  0.74778557947E+01 -0.97970703340E+03  0.99531630571E+03  0.17200000000E+03 0. -1.
</event>
<event>
 4    1 -0.3291270E-004  0.1986325E+03  0.7818608E-02  0.1150898E+00
          5   -1    0    0  501    0  0.00000000000E+00  0.00000000000E+00  0.54241322835E+03  0.54243359067E+03  0.47000000000E+01 0. -1.
         -5   -1    0    0    0  501 -0.00000000000E+00 -0.00000000000E+00 -0.10833316521E+03  0.10843507128E+03  0.47000000000E+01 0.  1.
          6    1    1    2  502    0  0.49946255740E+02  0.85885032928E+02  0.40370768079E+03  0.44992750402E+03  0.17200000000E+03 0. -1.
         -6    1    1    2    0  502 -0.49946255740E+02 -0.85885032928E+02  0.30372382352E+02  0.20094115794E+03  0.17200000000E+03 0.  1.
</event>
<event>
 4    1 -0.3291270E-004  0.4502359E+03  0.7818608E-02  0.1027652E+00
         -5   -1    0    0    0  501 -0.00000000000E+00  0.00000000000E+00  0.65199675981E+03  0.65201369985E+03  0.47000000000E+01 0.  1.
          5   -1    0    0  501    0  0.00000000000E+00 -0.00000000000E+00 -0.38738477221E+03  0.38741328286E+03  0.47000000000E+01 0. -1.
          6    1    1    2  502    0  0.12044214542E+03 -0.39827380332E+03 -0.98652673374E+02  0.46091721900E+03  0.17200000000E+03 0. -1.
         -6    1    1    2    0  502 -0.12044214542E+03  0.39827380332E+03  0.36326466097E+03  0.57850976372E+03  0.17200000000E+03 0.  1.
</event>
<event>
 4    1 -0.3291270E-004  0.1814450E+03  0.7818608E-02  0.1166412E+00
         -5   -1    0    0    0  501 -0.00000000000E+00  0.00000000000E+00  0.51323480279E+03  0.51325632270E+03  0.47000000000E+01 0.  1.
          5   -1    0    0  501    0  0.00000000000E+00 -0.00000000000E+00 -0.66438434313E+02  0.66604470975E+02  0.47000000000E+01 0. -1.
          6    1    1    2  502    0  0.42714347893E+02 -0.38907072742E+02  0.16836300999E+03  0.24752450173E+03  0.17200000000E+03 0. -1.
         -6    1    1    2    0  502 -0.42714347893E+02  0.38907072742E+02  0.27843335849E+03  0.33233629194E+03  0.17200000000E+03 0.  1.
</event>
<event>
 4    1 -0.3291270E-004  0.3424814E+03  0.7818608E-02  0.1065744E+00
         -5   -1    0    0    0  501 -0.00000000000E+00  0.00000000000E+00  0.19016785245E+03  0.19022592385E+03  0.47000000000E+01 0.  1.
          5   -1    0    0  501    0  0.00000000000E+00 -0.00000000000E+00 -0.86525467900E+03  0.86526744393E+03  0.47000000000E+01 0. -1.
          6    1    1    2  502    0 -0.28099329655E+03 -0.93553613183E+02 -0.62042769153E+03  0.70867766415E+03  0.17200000000E+03 0. -1.
         -6    1    1    2    0  502  0.28099329655E+03  0.93553613183E+02 -0.54659135013E+02  0.34681570363E+03  0.17200000000E+03 0.  1.
</event>
<event>
 4    1 -0.3291270E-004  0.1834383E+03  0.7818608E-02  0.1164516E+00
         -5   -1    0    0    0  501 -0.00000000000E+00  0.00000000000E+00  0.43102744796E+02  0.43358235768E+02  0.47000000000E+01 0.  1.
          5   -1    0    0  501    0  0.00000000000E+00 -0.00000000000E+00 -0.83850643726E+03  0.83851960939E+03  0.47000000000E+01 0. -1.
          6    1    1    2  502    0 -0.56239062615E+02 -0.30046264701E+02 -0.51601857735E+03  0.54765388920E+03  0.17200000000E+03 0. -1.
         -6    1    1    2    0  502  0.56239062615E+02  0.30046264701E+02 -0.27938511511E+03  0.33422395595E+03  0.17200000000E+03 0.  1.
</event>
<event>
 4    1 -0.3291270E-004  0.2209270E+03  0.7818608E-02  0.1133194E+00
         -5   -1    0    0    0  501 -0.00000000000E+00  0.00000000000E+00  0.20389810117E+03  0.20395226319E+03  0.47000000000E+01 0.  1.
          5   -1    0    0  501    0  0.00000000000E+00 -0.00000000000E+00 -0.27081882696E+03  0.27085960761E+03  0.47000000000E+01 0. -1.
          6    1    1    2  502    0  0.10869350897E+02 -0.13822653425E+03  0.47555984030E+02  0.22598736508E+03  0.17200000000E+03 0.  1.
         -6    1    1    2    0  502 -0.10869350897E+02  0.13822653425E+03 -0.11447670982E+03  0.24882450573E+03  0.17200000000E+03 0. -1.
</event>
<event>
 4    1 -0.3291270E-004  0.2259724E+03  0.7818608E-02  0.1129507E+00
         -5   -1    0    0    0  501 -0.00000000000E+00  0.00000000000E+00  0.64920389117E+03  0.64922090409E+03  0.47000000000E+01 0.  1.
          5   -1    0    0  501    0  0.00000000000E+00 -0.00000000000E+00 -0.17337178357E+03  0.17343547889E+03  0.47000000000E+01 0. -1.
          6    1    1    2  502    0 -0.89798562118E+02 -0.11582638637E+03 -0.66147581132E+02  0.23545495541E+03  0.17200000000E+03 0. -1.
         -6    1    1    2    0  502  0.89798562118E+02  0.11582638637E+03  0.54197968873E+03  0.58720142757E+03  0.17200000000E+03 0.  1.
</event>
<event>
 4    1 -0.3291270E-004  0.2034478E+03  0.7818608E-02  0.1146862E+00
         -5   -1    0    0    0  501 -0.00000000000E+00  0.00000000000E+00  0.15847553669E+02  0.16529820244E+02  0.47000000000E+01 0.  1.
          5   -1    0    0  501    0  0.00000000000E+00 -0.00000000000E+00 -0.25669779234E+04  0.25669822261E+04  0.47000000000E+01 0. -1.
          6    1    1    2  502    0 -0.10644580065E+03  0.21823997438E+02 -0.11914896431E+04  0.12087342822E+04  0.17200000000E+03 0. -1.
         -6    1    1    2    0  502  0.10644580065E+03 -0.21823997438E+02 -0.13596407266E+04  0.13747777642E+04  0.17200000000E+03 0. -1.
</event>
<event>
 4    1 -0.3291270E-004  0.1763934E+03  0.7818608E-02  0.1171340E+00
          5   -1    0    0  501    0  0.00000000000E+00  0.00000000000E+00  0.19094170755E+04  0.19094228600E+04  0.47000000000E+01 0. -1.
         -5   -1    0    0    0  501 -0.00000000000E+00 -0.00000000000E+00 -0.24644060652E+02  0.25088238787E+02  0.47000000000E+01 0.  1.
          6    1    1    2  502    0  0.38843916260E+02  0.46671671152E+01  0.15103809539E+04  0.15206463291E+04  0.17200000000E+03 0. -1.
         -6    1    1    2    0  502 -0.38843916260E+02 -0.46671671152E+01  0.37439206099E+03  0.41386476971E+03  0.17200000000E+03 0.  1.
</event>
<event>
 4    1 -0.3291270E-004  0.1829180E+03  0.7818608E-02  0.1165008E+00
         -5   -1    0    0    0  501 -0.00000000000E+00  0.00000000000E+00  0.92079723870E+02  0.92199596246E+02  0.47000000000E+01 0.  1.
          5   -1    0    0  501    0  0.00000000000E+00 -0.00000000000E+00 -0.36634357874E+03  0.36637372679E+03  0.47000000000E+01 0. -1.
          6    1    1    2  502    0 -0.48280949335E+02  0.39293161659E+02 -0.11522653382E+03  0.21618546833E+03  0.17200000000E+03 0.  1.
         -6    1    1    2    0  502  0.48280949335E+02 -0.39293161659E+02 -0.15903732105E+03  0.24238785470E+03  0.17200000000E+03 0.  1.
</event>
<event>
 4    1 -0.3291270E-004  0.1808321E+03  0.7818608E-02  0.1167000E+00
          5   -1    0    0  501    0  0.00000000000E+00  0.00000000000E+00  0.26999832685E+02  0.27405856400E+02  0.47000000000E+01 0. -1.
         -5   -1    0    0    0  501 -0.00000000000E+00 -0.00000000000E+00 -0.15371349640E+04  0.15371421494E+04  0.47000000000E+01 0.  1.
          6    1    1    2  502    0  0.15920356231E+02  0.53505133598E+02 -0.38967293448E+03  0.42958730537E+03  0.17200000000E+03 0. -1.
         -6    1    1    2    0  502 -0.15920356231E+02 -0.53505133598E+02 -0.11204621969E+04  0.11349607005E+04  0.17200000000E+03 0.  1.
</event>
<event>
 4    1 -0.3291270E-004  0.1787911E+03  0.7818608E-02  0.1168978E+00
          5   -1    0    0  501    0  0.00000000000E+00  0.00000000000E+00  0.26799403872E+03  0.26803524916E+03  0.47000000000E+01 0. -1.
         -5   -1    0    0    0  501 -0.00000000000E+00 -0.00000000000E+00 -0.14278451427E+03  0.14286184766E+03  0.47000000000E+01 0.  1.
          6    1    1    2  502    0  0.45924624686E+02 -0.16528669146E+02 -0.20886292433E+02  0.18000695894E+03  0.17200000000E+03 0. -1.
         -6    1    1    2    0  502 -0.45924624686E+02  0.16528669146E+02  0.14609581688E+03  0.23089013787E+03  0.17200000000E+03 0. -1.
</event>
<event>
 4    1 -0.3291270E-004  0.1727419E+03  0.7818608E-02  0.1175018E+00
         -5   -1    0    0    0  501 -0.00000000000E+00  0.00000000000E+00  0.90488419490E+02  0.90610397095E+02  0.47000000000E+01 0.  1.
          5   -1    0    0  501    0  0.00000000000E+00 -0.00000000000E+00 -0.35607170026E+03  0.35610271795E+03  0.47000000000E+01 0. -1.
          6    1    1    2  502    0  0.12054334534E+02 -0.10509676066E+02 -0.19390573453E+03  0.25969057387E+03  0.17200000000E+03 0. -1.
         -6    1    1    2    0  502 -0.12054334534E+02  0.10509676066E+02 -0.71677546246E+02  0.18702254118E+03  0.17200000000E+03 0. -1.
</event>
<event>
 4    1 -0.3291270E-004  0.1830765E+03  0.7818608E-02  0.1164858E+00
         -5   -1    0    0    0  501 -0.00000000000E+00  0.00000000000E+00  0.41619811054E+02  0.41884348773E+02  0.47000000000E+01 0.  1.
          5   -1    0    0  501    0  0.00000000000E+00 -0.00000000000E+00 -0.10239333667E+04  0.10239441535E+04  0.47000000000E+01 0. -1.
          6    1    1    2  502    0 -0.21359737960E+02  0.58964086257E+02 -0.73895211636E+03  0.76129313155E+03  0.17200000000E+03 0. -1.
         -6    1    1    2    0  502  0.21359737960E+02 -0.58964086257E+02 -0.24336143927E+03  0.30453537068E+03  0.17200000000E+03 0.  1.
</event>
<event>
 4    1 -0.3291270E-004  0.2780730E+03  0.7818608E-02  0.1096746E+00
         -5   -1    0    0    0  501 -0.00000000000E+00  0.00000000000E+00  0.10197524865E+04  0.10197633175E+04  0.47000000000E+01 0.  1.
          5   -1    0    0  501    0  0.00000000000E+00 -0.00000000000E+00 -0.93698830521E+02  0.93816634138E+02  0.47000000000E+01 0. -1.
          6    1    1    2  502    0  0.13490775277E+03  0.17187349071E+03  0.21947025723E+03  0.35424820730E+03  0.17200000000E+03 0. -1.
         -6    1    1    2    0  502 -0.13490775277E+03 -0.17187349071E+03  0.70658339871E+03  0.75933174430E+03  0.17200000000E+03 0.  1.
</event>
<event>
 4    1 -0.3291270E-004  0.1890412E+03  0.7818608E-02  0.1159329E+00
          5   -1    0    0  501    0  0.00000000000E+00  0.00000000000E+00  0.49637401262E+02  0.49859418409E+02  0.47000000000E+01 0. -1.
         -5   -1    0    0    0  501 -0.00000000000E+00 -0.00000000000E+00 -0.76242778166E+03  0.76244226814E+03  0.47000000000E+01 0.  1.
          6    1    1    2  502    0 -0.68247275912E+01  0.78140972712E+02 -0.25849645795E+03  0.32024522993E+03  0.17200000000E+03 0.  1.
         -6    1    1    2    0  502  0.68247275912E+01 -0.78140972712E+02 -0.45429392245E+03  0.49205645661E+03  0.17200000000E+03 0.  1.
</event>
<event>
 4    1 -0.3291270E-004  0.2267902E+03  0.7818608E-02  0.1128920E+00
          5   -1    0    0  501    0  0.00000000000E+00  0.00000000000E+00  0.16566908186E+03  0.16573573750E+03  0.47000000000E+01 0. -1.
         -5   -1    0    0    0  501 -0.00000000000E+00 -0.00000000000E+00 -0.38091299164E+03  0.38094198666E+03  0.47000000000E+01 0.  1.
          6    1    1    2  502    0  0.10546931826E+03 -0.10356656243E+03  0.10038528013E+02  0.22701229480E+03  0.17200000000E+03 0. -1.
         -6    1    1    2    0  502 -0.10546931826E+03  0.10356656243E+03 -0.22528243780E+03  0.31966542936E+03  0.17200000000E+03 0. -1.
</event>
<event>
 4    1 -0.3291270E-004  0.1874122E+03  0.7818608E-02  0.1160816E+00
          5   -1    0    0  501    0  0.00000000000E+00  0.00000000000E+00  0.30768063801E+03  0.30771653353E+03  0.47000000000E+01 0. -1.
         -5   -1    0    0    0  501 -0.00000000000E+00 -0.00000000000E+00 -0.11415896755E+03  0.11425567764E+03  0.47000000000E+01 0.  1.
          6    1    1    2  502    0  0.48501696925E+02 -0.56452959475E+02  0.90687624266E+02  0.20820085599E+03  0.17200000000E+03 0. -1.
         -6    1    1    2    0  502 -0.48501696925E+02  0.56452959475E+02  0.10283404619E+03  0.21377135518E+03  0.17200000000E+03 0.  1.
</event>
<event>
 4    1 -0.3291270E-004  0.1829546E+03  0.7818608E-02  0.1164974E+00
         -5   -1    0    0    0  501 -0.00000000000E+00  0.00000000000E+00  0.65729274523E+02  0.65897098034E+02  0.47000000000E+01 0.  1.
          5   -1    0    0  501    0  0.00000000000E+00 -0.00000000000E+00 -0.62549460647E+03  0.62551226425E+03  0.47000000000E+01 0. -1.
          6    1    1    2  502    0 -0.26152594811E+02 -0.56607663443E+02 -0.42942459442E+03  0.46677389395E+03  0.17200000000E+03 0. -1.
         -6    1    1    2    0  502  0.26152594811E+02  0.56607663443E+02 -0.13034073753E+03  0.22463546834E+03  0.17200000000E+03 0.  1.
</event>
<event>
 4    1 -0.3291270E-004  0.2269555E+03  0.7818608E-02  0.1128801E+00
          5   -1    0    0  501    0  0.00000000000E+00  0.00000000000E+00  0.13124794054E+04  0.13124878208E+04  0.47000000000E+01 0. -1.
         -5   -1    0    0    0  501 -0.00000000000E+00 -0.00000000000E+00 -0.43962479517E+02  0.44213002672E+02  0.47000000000E+01 0.  1.
          6    1    1    2  502    0  0.82326569566E+02  0.12307375755E+03  0.85924831353E+03  0.88871619663E+03  0.17200000000E+03 0. -1.
         -6    1    1    2    0  502 -0.82326569566E+02 -0.12307375755E+03  0.40926861240E+03  0.46798462683E+03  0.17200000000E+03 0.  1.
</event>
<event>
 4    1 -0.3291270E-004  0.3626688E+03  0.7818608E-02  0.1057532E+00
         -5   -1    0    0    0  501 -0.00000000000E+00  0.00000000000E+00  0.85532506925E+03  0.85533798237E+03  0.47000000000E+01 0.  1.
          5   -1    0    0  501    0  0.00000000000E+00 -0.00000000000E+00 -0.21333583176E+03  0.21338759832E+03  0.47000000000E+01 0. -1.
          6    1    1    2  502    0  0.29713120185E+03 -0.11686609955E+03  0.38580461328E+02  0.36471507829E+03  0.17200000000E+03 0. -1.
         -6    1    1    2    0  502 -0.29713120185E+03  0.11686609955E+03  0.60340877615E+03  0.70401050239E+03  0.17200000000E+03 0.  1.
</event>
<event>
 4    1 -0.3291270E-004  0.3804097E+03  0.7818608E-02  0.1050782E+00
          5   -1    0    0  501    0  0.00000000000E+00  0.00000000000E+00  0.52025345035E+03  0.52027467996E+03  0.47000000000E+01 0. -1.
         -5   -1    0    0    0  501 -0.00000000000E+00 -0.00000000000E+00 -0.43926485319E+03  0.43928999676E+03  0.47000000000E+01 0.  1.
          6    1    1    2  502    0 -0.66608116703E+02  0.33270244017E+03  0.33108210726E+03  0.50430835473E+03  0.17200000000E+03 0. -1.
         -6    1    1    2    0  502  0.66608116703E+02 -0.33270244017E+03 -0.25009351010E+03  0.45525632198E+03  0.17200000000E+03 0.  1.
</event>
<event>
 4    1 -0.3291270E-004  0.2070057E+03  0.7818608E-02  0.1143959E+00
          5   -1    0    0  501    0  0.00000000000E+00  0.00000000000E+00  0.51756478269E+02  0.51969443356E+02  0.47000000000E+01 0. -1.
         -5   -1    0    0    0  501 -0.00000000000E+00 -0.00000000000E+00 -0.13620910748E+04  0.13620991836E+04  0.47000000000E+01 0.  1.
          6    1    1    2  502    0  0.82698943518E+02 -0.80176293344E+02 -0.10986860839E+04  0.11180172021E+04  0.17200000000E+03 0.  1.
         -6    1    1    2    0  502 -0.82698943518E+02  0.80176293344E+02 -0.21164851266E+03  0.29605142490E+03  0.17200000000E+03 0. -1.
</event>
<event>
 4    1 -0.3291270E-004  0.2409194E+03  0.7818608E-02  0.1119182E+00
          5   -1    0    0  501    0  0.00000000000E+00  0.00000000000E+00  0.32320707464E+03  0.32324124597E+03  0.47000000000E+01 0. -1.
         -5   -1    0    0    0  501 -0.00000000000E+00 -0.00000000000E+00 -0.41893671907E+03  0.41896308261E+03  0.47000000000E+01 0.  1.
          6    1    1    2  502    0  0.10431466778E+03 -0.13257676734E+03  0.23265745776E+03  0.33492035143E+03  0.17200000000E+03 0. -1.
         -6    1    1    2    0  502 -0.10431466778E+03  0.13257676734E+03 -0.32838710220E+03  0.40728397715E+03  0.17200000000E+03 0.  1.
</event>
<event>
 4    1 -0.3291270E-004  0.2427034E+03  0.7818608E-02  0.1118005E+00
         -5   -1    0    0    0  501 -0.00000000000E+00  0.00000000000E+00  0.16699626752E+04  0.16699692891E+04  0.47000000000E+01 0.  1.
          5   -1    0    0  501    0  0.00000000000E+00 -0.00000000000E+00 -0.36739924036E+02  0.37039330693E+02  0.47000000000E+01 0. -1.
          6    1    1    2  502    0 -0.17112619071E+03  0.60639011344E+01  0.63759717230E+03  0.68222803971E+03  0.17200000000E+03 0. -1.
         -6    1    1    2    0  502  0.17112619071E+03 -0.60639011344E+01  0.99562557889E+03  0.10247805801E+04  0.17200000000E+03 0.  1.
</event>
<event>
 4    1 -0.3291270E-004  0.3337248E+03  0.7818608E-02  0.1069501E+00
          5   -1    0    0  501    0  0.00000000000E+00  0.00000000000E+00  0.19741004600E+04  0.19741060549E+04  0.47000000000E+01 0. -1.
         -5   -1    0    0    0  501 -0.00000000000E+00 -0.00000000000E+00 -0.60757689128E+02  0.60939205674E+02  0.47000000000E+01 0.  1.
          6    1    1    2  502    0 -0.18005329835E+03 -0.22219142885E+03  0.12314386862E+04  0.12758579307E+04  0.17200000000E+03 0. -1.
         -6    1    1    2    0  502  0.18005329835E+03  0.22219142885E+03  0.68190408459E+03  0.75918732990E+03  0.17200000000E+03 0.  1.
</event>
<event>
 4    1 -0.3291270E-004  0.2251902E+03  0.7818608E-02  0.1130072E+00
          5   -1    0    0  501    0  0.00000000000E+00  0.00000000000E+00  0.27957221954E+03  0.27961172354E+03  0.47000000000E+01 0. -1.
         -5   -1    0    0    0  501 -0.00000000000E+00 -0.00000000000E+00 -0.35516989701E+03  0.35520099344E+03  0.47000000000E+01 0.  1.
          6    1    1    2  502    0  0.14534583149E+03  0.11038124813E+01  0.18425219852E+03  0.29096305916E+03  0.17200000000E+03 0. -1.
         -6    1    1    2    0  502 -0.14534583149E+03 -0.11038124813E+01 -0.25984987599E+03  0.34384965782E+03  0.17200000000E+03 0.  1.
</event>
<event>
 4    1 -0.3291270E-004  0.2336163E+03  0.7818608E-02  0.1124120E+00
          5   -1    0    0  501    0  0.00000000000E+00  0.00000000000E+00  0.70193604968E+02  0.70350779515E+02  0.47000000000E+01 0. -1.
         -5   -1    0    0    0  501 -0.00000000000E+00 -0.00000000000E+00 -0.16186685147E+04  0.16186753382E+04  0.47000000000E+01 0.  1.
          6    1    1    2  502    0 -0.14656835037E+03 -0.59247741598E+02 -0.16510845021E+03  0.28607232747E+03  0.17200000000E+03 0. -1.
         -6    1    1    2    0  502  0.14656835037E+03  0.59247741598E+02 -0.13833664595E+04  0.14029537902E+04  0.17200000000E+03 0.  1.
</event>
<event>
 4    1 -0.3291270E-004  0.1949862E+03  0.7818608E-02  0.1154039E+00
         -5   -1    0    0    0  501 -0.00000000000E+00  0.00000000000E+00  0.48034064134E+03  0.48036363489E+03  0.47000000000E+01 0.  1.
          5   -1    0    0  501    0  0.00000000000E+00 -0.00000000000E+00 -0.79756364446E+02  0.79894728672E+02  0.47000000000E+01 0. -1.
          6    1    1    2  502    0  0.46735297106E+02 -0.79065909358E+02  0.17408057455E+03  0.26138793479E+03  0.17200000000E+03 0. -1.
         -6    1    1    2    0  502 -0.46735297106E+02  0.79065909358E+02  0.22650370235E+03  0.29887042877E+03  0.17200000000E+03 0.  1.
</event>
<event>
 4    1 -0.3291270E-004  0.2016562E+03  0.7818608E-02  0.1148349E+00
          5   -1    0    0  501    0  0.00000000000E+00  0.00000000000E+00  0.62874113987E+02  0.63049537743E+02  0.47000000000E+01 0. -1.
         -5   -1    0    0    0  501 -0.00000000000E+00 -0.00000000000E+00 -0.92748668049E+03  0.92749858894E+03  0.47000000000E+01 0.  1.
          6    1    1    2  502    0  0.13827437053E+02 -0.10435537807E+03 -0.15933484776E+03  0.25700746421E+03  0.17200000000E+03 0. -1.
         -6    1    1    2    0  502 -0.13827437053E+02  0.10435537807E+03 -0.70527771874E+03  0.73354066248E+03  0.17200000000E+03 0.  1.
</event>
<event>
 4    1 -0.3291270E-004  0.4181062E+03  0.7818608E-02  0.1037684E+00
          5   -1    0    0  501    0  0.00000000000E+00  0.00000000000E+00  0.68529022177E+03  0.68530633884E+03  0.47000000000E+01 0. -1.
         -5   -1    0    0    0  501 -0.00000000000E+00 -0.00000000000E+00 -0.35258957591E+03  0.35262089990E+03  0.47000000000E+01 0.  1.
          6    1    1    2  502    0  0.38078892700E+03  0.15118636901E+02  0.43928241381E+03  0.60645017866E+03  0.17200000000E+03 0. -1.
         -6    1    1    2    0  502 -0.38078892700E+03 -0.15118636901E+02 -0.10658176796E+03  0.43147706008E+03  0.17200000000E+03 0.  1.
</event>
<event>
 4    1 -0.3291270E-004  0.3184193E+03  0.7818608E-02  0.1076379E+00
          5   -1    0    0  501    0  0.00000000000E+00  0.00000000000E+00  0.14537812254E+03  0.14545407700E+03  0.47000000000E+01 0. -1.
         -5   -1    0    0    0  501 -0.00000000000E+00 -0.00000000000E+00 -0.80957274715E+03  0.80958639003E+03  0.47000000000E+01 0.  1.
          6    1    1    2  502    0  0.21014474109E+03  0.16627103339E+03 -0.15417017227E+03  0.35377861830E+03  0.17200000000E+03 0. -1.
         -6    1    1    2    0  502 -0.21014474109E+03 -0.16627103339E+03 -0.51002445234E+03  0.60126184872E+03  0.17200000000E+03 0.  1.
</event>
<event>
 4    1 -0.3291270E-004  0.2026715E+03  0.7818608E-02  0.1147504E+00
         -5   -1    0    0    0  501 -0.00000000000E+00  0.00000000000E+00  0.69710350753E+03  0.69711935148E+03  0.47000000000E+01 0.  1.
          5   -1    0    0  501    0  0.00000000000E+00 -0.00000000000E+00 -0.11063349876E+03  0.11073328790E+03  0.47000000000E+01 0. -1.
          6    1    1    2  502    0  0.10313551722E+03  0.29237128599E+02  0.16989004587E+02  0.20338232686E+03  0.17200000000E+03 0. -1.
         -6    1    1    2    0  502 -0.10313551722E+03 -0.29237128599E+02  0.56948100418E+03  0.60447031252E+03  0.17200000000E+03 0.  1.
</event>
<event>
 4    1 -0.3291270E-004  0.2831103E+03  0.7818608E-02  0.1094002E+00
          5   -1    0    0  501    0  0.00000000000E+00  0.00000000000E+00  0.23252440680E+04  0.23252488181E+04  0.47000000000E+01 0. -1.
         -5   -1    0    0    0  501 -0.00000000000E+00 -0.00000000000E+00 -0.34470140458E+02  0.34789087128E+02  0.47000000000E+01 0.  1.
          6    1    1    2  502    0 -0.11923771458E+03 -0.19065624359E+03  0.10641169719E+04  0.11011341270E+04  0.17200000000E+03 0.  1.
         -6    1    1    2    0  502  0.11923771458E+03  0.19065624359E+03  0.12266569557E+04  0.12589037782E+04  0.17200000000E+03 0. -1.
</event>
<event>
 4    1 -0.3291270E-004  0.3233170E+03  0.7818608E-02  0.1074133E+00
          5   -1    0    0  501    0  0.00000000000E+00  0.00000000000E+00  0.62199481080E+03  0.62201256792E+03  0.47000000000E+01 0. -1.
         -5   -1    0    0    0  501 -0.00000000000E+00 -0.00000000000E+00 -0.21830884424E+03  0.21835943184E+03  0.47000000000E+01 0.  1.
          6    1    1    2  502    0 -0.38380719311E+02  0.27106599763E+03  0.40349969897E+03  0.51705498911E+03  0.17200000000E+03 0. -1.
         -6    1    1    2    0  502  0.38380719311E+02 -0.27106599763E+03  0.18626757816E+00  0.32331701066E+03  0.17200000000E+03 0.  1.
</event>
<event>
 4    1 -0.3291270E-004  0.2185842E+03  0.7818608E-02  0.1134943E+00
          5   -1    0    0  501    0  0.00000000000E+00  0.00000000000E+00  0.92150066508E+02  0.92269847499E+02  0.47000000000E+01 0. -1.
         -5   -1    0    0    0  501 -0.00000000000E+00 -0.00000000000E+00 -0.55266556655E+03  0.55268555115E+03  0.47000000000E+01 0.  1.
          6    1    1    2  502    0  0.10345125334E+03 -0.86561438704E+02 -0.14953257348E+03  0.26483775226E+03  0.17200000000E+03 0.  1.
         -6    1    1    2    0  502 -0.10345125334E+03  0.86561438704E+02 -0.31098292656E+03  0.38011764640E+03  0.17200000000E+03 0.  1.
</event>
<event>
 4    1 -0.3291270E-004  0.4923924E+03  0.7818608E-02  0.1015784E+00
          5   -1    0    0  501    0  0.00000000000E+00  0.00000000000E+00  0.15113791130E+04  0.15113864209E+04  0.47000000000E+01 0. -1.
         -5   -1    0    0    0  501 -0.00000000000E+00 -0.00000000000E+00 -0.31327915425E+03  0.31331440836E+03  0.47000000000E+01 0.  1.
          6    1    1    2  502    0  0.14755415962E+03  0.43714310339E+03  0.12363811279E+04  0.13308225337E+04  0.17200000000E+03 0. -1.
         -6    1    1    2    0  502 -0.14755415962E+03 -0.43714310339E+03 -0.38281169159E+02  0.49387829550E+03  0.17200000000E+03 0.  1.
</event>
<event>
 4    1 -0.3291270E-004  0.1988687E+03  0.7818608E-02  0.1150697E+00
          5   -1    0    0  501    0  0.00000000000E+00  0.00000000000E+00  0.78650645642E+02  0.78790951637E+02  0.47000000000E+01 0. -1.
         -5   -1    0    0    0  501 -0.00000000000E+00 -0.00000000000E+00 -0.54549063050E+03  0.54551087795E+03  0.47000000000E+01 0.  1.
          6    1    1    2  502    0 -0.99010757354E+02 -0.12713985049E+02 -0.14553906720E+03  0.24643537808E+03  0.17200000000E+03 0. -1.
         -6    1    1    2    0  502  0.99010757354E+02  0.12713985049E+02 -0.32130091766E+03  0.37786645151E+03  0.17200000000E+03 0.  1.
</event>
<event>
 4    1 -0.3291270E-004  0.2407516E+03  0.7818608E-02  0.1119293E+00
         -5   -1    0    0    0  501 -0.00000000000E+00  0.00000000000E+00  0.51555070382E+02  0.51768864022E+02  0.47000000000E+01 0.  1.
          5   -1    0    0  501    0  0.00000000000E+00 -0.00000000000E+00 -0.13672842164E+04  0.13672922945E+04  0.47000000000E+01 0. -1.
          6    1    1    2  502    0 -0.14732037720E+03  0.81694840913E+02 -0.95853635109E+03  0.98830829043E+03  0.17200000000E+03 0. -1.
         -6    1    1    2    0  502  0.14732037720E+03 -0.81694840913E+02 -0.35719279496E+03  0.43075286806E+03  0.17200000000E+03 0.  1.
</event>
<event>
 4    1 -0.3291270E-004  0.2535941E+03  0.7818608E-02  0.1111054E+00
          5   -1    0    0  501    0  0.00000000000E+00  0.00000000000E+00  0.12896960952E+03  0.12905522144E+03  0.47000000000E+01 0. -1.
         -5   -1    0    0    0  501 -0.00000000000E+00 -0.00000000000E+00 -0.84331642876E+03  0.84332952576E+03  0.47000000000E+01 0.  1.
          6    1    1    2  502    0 -0.85650534188E+02 -0.16549913440E+03 -0.66809749852E+03  0.71460775606E+03  0.17200000000E+03 0.  1.
         -6    1    1    2    0  502  0.85650534188E+02  0.16549913440E+03 -0.46249320726E+02  0.25777699114E+03  0.17200000000E+03 0. -1.
</event>
<event>
 4    1 -0.3291270E-004  0.2561203E+03  0.7818608E-02  0.1109497E+00
         -5   -1    0    0    0  501 -0.00000000000E+00  0.00000000000E+00  0.39985953080E+03  0.39988715205E+03  0.47000000000E+01 0.  1.
          5   -1    0    0  501    0  0.00000000000E+00 -0.00000000000E+00 -0.26777132393E+03  0.26781256863E+03  0.47000000000E+01 0. -1.
          6    1    1    2  502    0  0.38125619776E+02 -0.18590328928E+03 -0.14176930186E+03  0.29273901482E+03  0.17200000000E+03 0. -1.
         -6    1    1    2    0  502 -0.38125619776E+02  0.18590328928E+03  0.27385750874E+03  0.37496070586E+03  0.17200000000E+03 0.  1.
</event>
<event>
 4    1 -0.3291270E-004  0.2267175E+03  0.7818608E-02  0.1128972E+00
         -5   -1    0    0    0  501 -0.00000000000E+00  0.00000000000E+00  0.12160705545E+03  0.12169784688E+03  0.47000000000E+01 0.  1.
          5   -1    0    0  501    0  0.00000000000E+00 -0.00000000000E+00 -0.52687358283E+03  0.52689454569E+03  0.47000000000E+01 0. -1.
          6    1    1    2  502    0  0.97152708277E+02 -0.11125721301E+03 -0.34701339382E+03  0.41451068944E+03  0.17200000000E+03 0. -1.
         -6    1    1    2    0  502 -0.97152708277E+02  0.11125721301E+03 -0.58253133561E+02  0.23408170314E+03  0.17200000000E+03 0.  1.
</event>
<event>
 4    1 -0.3291270E-004  0.1781337E+03  0.7818608E-02  0.1169622E+00
          5   -1    0    0  501    0  0.00000000000E+00  0.00000000000E+00  0.17064673531E+03  0.17071144740E+03  0.47000000000E+01 0. -1.
         -5   -1    0    0    0  501 -0.00000000000E+00 -0.00000000000E+00 -0.18842868365E+03  0.18848729087E+03  0.47000000000E+01 0.  1.
          6    1    1    2  502    0 -0.35153700685E+02 -0.30196660949E+02 -0.30018133269E+02  0.18064525825E+03  0.17200000000E+03 0.  1.
         -6    1    1    2    0  502  0.35153700685E+02  0.30196660949E+02  0.12236184934E+02  0.17855348002E+03  0.17200000000E+03 0.  1.
</event>
<event>
 4    1 -0.3291270E-004  0.2965802E+03  0.7818608E-02  0.1086963E+00
         -5   -1    0    0    0  501 -0.00000000000E+00  0.00000000000E+00  0.73728644801E+03  0.73730142847E+03  0.47000000000E+01 0.  1.
          5   -1    0    0  501    0  0.00000000000E+00 -0.00000000000E+00 -0.13012097133E+03  0.13020582622E+03  0.47000000000E+01 0. -1.
          6    1    1    2  502    0 -0.12488273320E+03  0.20683361977E+03  0.17820007839E+03  0.34599871569E+03  0.17200000000E+03 0. -1.
         -6    1    1    2    0  502  0.12488273320E+03 -0.20683361977E+03  0.42896539829E+03  0.52150853900E+03  0.17200000000E+03 0.  1.
</event>
<event>
 4    1 -0.3291270E-004  0.4677465E+03  0.7818608E-02  0.1022558E+00
         -5   -1    0    0    0  501 -0.00000000000E+00  0.00000000000E+00  0.18010893003E+03  0.18017024359E+03  0.47000000000E+01 0.  1.
          5   -1    0    0  501    0  0.00000000000E+00 -0.00000000000E+00 -0.13391873085E+04  0.13391955560E+04  0.47000000000E+01 0. -1.
          6    1    1    2  502    0 -0.35522543428E+03  0.25103317482E+03 -0.34771635706E+03  0.58283224772E+03  0.17200000000E+03 0. -1.
         -6    1    1    2    0  502  0.35522543428E+03 -0.25103317482E+03 -0.81136202142E+03  0.93653355189E+03  0.17200000000E+03 0.  1.
</event>
<event>
 4    1 -0.3291270E-004  0.2092706E+03  0.7818608E-02  0.1142145E+00
          5   -1    0    0  501    0  0.00000000000E+00  0.00000000000E+00  0.40883530252E+03  0.40886231740E+03  0.47000000000E+01 0. -1.
         -5   -1    0    0    0  501 -0.00000000000E+00 -0.00000000000E+00 -0.17182608772E+03  0.17189035582E+03  0.47000000000E+01 0.  1.
          6    1    1    2  502    0  0.11358418127E+03  0.36177344316E+02  0.29675356671E+03  0.36312097961E+03  0.17200000000E+03 0. -1.
         -6    1    1    2    0  502 -0.11358418127E+03 -0.36177344316E+02 -0.59744351911E+02  0.21763169361E+03  0.17200000000E+03 0.  1.
</event>
<event>
 4    1 -0.3291270E-004  0.2787099E+03  0.7818608E-02  0.1096396E+00
          5   -1    0    0  501    0  0.00000000000E+00  0.00000000000E+00  0.85810421028E+02  0.85939038609E+02  0.47000000000E+01 0. -1.
         -5   -1    0    0    0  501 -0.00000000000E+00 -0.00000000000E+00 -0.94315471593E+03  0.94316642656E+03  0.47000000000E+01 0.  1.
          6    1    1    2  502    0  0.36129466100E+02 -0.21630966201E+03 -0.53292861577E+03  0.60140844499E+03  0.17200000000E+03 0. -1.
         -6    1    1    2    0  502 -0.36129466100E+02  0.21630966201E+03 -0.32441567913E+03  0.42769702017E+03  0.17200000000E+03 0. -1.
</event>
<event>
 4    1 -0.3291270E-004  0.1828120E+03  0.7818608E-02  0.1165109E+00
         -5   -1    0    0    0  501 -0.00000000000E+00  0.00000000000E+00  0.10547159285E+04  0.10547264005E+04  0.47000000000E+01 0.  1.
          5   -1    0    0  501    0  0.00000000000E+00 -0.00000000000E+00 -0.63007465825E+02  0.63182519336E+02  0.47000000000E+01 0. -1.
          6    1    1    2  502    0 -0.58740906395E+02  0.19640487866E+02  0.89025708846E+03  0.90883327756E+03  0.17200000000E+03 0.  1.
         -6    1    1    2    0  502  0.58740906395E+02 -0.19640487866E+02  0.10145137422E+03  0.20907564224E+03  0.17200000000E+03 0. -1.
</event>
<event>
 4    1 -0.3291270E-004  0.4393207E+03  0.7818608E-02  0.1030955E+00
          5   -1    0    0  501    0  0.00000000000E+00  0.00000000000E+00  0.15157108457E+04  0.15157181327E+04  0.47000000000E+01 0. -1.
         -5   -1    0    0    0  501 -0.00000000000E+00 -0.00000000000E+00 -0.13926275098E+03  0.13934203892E+03  0.47000000000E+01 0.  1.
          6    1    1    2  502    0 -0.37537147366E+03 -0.15004987906E+03  0.93084854460E+03  0.10293112855E+04  0.17200000000E+03 0. -1.
         -6    1    1    2    0  502  0.37537147366E+03  0.15004987906E+03  0.44559955017E+03  0.62574888618E+03  0.17200000000E+03 0. -1.
</event>
<event>
 4    1 -0.3291270E-004  0.2409992E+03  0.7818608E-02  0.1119129E+00
          5   -1    0    0  501    0  0.00000000000E+00  0.00000000000E+00  0.22283647040E+03  0.22288603039E+03  0.47000000000E+01 0. -1.
         -5   -1    0    0    0  501 -0.00000000000E+00 -0.00000000000E+00 -0.33660546753E+03  0.33663827883E+03  0.47000000000E+01 0.  1.
          6    1    1    2  502    0  0.16880356055E+03 -0.14068761581E+01  0.76086970569E+02  0.25272484731E+03  0.17200000000E+03 0. -1.
         -6    1    1    2    0  502 -0.16880356055E+03  0.14068761581E+01 -0.18985596770E+03  0.30679946191E+03  0.17200000000E+03 0.  1.
</event>
<event>
 4    1 -0.3291270E-004  0.2531336E+03  0.7818608E-02  0.1111340E+00
          5   -1    0    0  501    0  0.00000000000E+00  0.00000000000E+00  0.21273059665E+03  0.21278251045E+03  0.47000000000E+01 0. -1.
         -5   -1    0    0    0  501 -0.00000000000E+00 -0.00000000000E+00 -0.32912248122E+03  0.32915603844E+03  0.47000000000E+01 0.  1.
          6    1    1    2  502    0  0.22880451559E+02  0.18430714119E+03  0.20855892439E+02  0.25399134948E+03  0.17200000000E+03 0. -1.
         -6    1    1    2    0  502 -0.22880451559E+02 -0.18430714119E+03 -0.13724777700E+03  0.28794719942E+03  0.17200000000E+03 0.  1.
</event>
<event>
 4    1 -0.3291270E-004  0.1843600E+03  0.7818608E-02  0.1163649E+00
          5   -1    0    0  501    0  0.00000000000E+00  0.00000000000E+00  0.10159302549E+04  0.10159411266E+04  0.47000000000E+01 0. -1.
         -5   -1    0    0    0  501 -0.00000000000E+00 -0.00000000000E+00 -0.85557044434E+02  0.85686042342E+02  0.47000000000E+01 0.  1.
          6    1    1    2  502    0  0.41883784805E+02 -0.51481564238E+02  0.89514346637E+03  0.91393130391E+03  0.17200000000E+03 0. -1.
         -6    1    1    2    0  502 -0.41883784805E+02  0.51481564238E+02  0.35229744052E+02  0.18769586504E+03  0.17200000000E+03 0.  1.
</event>
<event>
 4    1 -0.3291270E-004  0.3035729E+03  0.7818608E-02  0.1083468E+00
         -5   -1    0    0    0  501 -0.00000000000E+00  0.00000000000E+00  0.12491107745E+04  0.12491196167E+04  0.47000000000E+01 0.  1.
          5   -1    0    0  501    0  0.00000000000E+00 -0.00000000000E+00 -0.73895495608E+02  0.74044812588E+02  0.47000000000E+01 0. -1.
          6    1    1    2  502    0  0.10527347801E+03  0.22691414270E+03  0.62213933048E+03  0.69225275721E+03  0.17200000000E+03 0. -1.
         -6    1    1    2    0  502 -0.10527347801E+03 -0.22691414270E+03  0.55307594839E+03  0.63091167212E+03  0.17200000000E+03 0.  1.
</event>
<event>
 4    1 -0.3291270E-004  0.1886719E+03  0.7818608E-02  0.1159665E+00
         -5   -1    0    0    0  501 -0.00000000000E+00  0.00000000000E+00  0.79266329926E+03  0.79267723317E+03  0.47000000000E+01 0.  1.
          5   -1    0    0  501    0  0.00000000000E+00 -0.00000000000E+00 -0.46379266696E+02  0.46616803615E+02  0.47000000000E+01 0. -1.
          6    1    1    2  502    0  0.75112119529E+02  0.19267676374E+02  0.29520789277E+03  0.35034950237E+03  0.17200000000E+03 0. -1.
         -6    1    1    2    0  502 -0.75112119529E+02 -0.19267676374E+02  0.45107613979E+03  0.48894453442E+03  0.17200000000E+03 0.  1.
</event>
<event>
 4    1 -0.3291270E-004  0.1866731E+03  0.7818608E-02  0.1161497E+00
          5   -1    0    0  501    0  0.00000000000E+00  0.00000000000E+00  0.18517832881E+03  0.18523796442E+03  0.47000000000E+01 0. -1.
         -5   -1    0    0    0  501 -0.00000000000E+00 -0.00000000000E+00 -0.37104369611E+03  0.37107346230E+03  0.47000000000E+01 0.  1.
          6    1    1    2  502    0 -0.72256004115E+02 -0.64746295697E+01 -0.28824070157E+03  0.34340872587E+03  0.17200000000E+03 0.  1.
         -6    1    1    2    0  502  0.72256004115E+02  0.64746295697E+01  0.10237533428E+03  0.21290270085E+03  0.17200000000E+03 0. -1.
</event>
<event>
 4    1 -0.3291270E-004  0.2068221E+03  0.7818608E-02  0.1144108E+00
          5   -1    0    0  501    0  0.00000000000E+00  0.00000000000E+00  0.27002066966E+03  0.27006157084E+03  0.47000000000E+01 0. -1.
         -5   -1    0    0    0  501 -0.00000000000E+00 -0.00000000000E+00 -0.16458423805E+03  0.16465133286E+03  0.47000000000E+01 0.  1.
          6    1    1    2  502    0 -0.11284470543E+03 -0.21387733380E+02  0.10352674240E+02  0.20708099997E+03  0.17200000000E+03 0. -1.
         -6    1    1    2    0  502  0.11284470543E+03  0.21387733380E+02  0.95083757373E+02  0.22763190374E+03  0.17200000000E+03 0. -1.
</event>
<event>
 4    1 -0.3291270E-004  0.3364416E+03  0.7818608E-02  0.1068322E+00
          5   -1    0    0  501    0  0.00000000000E+00  0.00000000000E+00  0.67279899605E+03  0.67281541234E+03  0.47000000000E+01 0. -1.
         -5   -1    0    0    0  501 -0.00000000000E+00 -0.00000000000E+00 -0.25347225171E+03  0.25351582276E+03  0.47000000000E+01 0.  1.
          6    1    1    2  502    0 -0.25904760226E+03 -0.12846501517E+03  0.47828333393E+03  0.58476308696E+03  0.17200000000E+03 0. -1.
         -6    1    1    2    0  502  0.25904760226E+03  0.12846501517E+03 -0.58956589592E+02  0.34156814813E+03  0.17200000000E+03 0.  1.
</event>
<event>
 4    1 -0.3291270E-004  0.1917179E+03  0.7818608E-02  0.1156921E+00
         -5   -1    0    0    0  501 -0.00000000000E+00  0.00000000000E+00  0.88723819969E+02  0.88848220184E+02  0.47000000000E+01 0.  1.
          5   -1    0    0  501    0  0.00000000000E+00 -0.00000000000E+00 -0.41647562053E+03  0.41650213985E+03  0.47000000000E+01 0. -1.
          6    1    1    2  502    0  0.28913162489E+02 -0.79597563278E+02 -0.18395972625E+03  0.26570081657E+03  0.17200000000E+03 0. -1.
         -6    1    1    2    0  502 -0.28913162489E+02  0.79597563278E+02 -0.14379207432E+03  0.23964954346E+03  0.17200000000E+03 0. -1.
</event>
<event>
 4    1 -0.3291270E-004  0.1738230E+03  0.7818608E-02  0.1173919E+00
         -5   -1    0    0    0  501 -0.00000000000E+00  0.00000000000E+00  0.63945224384E+03  0.63946951621E+03  0.47000000000E+01 0.  1.
          5   -1    0    0  501    0  0.00000000000E+00 -0.00000000000E+00 -0.14081670842E+03  0.14089512189E+03  0.47000000000E+01 0. -1.
          6    1    1    2  502    0 -0.25105142282E+02  0.40847441533E+00 -0.68768894527E+02  0.18693206219E+03  0.17200000000E+03 0. -1.
         -6    1    1    2    0  502  0.25105142282E+02 -0.40847441533E+00  0.56740442995E+03  0.59343257590E+03  0.17200000000E+03 0.  1.
</event>
<event>
 4    1 -0.3291270E-004  0.1899307E+03  0.7818608E-02  0.1158524E+00
         -5   -1    0    0    0  501 -0.00000000000E+00  0.00000000000E+00  0.50308522171E+02  0.50527590513E+02  0.47000000000E+01 0.  1.
          5   -1    0    0  501    0  0.00000000000E+00 -0.00000000000E+00 -0.71538558999E+03  0.71540102905E+03  0.47000000000E+01 0. -1.
          6    1    1    2  502    0 -0.77490668281E+02 -0.22019489107E+02 -0.33752807087E+03  0.38729686313E+03  0.17200000000E+03 0.  1.
         -6    1    1    2    0  502  0.77490668281E+02  0.22019489107E+02 -0.32754899695E+03  0.37863175643E+03  0.17200000000E+03 0. -1.
</event>
<event>
 4    1 -0.3291270E-004  0.2307663E+03  0.7818608E-02  0.1126102E+00
          5   -1    0    0  501    0  0.00000000000E+00  0.00000000000E+00  0.29924515848E+03  0.29928206574E+03  0.47000000000E+01 0. -1.
         -5   -1    0    0    0  501 -0.00000000000E+00 -0.00000000000E+00 -0.18919204015E+03  0.18925041098E+03  0.47000000000E+01 0.  1.
          6    1    1    2  502    0  0.78911489309E+02  0.13206844075E+03  0.11474205715E+03  0.25771852061E+03  0.17200000000E+03 0. -1.
         -6    1    1    2    0  502 -0.78911489309E+02 -0.13206844075E+03 -0.46889388132E+01  0.23081395611E+03  0.17200000000E+03 0.  1.
</event>
<event>
 4    1 -0.3291270E-004  0.1767889E+03  0.7818608E-02  0.1170947E+00
          5   -1    0    0  501    0  0.00000000000E+00  0.00000000000E+00  0.66885646156E+02  0.67050575402E+02  0.47000000000E+01 0. -1.
         -5   -1    0    0    0  501 -0.00000000000E+00 -0.00000000000E+00 -0.10674662284E+04  0.10674765753E+04  0.47000000000E+01 0.  1.
          6    1    1    2  502    0 -0.39108636480E+02 -0.11867188079E+02 -0.74705746568E+02  0.19192515252E+03  0.17200000000E+03 0. -1.
         -6    1    1    2    0  502  0.39108636480E+02  0.11867188079E+02 -0.92587483572E+03  0.94260199820E+03  0.17200000000E+03 0.  1.
</event>
<event>
 4    1 -0.3291270E-004  0.2253186E+03  0.7818608E-02  0.1129979E+00
          5   -1    0    0  501    0  0.00000000000E+00  0.00000000000E+00  0.21090535333E+03  0.21095771629E+03  0.47000000000E+01 0. -1.
         -5   -1    0    0    0  501 -0.00000000000E+00 -0.00000000000E+00 -0.24069021527E+03  0.24073609976E+03  0.47000000000E+01 0.  1.
          6    1    1    2  502    0 -0.13180892478E+03  0.61732158292E+02 -0.10810544910E+02  0.22557774691E+03  0.17200000000E+03 0. -1.
         -6    1    1    2    0  502  0.13180892478E+03 -0.61732158292E+02 -0.18974317026E+02  0.22611606914E+03  0.17200000000E+03 0.  1.
</event>
<event>
 4    1 -0.3291270E-004  0.2098303E+03  0.7818608E-02  0.1141700E+00
         -5   -1    0    0    0  501 -0.00000000000E+00  0.00000000000E+00  0.23214544312E+03  0.23219301618E+03  0.47000000000E+01 0.  1.
          5   -1    0    0  501    0  0.00000000000E+00 -0.00000000000E+00 -0.41269224739E+03  0.41271900981E+03  0.47000000000E+01 0. -1.
          6    1    1    2  502    0  0.85183013470E+01  0.11988402179E+03 -0.32734918177E+03  0.38882673126E+03  0.17200000000E+03 0. -1.
         -6    1    1    2    0  502 -0.85183013470E+01 -0.11988402179E+03  0.14680237749E+03  0.25608529473E+03  0.17200000000E+03 0.  1.
</event>
<event>
 4    1 -0.3291270E-004  0.3738248E+03  0.7818608E-02  0.1053240E+00
          5   -1    0    0  501    0  0.00000000000E+00  0.00000000000E+00  0.47820000177E+03  0.47822309825E+03  0.47000000000E+01 0. -1.
         -5   -1    0    0    0  501 -0.00000000000E+00 -0.00000000000E+00 -0.29435679845E+03  0.29439431855E+03  0.47000000000E+01 0.  1.
          6    1    1    2  502    0  0.31538235528E+03  0.10341624077E+03  0.58720695687E+02  0.37840860056E+03  0.17200000000E+03 0. -1.
         -6    1    1    2    0  502 -0.31538235528E+03 -0.10341624077E+03  0.12512250764E+03  0.39420881623E+03  0.17200000000E+03 0.  1.
</event>
<event>
 4    1 -0.3291270E-004  0.1813313E+03  0.7818608E-02  0.1166521E+00
         -5   -1    0    0    0  501 -0.00000000000E+00  0.00000000000E+00  0.13898402197E+03  0.13906346883E+03  0.47000000000E+01 0.  1.
          5   -1    0    0  501    0  0.00000000000E+00 -0.00000000000E+00 -0.42152214140E+03  0.42154834325E+03  0.47000000000E+01 0. -1.
          6    1    1    2  502    0 -0.38309728558E+02 -0.42771716404E+02 -0.32699752151E+03  0.37390966035E+03  0.17200000000E+03 0. -1.
         -6    1    1    2    0  502  0.38309728558E+02  0.42771716404E+02  0.44459402079E+02  0.18670215173E+03  0.17200000000E+03 0.  1.
</event>
<event>
 4    1 -0.3291270E-004  0.1985542E+03  0.7818608E-02  0.1150965E+00
         -5   -1    0    0    0  501 -0.00000000000E+00  0.00000000000E+00  0.27205641301E+02  0.27608638478E+02  0.47000000000E+01 0.  1.
          5   -1    0    0  501    0  0.00000000000E+00 -0.00000000000E+00 -0.14583000401E+04  0.14583076140E+04  0.47000000000E+01 0. -1.
          6    1    1    2  502    0 -0.65631836740E+01 -0.98978166028E+02 -0.62799139589E+03  0.65863263360E+03  0.17200000000E+03 0. -1.
         -6    1    1    2    0  502  0.65631836740E+01  0.98978166028E+02 -0.80310300294E+03  0.82728361888E+03  0.17200000000E+03 0. -1.
</event>
<event>
 4    1 -0.3291270E-004  0.1990147E+03  0.7818608E-02  0.1150573E+00
         -5   -1    0    0    0  501 -0.00000000000E+00  0.00000000000E+00  0.98010087124E+03  0.98011214043E+03  0.47000000000E+01 0.  1.
          5   -1    0    0  501    0  0.00000000000E+00 -0.00000000000E+00 -0.47033493910E+02  0.47267743223E+02  0.47000000000E+01 0. -1.
          6    1    1    2  502    0 -0.90640264606E+02 -0.42511049667E+02  0.27217958494E+03  0.33717736189E+03  0.17200000000E+03 0. -1.
         -6    1    1    2    0  502  0.90640264606E+02  0.42511049667E+02  0.66088779239E+03  0.69020252176E+03  0.17200000000E+03 0.  1.
</event>
<event>
 4    1 -0.3291270E-004  0.5089224E+03  0.7818608E-02  0.1011476E+00
         -5   -1    0    0    0  501 -0.00000000000E+00  0.00000000000E+00  0.13402361771E+04  0.13402444182E+04  0.47000000000E+01 0.  1.
          5   -1    0    0  501    0  0.00000000000E+00 -0.00000000000E+00 -0.29736791569E+03  0.29740505591E+03  0.47000000000E+01 0. -1.
          6    1    1    2  502    0  0.47161839501E+03  0.83631001348E+02  0.36880329582E+02  0.51025700741E+03  0.17200000000E+03 0. -1.
         -6    1    1    2    0  502 -0.47161839501E+03 -0.83631001348E+02  0.10059879318E+04  0.11273924667E+04  0.17200000000E+03 0.  1.
</event>
<event>
 4    1 -0.3291270E-004  0.2783651E+03  0.7818608E-02  0.1096585E+00
         -5   -1    0    0    0  501 -0.00000000000E+00  0.00000000000E+00  0.12457577111E+03  0.12466440049E+03  0.47000000000E+01 0.  1.
          5   -1    0    0  501    0  0.00000000000E+00 -0.00000000000E+00 -0.62232793494E+03  0.62234568256E+03  0.47000000000E+01 0. -1.
          6    1    1    2  502    0 -0.19995453676E+03 -0.89001718905E+02 -0.26084033895E+03  0.38147713583E+03  0.17200000000E+03 0. -1.
         -6    1    1    2    0  502  0.19995453676E+03  0.89001718905E+02 -0.23691182487E+03  0.36553294722E+03  0.17200000000E+03 0.  1.
</event>
<event>
 4    1 -0.3291270E-004  0.2251068E+03  0.7818608E-02  0.1130132E+00
         -5   -1    0    0    0  501 -0.00000000000E+00  0.00000000000E+00  0.18697394709E+04  0.18697453782E+04  0.47000000000E+01 0.  1.
          5   -1    0    0  501    0  0.00000000000E+00 -0.00000000000E+00 -0.26966951757E+02  0.27373463191E+02  0.47000000000E+01 0. -1.
          6    1    1    2  502    0  0.58289420411E+01 -0.14510373612E+03  0.97104549366E+03  0.99679607822E+03  0.17200000000E+03 0. -1.
         -6    1    1    2    0  502 -0.58289420411E+01  0.14510373612E+03  0.87172702551E+03  0.90032276313E+03  0.17200000000E+03 0. -1.
</event>
<event>
 4    1 -0.3291270E-004  0.1860638E+03  0.7818608E-02  0.1162060E+00
         -5   -1    0    0    0  501 -0.00000000000E+00  0.00000000000E+00  0.33521747718E+03  0.33525042432E+03  0.47000000000E+01 0.  1.
          5   -1    0    0  501    0  0.00000000000E+00 -0.00000000000E+00 -0.10341358986E+03  0.10352033891E+03  0.47000000000E+01 0. -1.
          6    1    1    2  502    0  0.98367724164E+01  0.70277911712E+02  0.12623275858E+03  0.22484318159E+03  0.17200000000E+03 0.  1.
         -6    1    1    2    0  502 -0.98367724164E+01 -0.70277911712E+02  0.10557112873E+03  0.21392758164E+03  0.17200000000E+03 0. -1.
</event>
<event>
 4    1 -0.3291270E-004  0.8724437E+03  0.7818608E-02  0.9460699E-01
          5   -1    0    0  501    0  0.00000000000E+00  0.00000000000E+00  0.12152275172E+04  0.12152366060E+04  0.47000000000E+01 0. -1.
         -5   -1    0    0    0  501 -0.00000000000E+00 -0.00000000000E+00 -0.68419081777E+03  0.68420696074E+03  0.47000000000E+01 0.  1.
          6    1    1    2  502    0 -0.65165845930E+03 -0.55399938470E+03 -0.10661373822E+02  0.87250887143E+03  0.17200000000E+03 0. -1.
         -6    1    1    2    0  502  0.65165845930E+03  0.55399938470E+03  0.54169807323E+03  0.10269346953E+04  0.17200000000E+03 0.  1.
</event>
<event>
 4    1 -0.3291270E-004  0.2844818E+03  0.7818608E-02  0.1093266E+00
          5   -1    0    0  501    0  0.00000000000E+00  0.00000000000E+00  0.24087197722E+03  0.24091782709E+03  0.47000000000E+01 0. -1.
         -5   -1    0    0    0  501 -0.00000000000E+00 -0.00000000000E+00 -0.64401440021E+03  0.64403155022E+03  0.47000000000E+01 0.  1.
          6    1    1    2  502    0 -0.20258459731E+03  0.10151543415E+03  0.10446845750E+03  0.30305702607E+03  0.17200000000E+03 0. -1.
         -6    1    1    2    0  502  0.20258459731E+03 -0.10151543415E+03 -0.50761088050E+03  0.58189235124E+03  0.17200000000E+03 0.  1.
</event>
<event>
 4    1 -0.3291270E-004  0.1929900E+03  0.7818608E-02  0.1155792E+00
         -5   -1    0    0    0  501 -0.00000000000E+00  0.00000000000E+00  0.29945596376E+03  0.29949284504E+03  0.47000000000E+01 0.  1.
          5   -1    0    0  501    0  0.00000000000E+00 -0.00000000000E+00 -0.20195001503E+03  0.20200469938E+03  0.47000000000E+01 0. -1.
          6    1    1    2  502    0 -0.57463704044E+02 -0.66023162996E+02 -0.10670287941E+03  0.22052355840E+03  0.17200000000E+03 0. -1.
         -6    1    1    2    0  502  0.57463704044E+02  0.66023162996E+02  0.20420882814E+03  0.28097398603E+03  0.17200000000E+03 0.  1.
</event>
<event>
 4    1 -0.3291270E-004  0.2048423E+03  0.7818608E-02  0.1145717E+00
         -5   -1    0    0    0  501 -0.00000000000E+00  0.00000000000E+00  0.13370080465E+04  0.13370163075E+04  0.47000000000E+01 0.  1.
          5   -1    0    0  501    0  0.00000000000E+00 -0.00000000000E+00 -0.41852955980E+02  0.42116029304E+02  0.47000000000E+01 0. -1.
          6    1    1    2  502    0  0.11084135911E+03  0.95163787477E+01  0.30097845851E+03  0.36407197206E+03  0.17200000000E+03 0. -1.
         -6    1    1    2    0  502 -0.11084135911E+03 -0.95163787477E+01  0.99417663203E+03  0.10150603647E+04  0.17200000000E+03 0.  1.
</event>
<event>
 4    1 -0.3291270E-004  0.3084267E+03  0.7818608E-02  0.1081102E+00
         -5   -1    0    0    0  501 -0.00000000000E+00  0.00000000000E+00  0.21562260609E+03  0.21567382376E+03  0.47000000000E+01 0.  1.
          5   -1    0    0  501    0  0.00000000000E+00 -0.00000000000E+00 -0.63699854882E+03  0.63701588771E+03  0.47000000000E+01 0. -1.
          6    1    1    2  502    0 -0.75993220805E+02  0.24447510043E+03  0.25756764705E+02  0.30950033161E+03  0.17200000000E+03 0. -1.
         -6    1    1    2    0  502  0.75993220805E+02 -0.24447510043E+03 -0.44713270743E+03  0.54318937986E+03  0.17200000000E+03 0. -1.
</event>
<event>
 4    1 -0.3291270E-004  0.1803529E+03  0.7818608E-02  0.1167462E+00
         -5   -1    0    0    0  501 -0.00000000000E+00  0.00000000000E+00  0.12994277728E+03  0.13002774845E+03  0.47000000000E+01 0.  1.
          5   -1    0    0  501    0  0.00000000000E+00 -0.00000000000E+00 -0.29599469339E+03  0.29603200590E+03  0.47000000000E+01 0. -1.
          6    1    1    2  502    0  0.53173596580E+02 -0.10758846734E+02 -0.16686447597E+03  0.24570498061E+03  0.17200000000E+03 0. -1.
         -6    1    1    2    0  502 -0.53173596580E+02  0.10758846734E+02  0.81255986130E+00  0.18035477374E+03  0.17200000000E+03 0.  1.
</event>
<event>
 4    1 -0.3291270E-004  0.1870931E+03  0.7818608E-02  0.1161110E+00
          5   -1    0    0  501    0  0.00000000000E+00  0.00000000000E+00  0.19613950716E+04  0.19614007028E+04  0.47000000000E+01 0. -1.
         -5   -1    0    0    0  501 -0.00000000000E+00 -0.00000000000E+00 -0.40755144211E+02  0.41025257825E+02  0.47000000000E+01 0.  1.
          6    1    1    2  502    0 -0.73239816233E+02 -0.74672551664E+01  0.17119728930E+04  0.17221657925E+04  0.17200000000E+03 0. -1.
         -6    1    1    2    0  502  0.73239816233E+02  0.74672551664E+01  0.20866703443E+03  0.28026016813E+03  0.17200000000E+03 0.  1.
</event>
<event>
 4    1 -0.3291270E-004  0.3368126E+03  0.7818608E-02  0.1068162E+00
          5   -1    0    0  501    0  0.00000000000E+00  0.00000000000E+00  0.33723845305E+03  0.33727120277E+03  0.47000000000E+01 0. -1.
         -5   -1    0    0    0  501 -0.00000000000E+00 -0.00000000000E+00 -0.54341903458E+03  0.54343935922E+03  0.47000000000E+01 0.  1.
          6    1    1    2  502    0 -0.27572018127E+03 -0.88527629038E+02  0.16874081201E+03  0.37671769417E+03  0.17200000000E+03 0. -1.
         -6    1    1    2    0  502  0.27572018127E+03  0.88527629038E+02 -0.37492139354E+03  0.50399286781E+03  0.17200000000E+03 0.  1.
</event>
<event>
 4    1 -0.3291270E-004  0.2412002E+03  0.7818608E-02  0.1118996E+00
         -5   -1    0    0    0  501 -0.00000000000E+00  0.00000000000E+00  0.12502916104E+03  0.12511746925E+03  0.47000000000E+01 0.  1.
          5   -1    0    0  501    0  0.00000000000E+00 -0.00000000000E+00 -0.98914921175E+03  0.98916037785E+03  0.47000000000E+01 0. -1.
          6    1    1    2  502    0  0.58843222218E+02  0.15852757066E+03 -0.83758473731E+03  0.87162245705E+03  0.17200000000E+03 0. -1.
         -6    1    1    2    0  502 -0.58843222218E+02 -0.15852757066E+03 -0.26535313394E+02  0.24265539004E+03  0.17200000000E+03 0.  1.
</event>
<event>
 4    1 -0.3291270E-004  0.2820738E+03  0.7818608E-02  0.1094562E+00
         -5   -1    0    0    0  501 -0.00000000000E+00  0.00000000000E+00  0.15161924420E+03  0.15169207366E+03  0.47000000000E+01 0.  1.
          5   -1    0    0  501    0  0.00000000000E+00 -0.00000000000E+00 -0.84051261971E+03  0.84052576040E+03  0.47000000000E+01 0. -1.
          6    1    1    2  502    0  0.16456129807E+03 -0.15133150476E+03 -0.64859845668E+03  0.70728042753E+03  0.17200000000E+03 0. -1.
         -6    1    1    2    0  502 -0.16456129807E+03  0.15133150476E+03 -0.40294918834E+02  0.28493740653E+03  0.17200000000E+03 0.  1.
</event>
<event>
 4    1 -0.3291270E-004  0.1755874E+03  0.7818608E-02  0.1172143E+00
          5   -1    0    0  501    0  0.00000000000E+00  0.00000000000E+00  0.39621584214E+03  0.39624371738E+03  0.47000000000E+01 0. -1.
         -5   -1    0    0    0  501 -0.00000000000E+00 -0.00000000000E+00 -0.77762679458E+02  0.77904584695E+02  0.47000000000E+01 0.  1.
          6    1    1    2  502    0 -0.34139240482E+02 -0.90254653287E+01  0.15317498204E+03  0.23300970342E+03  0.17200000000E+03 0.  1.
         -6    1    1    2    0  502  0.34139240482E+02  0.90254653287E+01  0.16527818064E+03  0.24113859866E+03  0.17200000000E+03 0.  1.
</event>
<event>
 4    1 -0.3291270E-004  0.2650611E+03  0.7818608E-02  0.1104140E+00
         -5   -1    0    0    0  501 -0.00000000000E+00  0.00000000000E+00  0.98161797950E+02  0.98274251850E+02  0.47000000000E+01 0.  1.
          5   -1    0    0  501    0  0.00000000000E+00 -0.00000000000E+00 -0.10150797783E+04  0.10150906592E+04  0.47000000000E+01 0. -1.
          6    1    1    2  502    0  0.76672554249E+02  0.18653344659E+03 -0.76101350192E+03  0.80585293781E+03  0.17200000000E+03 0. -1.
         -6    1    1    2    0  502 -0.76672554249E+02 -0.18653344659E+03 -0.15590447844E+03  0.30751197321E+03  0.17200000000E+03 0.  1.
</event>
<event>
 4    1 -0.3291270E-004  0.1791339E+03  0.7818608E-02  0.1168644E+00
          5   -1    0    0  501    0  0.00000000000E+00  0.00000000000E+00  0.43167346519E+02  0.43422457386E+02  0.47000000000E+01 0. -1.
         -5   -1    0    0    0  501 -0.00000000000E+00 -0.00000000000E+00 -0.79909478487E+03  0.79910860664E+03  0.47000000000E+01 0.  1.
          6    1    1    2  502    0 -0.38433197750E+02 -0.32059961380E+02 -0.26430783012E+03  0.31929231259E+03  0.17200000000E+03 0. -1.
         -6    1    1    2    0  502  0.38433197750E+02  0.32059961380E+02 -0.49161960823E+03  0.52323875144E+03  0.17200000000E+03 0.  1.
</event>
<event>
 4    1 -0.3291270E-004  0.3198295E+03  0.7818608E-02  0.1075728E+00
         -5   -1    0    0    0  501 -0.00000000000E+00  0.00000000000E+00  0.13040081059E+04  0.13040165759E+04  0.47000000000E+01 0.  1.
          5   -1    0    0  501    0  0.00000000000E+00 -0.00000000000E+00 -0.90382784417E+02  0.90504904392E+02  0.47000000000E+01 0. -1.
          6    1    1    2  502    0  0.25266749377E+03  0.94159581657E+02  0.35274989213E+03  0.47615478116E+03  0.17200000000E+03 0. -1.
         -6    1    1    2    0  502 -0.25266749377E+03 -0.94159581657E+02  0.86087542935E+03  0.91836669914E+03  0.17200000000E+03 0.  1.
</event>
<event>
 4    1 -0.3291270E-004  0.2244994E+03  0.7818608E-02  0.1130572E+00
          5   -1    0    0  501    0  0.00000000000E+00  0.00000000000E+00  0.87426418960E+02  0.87552662622E+02  0.47000000000E+01 0. -1.
         -5   -1    0    0    0  501 -0.00000000000E+00 -0.00000000000E+00 -0.67901254164E+03  0.67902880772E+03  0.47000000000E+01 0.  1.
          6    1    1    2  502    0 -0.10520188889E+03  0.98734617412E+02 -0.44511736314E+03  0.49852726010E+03  0.17200000000E+03 0. -1.
         -6    1    1    2    0  502  0.10520188889E+03 -0.98734617412E+02 -0.14646875955E+03  0.26805421023E+03  0.17200000000E+03 0. -1.
</event>
<event>
 4    1 -0.3291270E-004  0.2642858E+03  0.7818608E-02  0.1104595E+00
          5   -1    0    0  501    0  0.00000000000E+00  0.00000000000E+00  0.28236795960E+03  0.28240707252E+03  0.47000000000E+01 0. -1.
         -5   -1    0    0    0  501 -0.00000000000E+00 -0.00000000000E+00 -0.35236414894E+03  0.35239549296E+03  0.47000000000E+01 0.  1.
          6    1    1    2  502    0 -0.15239031154E+03 -0.13053804753E+03 -0.20830970823E+03  0.33651140166E+03  0.17200000000E+03 0.  1.
         -6    1    1    2    0  502  0.15239031154E+03  0.13053804753E+03  0.13831351888E+03  0.29829116382E+03  0.17200000000E+03 0. -1.
</event>
<event>
 4    1 -0.3291270E-004  0.2226693E+03  0.7818608E-02  0.1131908E+00
         -5   -1    0    0    0  501 -0.00000000000E+00  0.00000000000E+00  0.12990440102E+03  0.12998939728E+03  0.47000000000E+01 0.  1.
          5   -1    0    0  501    0  0.00000000000E+00 -0.00000000000E+00 -0.45058566551E+03  0.45061017738E+03  0.47000000000E+01 0. -1.
          6    1    1    2  502    0  0.36774125857E+02  0.13654778140E+03 -0.27403635048E+03  0.35309708909E+03  0.17200000000E+03 0.  1.
         -6    1    1    2    0  502 -0.36774125857E+02 -0.13654778140E+03 -0.46644914001E+02  0.22750248557E+03  0.17200000000E+03 0.  1.
</event>
<event>
 4    1 -0.3291270E-004  0.2371802E+03  0.7818608E-02  0.1121686E+00
         -5   -1    0    0    0  501 -0.00000000000E+00  0.00000000000E+00  0.39548183932E+03  0.39550976629E+03  0.47000000000E+01 0.  1.
          5   -1    0    0  501    0  0.00000000000E+00 -0.00000000000E+00 -0.16640785654E+03  0.16647421638E+03  0.47000000000E+01 0. -1.
          6    1    1    2  502    0 -0.15452469169E+03 -0.52844796366E+02  0.73321378005E+01  0.23729351675E+03  0.17200000000E+03 0. -1.
         -6    1    1    2    0  502  0.15452469169E+03  0.52844796366E+02  0.22174184498E+03  0.32469046592E+03  0.17200000000E+03 0. -1.
</event>
<event>
 4    1 -0.3291270E-004  0.2544725E+03  0.7818608E-02  0.1110510E+00
          5   -1    0    0  501    0  0.00000000000E+00  0.00000000000E+00  0.72227374449E+02  0.72380132770E+02  0.47000000000E+01 0. -1.
         -5   -1    0    0    0  501 -0.00000000000E+00 -0.00000000000E+00 -0.11509080259E+04  0.11509176227E+04  0.47000000000E+01 0.  1.
          6    1    1    2  502    0  0.18710706413E+03 -0.12775799836E+02 -0.82748208923E+03  0.86572679438E+03  0.17200000000E+03 0.  1.
         -6    1    1    2    0  502 -0.18710706413E+03  0.12775799836E+02 -0.25119856225E+03  0.35757096105E+03  0.17200000000E+03 0. -1.
</event>
<event>
 4    1 -0.3291270E-004  0.2126842E+03  0.7818608E-02  0.1139458E+00
         -5   -1    0    0    0  501 -0.00000000000E+00  0.00000000000E+00  0.27002312304E+03  0.27006402385E+03  0.47000000000E+01 0.  1.
          5   -1    0    0  501    0  0.00000000000E+00 -0.00000000000E+00 -0.18234141126E+03  0.18240197439E+03  0.47000000000E+01 0. -1.
          6    1    1    2  502    0 -0.12061670728E+03 -0.33199129231E+02 -0.20826116494E+02  0.21370142579E+03  0.17200000000E+03 0. -1.
         -6    1    1    2    0  502  0.12061670728E+03  0.33199129231E+02  0.10850782828E+03  0.23876457244E+03  0.17200000000E+03 0. -1.
</event>
<event>
 4    1 -0.3291270E-004  0.2578445E+03  0.7818608E-02  0.1108445E+00
         -5   -1    0    0    0  501 -0.00000000000E+00  0.00000000000E+00  0.97839576661E+03  0.97840705544E+03  0.47000000000E+01 0.  1.
          5   -1    0    0  501    0  0.00000000000E+00 -0.00000000000E+00 -0.81460195881E+02  0.81595670920E+02  0.47000000000E+01 0. -1.
          6    1    1    2  502    0  0.19139190862E+03 -0.16398274545E+02  0.23211210421E+03  0.34692909219E+03  0.17200000000E+03 0. -1.
         -6    1    1    2    0  502 -0.19139190862E+03  0.16398274545E+02  0.66482346653E+03  0.71307363416E+03  0.17200000000E+03 0.  1.
</event>
<event>
 4    1 -0.3291270E-004  0.2159272E+03  0.7818608E-02  0.1136956E+00
         -5   -1    0    0    0  501 -0.00000000000E+00  0.00000000000E+00  0.51625020561E+02  0.51838525712E+02  0.47000000000E+01 0.  1.
          5   -1    0    0  501    0  0.00000000000E+00 -0.00000000000E+00 -0.90111717985E+03  0.90112943678E+03  0.47000000000E+01 0. -1.
          6    1    1    2  502    0  0.12845301799E+03  0.23246477071E+02 -0.42081379968E+03  0.47297867873E+03  0.17200000000E+03 0.  1.
         -6    1    1    2    0  502 -0.12845301799E+03 -0.23246477071E+02 -0.42867835961E+03  0.47998928376E+03  0.17200000000E+03 0.  1.
</event>
<event>
 4    1 -0.3291270E-004  0.3664412E+03  0.7818608E-02  0.1056062E+00
          5   -1    0    0  501    0  0.00000000000E+00  0.00000000000E+00  0.64538959766E+03  0.64540671113E+03  0.47000000000E+01 0. -1.
         -5   -1    0    0    0  501 -0.00000000000E+00 -0.00000000000E+00 -0.20831645963E+03  0.20836947318E+03  0.47000000000E+01 0.  1.
          6    1    1    2  502    0 -0.14044264694E+03 -0.29149786697E+03  0.23483688230E+03  0.43523270191E+03  0.17200000000E+03 0.  1.
         -6    1    1    2    0  502  0.14044264694E+03  0.29149786697E+03  0.20223625573E+03  0.41854348240E+03  0.17200000000E+03 0.  1.
</event>
<event>
 4    1 -0.3291270E-004  0.2130137E+03  0.7818608E-02  0.1139201E+00
          5   -1    0    0  501    0  0.00000000000E+00  0.00000000000E+00  0.54677998439E+02  0.54879627489E+02  0.47000000000E+01 0. -1.
         -5   -1    0    0    0  501 -0.00000000000E+00 -0.00000000000E+00 -0.83155539920E+03  0.83156868143E+03  0.47000000000E+01 0.  1.
          6    1    1    2  502    0 -0.69043801402E+01  0.12547176263E+03 -0.35995349198E+03  0.41825990732E+03  0.17200000000E+03 0. -1.
         -6    1    1    2    0  502  0.69043801402E+01 -0.12547176263E+03 -0.41692390878E+03  0.46818840161E+03  0.17200000000E+03 0. -1.
</event>
<event>
 4    1 -0.3291270E-004  0.3818454E+03  0.7818608E-02  0.1050254E+00
          5   -1    0    0  501    0  0.00000000000E+00  0.00000000000E+00  0.11911299927E+03  0.11920569028E+03  0.47000000000E+01 0. -1.
         -5   -1    0    0    0  501 -0.00000000000E+00 -0.00000000000E+00 -0.13711893117E+04  0.13711973667E+04  0.47000000000E+01 0.  1.
          6    1    1    2  502    0  0.25616069089E+03 -0.22495244251E+03 -0.38149909411E+03  0.53976611579E+03  0.17200000000E+03 0. -1.
         -6    1    1    2    0  502 -0.25616069089E+03  0.22495244251E+03 -0.87057721829E+03  0.95063694119E+03  0.17200000000E+03 0.  1.
</event>
<event>
 4    1 -0.3291270E-004  0.1854679E+03  0.7818608E-02  0.1162614E+00
          5   -1    0    0  501    0  0.00000000000E+00  0.00000000000E+00  0.92397075764E+03  0.92398271140E+03  0.47000000000E+01 0. -1.
         -5   -1    0    0    0  501 -0.00000000000E+00 -0.00000000000E+00 -0.49077258028E+02  0.49301797691E+02  0.47000000000E+01 0.  1.
          6    1    1    2  502    0  0.65850018157E+02  0.21865719567E+02  0.67750718176E+03  0.70243456345E+03  0.17200000000E+03 0. -1.
         -6    1    1    2    0  502 -0.65850018157E+02 -0.21865719567E+02  0.19738631785E+03  0.27084994565E+03  0.17200000000E+03 0.  1.
</event>
<event>
 4    1 -0.3291270E-004  0.2811061E+03  0.7818608E-02  0.1095086E+00
          5   -1    0    0  501    0  0.00000000000E+00  0.00000000000E+00  0.39463638735E+03  0.39466437414E+03  0.47000000000E+01 0. -1.
         -5   -1    0    0    0  501 -0.00000000000E+00 -0.00000000000E+00 -0.21032692990E+03  0.21037943683E+03  0.47000000000E+01 0.  1.
          6    1    1    2  502    0  0.22233286196E+03 -0.21765020447E+01  0.15860896792E+03  0.32276530696E+03  0.17200000000E+03 0. -1.
         -6    1    1    2    0  502 -0.22233286196E+03  0.21765020447E+01  0.25700489525E+02  0.28227850402E+03  0.17200000000E+03 0.  1.
</event>
<event>
 4    1 -0.3291270E-004  0.1885869E+03  0.7818608E-02  0.1159742E+00
          5   -1    0    0  501    0  0.00000000000E+00  0.00000000000E+00  0.15183227500E+03  0.15190500232E+03  0.47000000000E+01 0. -1.
         -5   -1    0    0    0  501 -0.00000000000E+00 -0.00000000000E+00 -0.32388534873E+03  0.32391944851E+03  0.47000000000E+01 0.  1.
          6    1    1    2  502    0  0.77329210240E+02 -0.10975252288E+01  0.39224327062E+02  0.19262284172E+03  0.17200000000E+03 0. -1.
         -6    1    1    2    0  502 -0.77329210240E+02  0.10975252288E+01 -0.21127740079E+03  0.28320160911E+03  0.17200000000E+03 0.  1.
</event>
<event>
 4    1 -0.3291270E-004  0.2411750E+03  0.7818608E-02  0.1119013E+00
         -5   -1    0    0    0  501 -0.00000000000E+00  0.00000000000E+00  0.83741800401E+03  0.83743119325E+03  0.47000000000E+01 0.  1.
          5   -1    0    0  501    0  0.00000000000E+00 -0.00000000000E+00 -0.13602220729E+03  0.13610338304E+03  0.47000000000E+01 0. -1.
          6    1    1    2  502    0  0.16291480860E+03  0.45167976840E+02  0.10110821377E+02  0.24138684658E+03  0.17200000000E+03 0. -1.
         -6    1    1    2    0  502 -0.16291480860E+03 -0.45167976840E+02  0.69128497534E+03  0.73214772971E+03  0.17200000000E+03 0.  1.
</event>
<event>
 4    1 -0.3291270E-004  0.1944693E+03  0.7818608E-02  0.1154491E+00
         -5   -1    0    0    0  501 -0.00000000000E+00  0.00000000000E+00  0.19385634446E+03  0.19391331127E+03  0.47000000000E+01 0.  1.
          5   -1    0    0  501    0  0.00000000000E+00 -0.00000000000E+00 -0.19749042398E+03  0.19754634283E+03  0.47000000000E+01 0. -1.
          6    1    1    2  502    0 -0.28888642479E+02  0.86021759260E+02  0.20287460694E+02  0.19552462196E+03  0.17200000000E+03 0. -1.
         -6    1    1    2    0  502  0.28888642479E+02 -0.86021759260E+02 -0.23921540217E+02  0.19593503213E+03  0.17200000000E+03 0. -1.
</event>
<event>
 4    1 -0.3291270E-004  0.3160798E+03  0.7818608E-02  0.1077468E+00
          5   -1    0    0  501    0  0.00000000000E+00  0.00000000000E+00  0.92523395222E+02  0.92642693524E+02  0.47000000000E+01 0. -1.
         -5   -1    0    0    0  501 -0.00000000000E+00 -0.00000000000E+00 -0.32135033734E+04  0.32135068104E+04  0.47000000000E+01 0.  1.
          6    1    1    2  502    0 -0.20438963319E+03 -0.16895953258E+03 -0.21324863424E+03  0.38128916299E+03  0.17200000000E+03 0. -1.
         -6    1    1    2    0  502  0.20438963319E+03  0.16895953258E+03 -0.29077313439E+04  0.29248603410E+04  0.17200000000E+03 0.  1.
</event>
<event>
 4    1 -0.3291270E-004  0.1974832E+03  0.7818608E-02  0.1151880E+00
          5   -1    0    0  501    0  0.00000000000E+00  0.00000000000E+00  0.21308773530E+03  0.21313956211E+03  0.47000000000E+01 0. -1.
         -5   -1    0    0    0  501 -0.00000000000E+00 -0.00000000000E+00 -0.20674462400E+03  0.20679804050E+03  0.47000000000E+01 0.  1.
          6    1    1    2  502    0 -0.37599816284E+02  0.89453195989E+02  0.74434287634E+02  0.21104521703E+03  0.17200000000E+03 0. -1.
         -6    1    1    2    0  502  0.37599816284E+02 -0.89453195989E+02 -0.68091176332E+02  0.20889238558E+03  0.17200000000E+03 0.  1.
</event>
<event>
 4    1 -0.3291270E-004  0.1731985E+03  0.7818608E-02  0.1174553E+00
         -5   -1    0    0    0  501 -0.00000000000E+00  0.00000000000E+00  0.48723042245E+03  0.48725309087E+03  0.47000000000E+01 0.  1.
          5   -1    0    0  501    0  0.00000000000E+00 -0.00000000000E+00 -0.86631151348E+02  0.86758552223E+02  0.47000000000E+01 0. -1.
          6    1    1    2  502    0 -0.17534027304E+02 -0.10308722349E+02  0.45732871031E+02  0.17913460683E+03  0.17200000000E+03 0. -1.
         -6    1    1    2    0  502  0.17534027304E+02  0.10308722349E+02  0.35486640007E+03  0.39487703626E+03  0.17200000000E+03 0.  1.
</event>
<event>
 4    1 -0.3291270E-004  0.2388989E+03  0.7818608E-02  0.1120528E+00
          5   -1    0    0  501    0  0.00000000000E+00  0.00000000000E+00  0.71811448007E+03  0.71812986046E+03  0.47000000000E+01 0. -1.
         -5   -1    0    0    0  501 -0.00000000000E+00 -0.00000000000E+00 -0.87910093693E+02  0.88035643764E+02  0.47000000000E+01 0.  1.
          6    1    1    2  502    0  0.12141587247E+03 -0.11290213142E+03  0.44048312293E+03  0.50109688380E+03  0.17200000000E+03 0. -1.
         -6    1    1    2    0  502 -0.12141587247E+03  0.11290213142E+03  0.18972126345E+03  0.30506862043E+03  0.17200000000E+03 0.  1.
</event>
<event>
 4    1 -0.3291270E-004  0.2931416E+03  0.7818608E-02  0.1088720E+00
         -5   -1    0    0    0  501 -0.00000000000E+00  0.00000000000E+00  0.44447459400E+03  0.44449944287E+03  0.47000000000E+01 0.  1.
          5   -1    0    0  501    0  0.00000000000E+00 -0.00000000000E+00 -0.20573152458E+03  0.20578520405E+03  0.47000000000E+01 0. -1.
          6    1    1    2  502    0 -0.11135782835E+03 -0.20963637498E+03  0.39381349806E+02  0.29577502660E+03  0.17200000000E+03 0. -1.
         -6    1    1    2    0  502  0.11135782835E+03  0.20963637498E+03  0.19936171961E+03  0.35450962032E+03  0.17200000000E+03 0.  1.
</event>
<event>
 4    1 -0.3291270E-004  0.2295238E+03  0.7818608E-02  0.1126975E+00
          5   -1    0    0  501    0  0.00000000000E+00  0.00000000000E+00  0.77817714601E+03  0.77819133930E+03  0.47000000000E+01 0. -1.
         -5   -1    0    0    0  501 -0.00000000000E+00 -0.00000000000E+00 -0.17627993266E+03  0.17634257755E+03  0.47000000000E+01 0.  1.
          6    1    1    2  502    0  0.11125580239E+03  0.10353411045E+03  0.67555446261E+03  0.71348090202E+03  0.17200000000E+03 0. -1.
         -6    1    1    2    0  502 -0.11125580239E+03 -0.10353411045E+03 -0.73657249261E+02  0.24105301484E+03  0.17200000000E+03 0.  1.
</event>
<event>
 4    1 -0.3291270E-004  0.4839233E+03  0.7818608E-02  0.1018062E+00
         -5   -1    0    0    0  501 -0.00000000000E+00  0.00000000000E+00  0.59998316929E+03  0.60000157786E+03  0.47000000000E+01 0.  1.
          5   -1    0    0  501    0  0.00000000000E+00 -0.00000000000E+00 -0.39038980776E+03  0.39041809897E+03  0.47000000000E+01 0. -1.
          6    1    1    2  502    0  0.33388967037E+03 -0.30514822947E+03  0.96316938688E+02  0.49341534898E+03  0.17200000000E+03 0. -1.
         -6    1    1    2    0  502 -0.33388967037E+03  0.30514822947E+03  0.11327642284E+03  0.49700432785E+03  0.17200000000E+03 0. -1.
</event>
<event>
 4    1 -0.3291270E-004  0.1751655E+03  0.7818608E-02  0.1172566E+00
         -5   -1    0    0    0  501 -0.00000000000E+00  0.00000000000E+00  0.70476167021E+03  0.70477734200E+03  0.47000000000E+01 0.  1.
          5   -1    0    0  501    0  0.00000000000E+00 -0.00000000000E+00 -0.43467199390E+02  0.43720560642E+02  0.47000000000E+01 0. -1.
          6    1    1    2  502    0  0.22624340852E+02  0.24230081233E+02  0.34600044504E+03  0.38781344175E+03  0.17200000000E+03 0.  1.
         -6    1    1    2    0  502 -0.22624340852E+02 -0.24230081233E+02  0.31529402578E+03  0.36068446089E+03  0.17200000000E+03 0. -1.
</event>
<event>
 4    1 -0.3291270E-004  0.2307119E+03  0.7818608E-02  0.1126140E+00
          5   -1    0    0  501    0  0.00000000000E+00  0.00000000000E+00  0.32055004829E+03  0.32058450283E+03  0.47000000000E+01 0. -1.
         -5   -1    0    0    0  501 -0.00000000000E+00 -0.00000000000E+00 -0.17100663169E+03  0.17107120764E+03  0.47000000000E+01 0.  1.
          6    1    1    2  502    0 -0.59127518288E+02 -0.14194334552E+03  0.11692551363E+03  0.25864947805E+03  0.17200000000E+03 0. -1.
         -6    1    1    2    0  502  0.59127518288E+02  0.14194334552E+03  0.32617902960E+02  0.23300623242E+03  0.17200000000E+03 0.  1.
</event>
<event>
 4    1 -0.3291270E-004  0.2187959E+03  0.7818608E-02  0.1134784E+00
          5   -1    0    0  501    0  0.00000000000E+00  0.00000000000E+00  0.66505681733E+02  0.66671550925E+02  0.47000000000E+01 0. -1.
         -5   -1    0    0    0  501 -0.00000000000E+00 -0.00000000000E+00 -0.10983073539E+04  0.10983174102E+04  0.47000000000E+01 0.  1.
          6    1    1    2  502    0  0.21564374721E+02 -0.13350137182E+03 -0.17349792546E+03  0.27923676096E+03  0.17200000000E+03 0. -1.
         -6    1    1    2    0  502 -0.21564374721E+02  0.13350137182E+03 -0.85830374666E+03  0.88575220015E+03  0.17200000000E+03 0.  1.
</event>
<event>
 4    1 -0.3291270E-004  0.1855144E+03  0.7818608E-02  0.1162570E+00
          5   -1    0    0  501    0  0.00000000000E+00  0.00000000000E+00  0.81919705209E+02  0.82054421584E+02  0.47000000000E+01 0. -1.
         -5   -1    0    0    0  501 -0.00000000000E+00 -0.00000000000E+00 -0.43813776934E+03  0.43816297758E+03  0.47000000000E+01 0.  1.
          6    1    1    2  502    0  0.34031274001E+01 -0.69426279355E+02 -0.12464561271E+03  0.22349970539E+03  0.17200000000E+03 0.  1.
         -6    1    1    2    0  502 -0.34031274001E+01  0.69426279355E+02 -0.23157245142E+03  0.29671769377E+03  0.17200000000E+03 0.  1.
</event>
<event>
 4    1 -0.3291270E-004  0.3215470E+03  0.7818608E-02  0.1074940E+00
          5   -1    0    0  501    0  0.00000000000E+00  0.00000000000E+00  0.23055467898E+03  0.23060258021E+03  0.47000000000E+01 0. -1.
         -5   -1    0    0    0  501 -0.00000000000E+00 -0.00000000000E+00 -0.44856320392E+03  0.44858782631E+03  0.47000000000E+01 0.  1.
          6    1    1    2  502    0  0.26114270197E+03  0.74919520611E+02 -0.10149884461E+03  0.33718609227E+03  0.17200000000E+03 0. -1.
         -6    1    1    2    0  502 -0.26114270197E+03 -0.74919520611E+02 -0.11650968033E+03  0.34200431426E+03  0.17200000000E+03 0.  1.
</event>
<event>
 4    1 -0.3291270E-004  0.2900507E+03  0.7818608E-02  0.1090323E+00
          5   -1    0    0  501    0  0.00000000000E+00  0.00000000000E+00  0.81827736610E+03  0.81829086386E+03  0.47000000000E+01 0. -1.
         -5   -1    0    0    0  501 -0.00000000000E+00 -0.00000000000E+00 -0.14449988896E+03  0.14457630480E+03  0.47000000000E+01 0.  1.
          6    1    1    2  502    0  0.28552281103E+02 -0.23179764910E+03  0.59559046738E+03  0.66246312178E+03  0.17200000000E+03 0. -1.
         -6    1    1    2    0  502 -0.28552281103E+02  0.23179764910E+03  0.78187009757E+02  0.30040404688E+03  0.17200000000E+03 0.  1.
</event>
<event>
 4    1 -0.3291270E-004  0.2479629E+03  0.7818608E-02  0.1114599E+00
          5   -1    0    0  501    0  0.00000000000E+00  0.00000000000E+00  0.19635076550E+03  0.19640700882E+03  0.47000000000E+01 0. -1.
         -5   -1    0    0    0  501 -0.00000000000E+00 -0.00000000000E+00 -0.36224995082E+03  0.36228043954E+03  0.47000000000E+01 0.  1.
          6    1    1    2  502    0 -0.14711522155E+03  0.10128521016E+03  0.20013980264E+02  0.24876925375E+03  0.17200000000E+03 0. -1.
         -6    1    1    2    0  502  0.14711522155E+03 -0.10128521016E+03 -0.18591316559E+03  0.30991819460E+03  0.17200000000E+03 0.  1.
</event>
<event>
 4    1 -0.3291270E-004  0.1738254E+03  0.7818608E-02  0.1173916E+00
         -5   -1    0    0    0  501 -0.00000000000E+00  0.00000000000E+00  0.58645841117E+03  0.58647724426E+03  0.47000000000E+01 0.  1.
          5   -1    0    0  501    0  0.00000000000E+00 -0.00000000000E+00 -0.62323740611E+02  0.62500709146E+02  0.47000000000E+01 0. -1.
          6    1    1    2  502    0 -0.81528406639E+00 -0.25112080648E+02  0.12641805755E+03  0.21493442386E+03  0.17200000000E+03 0. -1.
         -6    1    1    2    0  502  0.81528406639E+00  0.25112080648E+02  0.39771661301E+03  0.43404352955E+03  0.17200000000E+03 0.  1.
</event>
<event>
 4    1 -0.3291270E-004  0.2084347E+03  0.7818608E-02  0.1142812E+00
          5   -1    0    0  501    0  0.00000000000E+00  0.00000000000E+00  0.57324179212E+02  0.57516532600E+02  0.47000000000E+01 0. -1.
         -5   -1    0    0    0  501 -0.00000000000E+00 -0.00000000000E+00 -0.80848391513E+03  0.80849757638E+03  0.47000000000E+01 0.  1.
          6    1    1    2  502    0 -0.59921945068E+02  0.10134285422E+03 -0.26570505285E+03  0.33770429182E+03  0.17200000000E+03 0. -1.
         -6    1    1    2    0  502  0.59921945068E+02 -0.10134285422E+03 -0.48545468307E+03  0.52830981717E+03  0.17200000000E+03 0. -1.
</event>
<event>
 4    1 -0.3291270E-004  0.2370682E+03  0.7818608E-02  0.1121761E+00
          5   -1    0    0  501    0  0.00000000000E+00  0.00000000000E+00  0.51828186855E+03  0.51830317890E+03  0.47000000000E+01 0. -1.
         -5   -1    0    0    0  501 -0.00000000000E+00 -0.00000000000E+00 -0.21193832667E+03  0.21199043448E+03  0.47000000000E+01 0.  1.
          6    1    1    2  502    0  0.14141989159E+03  0.81349436388E+02  0.40837705095E+03  0.47220030949E+03  0.17200000000E+03 0. -1.
         -6    1    1    2    0  502 -0.14141989159E+03 -0.81349436388E+02 -0.10203350907E+03  0.25809330389E+03  0.17200000000E+03 0.  1.
</event>
<event>
 4    1 -0.3291270E-004  0.1752414E+03  0.7818608E-02  0.1172489E+00
         -5   -1    0    0    0  501 -0.00000000000E+00  0.00000000000E+00  0.82338785393E+02  0.82472817219E+02  0.47000000000E+01 0.  1.
          5   -1    0    0  501    0  0.00000000000E+00 -0.00000000000E+00 -0.37980036760E+03  0.37982944756E+03  0.47000000000E+01 0. -1.
          6    1    1    2  502    0  0.87512086488E+01  0.32387965465E+02 -0.18074089477E+03  0.25174756206E+03  0.17200000000E+03 0. -1.
         -6    1    1    2    0  502 -0.87512086488E+01 -0.32387965465E+02 -0.11672068743E+03  0.21055470271E+03  0.17200000000E+03 0.  1.
</event>
<event>
 4    1 -0.3291270E-004  0.1936376E+03  0.7818608E-02  0.1155221E+00
          5   -1    0    0  501    0  0.00000000000E+00  0.00000000000E+00  0.34435703699E+02  0.34754966397E+02  0.47000000000E+01 0. -1.
         -5   -1    0    0    0  501 -0.00000000000E+00 -0.00000000000E+00 -0.11017805140E+04  0.11017905386E+04  0.47000000000E+01 0.  1.
          6    1    1    2  502    0  0.59952871607E+02 -0.65705197603E+02 -0.46049921594E+03  0.49955484953E+03  0.17200000000E+03 0.  1.
         -6    1    1    2    0  502 -0.59952871607E+02  0.65705197603E+02 -0.60684559435E+03  0.63699065550E+03  0.17200000000E+03 0.  1.
</event>
<event>
 4    1 -0.3291270E-004  0.1995315E+03  0.7818608E-02  0.1150135E+00
          5   -1    0    0  501    0  0.00000000000E+00  0.00000000000E+00  0.30276476772E+03  0.30280124599E+03  0.47000000000E+01 0. -1.
         -5   -1    0    0    0  501 -0.00000000000E+00 -0.00000000000E+00 -0.14477768264E+03  0.14485395193E+03  0.47000000000E+01 0.  1.
          6    1    1    2  502    0  0.92534269354E+02 -0.40819334186E+02  0.11010841856E+02  0.19983505120E+03  0.17200000000E+03 0.  1.
         -6    1    1    2    0  502 -0.92534269354E+02  0.40819334186E+02  0.14697624322E+03  0.24782014672E+03  0.17200000000E+03 0. -1.
</event>
<event>
 4    1 -0.3291270E-004  0.4002314E+03  0.7818608E-02  0.1043700E+00
         -5   -1    0    0    0  501 -0.00000000000E+00  0.00000000000E+00  0.95191197244E+03  0.95192357533E+03  0.47000000000E+01 0.  1.
          5   -1    0    0  501    0  0.00000000000E+00 -0.00000000000E+00 -0.17263810525E+03  0.17270207117E+03  0.47000000000E+01 0. -1.
          6    1    1    2  502    0  0.31308468954E+03  0.18049687829E+03  0.47945215258E+03  0.62454744617E+03  0.17200000000E+03 0.  1.
         -6    1    1    2    0  502 -0.31308468954E+03 -0.18049687829E+03  0.29982171460E+03  0.50007820033E+03  0.17200000000E+03 0.  1.
</event>
<event>
 4    1 -0.3291270E-004  0.2083736E+03  0.7818608E-02  0.1142860E+00
         -5   -1    0    0    0  501 -0.00000000000E+00  0.00000000000E+00  0.16439648031E+03  0.16446365173E+03  0.47000000000E+01 0.  1.
          5   -1    0    0  501    0  0.00000000000E+00 -0.00000000000E+00 -0.35745106829E+03  0.35748196629E+03  0.47000000000E+01 0. -1.
          6    1    1    2  502    0 -0.86199320566E+02 -0.80032730200E+02 -0.22996520849E+03  0.31032814549E+03  0.17200000000E+03 0. -1.
         -6    1    1    2    0  502  0.86199320566E+02  0.80032730200E+02  0.36910620512E+02  0.21161747252E+03  0.17200000000E+03 0.  1.
</event>
<event>
 4    1 -0.3291270E-004  0.4984278E+03  0.7818608E-02  0.1014190E+00
         -5   -1    0    0    0  501 -0.00000000000E+00  0.00000000000E+00  0.65239025816E+03  0.65240718799E+03  0.47000000000E+01 0.  1.
          5   -1    0    0  501    0  0.00000000000E+00 -0.00000000000E+00 -0.70215309761E+03  0.70216882762E+03  0.47000000000E+01 0. -1.
          6    1    1    2  502    0 -0.20536782925E+03  0.42032165668E+03 -0.48308778347E+03  0.69412106070E+03  0.17200000000E+03 0.  1.
         -6    1    1    2    0  502  0.20536782925E+03 -0.42032165668E+03  0.43332494402E+03  0.66045495492E+03  0.17200000000E+03 0.  1.
</event>
<event>
 4    1 -0.3291270E-004  0.4333055E+03  0.7818608E-02  0.1032821E+00
          5   -1    0    0  501    0  0.00000000000E+00  0.00000000000E+00  0.13598566421E+03  0.13606686176E+03  0.47000000000E+01 0. -1.
         -5   -1    0    0    0  501 -0.00000000000E+00 -0.00000000000E+00 -0.16970725931E+04  0.16970791014E+04  0.47000000000E+01 0.  1.
          6    1    1    2  502    0 -0.39725380126E+03 -0.18948593289E+02 -0.38448897154E+03  0.57929733388E+03  0.17200000000E+03 0. -1.
         -6    1    1    2    0  502  0.39725380126E+03  0.18948593289E+02 -0.11765979574E+04  0.12538486293E+04  0.17200000000E+03 0.  1.
</event>
<event>
 4    1 -0.3291270E-004  0.1726302E+03  0.7818608E-02  0.1175132E+00
          5   -1    0    0  501    0  0.00000000000E+00  0.00000000000E+00  0.94920338019E+03  0.94921501619E+03  0.47000000000E+01 0. -1.
         -5   -1    0    0    0  501 -0.00000000000E+00 -0.00000000000E+00 -0.37120066164E+02  0.37416431043E+02  0.47000000000E+01 0.  1.
          6    1    1    2  502    0  0.92855954419E+01  0.11444398857E+02  0.65202835730E+03  0.67449401426E+03  0.17200000000E+03 0. -1.
         -6    1    1    2    0  502 -0.92855954419E+01 -0.11444398857E+02  0.26005495673E+03  0.31213743298E+03  0.17200000000E+03 0.  1.
</event>
<event>
 4    1 -0.3291270E-004  0.2155022E+03  0.7818608E-02  0.1137281E+00
         -5   -1    0    0    0  501 -0.00000000000E+00  0.00000000000E+00  0.14358828284E+04  0.14358905206E+04  0.47000000000E+01 0.  1.
          5   -1    0    0  501    0  0.00000000000E+00 -0.00000000000E+00 -0.40358472482E+02  0.40631223229E+02  0.47000000000E+01 0. -1.
          6    1    1    2  502    0  0.10140267690E+03 -0.81084367746E+02  0.36640521476E+03  0.42508112047E+03  0.17200000000E+03 0. -1.
         -6    1    1    2    0  502 -0.10140267690E+03  0.81084367746E+02  0.10291191412E+04  0.10514406233E+04  0.17200000000E+03 0.  1.
</event>
<event>
 4    1 -0.3291270E-004  0.2298388E+03  0.7818608E-02  0.1126753E+00
         -5   -1    0    0    0  501 -0.00000000000E+00  0.00000000000E+00  0.68163776154E+02  0.68325620228E+02  0.47000000000E+01 0.  1.
          5   -1    0    0  501    0  0.00000000000E+00 -0.00000000000E+00 -0.77390242205E+03  0.77391669375E+03  0.47000000000E+01 0. -1.
          6    1    1    2  502    0 -0.13200589500E+01  0.15244710737E+03 -0.35403777394E+03  0.42210023511E+03  0.17200000000E+03 0. -1.
         -6    1    1    2    0  502  0.13200589500E+01 -0.15244710737E+03 -0.35170087196E+03  0.42014207887E+03  0.17200000000E+03 0.  1.
</event>
<event>
 4    1 -0.3291270E-004  0.1779202E+03  0.7818608E-02  0.1169831E+00
          5   -1    0    0  501    0  0.00000000000E+00  0.00000000000E+00  0.57440487299E+02  0.57632452500E+02  0.47000000000E+01 0. -1.
         -5   -1    0    0    0  501 -0.00000000000E+00 -0.00000000000E+00 -0.55891613699E+03  0.55893589810E+03  0.47000000000E+01 0.  1.
          6    1    1    2  502    0 -0.39868523225E+02 -0.21956453073E+02 -0.21176625758E+03  0.27658729693E+03  0.17200000000E+03 0.  1.
         -6    1    1    2    0  502  0.39868523225E+02  0.21956453073E+02 -0.28970939211E+03  0.33998105367E+03  0.17200000000E+03 0.  1.
</event>
<event>
 4    1 -0.3291270E-004  0.2778382E+03  0.7818608E-02  0.1096876E+00
          5   -1    0    0  501    0  0.00000000000E+00  0.00000000000E+00  0.53656092840E+03  0.53658151281E+03  0.47000000000E+01 0. -1.
         -5   -1    0    0    0  501 -0.00000000000E+00 -0.00000000000E+00 -0.25007472981E+03  0.25011889271E+03  0.47000000000E+01 0.  1.
          6    1    1    2  502    0 -0.21702206987E+03  0.22616449391E+02  0.39961816814E+03  0.48671219720E+03  0.17200000000E+03 0. -1.
         -6    1    1    2    0  502  0.21702206987E+03 -0.22616449391E+02 -0.11313196955E+03  0.29998820831E+03  0.17200000000E+03 0.  1.
</event>
<event>
 4    1 -0.3291270E-004  0.2385214E+03  0.7818608E-02  0.1120782E+00
         -5   -1    0    0    0  501 -0.00000000000E+00  0.00000000000E+00  0.71203586548E+03  0.71205137717E+03  0.47000000000E+01 0.  1.
          5   -1    0    0  501    0  0.00000000000E+00 -0.00000000000E+00 -0.23851192327E+03  0.23855822673E+03  0.47000000000E+01 0. -1.
          6    1    1    2  502    0 -0.42606120396E+02 -0.15966586495E+03 -0.15085469689E+03  0.28222262401E+03  0.17200000000E+03 0. -1.
         -6    1    1    2    0  502  0.42606120396E+02  0.15966586495E+03  0.62437863911E+03  0.66838697990E+03  0.17200000000E+03 0.  1.
</event>
<event>
 4    1 -0.3291270E-004  0.1842716E+03  0.7818608E-02  0.1163732E+00
          5   -1    0    0  501    0  0.00000000000E+00  0.00000000000E+00  0.50324845629E+03  0.50327040322E+03  0.47000000000E+01 0. -1.
         -5   -1    0    0    0  501 -0.00000000000E+00 -0.00000000000E+00 -0.11854797095E+03  0.11864110340E+03  0.47000000000E+01 0.  1.
          6    1    1    2  502    0 -0.21063257632E+02  0.62676555075E+02  0.39653565327E+03  0.43726026082E+03  0.17200000000E+03 0. -1.
         -6    1    1    2    0  502  0.21063257632E+02 -0.62676555075E+02 -0.11835167929E+02  0.18465124581E+03  0.17200000000E+03 0.  1.
</event>
<event>
 4    1 -0.3291270E-004  0.2858268E+03  0.7818608E-02  0.1092548E+00
         -5   -1    0    0    0  501 -0.00000000000E+00  0.00000000000E+00  0.31724527981E+03  0.31728009323E+03  0.47000000000E+01 0.  1.
          5   -1    0    0  501    0  0.00000000000E+00 -0.00000000000E+00 -0.25822254966E+03  0.25826531930E+03  0.47000000000E+01 0. -1.
          6    1    1    2  502    0  0.20597779354E+03 -0.98418061826E+02  0.45254618982E+02  0.28938719195E+03  0.17200000000E+03 0.  1.
         -6    1    1    2    0  502 -0.20597779354E+03  0.98418061826E+02  0.13768111167E+02  0.28615822059E+03  0.17200000000E+03 0.  1.
</event>
<event>
 4    1 -0.3291270E-004  0.1920894E+03  0.7818608E-02  0.1156590E+00
          5   -1    0    0  501    0  0.00000000000E+00  0.00000000000E+00  0.15696562874E+03  0.15703597870E+03  0.47000000000E+01 0. -1.
         -5   -1    0    0    0  501 -0.00000000000E+00 -0.00000000000E+00 -0.24352264340E+03  0.24356799430E+03  0.47000000000E+01 0.  1.
          6    1    1    2  502    0  0.60430090022E+02 -0.60519009404E+02 -0.56540876248E+01  0.19217261768E+03  0.17200000000E+03 0. -1.
         -6    1    1    2    0  502 -0.60430090022E+02  0.60519009404E+02 -0.80902927029E+02  0.20843135532E+03  0.17200000000E+03 0. -1.
</event>
<event>
 4    1 -0.3291270E-004  0.2546346E+03  0.7818608E-02  0.1110410E+00
          5   -1    0    0  501    0  0.00000000000E+00  0.00000000000E+00  0.19004378691E+04  0.19004436809E+04  0.47000000000E+01 0. -1.
         -5   -1    0    0    0  501 -0.00000000000E+00 -0.00000000000E+00 -0.93069323850E+02  0.93187923262E+02  0.47000000000E+01 0.  1.
          6    1    1    2  502    0  0.87454817393E+02  0.16615187776E+03  0.16971846239E+04  0.17161801885E+04  0.17200000000E+03 0. -1.
         -6    1    1    2    0  502 -0.87454817393E+02 -0.16615187776E+03  0.11018392135E+03  0.27745141573E+03  0.17200000000E+03 0.  1.
</event>
<event>
 4    1 -0.3291270E-004  0.2097484E+03  0.7818608E-02  0.1141765E+00
         -5   -1    0    0    0  501 -0.00000000000E+00  0.00000000000E+00  0.85412901283E+02  0.85542116560E+02  0.47000000000E+01 0.  1.
          5   -1    0    0  501    0  0.00000000000E+00 -0.00000000000E+00 -0.58638234571E+03  0.58640118124E+03  0.47000000000E+01 0. -1.
          6    1    1    2  502    0 -0.61438603726E+02  0.10312944343E+03 -0.13290890609E+03  0.24831262845E+03  0.17200000000E+03 0.  1.
         -6    1    1    2    0  502  0.61438603726E+02 -0.10312944343E+03 -0.36806053834E+03  0.42363066935E+03  0.17200000000E+03 0. -1.
</event>
<event>
 4    1 -0.3291270E-004  0.2543536E+03  0.7818608E-02  0.1110584E+00
          5   -1    0    0  501    0  0.00000000000E+00  0.00000000000E+00  0.14804771644E+04  0.14804846248E+04  0.47000000000E+01 0. -1.
         -5   -1    0    0    0  501 -0.00000000000E+00 -0.00000000000E+00 -0.44072394954E+02  0.44322296838E+02  0.47000000000E+01 0.  1.
          6    1    1    2  502    0  0.18587181390E+03  0.23736915422E+02  0.79974289349E+03  0.83921657994E+03  0.17200000000E+03 0. -1.
         -6    1    1    2    0  502 -0.18587181390E+03 -0.23736915422E+02  0.63666187597E+03  0.68559034173E+03  0.17200000000E+03 0.  1.
</event>
<event>
 4    1 -0.3291270E-004  0.1782774E+03  0.7818608E-02  0.1169481E+00
          5   -1    0    0  501    0  0.00000000000E+00  0.00000000000E+00  0.14704517634E+03  0.14712027014E+03  0.47000000000E+01 0. -1.
         -5   -1    0    0    0  501 -0.00000000000E+00 -0.00000000000E+00 -0.32802174222E+03  0.32805541204E+03  0.47000000000E+01 0.  1.
          6    1    1    2  502    0 -0.40360378755E+02  0.23871987949E+02  0.48337637212E+02  0.18471426353E+03  0.17200000000E+03 0. -1.
         -6    1    1    2    0  502  0.40360378755E+02 -0.23871987949E+02 -0.22931420309E+03  0.29046141865E+03  0.17200000000E+03 0.  1.
</event>
<event>
 4    1 -0.3291270E-004  0.1767574E+03  0.7818608E-02  0.1170979E+00
          5   -1    0    0  501    0  0.00000000000E+00  0.00000000000E+00  0.61096088092E+03  0.61097895873E+03  0.47000000000E+01 0. -1.
         -5   -1    0    0    0  501 -0.00000000000E+00 -0.00000000000E+00 -0.57837563486E+02  0.58028215120E+02  0.47000000000E+01 0.  1.
          6    1    1    2  502    0  0.11785017261E+02  0.38991061384E+02  0.16186007583E+03  0.23967034370E+03  0.17200000000E+03 0.  1.
         -6    1    1    2    0  502 -0.11785017261E+02 -0.38991061384E+02  0.39126324160E+03  0.42933683015E+03  0.17200000000E+03 0.  1.
</event>
<event>
 4    1 -0.3291270E-004  0.2354183E+03  0.7818608E-02  0.1122883E+00
          5   -1    0    0  501    0  0.00000000000E+00  0.00000000000E+00  0.13790115742E+03  0.13798122777E+03  0.47000000000E+01 0. -1.
         -5   -1    0    0    0  501 -0.00000000000E+00 -0.00000000000E+00 -0.48613771423E+03  0.48616043360E+03  0.47000000000E+01 0.  1.
          6    1    1    2  502    0 -0.10345381604E+03  0.12302471855E+03 -0.44060967222E+02  0.23950603804E+03  0.17200000000E+03 0.  1.
         -6    1    1    2    0  502  0.10345381604E+03 -0.12302471855E+03 -0.30417558959E+03  0.38463562332E+03  0.17200000000E+03 0.  1.
</event>
<event>
 4    1 -0.3291270E-004  0.2109466E+03  0.7818608E-02  0.1140819E+00
          5   -1    0    0  501    0  0.00000000000E+00  0.00000000000E+00  0.36755517785E+03  0.36758522653E+03  0.47000000000E+01 0. -1.
         -5   -1    0    0    0  501 -0.00000000000E+00 -0.00000000000E+00 -0.14154037595E+03  0.14161838872E+03  0.47000000000E+01 0.  1.
          6    1    1    2  502    0  0.42477094838E+02  0.11449966987E+03  0.20999204287E+03  0.29764935084E+03  0.17200000000E+03 0.  1.
         -6    1    1    2    0  502 -0.42477094838E+02 -0.11449966987E+03  0.16022759021E+02  0.21155426441E+03  0.17200000000E+03 0.  1.
</event>
<event>
 4    1 -0.3291270E-004  0.2024639E+03  0.7818608E-02  0.1147677E+00
          5   -1    0    0  501    0  0.00000000000E+00  0.00000000000E+00  0.80465942320E+02  0.80603088486E+02  0.47000000000E+01 0. -1.
         -5   -1    0    0    0  501 -0.00000000000E+00 -0.00000000000E+00 -0.56026336104E+03  0.56028307463E+03  0.47000000000E+01 0.  1.
          6    1    1    2  502    0 -0.18703221873E+02  0.10515623021E+03 -0.14283754764E+03  0.24777854684E+03  0.17200000000E+03 0. -1.
         -6    1    1    2    0  502  0.18703221873E+02 -0.10515623021E+03 -0.33695987107E+03  0.39310761627E+03  0.17200000000E+03 0.  1.
</event>
<event>
 4    1 -0.3291270E-004  0.2681432E+03  0.7818608E-02  0.1102347E+00
         -5   -1    0    0    0  501 -0.00000000000E+00  0.00000000000E+00  0.48850202078E+02  0.49075780616E+02  0.47000000000E+01 0.  1.
          5   -1    0    0  501    0  0.00000000000E+00 -0.00000000000E+00 -0.19951045840E+04  0.19951101200E+04  0.47000000000E+01 0. -1.
          6    1    1    2  502    0 -0.10066119060E+03  0.17939932707E+03 -0.14983343120E+04  0.15221387927E+04  0.17200000000E+03 0. -1.
         -6    1    1    2    0  502  0.10066119060E+03 -0.17939932707E+03 -0.44792006992E+03  0.52204710791E+03  0.17200000000E+03 0.  1.
</event>
<event>
 4    1 -0.3291270E-004  0.2396163E+03  0.7818608E-02  0.1120049E+00
          5   -1    0    0  501    0  0.00000000000E+00  0.00000000000E+00  0.48460793669E+02  0.48688176419E+02  0.47000000000E+01 0. -1.
         -5   -1    0    0    0  501 -0.00000000000E+00 -0.00000000000E+00 -0.13513700030E+04  0.13513781762E+04  0.47000000000E+01 0.  1.
          6    1    1    2  502    0  0.16597998691E+03 -0.16810968974E+02 -0.40349280851E+03  0.46927860728E+03  0.17200000000E+03 0. -1.
         -6    1    1    2    0  502 -0.16597998691E+03  0.16810968974E+02 -0.89941640086E+03  0.93078774533E+03  0.17200000000E+03 0.  1.
</event>
<event>
 4    1 -0.3291270E-004  0.1727073E+03  0.7818608E-02  0.1175054E+00
         -5   -1    0    0    0  501 -0.00000000000E+00  0.00000000000E+00  0.26040259507E+03  0.26044500671E+03  0.47000000000E+01 0.  1.
          5   -1    0    0  501    0  0.00000000000E+00 -0.00000000000E+00 -0.11485484206E+03  0.11495096670E+03  0.47000000000E+01 0. -1.
          6    1    1    2  502    0  0.46776547669E+01  0.14897194741E+02  0.83979498984E+02  0.19204260755E+03  0.17200000000E+03 0.  1.
         -6    1    1    2    0  502 -0.46776547669E+01 -0.14897194741E+02  0.61568254026E+02  0.18335336585E+03  0.17200000000E+03 0. -1.
</event>
<event>
 4    1 -0.3291270E-004  0.1796133E+03  0.7818608E-02  0.1168178E+00
         -5   -1    0    0    0  501 -0.00000000000E+00  0.00000000000E+00  0.38793506278E+03  0.38796353299E+03  0.47000000000E+01 0.  1.
          5   -1    0    0  501    0  0.00000000000E+00 -0.00000000000E+00 -0.95515615736E+02  0.95631181365E+02  0.47000000000E+01 0. -1.
          6    1    1    2  502    0  0.50853022556E+02  0.95349001705E+01  0.23344709196E+03  0.29454794002E+03  0.17200000000E+03 0.  1.
         -6    1    1    2    0  502 -0.50853022556E+02 -0.95349001705E+01  0.58972355080E+02  0.18904677434E+03  0.17200000000E+03 0. -1.
</event>
<event>
 4    1 -0.3291270E-004  0.2362580E+03  0.7818608E-02  0.1122311E+00
         -5   -1    0    0    0  501 -0.00000000000E+00  0.00000000000E+00  0.41800425069E+03  0.41803067303E+03  0.47000000000E+01 0.  1.
          5   -1    0    0  501    0  0.00000000000E+00 -0.00000000000E+00 -0.18369394778E+03  0.18375406512E+03  0.47000000000E+01 0. -1.
          6    1    1    2  502    0 -0.12199384355E+03 -0.10654277256E+03 -0.40147963464E+02  0.23964498580E+03  0.17200000000E+03 0. -1.
         -6    1    1    2    0  502  0.12199384355E+03  0.10654277256E+03  0.27445826638E+03  0.36213975235E+03  0.17200000000E+03 0.  1.
</event>
<event>
 4    1 -0.3291270E-004  0.3324899E+03  0.7818608E-02  0.1070040E+00
          5   -1    0    0  501    0  0.00000000000E+00  0.00000000000E+00  0.33122991429E+03  0.33126325803E+03  0.47000000000E+01 0. -1.
         -5   -1    0    0    0  501 -0.00000000000E+00 -0.00000000000E+00 -0.34406972916E+03  0.34410182871E+03  0.47000000000E+01 0.  1.
          6    1    1    2  502    0 -0.26989009894E+03 -0.90138130453E+02 -0.65071251646E+02  0.33879760309E+03  0.17200000000E+03 0. -1.
         -6    1    1    2    0  502  0.26989009894E+03  0.90138130453E+02  0.52231436782E+02  0.33656748366E+03  0.17200000000E+03 0.  1.
</event>
<event>
 4    1 -0.3291270E-004  0.1968849E+03  0.7818608E-02  0.1152394E+00
          5   -1    0    0  501    0  0.00000000000E+00  0.00000000000E+00  0.45028660155E+03  0.45031112971E+03  0.47000000000E+01 0. -1.
         -5   -1    0    0    0  501 -0.00000000000E+00 -0.00000000000E+00 -0.88235764666E+02  0.88360852001E+02  0.47000000000E+01 0.  1.
          6    1    1    2  502    0 -0.57246064905E+02 -0.76827979600E+02  0.13814660348E+03  0.24051639123E+03  0.17200000000E+03 0.  1.
         -6    1    1    2    0  502  0.57246064905E+02  0.76827979600E+02  0.22390423341E+03  0.29815559048E+03  0.17200000000E+03 0.  1.
</event>
<event>
 4    1 -0.3291270E-004  0.3020270E+03  0.7818608E-02  0.1084232E+00
         -5   -1    0    0    0  501 -0.00000000000E+00  0.00000000000E+00  0.88413759861E+03  0.88415009092E+03  0.47000000000E+01 0.  1.
          5   -1    0    0  501    0  0.00000000000E+00 -0.00000000000E+00 -0.10311656425E+03  0.10322362047E+03  0.47000000000E+01 0. -1.
          6    1    1    2  502    0  0.19759360948E+03  0.15030995682E+03  0.39511328191E+03  0.49732768188E+03  0.17200000000E+03 0. -1.
         -6    1    1    2    0  502 -0.19759360948E+03 -0.15030995682E+03  0.38590775246E+03  0.49004602950E+03  0.17200000000E+03 0.  1.
</event>
<event>
 4    1 -0.3291270E-004  0.2527534E+03  0.7818608E-02  0.1111577E+00
          5   -1    0    0  501    0  0.00000000000E+00  0.00000000000E+00  0.16034520456E+04  0.16034589339E+04  0.47000000000E+01 0. -1.
         -5   -1    0    0    0  501 -0.00000000000E+00 -0.00000000000E+00 -0.42950272355E+02  0.43206664941E+02  0.47000000000E+01 0.  1.
          6    1    1    2  502    0 -0.17687161338E+03  0.54924578100E+02  0.10061595424E+04  0.10374205037E+04  0.17200000000E+03 0. -1.
         -6    1    1    2    0  502  0.17687161338E+03 -0.54924578100E+02  0.55434223089E+03  0.60924509505E+03  0.17200000000E+03 0.  1.
</event>
<event>
 4    1 -0.3291270E-004  0.2241122E+03  0.7818608E-02  0.1130854E+00
         -5   -1    0    0    0  501 -0.00000000000E+00  0.00000000000E+00  0.35205156688E+03  0.35208293873E+03  0.47000000000E+01 0.  1.
          5   -1    0    0  501    0  0.00000000000E+00 -0.00000000000E+00 -0.15208459602E+03  0.15215720274E+03  0.47000000000E+01 0. -1.
          6    1    1    2  502    0  0.18533510018E+02 -0.14247377028E+03  0.37013957639E+02  0.22714818791E+03  0.17200000000E+03 0.  1.
         -6    1    1    2    0  502 -0.18533510018E+02  0.14247377028E+03  0.16295301322E+03  0.27709195356E+03  0.17200000000E+03 0.  1.
</event>
<event>
 4    1 -0.3291270E-004  0.2111522E+03  0.7818608E-02  0.1140657E+00
         -5   -1    0    0    0  501 -0.00000000000E+00  0.00000000000E+00  0.10078899554E+03  0.10089852141E+03  0.47000000000E+01 0.  1.
          5   -1    0    0  501    0  0.00000000000E+00 -0.00000000000E+00 -0.48500321501E+03  0.48502598752E+03  0.47000000000E+01 0. -1.
          6    1    1    2  502    0 -0.10321616630E+03  0.65936805650E+02 -0.27932999990E+03  0.35015780466E+03  0.17200000000E+03 0. -1.
         -6    1    1    2    0  502  0.10321616630E+03 -0.65936805650E+02 -0.10488421957E+03  0.23576670426E+03  0.17200000000E+03 0.  1.
</event>
<event>
 4    1 -0.3291270E-004  0.2635279E+03  0.7818608E-02  0.1105042E+00
          5   -1    0    0  501    0  0.00000000000E+00  0.00000000000E+00  0.90484038716E+02  0.90606022219E+02  0.47000000000E+01 0. -1.
         -5   -1    0    0    0  501 -0.00000000000E+00 -0.00000000000E+00 -0.77743058242E+03  0.77744478935E+03  0.47000000000E+01 0.  1.
          6    1    1    2  502    0  0.17320100922E+01  0.19964954074E+03 -0.29286481590E+03  0.39397555682E+03  0.17200000000E+03 0.  1.
         -6    1    1    2    0  502 -0.17320100922E+01 -0.19964954074E+03 -0.39408172780E+03  0.47407525475E+03  0.17200000000E+03 0.  1.
</event>
<event>
 4    1 -0.3291270E-004  0.5336122E+03  0.7818608E-02  0.1005360E+00
         -5   -1    0    0    0  501 -0.00000000000E+00  0.00000000000E+00  0.41198243090E+03  0.41200923943E+03  0.47000000000E+01 0.  1.
          5   -1    0    0  501    0  0.00000000000E+00 -0.00000000000E+00 -0.74734123097E+03  0.74735600989E+03  0.47000000000E+01 0. -1.
          6    1    1    2  502    0  0.41058518500E+03 -0.29424101984E+03 -0.86522987927E+01  0.53368233451E+03  0.17200000000E+03 0. -1.
         -6    1    1    2    0  502 -0.41058518500E+03  0.29424101984E+03 -0.32670650128E+03  0.62568291480E+03  0.17200000000E+03 0.  1.
</event>
<event>
 4    1 -0.3291270E-004  0.2772080E+03  0.7818608E-02  0.1097224E+00
         -5   -1    0    0    0  501 -0.00000000000E+00  0.00000000000E+00  0.67916606787E+03  0.67918233027E+03  0.47000000000E+01 0.  1.
          5   -1    0    0  501    0  0.00000000000E+00 -0.00000000000E+00 -0.12031566850E+03  0.12040743368E+03  0.47000000000E+01 0. -1.
          6    1    1    2  502    0  0.21634540123E+03  0.21329435908E+02  0.37743214916E+03  0.46829403657E+03  0.17200000000E+03 0.  1.
         -6    1    1    2    0  502 -0.21634540123E+03 -0.21329435908E+02  0.18141825021E+03  0.33129572738E+03  0.17200000000E+03 0. -1.
</event>
<event>
 4    1 -0.3291270E-004  0.5126567E+03  0.7818608E-02  0.1010527E+00
         -5   -1    0    0    0  501 -0.00000000000E+00  0.00000000000E+00  0.38458585728E+03  0.38461457542E+03  0.47000000000E+01 0.  1.
          5   -1    0    0  501    0  0.00000000000E+00 -0.00000000000E+00 -0.85106960522E+03  0.85108258290E+03  0.47000000000E+01 0. -1.
          6    1    1    2  502    0  0.49638950790E+02 -0.48038405648E+03 -0.50754261574E+03  0.72139890071E+03  0.17200000000E+03 0. -1.
         -6    1    1    2    0  502 -0.49638950790E+02  0.48038405648E+03  0.41058867807E+02  0.51429825761E+03  0.17200000000E+03 0.  1.
</event>
<event>
 4    1 -0.3291270E-004  0.2987019E+03  0.7818608E-02  0.1085891E+00
         -5   -1    0    0    0  501 -0.00000000000E+00  0.00000000000E+00  0.30073181310E+03  0.30076853794E+03  0.47000000000E+01 0.  1.
          5   -1    0    0  501    0  0.00000000000E+00 -0.00000000000E+00 -0.33286583231E+03  0.33289901219E+03  0.47000000000E+01 0. -1.
          6    1    1    2  502    0  0.11505706026E+03 -0.21540828064E+03 -0.12061722478E+03  0.32213563820E+03  0.17200000000E+03 0. -1.
         -6    1    1    2    0  502 -0.11505706026E+03  0.21540828064E+03  0.88483205573E+02  0.31153191193E+03  0.17200000000E+03 0.  1.
</event>
<event>
 4    1 -0.3291270E-004  0.1887991E+03  0.7818608E-02  0.1159549E+00
          5   -1    0    0  501    0  0.00000000000E+00  0.00000000000E+00  0.32557075616E+03  0.32560467943E+03  0.47000000000E+01 0. -1.
         -5   -1    0    0    0  501 -0.00000000000E+00 -0.00000000000E+00 -0.20027650542E+03  0.20033164659E+03  0.47000000000E+01 0.  1.
          6    1    1    2  502    0 -0.76038383805E+02 -0.16710990646E+02  0.23974156699E+03  0.30515751992E+03  0.17200000000E+03 0. -1.
         -6    1    1    2    0  502  0.76038383805E+02  0.16710990646E+02 -0.11444731626E+03  0.22077880609E+03  0.17200000000E+03 0.  1.
</event>
<event>
 4    1 -0.3291270E-004  0.1787288E+03  0.7818608E-02  0.1169039E+00
         -5   -1    0    0    0  501 -0.00000000000E+00  0.00000000000E+00  0.13669644530E+03  0.13677722090E+03  0.47000000000E+01 0.  1.
          5   -1    0    0  501    0  0.00000000000E+00 -0.00000000000E+00 -0.23351304230E+03  0.23356033679E+03  0.47000000000E+01 0. -1.
          6    1    1    2  502    0 -0.48303665632E+02 -0.51707111550E+01 -0.48030567311E+02  0.18507002935E+03  0.17200000000E+03 0. -1.
         -6    1    1    2    0  502  0.48303665632E+02  0.51707111550E+01 -0.48786029687E+02  0.18526752835E+03  0.17200000000E+03 0.  1.
</event>
<event>
 4    1 -0.3291270E-004  0.3203999E+03  0.7818608E-02  0.1075465E+00
         -5   -1    0    0    0  501 -0.00000000000E+00  0.00000000000E+00  0.58563780122E+02  0.58752075216E+02  0.47000000000E+01 0.  1.
          5   -1    0    0  501    0  0.00000000000E+00 -0.00000000000E+00 -0.17807775718E+04  0.17807837741E+04  0.47000000000E+01 0. -1.
          6    1    1    2  502    0 -0.23092609448E+03  0.14051784075E+03 -0.98223496428E+03  0.10331706779E+04  0.17200000000E+03 0. -1.
         -6    1    1    2    0  502  0.23092609448E+03 -0.14051784075E+03 -0.73997882737E+03  0.80636517139E+03  0.17200000000E+03 0.  1.
</event>
<event>
 4    1 -0.3291270E-004  0.2363774E+03  0.7818608E-02  0.1122230E+00
         -5   -1    0    0    0  501 -0.00000000000E+00  0.00000000000E+00  0.25264415500E+03  0.25268786883E+03  0.47000000000E+01 0.  1.
          5   -1    0    0  501    0  0.00000000000E+00 -0.00000000000E+00 -0.56356655182E+03  0.56358614988E+03  0.47000000000E+01 0. -1.
          6    1    1    2  502    0 -0.90978921500E+02 -0.13421285740E+03 -0.47361064579E+03  0.52932154599E+03  0.17200000000E+03 0. -1.
         -6    1    1    2    0  502  0.90978921500E+02  0.13421285740E+03  0.16268824896E+03  0.28695247272E+03  0.17200000000E+03 0.  1.
</event>
<event>
 4    1 -0.3291270E-004  0.3436754E+03  0.7818608E-02  0.1065241E+00
         -5   -1    0    0    0  501 -0.00000000000E+00  0.00000000000E+00  0.14642923316E+03  0.14650464267E+03  0.47000000000E+01 0.  1.
          5   -1    0    0  501    0  0.00000000000E+00 -0.00000000000E+00 -0.84884226214E+03  0.84885527389E+03  0.47000000000E+01 0. -1.
          6    1    1    2  502    0 -0.16946325936E+03  0.24456289547E+03 -0.46257660070E+03  0.57627243351E+03  0.17200000000E+03 0. -1.
         -6    1    1    2    0  502  0.16946325936E+03 -0.24456289547E+03 -0.23983642828E+03  0.41908748305E+03  0.17200000000E+03 0.  1.
</event>
<event>
 4    1 -0.3291270E-004  0.1785936E+03  0.7818608E-02  0.1169171E+00
         -5   -1    0    0    0  501 -0.00000000000E+00  0.00000000000E+00  0.23141549357E+03  0.23146321666E+03  0.47000000000E+01 0.  1.
          5   -1    0    0  501    0  0.00000000000E+00 -0.00000000000E+00 -0.22025363279E+03  0.22030377381E+03  0.47000000000E+01 0. -1.
          6    1    1    2  502    0  0.38245107311E+02  0.29137392218E+02 -0.13265146529E+03  0.22246817099E+03  0.17200000000E+03 0. -1.
         -6    1    1    2    0  502 -0.38245107311E+02 -0.29137392218E+02  0.14381332608E+03  0.22929881948E+03  0.17200000000E+03 0.  1.
</event>
<event>
 4    1 -0.3291270E-004  0.2086712E+03  0.7818608E-02  0.1142623E+00
         -5   -1    0    0    0  501 -0.00000000000E+00  0.00000000000E+00  0.79860125704E+03  0.79861508735E+03  0.47000000000E+01 0.  1.
          5   -1    0    0  501    0  0.00000000000E+00 -0.00000000000E+00 -0.86880936254E+02  0.87007971384E+02  0.47000000000E+01 0. -1.
          6    1    1    2  502    0  0.61415060458E+02  0.10093492091E+03  0.85425335844E+02  0.22547983483E+03  0.17200000000E+03 0. -1.
         -6    1    1    2    0  502 -0.61415060458E+02 -0.10093492091E+03  0.62629498494E+03  0.66014322391E+03  0.17200000000E+03 0.  1.
</event>
<event>
 4    1 -0.3291270E-004  0.1740335E+03  0.7818608E-02  0.1173706E+00
          5   -1    0    0  501    0  0.00000000000E+00  0.00000000000E+00  0.16670523454E+03  0.16677147604E+03  0.47000000000E+01 0. -1.
         -5   -1    0    0    0  501 -0.00000000000E+00 -0.00000000000E+00 -0.36091451075E+03  0.36094511227E+03  0.47000000000E+01 0.  1.
          6    1    1    2  502    0  0.25629576360E+02  0.68407363336E+01  0.88876109294E+02  0.19541400580E+03  0.17200000000E+03 0. -1.
         -6    1    1    2    0  502 -0.25629576360E+02 -0.68407363336E+01 -0.28308538551E+03  0.33230258251E+03  0.17200000000E+03 0.  1.
</event>
<event>
 4    1 -0.3291270E-004  0.2146319E+03  0.7818608E-02  0.1137950E+00
          5   -1    0    0  501    0  0.00000000000E+00  0.00000000000E+00  0.79694720504E+03  0.79696106406E+03  0.47000000000E+01 0. -1.
         -5   -1    0    0    0  501 -0.00000000000E+00 -0.00000000000E+00 -0.60283465004E+02  0.60466405159E+02  0.47000000000E+01 0.  1.
          6    1    1    2  502    0 -0.85991119764E+02 -0.95332893321E+02  0.45703404250E+03  0.50492271609E+03  0.17200000000E+03 0. -1.
         -6    1    1    2    0  502  0.85991119764E+02  0.95332893321E+02  0.27962969754E+03  0.35250475313E+03  0.17200000000E+03 0.  1.
</event>
<event>
 4    1 -0.3291270E-004  0.1861360E+03  0.7818608E-02  0.1161993E+00
         -5   -1    0    0    0  501 -0.00000000000E+00  0.00000000000E+00  0.70848250103E+03  0.70849809052E+03  0.47000000000E+01 0.  1.
          5   -1    0    0  501    0  0.00000000000E+00 -0.00000000000E+00 -0.51688729685E+02  0.51901972761E+02  0.47000000000E+01 0. -1.
          6    1    1    2  502    0  0.64657294934E+02 -0.29698930680E+02  0.23830847082E+03  0.30238637458E+03  0.17200000000E+03 0. -1.
         -6    1    1    2    0  502 -0.64657294934E+02  0.29698930680E+02  0.41848530053E+03  0.45801368870E+03  0.17200000000E+03 0.  1.
</event>
<event>
 4    1 -0.3291270E-004  0.2110643E+03  0.7818608E-02  0.1140726E+00
         -5   -1    0    0    0  501 -0.00000000000E+00  0.00000000000E+00  0.49189802037E+02  0.49413830295E+02  0.47000000000E+01 0.  1.
          5   -1    0    0  501    0  0.00000000000E+00 -0.00000000000E+00 -0.96289086436E+03  0.96290233496E+03  0.47000000000E+01 0. -1.
          6    1    1    2  502    0  0.95218530775E+02  0.76795553969E+02 -0.58270054703E+03  0.61974837896E+03  0.17200000000E+03 0.  1.
         -6    1    1    2    0  502 -0.95218530775E+02 -0.76795553969E+02 -0.33100051529E+03  0.39256778629E+03  0.17200000000E+03 0.  1.
</event>
<event>
 4    1 -0.3291270E-004  0.2137654E+03  0.7818608E-02  0.1138618E+00
          5   -1    0    0  501    0  0.00000000000E+00  0.00000000000E+00  0.32023060147E+03  0.32026509038E+03  0.47000000000E+01 0. -1.
         -5   -1    0    0    0  501 -0.00000000000E+00 -0.00000000000E+00 -0.14344691451E+03  0.14352389098E+03  0.47000000000E+01 0.  1.
          6    1    1    2  502    0  0.12672592081E+03 -0.72225957954E+01  0.70740142073E+02  0.22516614443E+03  0.17200000000E+03 0. -1.
         -6    1    1    2    0  502 -0.12672592081E+03  0.72225957954E+01  0.10604354489E+03  0.23862283694E+03  0.17200000000E+03 0.  1.
</event>
<event>
 4    1 -0.3291270E-004  0.1838958E+03  0.7818608E-02  0.1164085E+00
          5   -1    0    0  501    0  0.00000000000E+00  0.00000000000E+00  0.10315827822E+04  0.10315934890E+04  0.47000000000E+01 0. -1.
         -5   -1    0    0    0  501 -0.00000000000E+00 -0.00000000000E+00 -0.36061999829E+02  0.36366988213E+02  0.47000000000E+01 0.  1.
          6    1    1    2  502    0  0.33199038014E+02 -0.55959641385E+02  0.33313654952E+03  0.38052282220E+03  0.17200000000E+03 0.  1.
         -6    1    1    2    0  502 -0.33199038014E+02  0.55959641385E+02  0.66238423284E+03  0.68743765500E+03  0.17200000000E+03 0.  1.
</event>
<event>
 4    1 -0.3291270E-004  0.1939729E+03  0.7818608E-02  0.1154926E+00
         -5   -1    0    0    0  501 -0.00000000000E+00  0.00000000000E+00  0.11344993353E+03  0.11354724752E+03  0.47000000000E+01 0.  1.
          5   -1    0    0  501    0  0.00000000000E+00 -0.00000000000E+00 -0.43311692882E+03  0.43314242926E+03  0.47000000000E+01 0. -1.
          6    1    1    2  502    0  0.58987088464E+02  0.67542673301E+02 -0.29228532271E+03  0.35079367040E+03  0.17200000000E+03 0. -1.
         -6    1    1    2    0  502 -0.58987088464E+02 -0.67542673301E+02 -0.27381672572E+02  0.19589600638E+03  0.17200000000E+03 0.  1.
</event>
<event>
 4    1 -0.3291270E-004  0.2443700E+03  0.7818608E-02  0.1116915E+00
         -5   -1    0    0    0  501 -0.00000000000E+00  0.00000000000E+00  0.23972698144E+03  0.23977305026E+03  0.47000000000E+01 0.  1.
          5   -1    0    0  501    0  0.00000000000E+00 -0.00000000000E+00 -0.41909384738E+03  0.41912020103E+03  0.47000000000E+01 0. -1.
          6    1    1    2  502    0  0.17133948142E+03  0.27847204972E+02 -0.29953772657E+03  0.38657409944E+03  0.17200000000E+03 0. -1.
         -6    1    1    2    0  502 -0.17133948142E+03 -0.27847204972E+02  0.12017086064E+03  0.27231915185E+03  0.17200000000E+03 0.  1.
</event>
<event>
 4    1 -0.3291270E-004  0.1729176E+03  0.7818608E-02  0.1174839E+00
         -5   -1    0    0    0  501 -0.00000000000E+00  0.00000000000E+00  0.97998566201E+02  0.98111207196E+02  0.47000000000E+01 0.  1.
          5   -1    0    0  501    0  0.00000000000E+00 -0.00000000000E+00 -0.55045259214E+03  0.55047265708E+03  0.47000000000E+01 0. -1.
          6    1    1    2  502    0  0.29752618846E+01  0.17539335180E+02 -0.44283604106E+03  0.47539903210E+03  0.17200000000E+03 0. -1.
         -6    1    1    2    0  502 -0.29752618846E+01 -0.17539335180E+02 -0.96179848769E+01  0.17318483217E+03  0.17200000000E+03 0.  1.
</event>
<event>
 4    1 -0.3291270E-004  0.1887777E+03  0.7818608E-02  0.1159568E+00
          5   -1    0    0  501    0  0.00000000000E+00  0.00000000000E+00  0.38052062561E+03  0.38054965053E+03  0.47000000000E+01 0. -1.
         -5   -1    0    0    0  501 -0.00000000000E+00 -0.00000000000E+00 -0.13222657486E+03  0.13231007935E+03  0.47000000000E+01 0.  1.
          6    1    1    2  502    0  0.10305397333E+01 -0.77794373682E+02  0.26274415021E+03  0.32352977461E+03  0.17200000000E+03 0. -1.
         -6    1    1    2    0  502 -0.10305397333E+01  0.77794373682E+02 -0.14450099453E+02  0.18932995527E+03  0.17200000000E+03 0.  1.
</event>
<event>
 4    1 -0.3291270E-004  0.2141293E+03  0.7818608E-02  0.1138337E+00
          5   -1    0    0  501    0  0.00000000000E+00  0.00000000000E+00  0.93779810224E+03  0.93780987975E+03  0.47000000000E+01 0. -1.
         -5   -1    0    0    0  501 -0.00000000000E+00 -0.00000000000E+00 -0.71401431924E+02  0.71555953496E+02  0.47000000000E+01 0.  1.
          6    1    1    2  502    0 -0.12434961143E+03 -0.28364031089E+02  0.71694559763E+03  0.74823948979E+03  0.17200000000E+03 0. -1.
         -6    1    1    2    0  502  0.12434961143E+03  0.28364031089E+02  0.14945107269E+03  0.26112634346E+03  0.17200000000E+03 0.  1.
</event>
<event>
 4    1 -0.3291270E-004  0.2283280E+03  0.7818608E-02  0.1127822E+00
          5   -1    0    0  501    0  0.00000000000E+00  0.00000000000E+00  0.20754516897E+03  0.20759837948E+03  0.47000000000E+01 0. -1.
         -5   -1    0    0    0  501 -0.00000000000E+00 -0.00000000000E+00 -0.33369066707E+03  0.33372376494E+03  0.47000000000E+01 0.  1.
          6    1    1    2  502    0 -0.86858792249E+02  0.12249583726E+03  0.71575316962E+02  0.23928373521E+03  0.17200000000E+03 0. -1.
         -6    1    1    2    0  502  0.86858792249E+02 -0.12249583726E+03 -0.19772081506E+03  0.30203840922E+03  0.17200000000E+03 0.  1.
</event>
<event>
 4    1 -0.3291270E-004  0.2974770E+03  0.7818608E-02  0.1086509E+00
          5   -1    0    0  501    0  0.00000000000E+00  0.00000000000E+00  0.17718451023E+04  0.17718513359E+04  0.47000000000E+01 0. -1.
         -5   -1    0    0    0  501 -0.00000000000E+00 -0.00000000000E+00 -0.50059804502E+02  0.50279956511E+02  0.47000000000E+01 0.  1.
          6    1    1    2  502    0  0.24085033825E+03 -0.29994210606E+02  0.92290735501E+03  0.96966516078E+03  0.17200000000E+03 0. -1.
         -6    1    1    2    0  502 -0.24085033825E+03  0.29994210606E+02  0.79887794282E+03  0.85246613166E+03  0.17200000000E+03 0.  1.
</event>
<event>
 4    1 -0.3291270E-004  0.2916857E+03  0.7818608E-02  0.1089472E+00
          5   -1    0    0  501    0  0.00000000000E+00  0.00000000000E+00  0.21015333804E+03  0.21020588833E+03  0.47000000000E+01 0. -1.
         -5   -1    0    0    0  501 -0.00000000000E+00 -0.00000000000E+00 -0.42514350215E+03  0.42516948082E+03  0.47000000000E+01 0.  1.
          6    1    1    2  502    0 -0.18111277145E+03  0.15064754445E+03 -0.37893355297E+02  0.29413674542E+03  0.17200000000E+03 0. -1.
         -6    1    1    2    0  502  0.18111277145E+03 -0.15064754445E+03 -0.17709680882E+03  0.34123862373E+03  0.17200000000E+03 0. -1.
</event>
<event>
 4    1 -0.3291270E-004  0.1953388E+03  0.7818608E-02  0.1153732E+00
          5   -1    0    0  501    0  0.00000000000E+00  0.00000000000E+00  0.45899679120E+03  0.45902085391E+03  0.47000000000E+01 0. -1.
         -5   -1    0    0    0  501 -0.00000000000E+00 -0.00000000000E+00 -0.94958246769E+02  0.95074489899E+02  0.47000000000E+01 0.  1.
          6    1    1    2  502    0  0.78135804336E+02  0.49679532961E+02  0.28009685873E+03  0.34148427516E+03  0.17200000000E+03 0. -1.
         -6    1    1    2    0  502 -0.78135804336E+02 -0.49679532961E+02  0.83941685699E+02  0.21261106865E+03  0.17200000000E+03 0.  1.
</event>
<event>
 4    1 -0.3291270E-004  0.3311871E+03  0.7818608E-02  0.1070613E+00
          5   -1    0    0  501    0  0.00000000000E+00  0.00000000000E+00  0.11629699603E+03  0.11639192964E+03  0.47000000000E+01 0. -1.
         -5   -1    0    0    0  501 -0.00000000000E+00 -0.00000000000E+00 -0.12698183639E+04  0.12698270620E+04  0.47000000000E+01 0.  1.
          6    1    1    2  502    0  0.14837353676E+03  0.24101072441E+03 -0.22496315871E+03  0.40036645522E+03  0.17200000000E+03 0. -1.
         -6    1    1    2    0  502 -0.14837353676E+03 -0.24101072441E+03 -0.92855820921E+03  0.98585253643E+03  0.17200000000E+03 0.  1.
</event>
<event>
 4    1 -0.3291270E-004  0.1977948E+03  0.7818608E-02  0.1151613E+00
         -5   -1    0    0    0  501 -0.00000000000E+00  0.00000000000E+00  0.15503086082E+04  0.15503157326E+04  0.47000000000E+01 0.  1.
          5   -1    0    0  501    0  0.00000000000E+00 -0.00000000000E+00 -0.32312449049E+02  0.32652478673E+02  0.47000000000E+01 0. -1.
          6    1    1    2  502    0  0.78035833862E+02 -0.58729666243E+02  0.38500447193E+03  0.43284085813E+03  0.17200000000E+03 0. -1.
         -6    1    1    2    0  502 -0.78035833862E+02  0.58729666243E+02  0.11329916872E+04  0.11501273531E+04  0.17200000000E+03 0.  1.
</event>
<event>
 4    1 -0.3291270E-004  0.1725291E+03  0.7818608E-02  0.1175236E+00
         -5   -1    0    0    0  501 -0.00000000000E+00  0.00000000000E+00  0.18786369065E+03  0.18792247408E+03  0.47000000000E+01 0.  1.
          5   -1    0    0  501    0  0.00000000000E+00 -0.00000000000E+00 -0.16064330913E+03  0.16071204923E+03  0.47000000000E+01 0. -1.
          6    1    1    2  502    0  0.26058958718E+01  0.13247536965E+02  0.34530286941E+02  0.17595064264E+03  0.17200000000E+03 0.  1.
         -6    1    1    2    0  502 -0.26058958718E+01 -0.13247536965E+02 -0.73099054211E+01  0.17268388068E+03  0.17200000000E+03 0. -1.
</event>
<event>
 4    1 -0.3291270E-004  0.2104378E+03  0.7818608E-02  0.1141220E+00
          5   -1    0    0  501    0  0.00000000000E+00  0.00000000000E+00  0.31390270424E+03  0.31393788834E+03  0.47000000000E+01 0. -1.
         -5   -1    0    0    0  501 -0.00000000000E+00 -0.00000000000E+00 -0.14517046859E+03  0.14524653163E+03  0.47000000000E+01 0.  1.
          6    1    1    2  502    0 -0.80057733411E+02  0.91054013443E+02  0.12329555591E+03  0.24389724916E+03  0.17200000000E+03 0. -1.
         -6    1    1    2    0  502  0.80057733411E+02 -0.91054013443E+02  0.45436679752E+02  0.21528717080E+03  0.17200000000E+03 0.  1.
</event>
<event>
 4    1 -0.3291270E-004  0.2359156E+03  0.7818608E-02  0.1122544E+00
         -5   -1    0    0    0  501 -0.00000000000E+00  0.00000000000E+00  0.43758007446E+03  0.43760531483E+03  0.47000000000E+01 0.  1.
          5   -1    0    0  501    0  0.00000000000E+00 -0.00000000000E+00 -0.15300826818E+03  0.15308043680E+03  0.47000000000E+01 0. -1.
          6    1    1    2  502    0 -0.11871631600E+03  0.10944672306E+03  0.20839394029E+02  0.23683418085E+03  0.17200000000E+03 0. -1.
         -6    1    1    2    0  502  0.11871631600E+03 -0.10944672306E+03  0.26373241225E+03  0.35385157078E+03  0.17200000000E+03 0.  1.
</event>
<event>
 4    1 -0.3291270E-004  0.2407665E+03  0.7818608E-02  0.1119283E+00
          5   -1    0    0  501    0  0.00000000000E+00  0.00000000000E+00  0.23288234495E+03  0.23292976751E+03  0.47000000000E+01 0. -1.
         -5   -1    0    0    0  501 -0.00000000000E+00 -0.00000000000E+00 -0.68869718747E+03  0.68871322481E+03  0.47000000000E+01 0.  1.
          6    1    1    2  502    0 -0.73816176840E+02  0.15144533112E+03  0.14035593653E+03  0.27869033926E+03  0.17200000000E+03 0. -1.
         -6    1    1    2    0  502  0.73816176840E+02 -0.15144533112E+03 -0.59617077905E+03  0.64295265305E+03  0.17200000000E+03 0.  1.
</event>
<event>
 4    1 -0.3291270E-004  0.2972573E+03  0.7818608E-02  0.1086620E+00
         -5   -1    0    0    0  501 -0.00000000000E+00  0.00000000000E+00  0.20858855960E+03  0.20864150401E+03  0.47000000000E+01 0.  1.
          5   -1    0    0  501    0  0.00000000000E+00 -0.00000000000E+00 -0.13637547872E+04  0.13637628861E+04  0.47000000000E+01 0. -1.
          6    1    1    2  502    0  0.23528895563E+03  0.58454972379E+02 -0.12303800785E+04  0.12657792121E+04  0.17200000000E+03 0. -1.
         -6    1    1    2    0  502 -0.23528895563E+03 -0.58454972379E+02  0.75213850845E+02  0.30662517802E+03  0.17200000000E+03 0.  1.
</event>
<event>
 4    1 -0.3291270E-004  0.1954681E+03  0.7818608E-02  0.1153620E+00
          5   -1    0    0  501    0  0.00000000000E+00  0.00000000000E+00  0.22744214199E+03  0.22749069860E+03  0.47000000000E+01 0. -1.
         -5   -1    0    0    0  501 -0.00000000000E+00 -0.00000000000E+00 -0.38342457798E+03  0.38345338309E+03  0.47000000000E+01 0.  1.
          6    1    1    2  502    0 -0.90418635766E+02 -0.21172254865E+02  0.15100905408E+03  0.24700511834E+03  0.17200000000E+03 0. -1.
         -6    1    1    2    0  502  0.90418635766E+02  0.21172254865E+02 -0.30699149007E+03  0.36393896335E+03  0.17200000000E+03 0.  1.
</event>
<event>
 4    1 -0.3291270E-004  0.2007000E+03  0.7818608E-02  0.1149150E+00
         -5   -1    0    0    0  501 -0.00000000000E+00  0.00000000000E+00  0.19517637397E+03  0.19523295561E+03  0.47000000000E+01 0.  1.
          5   -1    0    0  501    0  0.00000000000E+00 -0.00000000000E+00 -0.20636236839E+03  0.20641588381E+03  0.47000000000E+01 0. -1.
          6    1    1    2  502    0  0.11653899840E+02 -0.10276514279E+03 -0.99164769043E+01  0.20094482942E+03  0.17200000000E+03 0. -1.
         -6    1    1    2    0  502 -0.11653899840E+02  0.10276514279E+03 -0.12695175166E+01  0.20070401000E+03  0.17200000000E+03 0.  1.
</event>
<event>
 4    1 -0.3291270E-004  0.2205784E+03  0.7818608E-02  0.1133453E+00
          5   -1    0    0  501    0  0.00000000000E+00  0.00000000000E+00  0.44950487821E+03  0.44952944902E+03  0.47000000000E+01 0. -1.
         -5   -1    0    0    0  501 -0.00000000000E+00 -0.00000000000E+00 -0.10949440841E+03  0.10959523472E+03  0.47000000000E+01 0.  1.
          6    1    1    2  502    0  0.21980020197E+02  0.13633671351E+03  0.20082248156E+03  0.29830268158E+03  0.17200000000E+03 0. -1.
         -6    1    1    2    0  502 -0.21980020197E+02 -0.13633671351E+03  0.13918798825E+03  0.26082200216E+03  0.17200000000E+03 0.  1.
</event>
<event>
 4    1 -0.3291270E-004  0.1830417E+03  0.7818608E-02  0.1164891E+00
          5   -1    0    0  501    0  0.00000000000E+00  0.00000000000E+00  0.16913005226E+03  0.16919534443E+03  0.47000000000E+01 0. -1.
         -5   -1    0    0    0  501 -0.00000000000E+00 -0.00000000000E+00 -0.24153449391E+03  0.24158021804E+03  0.47000000000E+01 0.  1.
          6    1    1    2  502    0 -0.18500469602E+02  0.59816483914E+02 -0.12341205078E+03  0.22075962811E+03  0.17200000000E+03 0.  1.
         -6    1    1    2    0  502  0.18500469602E+02 -0.59816483914E+02  0.51007609135E+02  0.19001593437E+03  0.17200000000E+03 0. -1.
</event>
<event>
 4    1 -0.3291270E-004  0.1980642E+03  0.7818608E-02  0.1151383E+00
         -5   -1    0    0    0  501 -0.00000000000E+00  0.00000000000E+00  0.11188241062E+04  0.11188339781E+04  0.47000000000E+01 0.  1.
          5   -1    0    0  501    0  0.00000000000E+00 -0.00000000000E+00 -0.35203526536E+02  0.35515887721E+02  0.47000000000E+01 0. -1.
          6    1    1    2  502    0 -0.20136976412E+02  0.96124606811E+02  0.48806934559E+03  0.52672680201E+03  0.17200000000E+03 0. -1.
         -6    1    1    2    0  502  0.20136976412E+02 -0.96124606811E+02  0.59555123408E+03  0.62762306385E+03  0.17200000000E+03 0.  1.
</event>
<event>
 4    1 -0.3291270E-004  0.1889236E+03  0.7818608E-02  0.1159436E+00
          5   -1    0    0  501    0  0.00000000000E+00  0.00000000000E+00  0.13794780548E+03  0.13802784878E+03  0.47000000000E+01 0. -1.
         -5   -1    0    0    0  501 -0.00000000000E+00 -0.00000000000E+00 -0.28033008295E+03  0.28036948016E+03  0.47000000000E+01 0.  1.
          6    1    1    2  502    0  0.19835639683E+02 -0.75595449465E+02 -0.12905661082E+02  0.18936388428E+03  0.17200000000E+03 0. -1.
         -6    1    1    2    0  502 -0.19835639683E+02  0.75595449465E+02 -0.12947661638E+03  0.22903344466E+03  0.17200000000E+03 0.  1.
</event>
<event>
 4    1 -0.3291270E-004  0.1784744E+03  0.7818608E-02  0.1169288E+00
          5   -1    0    0  501    0  0.00000000000E+00  0.00000000000E+00  0.19065088307E+02  0.19635875130E+02  0.47000000000E+01 0. -1.
         -5   -1    0    0    0  501 -0.00000000000E+00 -0.00000000000E+00 -0.16463019624E+04  0.16463086713E+04  0.47000000000E+01 0.  1.
          6    1    1    2  502    0  0.30823185692E+02  0.36318569218E+02 -0.83153265018E+03  0.85047025554E+03  0.17200000000E+03 0. -1.
         -6    1    1    2    0  502 -0.30823185692E+02 -0.36318569218E+02 -0.79570422388E+03  0.81547429091E+03  0.17200000000E+03 0.  1.
</event>
<event>
 4    1 -0.3291270E-004  0.1853324E+03  0.7818608E-02  0.1162740E+00
         -5   -1    0    0    0  501 -0.00000000000E+00  0.00000000000E+00  0.78019444825E+02  0.78160883892E+02  0.47000000000E+01 0.  1.
          5   -1    0    0  501    0  0.00000000000E+00 -0.00000000000E+00 -0.49044055371E+03  0.49046307376E+03  0.47000000000E+01 0. -1.
          6    1    1    2  502    0 -0.61703398366E+02 -0.30931887300E+02 -0.11477474431E+03  0.21799388283E+03  0.17200000000E+03 0.  1.
         -6    1    1    2    0  502  0.61703398366E+02  0.30931887300E+02 -0.29764636458E+03  0.35063007482E+03  0.17200000000E+03 0. -1.
</event>
<event>
 4    1 -0.3291270E-004  0.2437686E+03  0.7818608E-02  0.1117307E+00
          5   -1    0    0  501    0  0.00000000000E+00  0.00000000000E+00  0.53351773440E+03  0.53353843622E+03  0.47000000000E+01 0. -1.
         -5   -1    0    0    0  501 -0.00000000000E+00 -0.00000000000E+00 -0.17527299265E+03  0.17533599731E+03  0.47000000000E+01 0.  1.
          6    1    1    2  502    0  0.11973905767E+03 -0.12450568953E+03  0.39317919031E+03  0.46261537409E+03  0.17200000000E+03 0. -1.
         -6    1    1    2    0  502 -0.11973905767E+03  0.12450568953E+03 -0.34934448559E+02  0.24625905943E+03  0.17200000000E+03 0.  1.
</event>
<event>
 4    1 -0.3291270E-004  0.3941931E+03  0.7818608E-02  0.1045809E+00
         -5   -1    0    0    0  501 -0.00000000000E+00  0.00000000000E+00  0.36389004793E+03  0.36392039924E+03  0.47000000000E+01 0.  1.
          5   -1    0    0  501    0  0.00000000000E+00 -0.00000000000E+00 -0.52980732300E+03  0.52982816979E+03  0.47000000000E+01 0. -1.
          6    1    1    2  502    0 -0.70676385031E+02  0.34757593213E+03 -0.27983974244E+03  0.48342368730E+03  0.17200000000E+03 0. -1.
         -6    1    1    2    0  502  0.70676385031E+02 -0.34757593213E+03  0.11392246737E+03  0.41032488173E+03  0.17200000000E+03 0.  1.
</event>
<event>
 4    1 -0.3291270E-004  0.1974457E+03  0.7818608E-02  0.1151912E+00
          5   -1    0    0  501    0  0.00000000000E+00  0.00000000000E+00  0.34805211532E+03  0.34808384763E+03  0.47000000000E+01 0. -1.
         -5   -1    0    0    0  501 -0.00000000000E+00 -0.00000000000E+00 -0.12892900162E+03  0.12901464048E+03  0.47000000000E+01 0.  1.
          6    1    1    2  502    0 -0.92455921214E+02 -0.29201002944E+02  0.19615872723E+03  0.27832183207E+03  0.17200000000E+03 0. -1.
         -6    1    1    2    0  502  0.92455921214E+02  0.29201002944E+02  0.22964386470E+02  0.19877665604E+03  0.17200000000E+03 0.  1.
</event>
<event>
 4    1 -0.3291270E-004  0.3081530E+03  0.7818608E-02  0.1081235E+00
          5   -1    0    0  501    0  0.00000000000E+00  0.00000000000E+00  0.11588742095E+04  0.11588837403E+04  0.47000000000E+01 0. -1.
         -5   -1    0    0    0  501 -0.00000000000E+00 -0.00000000000E+00 -0.96523630074E+02  0.96637990266E+02  0.47000000000E+01 0.  1.
          6    1    1    2  502    0  0.22177595253E+03 -0.12723884046E+03  0.77566153096E+03  0.83463111987E+03  0.17200000000E+03 0. -1.
         -6    1    1    2    0  502 -0.22177595253E+03  0.12723884046E+03  0.28668904849E+03  0.42089061069E+03  0.17200000000E+03 0.  1.
</event>
<event>
 4    1 -0.3291270E-004  0.3922290E+03  0.7818608E-02  0.1046504E+00
         -5   -1    0    0    0  501 -0.00000000000E+00  0.00000000000E+00  0.34749414395E+03  0.34752592720E+03  0.47000000000E+01 0.  1.
          5   -1    0    0  501    0  0.00000000000E+00 -0.00000000000E+00 -0.44937409295E+03  0.44939867091E+03  0.47000000000E+01 0. -1.
          6    1    1    2  502    0 -0.73369801474E+01 -0.35242837212E+03 -0.22315673302E+01  0.39223534854E+03  0.17200000000E+03 0. -1.
         -6    1    1    2    0  502  0.73369801474E+01  0.35242837212E+03 -0.99648381668E+02  0.40468924957E+03  0.17200000000E+03 0.  1.
</event>
<event>
 4    1 -0.3291270E-004  0.1934093E+03  0.7818608E-02  0.1155422E+00
          5   -1    0    0  501    0  0.00000000000E+00  0.00000000000E+00  0.11176746288E+04  0.11176845109E+04  0.47000000000E+01 0. -1.
         -5   -1    0    0    0  501 -0.00000000000E+00 -0.00000000000E+00 -0.33645913306E+02  0.33972598990E+02  0.47000000000E+01 0.  1.
          6    1    1    2  502    0 -0.63784338549E+02 -0.61275641488E+02  0.60064080410E+03  0.63101229911E+03  0.17200000000E+03 0.  1.
         -6    1    1    2    0  502  0.63784338549E+02  0.61275641488E+02  0.48338791137E+03  0.52064481073E+03  0.17200000000E+03 0.  1.
</event>
<event>
 4    1 -0.3291270E-004  0.2749125E+03  0.7818608E-02  0.1098501E+00
         -5   -1    0    0    0  501 -0.00000000000E+00  0.00000000000E+00  0.36388037214E+03  0.36391072426E+03  0.47000000000E+01 0.  1.
          5   -1    0    0  501    0  0.00000000000E+00 -0.00000000000E+00 -0.47031477189E+03  0.47033825557E+03  0.47000000000E+01 0. -1.
          6    1    1    2  502    0  0.43561327529E+02  0.20998875708E+03 -0.36493094410E+03  0.45689327125E+03  0.17200000000E+03 0. -1.
         -6    1    1    2    0  502 -0.43561327529E+02 -0.20998875708E+03  0.25849654435E+03  0.37735570858E+03  0.17200000000E+03 0.  1.
</event>
<event>
 4    1 -0.3291270E-004  0.2376305E+03  0.7818608E-02  0.1121381E+00
         -5   -1    0    0    0  501 -0.00000000000E+00  0.00000000000E+00  0.46341346113E+02  0.46579076414E+02  0.47000000000E+01 0.  1.
          5   -1    0    0  501    0  0.00000000000E+00 -0.00000000000E+00 -0.12897072225E+04  0.12897157864E+04  0.47000000000E+01 0. -1.
          6    1    1    2  502    0  0.33207113370E+01  0.16393055497E+03 -0.78229399545E+03  0.81758923017E+03  0.17200000000E+03 0.  1.
         -6    1    1    2    0  502 -0.33207113370E+01 -0.16393055497E+03 -0.46107188095E+03  0.51870563268E+03  0.17200000000E+03 0.  1.
</event>
<event>
 4    1 -0.3291270E-004  0.2592656E+03  0.7818608E-02  0.1107585E+00
          5   -1    0    0  501    0  0.00000000000E+00  0.00000000000E+00  0.73358026756E+03  0.73359532370E+03  0.47000000000E+01 0. -1.
         -5   -1    0    0    0  501 -0.00000000000E+00 -0.00000000000E+00 -0.92175731197E+02  0.92295478880E+02  0.47000000000E+01 0.  1.
          6    1    1    2  502    0  0.70780058927E+01  0.19386739985E+03  0.35457320436E+03  0.43925029783E+03  0.17200000000E+03 0. -1.
         -6    1    1    2    0  502 -0.70780058927E+01 -0.19386739985E+03  0.28683133200E+03  0.38664050474E+03  0.17200000000E+03 0.  1.
</event>
<event>
 4    1 -0.3291270E-004  0.1846611E+03  0.7818608E-02  0.1163367E+00
          5   -1    0    0  501    0  0.00000000000E+00  0.00000000000E+00  0.87250811359E+03  0.87252077241E+03  0.47000000000E+01 0. -1.
         -5   -1    0    0    0  501 -0.00000000000E+00 -0.00000000000E+00 -0.38928150256E+02  0.39210851589E+02  0.47000000000E+01 0.  1.
          6    1    1    2  502    0  0.51290411494E+02  0.43416746414E+02  0.41636561705E+03  0.45547782299E+03  0.17200000000E+03 0. -1.
         -6    1    1    2    0  502 -0.51290411494E+02 -0.43416746414E+02  0.41721434629E+03  0.45625380101E+03  0.17200000000E+03 0. -1.
</event>
<event>
 4    1 -0.3291270E-004  0.1818962E+03  0.7818608E-02  0.1165980E+00
         -5   -1    0    0    0  501 -0.00000000000E+00  0.00000000000E+00  0.12295094810E+04  0.12295184642E+04  0.47000000000E+01 0.  1.
          5   -1    0    0  501    0  0.00000000000E+00 -0.00000000000E+00 -0.26953996708E+02  0.27360700623E+02  0.47000000000E+01 0. -1.
          6    1    1    2  502    0 -0.28703810739E-01 -0.59179506882E+02  0.54023216470E+03  0.57003246104E+03  0.17200000000E+03 0. -1.
         -6    1    1    2    0  502  0.28703810739E-01  0.59179506882E+02  0.66232331954E+03  0.68684670376E+03  0.17200000000E+03 0.  1.
</event>
<event>
 4    1 -0.3291270E-004  0.2687475E+03  0.7818608E-02  0.1101999E+00
         -5   -1    0    0    0  501 -0.00000000000E+00  0.00000000000E+00  0.57137111348E+03  0.57139044384E+03  0.47000000000E+01 0.  1.
          5   -1    0    0  501    0  0.00000000000E+00 -0.00000000000E+00 -0.12875667409E+03  0.12884242750E+03  0.47000000000E+01 0. -1.
          6    1    1    2  502    0 -0.16197195728E+03  0.12808700534E+03  0.26923760085E+03  0.38041304078E+03  0.17200000000E+03 0. -1.
         -6    1    1    2    0  502  0.16197195728E+03 -0.12808700534E+03  0.17337683854E+03  0.31981983057E+03  0.17200000000E+03 0.  1.
</event>
<event>
 4    1 -0.3291270E-004  0.1750433E+03  0.7818608E-02  0.1172688E+00
          5   -1    0    0  501    0  0.00000000000E+00  0.00000000000E+00  0.24849470437E+04  0.24849514885E+04  0.47000000000E+01 0. -1.
         -5   -1    0    0    0  501 -0.00000000000E+00 -0.00000000000E+00 -0.32964674476E+02  0.33298044437E+02  0.47000000000E+01 0.  1.
          6    1    1    2  502    0  0.32001722076E+02 -0.56621818936E+01  0.22237122216E+04  0.22305910013E+04  0.17200000000E+03 0. -1.
         -6    1    1    2    0  502 -0.32001722076E+02  0.56621818936E+01  0.22827014769E+03  0.28765853167E+03  0.17200000000E+03 0.  1.
</event>
<event>
 4    1 -0.3291270E-004  0.1762844E+03  0.7818608E-02  0.1171448E+00
         -5   -1    0    0    0  501 -0.00000000000E+00  0.00000000000E+00  0.75157657517E+02  0.75304471869E+02  0.47000000000E+01 0.  1.
          5   -1    0    0  501    0  0.00000000000E+00 -0.00000000000E+00 -0.41671009078E+03  0.41673659517E+03  0.47000000000E+01 0. -1.
          6    1    1    2  502    0 -0.26637851360E+01 -0.38536726535E+02 -0.19424595408E+03  0.26231215321E+03  0.17200000000E+03 0. -1.
         -6    1    1    2    0  502  0.26637851360E+01  0.38536726535E+02 -0.14730647918E+03  0.22972891383E+03  0.17200000000E+03 0.  1.
</event>
<event>
 4    1 -0.3291270E-004  0.1740039E+03  0.7818608E-02  0.1173736E+00
          5   -1    0    0  501    0  0.00000000000E+00  0.00000000000E+00  0.51949664193E+02  0.52161840552E+02  0.47000000000E+01 0. -1.
         -5   -1    0    0    0  501 -0.00000000000E+00 -0.00000000000E+00 -0.58449574042E+03  0.58451463675E+03  0.47000000000E+01 0.  1.
          6    1    1    2  502    0  0.26331559324E+02 -0.14009841195E+00 -0.24315434826E+03  0.29900068181E+03  0.17200000000E+03 0. -1.
         -6    1    1    2    0  502 -0.26331559324E+02  0.14009841195E+00 -0.28939172797E+03  0.33767579549E+03  0.17200000000E+03 0.  1.
</event>
<event>
 4    1 -0.3291270E-004  0.1928710E+03  0.7818608E-02  0.1155897E+00
         -5   -1    0    0    0  501 -0.00000000000E+00  0.00000000000E+00  0.19096559751E+04  0.19096617588E+04  0.47000000000E+01 0.  1.
          5   -1    0    0  501    0  0.00000000000E+00 -0.00000000000E+00 -0.25015217295E+02  0.25452919210E+02  0.47000000000E+01 0. -1.
          6    1    1    2  502    0  0.23562607474E+02  0.84023882656E+02  0.48009089438E+03  0.51738426358E+03  0.17200000000E+03 0. -1.
         -6    1    1    2    0  502 -0.23562607474E+02 -0.84023882656E+02  0.14045498634E+04  0.14177304145E+04  0.17200000000E+03 0.  1.
</event>
<event>
 4    1 -0.3291270E-004  0.2441533E+03  0.7818608E-02  0.1117057E+00
         -5   -1    0    0    0  501 -0.00000000000E+00  0.00000000000E+00  0.82136655110E+02  0.82271016237E+02  0.47000000000E+01 0.  1.
          5   -1    0    0  501    0  0.00000000000E+00 -0.00000000000E+00 -0.79302872409E+03  0.79304265159E+03  0.47000000000E+01 0. -1.
          6    1    1    2  502    0  0.11014803727E+03 -0.13376930472E+03 -0.48360283173E+03  0.54174026605E+03  0.17200000000E+03 0. -1.
         -6    1    1    2    0  502 -0.11014803727E+03  0.13376930472E+03 -0.22728923726E+03  0.33357340178E+03  0.17200000000E+03 0.  1.
</event>
<event>
 4    1 -0.3291270E-004  0.1949889E+03  0.7818608E-02  0.1154037E+00
         -5   -1    0    0    0  501 -0.00000000000E+00  0.00000000000E+00  0.96915398357E+02  0.97029296807E+02  0.47000000000E+01 0.  1.
          5   -1    0    0  501    0  0.00000000000E+00 -0.00000000000E+00 -0.39905139580E+03  0.39907907298E+03  0.47000000000E+01 0. -1.
          6    1    1    2  502    0  0.90791445416E+02 -0.13913437045E+02 -0.11798204396E+03  0.22790443828E+03  0.17200000000E+03 0. -1.
         -6    1    1    2    0  502 -0.90791445416E+02  0.13913437045E+02 -0.18415395348E+03  0.26820393150E+03  0.17200000000E+03 0. -1.
</event>
<event>
 4    1 -0.3291270E-004  0.1745516E+03  0.7818608E-02  0.1173183E+00
          5   -1    0    0  501    0  0.00000000000E+00  0.00000000000E+00  0.48430752712E+02  0.48658275846E+02  0.47000000000E+01 0. -1.
         -5   -1    0    0    0  501 -0.00000000000E+00 -0.00000000000E+00 -0.62766945261E+03  0.62768704920E+03  0.47000000000E+01 0.  1.
          6    1    1    2  502    0 -0.27431718095E+02 -0.11478345255E+02 -0.29663806514E+03  0.34418366210E+03  0.17200000000E+03 0. -1.
         -6    1    1    2    0  502  0.27431718095E+02  0.11478345255E+02 -0.28260063475E+03  0.33216166295E+03  0.17200000000E+03 0.  1.
</event>
<event>
 4    1 -0.3291270E-004  0.2288902E+03  0.7818608E-02  0.1127423E+00
          5   -1    0    0  501    0  0.00000000000E+00  0.00000000000E+00  0.77272364249E+03  0.77273793596E+03  0.47000000000E+01 0. -1.
         -5   -1    0    0    0  501 -0.00000000000E+00 -0.00000000000E+00 -0.68785200583E+02  0.68945585930E+02  0.47000000000E+01 0.  1.
          6    1    1    2  502    0  0.10508730263E+02  0.15065295377E+03  0.40467118242E+03  0.46491882278E+03  0.17200000000E+03 0.  1.
         -6    1    1    2    0  502 -0.10508730263E+02 -0.15065295377E+03  0.29926725949E+03  0.37676469911E+03  0.17200000000E+03 0. -1.
</event>
<event>
 4    1 -0.3291270E-004  0.1734109E+03  0.7818608E-02  0.1174337E+00
          5   -1    0    0  501    0  0.00000000000E+00  0.00000000000E+00  0.18944415719E+03  0.18950245037E+03  0.47000000000E+01 0. -1.
         -5   -1    0    0    0  501 -0.00000000000E+00 -0.00000000000E+00 -0.18538436367E+03  0.18544393302E+03  0.47000000000E+01 0.  1.
          6    1    1    2  502    0 -0.12953499944E+02 -0.17875944912E+02  0.73243161745E+02  0.18824426501E+03  0.17200000000E+03 0. -1.
         -6    1    1    2    0  502  0.12953499944E+02  0.17875944912E+02 -0.69183368226E+02  0.18670211838E+03  0.17200000000E+03 0.  1.
</event>
<event>
 4    1 -0.3291270E-004  0.3075290E+03  0.7818608E-02  0.1081536E+00
         -5   -1    0    0    0  501 -0.00000000000E+00  0.00000000000E+00  0.98450853989E+03  0.98451975862E+03  0.47000000000E+01 0.  1.
          5   -1    0    0  501    0  0.00000000000E+00 -0.00000000000E+00 -0.18597629006E+03  0.18603566987E+03  0.47000000000E+01 0. -1.
          6    1    1    2  502    0 -0.23149989368E+03 -0.10676087447E+03 -0.77384953285E+01  0.30762634705E+03  0.17200000000E+03 0. -1.
         -6    1    1    2    0  502  0.23149989368E+03  0.10676087447E+03  0.80627074516E+03  0.86292908144E+03  0.17200000000E+03 0.  1.
</event>
<event>
 4    1 -0.3291270E-004  0.3815828E+03  0.7818608E-02  0.1050350E+00
          5   -1    0    0  501    0  0.00000000000E+00  0.00000000000E+00  0.50657164365E+03  0.50659344661E+03  0.47000000000E+01 0. -1.
         -5   -1    0    0    0  501 -0.00000000000E+00 -0.00000000000E+00 -0.49184087983E+03  0.49186333577E+03  0.47000000000E+01 0.  1.
          6    1    1    2  502    0 -0.33824179275E+03  0.40173686215E+02  0.32922226126E+03  0.50397691687E+03  0.17200000000E+03 0. -1.
         -6    1    1    2    0  502  0.33824179275E+03 -0.40173686215E+02 -0.31449149744E+03  0.49447986551E+03  0.17200000000E+03 0.  1.
</event>
<event>
 4    1 -0.3291270E-004  0.2251344E+03  0.7818608E-02  0.1130112E+00
         -5   -1    0    0    0  501 -0.00000000000E+00  0.00000000000E+00  0.18065714437E+03  0.18071827193E+03  0.47000000000E+01 0.  1.
          5   -1    0    0  501    0  0.00000000000E+00 -0.00000000000E+00 -0.28911952009E+03  0.28915771976E+03  0.47000000000E+01 0. -1.
          6    1    1    2  502    0  0.14434585753E+03  0.16302581614E+02 -0.94945625199E+02  0.24433618745E+03  0.17200000000E+03 0. -1.
         -6    1    1    2    0  502 -0.14434585753E+03 -0.16302581614E+02 -0.13516750525E+02  0.22553980424E+03  0.17200000000E+03 0.  1.
</event>
<event>
 4    1 -0.3291270E-004  0.1962431E+03  0.7818608E-02  0.1152948E+00
         -5   -1    0    0    0  501 -0.00000000000E+00  0.00000000000E+00  0.32481972251E+03  0.32485372421E+03  0.47000000000E+01 0.  1.
          5   -1    0    0  501    0  0.00000000000E+00 -0.00000000000E+00 -0.13499414749E+03  0.13507594108E+03  0.47000000000E+01 0. -1.
          6    1    1    2  502    0 -0.72292015948E+02  0.60837670024E+02  0.14505294908E+02  0.19677845727E+03  0.17200000000E+03 0. -1.
         -6    1    1    2    0  502  0.72292015948E+02 -0.60837670024E+02  0.17532028011E+03  0.26315120802E+03  0.17200000000E+03 0.  1.
</event>
<event>
 4    1 -0.3291270E-004  0.2409137E+03  0.7818608E-02  0.1119186E+00
         -5   -1    0    0    0  501 -0.00000000000E+00  0.00000000000E+00  0.19381311319E+04  0.19381368307E+04  0.47000000000E+01 0.  1.
          5   -1    0    0  501    0  0.00000000000E+00 -0.00000000000E+00 -0.32820388333E+02  0.33155209098E+02  0.47000000000E+01 0. -1.
          6    1    1    2  502    0 -0.15487994082E+03  0.66840280661E+02  0.65310054572E+03  0.69611762081E+03  0.17200000000E+03 0. -1.
         -6    1    1    2    0  502  0.15487994082E+03 -0.66840280661E+02  0.12522101978E+04  0.12751744189E+04  0.17200000000E+03 0.  1.
</event>
<event>
 4    1 -0.3291270E-004  0.1938057E+03  0.7818608E-02  0.1155073E+00
         -5   -1    0    0    0  501 -0.00000000000E+00  0.00000000000E+00  0.68458430947E+03  0.68460044316E+03  0.47000000000E+01 0.  1.
          5   -1    0    0  501    0  0.00000000000E+00 -0.00000000000E+00 -0.11315315178E+03  0.11325072079E+03  0.47000000000E+01 0. -1.
          6    1    1    2  502    0  0.74709181945E+02 -0.48940468045E+02 -0.67802310713E+00  0.19380683939E+03  0.17200000000E+03 0. -1.
         -6    1    1    2    0  502 -0.74709181945E+02  0.48940468045E+02  0.57210918079E+03  0.60404432456E+03  0.17200000000E+03 0.  1.
</event>
<event>
 4    1 -0.3291270E-004  0.2044369E+03  0.7818608E-02  0.1146049E+00
          5   -1    0    0  501    0  0.00000000000E+00  0.00000000000E+00  0.35298430596E+03  0.35301559491E+03  0.47000000000E+01 0. -1.
         -5   -1    0    0    0  501 -0.00000000000E+00 -0.00000000000E+00 -0.19133675666E+03  0.19139447340E+03  0.47000000000E+01 0.  1.
          6    1    1    2  502    0  0.90504866190E+02 -0.63398169729E+02  0.24893128583E+03  0.32211992145E+03  0.17200000000E+03 0. -1.
         -6    1    1    2    0  502 -0.90504866190E+02  0.63398169729E+02 -0.87283736531E+02  0.22229014686E+03  0.17200000000E+03 0.  1.
</event>
<event>
 4    1 -0.3291270E-004  0.2214747E+03  0.7818608E-02  0.1132788E+00
          5   -1    0    0  501    0  0.00000000000E+00  0.00000000000E+00  0.53362861448E+02  0.53569440747E+02  0.47000000000E+01 0. -1.
         -5   -1    0    0    0  501 -0.00000000000E+00 -0.00000000000E+00 -0.10582696005E+04  0.10582800373E+04  0.47000000000E+01 0.  1.
          6    1    1    2  502    0 -0.11547717911E+03  0.78307524106E+02 -0.29951006723E+03  0.37250144644E+03  0.17200000000E+03 0.  1.
         -6    1    1    2    0  502  0.11547717911E+03 -0.78307524106E+02 -0.70539667185E+03  0.73934803164E+03  0.17200000000E+03 0.  1.
</event>
<event>
 4    1 -0.3291270E-004  0.2047823E+03  0.7818608E-02  0.1145766E+00
          5   -1    0    0  501    0  0.00000000000E+00  0.00000000000E+00  0.21179524071E+03  0.21184738371E+03  0.47000000000E+01 0. -1.
         -5   -1    0    0    0  501 -0.00000000000E+00 -0.00000000000E+00 -0.35630316100E+03  0.35633415853E+03  0.47000000000E+01 0.  1.
          6    1    1    2  502    0  0.10470261322E+03  0.37271465482E+02  0.11714379594E+03  0.23592047025E+03  0.17200000000E+03 0. -1.
         -6    1    1    2    0  502 -0.10470261322E+03 -0.37271465482E+02 -0.26165171623E+03  0.33226107199E+03  0.17200000000E+03 0.  1.
</event>
<event>
 4    1 -0.3291270E-004  0.1839271E+03  0.7818608E-02  0.1164056E+00
          5   -1    0    0  501    0  0.00000000000E+00  0.00000000000E+00  0.22678677507E+03  0.22683547198E+03  0.47000000000E+01 0. -1.
         -5   -1    0    0    0  501 -0.00000000000E+00 -0.00000000000E+00 -0.36977095369E+03  0.36980082233E+03  0.47000000000E+01 0.  1.
          6    1    1    2  502    0  0.15416563767E+01 -0.65136915472E+02  0.15894933120E+03  0.24309274846E+03  0.17200000000E+03 0. -1.
         -6    1    1    2    0  502 -0.15416563767E+01  0.65136915472E+02 -0.30193350982E+03  0.35354354586E+03  0.17200000000E+03 0.  1.
</event>
<event>
 4    1 -0.3291270E-004  0.1997974E+03  0.7818608E-02  0.1149910E+00
         -5   -1    0    0    0  501 -0.00000000000E+00  0.00000000000E+00  0.96407035905E+02  0.96521534239E+02  0.47000000000E+01 0.  1.
          5   -1    0    0  501    0  0.00000000000E+00 -0.00000000000E+00 -0.41555412354E+03  0.41558070165E+03  0.47000000000E+01 0. -1.
          6    1    1    2  502    0  0.77345762724E+02 -0.65974353477E+02 -0.14244316454E+03  0.24537529919E+03  0.17200000000E+03 0.  1.
         -6    1    1    2    0  502 -0.77345762724E+02  0.65974353477E+02 -0.17670392309E+03  0.26672693670E+03  0.17200000000E+03 0.  1.
</event>
<event>
 4    1 -0.3291270E-004  0.1824230E+03  0.7818608E-02  0.1165478E+00
         -5   -1    0    0    0  501 -0.00000000000E+00  0.00000000000E+00  0.64430323156E+03  0.64432037389E+03  0.47000000000E+01 0.  1.
          5   -1    0    0  501    0  0.00000000000E+00 -0.00000000000E+00 -0.58500769078E+02  0.58689266333E+02  0.47000000000E+01 0. -1.
          6    1    1    2  502    0  0.30933303475E+02  0.52319082084E+02  0.17174771293E+03  0.25055025945E+03  0.17200000000E+03 0. -1.
         -6    1    1    2    0  502 -0.30933303475E+02 -0.52319082084E+02  0.41405474956E+03  0.45245938077E+03  0.17200000000E+03 0. -1.
</event>
<event>
 4    1 -0.3291270E-004  0.2016013E+03  0.7818608E-02  0.1148395E+00
          5   -1    0    0  501    0  0.00000000000E+00  0.00000000000E+00  0.28417348606E+03  0.28421235051E+03  0.47000000000E+01 0. -1.
         -5   -1    0    0    0  501 -0.00000000000E+00 -0.00000000000E+00 -0.20333296187E+03  0.20338727439E+03  0.47000000000E+01 0.  1.
          6    1    1    2  502    0  0.56535137730E+02  0.88672862324E+02  0.17326041735E+03  0.26582375840E+03  0.17200000000E+03 0. -1.
         -6    1    1    2    0  502 -0.56535137730E+02 -0.88672862324E+02 -0.92419893157E+02  0.22177586650E+03  0.17200000000E+03 0.  1.
</event>
<event>
 4    1 -0.3291270E-004  0.2405094E+03  0.7818608E-02  0.1119454E+00
          5   -1    0    0  501    0  0.00000000000E+00  0.00000000000E+00  0.13485223120E+03  0.13493411081E+03  0.47000000000E+01 0. -1.
         -5   -1    0    0    0  501 -0.00000000000E+00 -0.00000000000E+00 -0.43435554072E+03  0.43438096845E+03  0.47000000000E+01 0.  1.
          6    1    1    2  502    0 -0.88514859843E+02  0.14291913293E+03 -0.18215945754E+03  0.30170652453E+03  0.17200000000E+03 0. -1.
         -6    1    1    2    0  502  0.88514859843E+02 -0.14291913293E+03 -0.11734385198E+03  0.26760855474E+03  0.17200000000E+03 0.  1.
</event>
<event>
 4    1 -0.3291270E-004  0.2372459E+03  0.7818608E-02  0.1121641E+00
         -5   -1    0    0    0  501 -0.00000000000E+00  0.00000000000E+00  0.16384901243E+03  0.16391640819E+03  0.47000000000E+01 0.  1.
          5   -1    0    0  501    0  0.00000000000E+00 -0.00000000000E+00 -0.34894848478E+03  0.34898013558E+03  0.47000000000E+01 0. -1.
          6    1    1    2  502    0 -0.15180531781E+03  0.60471238927E+02 -0.12497811251E+03  0.26815136371E+03  0.17200000000E+03 0. -1.
         -6    1    1    2    0  502  0.15180531781E+03 -0.60471238927E+02 -0.60121359843E+02  0.24474518006E+03  0.17200000000E+03 0. -1.
</event>
<event>
 4    1 -0.3291270E-004  0.2956409E+03  0.7818608E-02  0.1087440E+00
          5   -1    0    0  501    0  0.00000000000E+00  0.00000000000E+00  0.84609468132E+03  0.84610773532E+03  0.47000000000E+01 0. -1.
         -5   -1    0    0    0  501 -0.00000000000E+00 -0.00000000000E+00 -0.13021900696E+03  0.13030379800E+03  0.47000000000E+01 0.  1.
          6    1    1    2  502    0  0.33159087444E+02 -0.23815967395E+03  0.58008319851E+03  0.65107608816E+03  0.17200000000E+03 0. -1.
         -6    1    1    2    0  502 -0.33159087444E+02  0.23815967395E+03  0.13579247586E+03  0.32533544516E+03  0.17200000000E+03 0.  1.
</event>
<event>
 4    1 -0.3291270E-004  0.2747653E+03  0.7818608E-02  0.1098583E+00
         -5   -1    0    0    0  501 -0.00000000000E+00  0.00000000000E+00  0.74821489254E+02  0.74968961939E+02  0.47000000000E+01 0.  1.
          5   -1    0    0  501    0  0.00000000000E+00 -0.00000000000E+00 -0.13384134079E+04  0.13384216601E+04  0.47000000000E+01 0. -1.
          6    1    1    2  502    0 -0.85294238105E+02 -0.19656262410E+03 -0.98297372871E+03  0.10206533807E+04  0.17200000000E+03 0. -1.
         -6    1    1    2    0  502  0.85294238105E+02  0.19656262410E+03 -0.28061818990E+03  0.39273724136E+03  0.17200000000E+03 0.  1.
</event>
<event>
 4    1 -0.3291270E-004  0.2361784E+03  0.7818608E-02  0.1122365E+00
          5   -1    0    0  501    0  0.00000000000E+00  0.00000000000E+00  0.96363082713E+03  0.96364228892E+03  0.47000000000E+01 0. -1.
         -5   -1    0    0    0  501 -0.00000000000E+00 -0.00000000000E+00 -0.59517783894E+02  0.59703070270E+02  0.47000000000E+01 0.  1.
          6    1    1    2  502    0 -0.38283835035E+02  0.15725958542E+03  0.36472742651E+03  0.43451849774E+03  0.17200000000E+03 0.  1.
         -6    1    1    2    0  502  0.38283835035E+02 -0.15725958542E+03  0.53938561673E+03  0.58882686145E+03  0.17200000000E+03 0.  1.
</event>
<event>
 4    1 -0.3291270E-004  0.2482606E+03  0.7818608E-02  0.1114409E+00
         -5   -1    0    0    0  501 -0.00000000000E+00  0.00000000000E+00  0.80076027322E+02  0.80213840150E+02  0.47000000000E+01 0.  1.
          5   -1    0    0  501    0  0.00000000000E+00 -0.00000000000E+00 -0.82292665785E+03  0.82294007935E+03  0.47000000000E+01 0. -1.
          6    1    1    2  502    0 -0.16818030360E+03 -0.61357238988E+02 -0.48714366789E+03  0.54675614167E+03  0.17200000000E+03 0. -1.
         -6    1    1    2    0  502  0.16818030360E+03  0.61357238988E+02 -0.25570696264E+03  0.35639777783E+03  0.17200000000E+03 0.  1.
</event>
<event>
 4    1 -0.3291270E-004  0.2319417E+03  0.7818608E-02  0.1125281E+00
         -5   -1    0    0    0  501 -0.00000000000E+00  0.00000000000E+00  0.14145309175E+03  0.14153115263E+03  0.47000000000E+01 0.  1.
          5   -1    0    0  501    0  0.00000000000E+00 -0.00000000000E+00 -0.44616347695E+03  0.44618823177E+03  0.47000000000E+01 0. -1.
          6    1    1    2  502    0 -0.10815223828E+03 -0.11187508972E+03 -0.39307879929E+02  0.23524891449E+03  0.17200000000E+03 0.  1.
         -6    1    1    2    0  502  0.10815223828E+03  0.11187508972E+03 -0.26540250528E+03  0.35247046990E+03  0.17200000000E+03 0. -1.
</event>
<event>
 4    1 -0.3291270E-004  0.1949916E+03  0.7818608E-02  0.1154035E+00
          5   -1    0    0  501    0  0.00000000000E+00  0.00000000000E+00  0.20669277514E+03  0.20674620503E+03  0.47000000000E+01 0. -1.
         -5   -1    0    0    0  501 -0.00000000000E+00 -0.00000000000E+00 -0.21595755040E+03  0.21600868866E+03  0.47000000000E+01 0.  1.
          6    1    1    2  502    0  0.12705797748E+01  0.91848238802E+02  0.76856519169E+02  0.20959159783E+03  0.17200000000E+03 0. -1.
         -6    1    1    2    0  502 -0.12705797748E+01 -0.91848238802E+02 -0.86121294437E+02  0.21316329585E+03  0.17200000000E+03 0.  1.
</event>
<event>
 4    1 -0.3291270E-004  0.2915144E+03  0.7818608E-02  0.1089561E+00
         -5   -1    0    0    0  501 -0.00000000000E+00  0.00000000000E+00  0.80935548381E+02  0.81071900137E+02  0.47000000000E+01 0.  1.
          5   -1    0    0  501    0  0.00000000000E+00 -0.00000000000E+00 -0.11963496475E+04  0.11963588797E+04  0.47000000000E+01 0. -1.
          6    1    1    2  502    0 -0.18446947832E+03  0.14617688144E+03 -0.33352863100E+03  0.44296954387E+03  0.17200000000E+03 0. -1.
         -6    1    1    2    0  502  0.18446947832E+03 -0.14617688144E+03 -0.78188546807E+03  0.83446123594E+03  0.17200000000E+03 0.  1.
</event>
<event>
 4    1 -0.3291270E-004  0.2508625E+03  0.7818608E-02  0.1112761E+00
         -5   -1    0    0    0  501 -0.00000000000E+00  0.00000000000E+00  0.43767159731E+02  0.44018794519E+02  0.47000000000E+01 0.  1.
          5   -1    0    0  501    0  0.00000000000E+00 -0.00000000000E+00 -0.17579395995E+04  0.17579458824E+04  0.47000000000E+01 0. -1.
          6    1    1    2  502    0 -0.62975476422E+01 -0.18250577849E+03 -0.12441173647E+04  0.12691572146E+04  0.17200000000E+03 0. -1.
         -6    1    1    2    0  502  0.62975476422E+01  0.18250577849E+03 -0.47005507508E+03  0.53280746231E+03  0.17200000000E+03 0.  1.
</event>
<event>
 4    1 -0.3291270E-004  0.2983349E+03  0.7818608E-02  0.1086076E+00
         -5   -1    0    0    0  501 -0.00000000000E+00  0.00000000000E+00  0.15688563286E+04  0.15688633687E+04  0.47000000000E+01 0.  1.
          5   -1    0    0  501    0  0.00000000000E+00 -0.00000000000E+00 -0.94016015361E+02  0.94133422037E+02  0.47000000000E+01 0. -1.
          6    1    1    2  502    0 -0.24364203525E+03 -0.76350838033E+01  0.21351141391E+03  0.36686626952E+03  0.17200000000E+03 0. -1.
         -6    1    1    2    0  502  0.24364203525E+03  0.76350838033E+01  0.12613288993E+04  0.12961305212E+04  0.17200000000E+03 0.  1.
</event>
<event>
 4    1 -0.3291270E-004  0.2077758E+03  0.7818608E-02  0.1143339E+00
         -5   -1    0    0    0  501 -0.00000000000E+00  0.00000000000E+00  0.96448543034E+02  0.96562992152E+02  0.47000000000E+01 0.  1.
          5   -1    0    0  501    0  0.00000000000E+00 -0.00000000000E+00 -0.58648304525E+03  0.58650187755E+03  0.47000000000E+01 0. -1.
          6    1    1    2  502    0  0.10356874067E+03 -0.53481850121E+02 -0.41142897644E+03  0.46091712377E+03  0.17200000000E+03 0. -1.
         -6    1    1    2    0  502 -0.10356874067E+03  0.53481850121E+02 -0.78605525779E+02  0.22214774592E+03  0.17200000000E+03 0.  1.
</event>
<event>
 4    1 -0.3291270E-004  0.2176450E+03  0.7818608E-02  0.1135651E+00
          5   -1    0    0  501    0  0.00000000000E+00  0.00000000000E+00  0.13212204204E+03  0.13220561256E+03  0.47000000000E+01 0. -1.
         -5   -1    0    0    0  501 -0.00000000000E+00 -0.00000000000E+00 -0.49186437382E+03  0.49188682868E+03  0.47000000000E+01 0.  1.
          6    1    1    2  502    0 -0.12828085508E+03 -0.36460307973E+02 -0.17290493224E+02  0.21833069641E+03  0.17200000000E+03 0. -1.
         -6    1    1    2    0  502  0.12828085508E+03  0.36460307973E+02 -0.34245183856E+03  0.40576174483E+03  0.17200000000E+03 0.  1.
</event>
<event>
 4    1 -0.3291270E-004  0.2452918E+03  0.7818608E-02  0.1116317E+00
          5   -1    0    0  501    0  0.00000000000E+00  0.00000000000E+00  0.20404030046E+03  0.20409442474E+03  0.47000000000E+01 0. -1.
         -5   -1    0    0    0  501 -0.00000000000E+00 -0.00000000000E+00 -0.31263174416E+03  0.31266707127E+03  0.47000000000E+01 0.  1.
          6    1    1    2  502    0 -0.58893888511E+02  0.16466804814E+03 -0.11604440586E+03  0.27135651883E+03  0.17200000000E+03 0.  1.
         -6    1    1    2    0  502  0.58893888511E+02 -0.16466804814E+03  0.74529621543E+01  0.24540497718E+03  0.17200000000E+03 0. -1.
</event>
<event>
 4    1 -0.3291270E-004  0.5658733E+03  0.7818608E-02  0.9978852E-01
         -5   -1    0    0    0  501 -0.00000000000E+00  0.00000000000E+00  0.13248358068E+04  0.13248441437E+04  0.47000000000E+01 0.  1.
          5   -1    0    0  501    0  0.00000000000E+00 -0.00000000000E+00 -0.34219667223E+03  0.34222894747E+03  0.47000000000E+01 0. -1.
          6    1    1    2  502    0 -0.27023374827E+03  0.46647864190E+03  0.39565645920E+02  0.56725483021E+03  0.17200000000E+03 0. -1.
         -6    1    1    2    0  502  0.27023374827E+03 -0.46647864190E+03  0.94307348868E+03  0.10998182609E+04  0.17200000000E+03 0.  1.
</event>
<event>
 4    1 -0.3291270E-004  0.1762796E+03  0.7818608E-02  0.1171453E+00
          5   -1    0    0  501    0  0.00000000000E+00  0.00000000000E+00  0.70874952112E+02  0.71030619010E+02  0.47000000000E+01 0. -1.
         -5   -1    0    0    0  501 -0.00000000000E+00 -0.00000000000E+00 -0.48539975984E+03  0.48542251374E+03  0.47000000000E+01 0.  1.
          6    1    1    2  502    0 -0.28279330732E+02 -0.26282444054E+02 -0.12014431989E+03  0.21332872524E+03  0.17200000000E+03 0. -1.
         -6    1    1    2    0  502  0.28279330732E+02  0.26282444054E+02 -0.29438048783E+03  0.34312440751E+03  0.17200000000E+03 0.  1.
</event>
<event>
 4    1 -0.3291270E-004  0.1944015E+03  0.7818608E-02  0.1154550E+00
         -5   -1    0    0    0  501 -0.00000000000E+00  0.00000000000E+00  0.21912542582E+04  0.21912592987E+04  0.47000000000E+01 0.  1.
          5   -1    0    0  501    0  0.00000000000E+00 -0.00000000000E+00 -0.19342755558E+02  0.19905581945E+02  0.47000000000E+01 0. -1.
          6    1    1    2  502    0  0.90538001117E+02 -0.32875749488E+01  0.70078128569E+03  0.72724572750E+03  0.17200000000E+03 0. -1.
         -6    1    1    2    0  502 -0.90538001117E+02  0.32875749488E+01  0.14711302169E+04  0.14839191531E+04  0.17200000000E+03 0.  1.
</event>
<event>
 4    1 -0.3291270E-004  0.3130450E+03  0.7818608E-02  0.1078895E+00
         -5   -1    0    0    0  501 -0.00000000000E+00  0.00000000000E+00  0.13187806000E+04  0.13187889751E+04  0.47000000000E+01 0.  1.
          5   -1    0    0  501    0  0.00000000000E+00 -0.00000000000E+00 -0.11342972693E+03  0.11352705824E+03  0.47000000000E+01 0. -1.
          6    1    1    2  502    0  0.50041798898E+02  0.25672747763E+03  0.18189284218E+03  0.36205273848E+03  0.17200000000E+03 0. -1.
         -6    1    1    2    0  502 -0.50041798898E+02 -0.25672747763E+03  0.10234580308E+04  0.10702632949E+04  0.17200000000E+03 0.  1.
</event>
<event>
 4    1 -0.3291270E-004  0.2209413E+03  0.7818608E-02  0.1133183E+00
         -5   -1    0    0    0  501 -0.00000000000E+00  0.00000000000E+00  0.25069964635E+04  0.25070008692E+04  0.47000000000E+01 0.  1.
          5   -1    0    0  501    0  0.00000000000E+00 -0.00000000000E+00 -0.20556403663E+02  0.21086861586E+02  0.47000000000E+01 0. -1.
          6    1    1    2  502    0 -0.80792223036E+02 -0.11271065067E+03  0.92085247601E+03  0.94698698864E+03  0.17200000000E+03 0. -1.
         -6    1    1    2    0  502  0.80792223036E+02  0.11271065067E+03  0.15655875839E+04  0.15811007421E+04  0.17200000000E+03 0.  1.
</event>
<event>
 4    1 -0.3291270E-004  0.1795356E+03  0.7818608E-02  0.1168253E+00
          5   -1    0    0  501    0  0.00000000000E+00  0.00000000000E+00  0.18808545409E+03  0.18814416823E+03  0.47000000000E+01 0. -1.
         -5   -1    0    0    0  501 -0.00000000000E+00 -0.00000000000E+00 -0.23647170140E+03  0.23651840428E+03  0.47000000000E+01 0.  1.
          6    1    1    2  502    0 -0.35106573164E+02  0.37637137405E+02  0.87285943835E+02  0.19962931043E+03  0.17200000000E+03 0. -1.
         -6    1    1    2    0  502  0.35106573164E+02 -0.37637137405E+02 -0.13567219115E+03  0.22503326208E+03  0.17200000000E+03 0.  1.
</event>
<event>
 4    1 -0.3291270E-004  0.2280537E+03  0.7818608E-02  0.1128017E+00
         -5   -1    0    0    0  501 -0.00000000000E+00  0.00000000000E+00  0.70137294454E+03  0.70138869205E+03  0.47000000000E+01 0.  1.
          5   -1    0    0  501    0  0.00000000000E+00 -0.00000000000E+00 -0.82548950978E+02  0.82682642118E+02  0.47000000000E+01 0. -1.
          6    1    1    2  502    0 -0.14923784450E+03  0.12352182013E+02  0.18382371169E+03  0.29291580294E+03  0.17200000000E+03 0. -1.
         -6    1    1    2    0  502  0.14923784450E+03 -0.12352182013E+02  0.43500028187E+03  0.49115553123E+03  0.17200000000E+03 0.  1.
</event>
<event>
 4    1 -0.3291270E-004  0.2549292E+03  0.7818608E-02  0.1110229E+00
         -5   -1    0    0    0  501 -0.00000000000E+00  0.00000000000E+00  0.75437099576E+02  0.75583371137E+02  0.47000000000E+01 0.  1.
          5   -1    0    0  501    0  0.00000000000E+00 -0.00000000000E+00 -0.86207683967E+03  0.86208965166E+03  0.47000000000E+01 0. -1.
          6    1    1    2  502    0 -0.59683060298E+02 -0.17844559133E+03 -0.41330106273E+03  0.48559928460E+03  0.17200000000E+03 0.  1.
         -6    1    1    2    0  502  0.59683060298E+02  0.17844559133E+03 -0.37333867737E+03  0.45207373820E+03  0.17200000000E+03 0.  1.
</event>
<event>
 4    1 -0.3291270E-004  0.1874797E+03  0.7818608E-02  0.1160754E+00
         -5   -1    0    0    0  501 -0.00000000000E+00  0.00000000000E+00  0.33567305075E+03  0.33570595318E+03  0.47000000000E+01 0.  1.
          5   -1    0    0  501    0  0.00000000000E+00 -0.00000000000E+00 -0.10718330944E+03  0.10728630772E+03  0.47000000000E+01 0. -1.
          6    1    1    2  502    0 -0.19848611934E+02  0.71907440049E+02  0.14847523118E+03  0.23915171252E+03  0.17200000000E+03 0. -1.
         -6    1    1    2    0  502  0.19848611934E+02 -0.71907440049E+02  0.80014510132E+02  0.20384054838E+03  0.17200000000E+03 0. -1.
</event>
<event>
 4    1 -0.3291270E-004  0.1951899E+03  0.7818608E-02  0.1153862E+00
          5   -1    0    0  501    0  0.00000000000E+00  0.00000000000E+00  0.39488277415E+02  0.39766997036E+02  0.47000000000E+01 0. -1.
         -5   -1    0    0    0  501 -0.00000000000E+00 -0.00000000000E+00 -0.97625385861E+03  0.97626517220E+03  0.47000000000E+01 0.  1.
          6    1    1    2  502    0 -0.88490685776E+02 -0.26162759525E+02 -0.40518831994E+03  0.44975178273E+03  0.17200000000E+03 0. -1.
         -6    1    1    2    0  502  0.88490685776E+02  0.26162759525E+02 -0.53157726126E+03  0.56628038650E+03  0.17200000000E+03 0. -1.
</event>
<event>
 4    1 -0.3291270E-004  0.1873236E+03  0.7818608E-02  0.1160898E+00
         -5   -1    0    0    0  501 -0.00000000000E+00  0.00000000000E+00  0.25880293236E+03  0.25884560610E+03  0.47000000000E+01 0.  1.
          5   -1    0    0  501    0  0.00000000000E+00 -0.00000000000E+00 -0.13829329935E+03  0.13837314279E+03  0.47000000000E+01 0. -1.
          6    1    1    2  502    0 -0.38964354162E+02 -0.63149997516E+02  0.88510470064E+02  0.20718167485E+03  0.17200000000E+03 0. -1.
         -6    1    1    2    0  502  0.38964354162E+02  0.63149997516E+02  0.31999162939E+02  0.19003707404E+03  0.17200000000E+03 0. -1.
</event>
<event>
 4    1 -0.3291270E-004  0.2290891E+03  0.7818608E-02  0.1127283E+00
          5   -1    0    0  501    0  0.00000000000E+00  0.00000000000E+00  0.13679123199E+03  0.13687195165E+03  0.47000000000E+01 0. -1.
         -5   -1    0    0    0  501 -0.00000000000E+00 -0.00000000000E+00 -0.47450101057E+03  0.47452428708E+03  0.47000000000E+01 0.  1.
          6    1    1    2  502    0  0.12176324952E+03 -0.89841615150E+02 -0.30274708640E+03  0.37965458389E+03  0.17200000000E+03 0.  1.
         -6    1    1    2    0  502 -0.12176324952E+03  0.89841615150E+02 -0.34962692178E+02  0.23174165484E+03  0.17200000000E+03 0. -1.
</event>
<event>
 4    1 -0.3291270E-004  0.2383062E+03  0.7818608E-02  0.1120926E+00
          5   -1    0    0  501    0  0.00000000000E+00  0.00000000000E+00  0.19473216725E+04  0.19473273443E+04  0.47000000000E+01 0. -1.
         -5   -1    0    0    0  501 -0.00000000000E+00 -0.00000000000E+00 -0.29080083078E+02  0.29457447816E+02  0.47000000000E+01 0.  1.
          6    1    1    2  502    0  0.12340130707E+03 -0.10944398412E+03  0.10200965744E+04  0.10475623558E+04  0.17200000000E+03 0. -1.
         -6    1    1    2    0  502 -0.12340130707E+03  0.10944398412E+03  0.89814501499E+03  0.92922243634E+03  0.17200000000E+03 0.  1.
</event>
<event>
 4    1 -0.3291270E-004  0.3779854E+03  0.7818608E-02  0.1051681E+00
         -5   -1    0    0    0  501 -0.00000000000E+00  0.00000000000E+00  0.88136620464E+03  0.88137873624E+03  0.47000000000E+01 0.  1.
          5   -1    0    0  501    0  0.00000000000E+00 -0.00000000000E+00 -0.57524085794E+03  0.57526005827E+03  0.47000000000E+01 0. -1.
          6    1    1    2  502    0 -0.24949331664E+03  0.22592479336E+03 -0.46416857445E+03  0.59860286736E+03  0.17200000000E+03 0. -1.
         -6    1    1    2    0  502  0.24949331664E+03 -0.22592479336E+03  0.77029392116E+03  0.85803592715E+03  0.17200000000E+03 0.  1.
</event>
<event>
 4    1 -0.3291270E-004  0.1947630E+03  0.7818608E-02  0.1154234E+00
          5   -1    0    0  501    0  0.00000000000E+00  0.00000000000E+00  0.23279491234E+04  0.23279538679E+04  0.47000000000E+01 0. -1.
         -5   -1    0    0    0  501 -0.00000000000E+00 -0.00000000000E+00 -0.22782634175E+02  0.23262382078E+02  0.47000000000E+01 0.  1.
          6    1    1    2  502    0  0.74480091114E+02  0.52927609930E+02  0.17882660735E+04  0.17988407838E+04  0.17200000000E+03 0. -1.
         -6    1    1    2    0  502 -0.74480091114E+02 -0.52927609930E+02  0.51690041573E+03  0.55237546619E+03  0.17200000000E+03 0.  1.
</event>
<event>
 4    1 -0.3291270E-004  0.2146203E+03  0.7818608E-02  0.1137959E+00
         -5   -1    0    0    0  501 -0.00000000000E+00  0.00000000000E+00  0.21083380442E+03  0.21088618515E+03  0.47000000000E+01 0.  1.
          5   -1    0    0  501    0  0.00000000000E+00 -0.00000000000E+00 -0.35786907407E+03  0.35789993598E+03  0.47000000000E+01 0. -1.
          6    1    1    2  502    0  0.89930430877E+01 -0.12805070420E+03 -0.25105354468E+03  0.33028735968E+03  0.17200000000E+03 0. -1.
         -6    1    1    2    0  502 -0.89930430877E+01  0.12805070420E+03  0.10401827503E+03  0.23849876144E+03  0.17200000000E+03 0.  1.
</event>
<event>
 4    1 -0.3291270E-004  0.2622380E+03  0.7818608E-02  0.1105806E+00
          5   -1    0    0  501    0  0.00000000000E+00  0.00000000000E+00  0.99543220749E+02  0.99654115806E+02  0.47000000000E+01 0. -1.
         -5   -1    0    0    0  501 -0.00000000000E+00 -0.00000000000E+00 -0.71264409466E+03  0.71265959311E+03  0.47000000000E+01 0.  1.
          6    1    1    2  502    0  0.18142717973E+03 -0.79176722917E+02 -0.23470282936E+03  0.35192924446E+03  0.17200000000E+03 0. -1.
         -6    1    1    2    0  502 -0.18142717973E+03  0.79176722917E+02 -0.37839804455E+03  0.46038446446E+03  0.17200000000E+03 0.  1.
</event>
<event>
 4    1 -0.3291270E-004  0.1822137E+03  0.7818608E-02  0.1165678E+00
         -5   -1    0    0    0  501 -0.00000000000E+00  0.00000000000E+00  0.89713938906E+03  0.89715170033E+03  0.47000000000E+01 0.  1.
          5   -1    0    0  501    0  0.00000000000E+00 -0.00000000000E+00 -0.47599845901E+02  0.47831321640E+02  0.47000000000E+01 0. -1.
          6    1    1    2  502    0 -0.36723152909E+02 -0.47636559409E+02  0.20084761654E+03  0.27118553948E+03  0.17200000000E+03 0. -1.
         -6    1    1    2    0  502  0.36723152909E+02  0.47636559409E+02  0.64869192662E+03  0.67379748249E+03  0.17200000000E+03 0.  1.
</event>
<event>
 4    1 -0.3291270E-004  0.2790275E+03  0.7818608E-02  0.1096221E+00
          5   -1    0    0  501    0  0.00000000000E+00  0.00000000000E+00  0.78753405530E+03  0.78754807996E+03  0.47000000000E+01 0. -1.
         -5   -1    0    0    0  501 -0.00000000000E+00 -0.00000000000E+00 -0.98864966332E+02  0.98976621320E+02  0.47000000000E+01 0.  1.
          6    1    1    2  502    0 -0.20909984136E+03 -0.67450920651E+02  0.33215111797E+03  0.43379803541E+03  0.17200000000E+03 0. -1.
         -6    1    1    2    0  502  0.20909984136E+03  0.67450920651E+02  0.35651797099E+03  0.45272666587E+03  0.17200000000E+03 0.  1.
</event>
<event>
 4    1 -0.3291270E-004  0.1978826E+03  0.7818608E-02  0.1151538E+00
         -5   -1    0    0    0  501 -0.00000000000E+00  0.00000000000E+00  0.89861568993E+03  0.89862798098E+03  0.47000000000E+01 0.  1.
          5   -1    0    0  501    0  0.00000000000E+00 -0.00000000000E+00 -0.46078212089E+02  0.46317292984E+02  0.47000000000E+01 0. -1.
          6    1    1    2  502    0  0.95314830359E+02 -0.22104419969E+02  0.53909117868E+03  0.57426197959E+03  0.17200000000E+03 0.  1.
         -6    1    1    2    0  502 -0.95314830359E+02  0.22104419969E+02  0.31344629917E+03  0.37068329438E+03  0.17200000000E+03 0.  1.
</event>
<event>
 4    1 -0.3291270E-004  0.2155031E+03  0.7818608E-02  0.1137281E+00
          5   -1    0    0  501    0  0.00000000000E+00  0.00000000000E+00  0.57063533862E+03  0.57065469391E+03  0.47000000000E+01 0. -1.
         -5   -1    0    0    0  501 -0.00000000000E+00 -0.00000000000E+00 -0.11560967400E+03  0.11570517155E+03  0.47000000000E+01 0.  1.
          6    1    1    2  502    0  0.94114926656E+02 -0.89442465277E+02  0.41436490147E+03  0.46705443535E+03  0.17200000000E+03 0. -1.
         -6    1    1    2    0  502 -0.94114926656E+02  0.89442465277E+02  0.40660763150E+02  0.21930543011E+03  0.17200000000E+03 0.  1.
</event>
<event>
 4    1 -0.3291270E-004  0.1779629E+03  0.7818608E-02  0.1169789E+00
         -5   -1    0    0    0  501 -0.00000000000E+00  0.00000000000E+00  0.78640492237E+03  0.78641896717E+03  0.47000000000E+01 0.  1.
          5   -1    0    0  501    0  0.00000000000E+00 -0.00000000000E+00 -0.41773003766E+02  0.42036577449E+02  0.47000000000E+01 0. -1.
          6    1    1    2  502    0 -0.33627542615E+02  0.30919065719E+02  0.29022606607E+03  0.34044378343E+03  0.17200000000E+03 0. -1.
         -6    1    1    2    0  502  0.33627542615E+02 -0.30919065719E+02  0.45440585253E+03  0.48801176119E+03  0.17200000000E+03 0.  1.
</event>
<event>
 4    1 -0.3291270E-004  0.1970021E+03  0.7818608E-02  0.1152293E+00
         -5   -1    0    0    0  501 -0.00000000000E+00  0.00000000000E+00  0.48911029905E+03  0.48913288035E+03  0.47000000000E+01 0.  1.
          5   -1    0    0  501    0  0.00000000000E+00 -0.00000000000E+00 -0.88133976907E+02  0.88259208503E+02  0.47000000000E+01 0. -1.
          6    1    1    2  502    0 -0.35672810333E+02 -0.89181154651E+02  0.10892947179E+03  0.22511210000E+03  0.17200000000E+03 0. -1.
         -6    1    1    2    0  502  0.35672810333E+02  0.89181154651E+02  0.29204685035E+03  0.35227998885E+03  0.17200000000E+03 0. -1.
</event>
<event>
 4    1 -0.3291270E-004  0.1734155E+03  0.7818608E-02  0.1174332E+00
          5   -1    0    0  501    0  0.00000000000E+00  0.00000000000E+00  0.20821928364E+03  0.20827232192E+03  0.47000000000E+01 0. -1.
         -5   -1    0    0    0  501 -0.00000000000E+00 -0.00000000000E+00 -0.16986230700E+03  0.16992731781E+03  0.47000000000E+01 0.  1.
          6    1    1    2  502    0 -0.15492934262E+02  0.15776716931E+02 -0.54124042420E+02  0.18166548317E+03  0.17200000000E+03 0.  1.
         -6    1    1    2    0  502  0.15492934262E+02 -0.15776716931E+02  0.92481019060E+02  0.19653415656E+03  0.17200000000E+03 0. -1.
</event>
<event>
 4    1 -0.3291270E-004  0.2061306E+03  0.7818608E-02  0.1144667E+00
         -5   -1    0    0    0  501 -0.00000000000E+00  0.00000000000E+00  0.52138663548E+03  0.52140781895E+03  0.47000000000E+01 0.  1.
          5   -1    0    0  501    0  0.00000000000E+00 -0.00000000000E+00 -0.10920015139E+03  0.10930124914E+03  0.47000000000E+01 0. -1.
          6    1    1    2  502    0  0.10784266355E+03 -0.35718218647E+02  0.36509728153E+03  0.41926823896E+03  0.17200000000E+03 0.  1.
         -6    1    1    2    0  502 -0.10784266355E+03  0.35718218647E+02  0.47089202563E+02  0.21144082913E+03  0.17200000000E+03 0. -1.
</event>
<event>
 4    1 -0.3291270E-004  0.6504866E+03  0.7818608E-02  0.9805866E-01
          5   -1    0    0  501    0  0.00000000000E+00  0.00000000000E+00  0.29738855436E+03  0.29742569200E+03  0.47000000000E+01 0. -1.
         -5   -1    0    0    0  501 -0.00000000000E+00 -0.00000000000E+00 -0.14941532647E+04  0.14941606568E+04  0.47000000000E+01 0.  1.
          6    1    1    2  502    0 -0.55623382261E+03 -0.29009101715E+03 -0.40248917672E+03  0.76493816810E+03  0.17200000000E+03 0. -1.
         -6    1    1    2    0  502  0.55623382261E+03  0.29009101715E+03 -0.79427553359E+03  0.10266481807E+04  0.17200000000E+03 0.  1.
</event>
<event>
 4    1 -0.3291270E-004  0.2091439E+03  0.7818608E-02  0.1142246E+00
         -5   -1    0    0    0  501 -0.00000000000E+00  0.00000000000E+00  0.13664427474E+03  0.13672508117E+03  0.47000000000E+01 0.  1.
          5   -1    0    0  501    0  0.00000000000E+00 -0.00000000000E+00 -0.50434716801E+03  0.50436906713E+03  0.47000000000E+01 0. -1.
          6    1    1    2  502    0  0.91132908246E+01 -0.11863433024E+03 -0.37767032430E+03  0.43171290257E+03  0.17200000000E+03 0. -1.
         -6    1    1    2    0  502 -0.91132908246E+01  0.11863433024E+03  0.99674310397E+01  0.20938124573E+03  0.17200000000E+03 0.  1.
</event>
<event>
 4    1 -0.3291270E-004  0.2003444E+03  0.7818608E-02  0.1149449E+00
         -5   -1    0    0    0  501 -0.00000000000E+00  0.00000000000E+00  0.15789273161E+03  0.15796266868E+03  0.47000000000E+01 0.  1.
          5   -1    0    0  501    0  0.00000000000E+00 -0.00000000000E+00 -0.31383609939E+03  0.31387129095E+03  0.47000000000E+01 0. -1.
          6    1    1    2  502    0  0.68469406145E+02 -0.76588737201E+02 -0.18091281467E+03  0.26993951314E+03  0.17200000000E+03 0. -1.
         -6    1    1    2    0  502 -0.68469406145E+02  0.76588737201E+02  0.24969446890E+02  0.20189444649E+03  0.17200000000E+03 0.  1.
</event>
<event>
 4    1 -0.3291270E-004  0.1834400E+03  0.7818608E-02  0.1164515E+00
         -5   -1    0    0    0  501 -0.00000000000E+00  0.00000000000E+00  0.61922873826E+02  0.62100984717E+02  0.47000000000E+01 0.  1.
          5   -1    0    0  501    0  0.00000000000E+00 -0.00000000000E+00 -0.93829182346E+03  0.93830359478E+03  0.47000000000E+01 0. -1.
          6    1    1    2  502    0  0.56043852005E+02  0.30419052431E+02 -0.76304054273E+03  0.78478092608E+03  0.17200000000E+03 0. -1.
         -6    1    1    2    0  502 -0.56043852005E+02 -0.30419052431E+02 -0.11332840691E+03  0.21562365341E+03  0.17200000000E+03 0.  1.
</event>
<event>
 4    1 -0.3291270E-004  0.1971498E+03  0.7818608E-02  0.1152166E+00
          5   -1    0    0  501    0  0.00000000000E+00  0.00000000000E+00  0.17713923884E+03  0.17720157995E+03  0.47000000000E+01 0. -1.
         -5   -1    0    0    0  501 -0.00000000000E+00 -0.00000000000E+00 -0.22165204974E+03  0.22170187449E+03  0.47000000000E+01 0.  1.
          6    1    1    2  502    0 -0.91307367250E+02  0.30773773847E+02 -0.16931203777E+01  0.19715711280E+03  0.17200000000E+03 0. -1.
         -6    1    1    2    0  502  0.91307367250E+02 -0.30773773847E+02 -0.42819690515E+02  0.20174634164E+03  0.17200000000E+03 0.  1.
</event>
<event>
 4    1 -0.3291270E-004  0.2112827E+03  0.7818608E-02  0.1140554E+00
         -5   -1    0    0    0  501 -0.00000000000E+00  0.00000000000E+00  0.11421706532E+03  0.11431372626E+03  0.47000000000E+01 0.  1.
          5   -1    0    0  501    0  0.00000000000E+00 -0.00000000000E+00 -0.77779194240E+03  0.77780614273E+03  0.47000000000E+01 0. -1.
          6    1    1    2  502    0  0.11256788425E+03 -0.48835124119E+02 -0.64649919856E+03  0.68014822770E+03  0.17200000000E+03 0. -1.
         -6    1    1    2    0  502 -0.11256788425E+03  0.48835124119E+02 -0.17075678526E+02  0.21197164128E+03  0.17200000000E+03 0.  1.
</event>
<event>
 4    1 -0.3291270E-004  0.6331307E+03  0.7818608E-02  0.9838958E-01
          5   -1    0    0  501    0  0.00000000000E+00  0.00000000000E+00  0.39488473834E+03  0.39491270753E+03  0.47000000000E+01 0. -1.
         -5   -1    0    0    0  501 -0.00000000000E+00 -0.00000000000E+00 -0.11209112268E+04  0.11209210803E+04  0.47000000000E+01 0.  1.
          6    1    1    2  502    0  0.30506145153E+03  0.52745424176E+03 -0.13009660040E+03  0.64635871759E+03  0.17200000000E+03 0. -1.
         -6    1    1    2    0  502 -0.30506145153E+03 -0.52745424176E+03 -0.59592988802E+03  0.86947507026E+03  0.17200000000E+03 0.  1.
</event>
<event>
 4    1 -0.3291270E-004  0.1766899E+03  0.7818608E-02  0.1171046E+00
         -5   -1    0    0    0  501 -0.00000000000E+00  0.00000000000E+00  0.14941170607E+04  0.14941244530E+04  0.47000000000E+01 0.  1.
          5   -1    0    0  501    0  0.00000000000E+00 -0.00000000000E+00 -0.33420445388E+02  0.33749313622E+02  0.47000000000E+01 0. -1.
          6    1    1    2  502    0 -0.25102716899E+02  0.31704379639E+02  0.26067391222E+03  0.31491300798E+03  0.17200000000E+03 0. -1.
         -6    1    1    2    0  502  0.25102716899E+02 -0.31704379639E+02  0.12000227030E+04  0.12129607586E+04  0.17200000000E+03 0.  1.
</event>
<event>
 4    1 -0.3291270E-004  0.2348137E+03  0.7818608E-02  0.1123297E+00
         -5   -1    0    0    0  501 -0.00000000000E+00  0.00000000000E+00  0.12229762077E+04  0.12229852389E+04  0.47000000000E+01 0.  1.
          5   -1    0    0  501    0  0.00000000000E+00 -0.00000000000E+00 -0.47779718607E+02  0.48010327120E+02  0.47000000000E+01 0. -1.
          6    1    1    2  502    0 -0.14127747492E+03 -0.74794033225E+02  0.43342170915E+03  0.49294203542E+03  0.17200000000E+03 0. -1.
         -6    1    1    2    0  502  0.14127747492E+03  0.74794033225E+02  0.74177477991E+03  0.77805353057E+03  0.17200000000E+03 0.  1.
</event>
<event>
 4    1 -0.3291270E-004  0.1889793E+03  0.7818608E-02  0.1159385E+00
          5   -1    0    0  501    0  0.00000000000E+00  0.00000000000E+00  0.83905377543E+03  0.83906693897E+03  0.47000000000E+01 0. -1.
         -5   -1    0    0    0  501 -0.00000000000E+00 -0.00000000000E+00 -0.43091300287E+02  0.43346858715E+02  0.47000000000E+01 0.  1.
          6    1    1    2  502    0 -0.64855897927E+02 -0.43850861670E+02  0.34309919623E+03  0.39170172839E+03  0.17200000000E+03 0.  1.
         -6    1    1    2    0  502  0.64855897927E+02  0.43850861670E+02  0.45286327891E+03  0.49071206930E+03  0.17200000000E+03 0. -1.
</event>
<event>
 4    1 -0.3291270E-004  0.3746650E+03  0.7818608E-02  0.1052923E+00
          5   -1    0    0  501    0  0.00000000000E+00  0.00000000000E+00  0.16747097876E+03  0.16753691750E+03  0.47000000000E+01 0. -1.
         -5   -1    0    0    0  501 -0.00000000000E+00 -0.00000000000E+00 -0.91823737053E+03  0.91824939893E+03  0.47000000000E+01 0.  1.
          6    1    1    2  502    0  0.53740597287E+02  0.32848412929E+03 -0.21486917105E+03  0.43190581804E+03  0.17200000000E+03 0. -1.
         -6    1    1    2    0  502 -0.53740597287E+02 -0.32848412929E+03 -0.53589722072E+03  0.65388049839E+03  0.17200000000E+03 0.  1.
</event>
<event>
 4    1 -0.3291270E-004  0.2221651E+03  0.7818608E-02  0.1132279E+00
          5   -1    0    0  501    0  0.00000000000E+00  0.00000000000E+00  0.29408806981E+03  0.29412562418E+03  0.47000000000E+01 0. -1.
         -5   -1    0    0    0  501 -0.00000000000E+00 -0.00000000000E+00 -0.25202651035E+03  0.25207033130E+03  0.47000000000E+01 0.  1.
          6    1    1    2  502    0  0.64848933637E+02  0.12477155227E+03  0.17892546946E+03  0.28525716130E+03  0.17200000000E+03 0. -1.
         -6    1    1    2    0  502 -0.64848933637E+02 -0.12477155227E+03 -0.13686391001E+03  0.26093879419E+03  0.17200000000E+03 0.  1.
</event>
<event>
 4    1 -0.3291270E-004  0.1743909E+03  0.7818608E-02  0.1173345E+00
         -5   -1    0    0    0  501 -0.00000000000E+00  0.00000000000E+00  0.23366480365E+03  0.23371206744E+03  0.47000000000E+01 0.  1.
          5   -1    0    0  501    0  0.00000000000E+00 -0.00000000000E+00 -0.15451819238E+03  0.15458965611E+03  0.47000000000E+01 0. -1.
          6    1    1    2  502    0 -0.28422632057E+02 -0.45114398219E+01 -0.37654240781E+02  0.17840975576E+03  0.17200000000E+03 0. -1.
         -6    1    1    2    0  502  0.28422632057E+02  0.45114398219E+01  0.11680085205E+03  0.20989196779E+03  0.17200000000E+03 0.  1.
</event>
<event>
 4    1 -0.3291270E-004  0.2244385E+03  0.7818608E-02  0.1130617E+00
         -5   -1    0    0    0  501 -0.00000000000E+00  0.00000000000E+00  0.81786491311E+03  0.81787841768E+03  0.47000000000E+01 0.  1.
          5   -1    0    0  501    0  0.00000000000E+00 -0.00000000000E+00 -0.12160356943E+03  0.12169436346E+03  0.47000000000E+01 0. -1.
          6    1    1    2  502    0 -0.34269183457E+01  0.14414198460E+03  0.18019569587E+02  0.22516074343E+03  0.17200000000E+03 0. -1.
         -6    1    1    2    0  502  0.34269183457E+01 -0.14414198460E+03  0.67824177410E+03  0.71441203771E+03  0.17200000000E+03 0.  1.
</event>
<event>
 4    1 -0.3291270E-004  0.3183688E+03  0.7818608E-02  0.1076402E+00
         -5   -1    0    0    0  501 -0.00000000000E+00  0.00000000000E+00  0.33090198278E+03  0.33093535956E+03  0.47000000000E+01 0.  1.
          5   -1    0    0  501    0  0.00000000000E+00 -0.00000000000E+00 -0.41951000942E+03  0.41953633693E+03  0.47000000000E+01 0. -1.
          6    1    1    2  502    0  0.25739128582E+03  0.74326348952E+02 -0.23926631109E+03  0.39825500347E+03  0.17200000000E+03 0. -1.
         -6    1    1    2    0  502 -0.25739128582E+03 -0.74326348952E+02  0.15065828445E+03  0.35221669302E+03  0.17200000000E+03 0.  1.
</event>
<event>
 4    1 -0.3291270E-004  0.2147527E+03  0.7818608E-02  0.1137857E+00
          5   -1    0    0  501    0  0.00000000000E+00  0.00000000000E+00  0.28519893433E+03  0.28523765905E+03  0.47000000000E+01 0. -1.
         -5   -1    0    0    0  501 -0.00000000000E+00 -0.00000000000E+00 -0.17438106567E+03  0.17444439247E+03  0.47000000000E+01 0.  1.
          6    1    1    2  502    0  0.46339544619E+02  0.11994736062E+03 -0.67400971506E+01  0.21485844555E+03  0.17200000000E+03 0.  1.
         -6    1    1    2    0  502 -0.46339544619E+02 -0.11994736062E+03  0.11755796581E+03  0.24482360597E+03  0.17200000000E+03 0. -1.
</event>
<event>
 4    1 -0.3291270E-004  0.2093962E+03  0.7818608E-02  0.1142045E+00
          5   -1    0    0  501    0  0.00000000000E+00  0.00000000000E+00  0.10290985226E+03  0.10301712330E+03  0.47000000000E+01 0. -1.
         -5   -1    0    0    0  501 -0.00000000000E+00 -0.00000000000E+00 -0.42798121375E+03  0.42800702018E+03  0.47000000000E+01 0.  1.
          6    1    1    2  502    0 -0.90507434963E+02  0.77917784031E+02 -0.18179969949E+03  0.27730471974E+03  0.17200000000E+03 0.  1.
         -6    1    1    2    0  502  0.90507434963E+02 -0.77917784031E+02 -0.14327166199E+03  0.25371942374E+03  0.17200000000E+03 0.  1.
</event>
<event>
 4    1 -0.3291270E-004  0.2056033E+03  0.7818608E-02  0.1145096E+00
          5   -1    0    0  501    0  0.00000000000E+00  0.00000000000E+00  0.15670599518E+03  0.15677646164E+03  0.47000000000E+01 0. -1.
         -5   -1    0    0    0  501 -0.00000000000E+00 -0.00000000000E+00 -0.55572770065E+03  0.55574757513E+03  0.47000000000E+01 0.  1.
          6    1    1    2  502    0  0.11166449812E+03  0.14823926120E+02  0.56096949381E+02  0.21311869147E+03  0.17200000000E+03 0. -1.
         -6    1    1    2    0  502 -0.11166449812E+03 -0.14823926120E+02 -0.45511865485E+03  0.49940534530E+03  0.17200000000E+03 0.  1.
</event>
<event>
 4    1 -0.3291270E-004  0.3048066E+03  0.7818608E-02  0.1082862E+00
         -5   -1    0    0    0  501 -0.00000000000E+00  0.00000000000E+00  0.82433871866E+02  0.82567749338E+02  0.47000000000E+01 0.  1.
          5   -1    0    0  501    0  0.00000000000E+00 -0.00000000000E+00 -0.14551818349E+04  0.14551894250E+04  0.47000000000E+01 0. -1.
          6    1    1    2  502    0  0.25139728427E+03  0.11067753177E+02 -0.10520512562E+04  0.10953168197E+04  0.17200000000E+03 0. -1.
         -6    1    1    2    0  502 -0.25139728427E+03 -0.11067753177E+02 -0.32069670684E+03  0.44244035471E+03  0.17200000000E+03 0.  1.
</event>
<event>
 4    1 -0.3291270E-004  0.5364582E+03  0.7818608E-02  0.1004678E+00
         -5   -1    0    0    0  501 -0.00000000000E+00  0.00000000000E+00  0.17950950227E+03  0.17957102050E+03  0.47000000000E+01 0.  1.
          5   -1    0    0  501    0  0.00000000000E+00 -0.00000000000E+00 -0.17517327689E+04  0.17517390741E+04  0.47000000000E+01 0. -1.
          6    1    1    2  502    0 -0.10840845835E+03  0.49643828631E+03 -0.50459428818E+03  0.73647998046E+03  0.17200000000E+03 0. -1.
         -6    1    1    2    0  502  0.10840845835E+03 -0.49643828631E+03 -0.10676289785E+04  0.11948301141E+04  0.17200000000E+03 0.  1.
</event>
<event>
 4    1 -0.3291270E-004  0.2431202E+03  0.7818608E-02  0.1117732E+00
         -5   -1    0    0    0  501 -0.00000000000E+00  0.00000000000E+00  0.34358264021E+02  0.34678239669E+02  0.47000000000E+01 0.  1.
          5   -1    0    0  501    0  0.00000000000E+00 -0.00000000000E+00 -0.17806012035E+04  0.17806074064E+04  0.47000000000E+01 0. -1.
          6    1    1    2  502    0  0.17182300262E+03 -0.53880050359E+00 -0.10512211752E+04  0.10789686713E+04  0.17200000000E+03 0. -1.
         -6    1    1    2    0  502 -0.17182300262E+03  0.53880050359E+00 -0.69502176431E+03  0.73631697481E+03  0.17200000000E+03 0.  1.
</event>
<event>
 4    1 -0.3291270E-004  0.2477516E+03  0.7818608E-02  0.1114734E+00
         -5   -1    0    0    0  501 -0.00000000000E+00  0.00000000000E+00  0.19922448564E+03  0.19927991790E+03  0.47000000000E+01 0.  1.
          5   -1    0    0  501    0  0.00000000000E+00 -0.00000000000E+00 -0.37121514852E+03  0.37124490096E+03  0.47000000000E+01 0. -1.
          6    1    1    2  502    0 -0.67051725091E+02 -0.16522987379E+03 -0.20371530552E+03  0.32075032460E+03  0.17200000000E+03 0. -1.
         -6    1    1    2    0  502  0.67051725091E+02  0.16522987379E+03  0.31724642639E+02  0.24977449426E+03  0.17200000000E+03 0.  1.
</event>
<event>
 4    1 -0.3291270E-004  0.3446305E+03  0.7818608E-02  0.1064841E+00
          5   -1    0    0  501    0  0.00000000000E+00  0.00000000000E+00  0.63564585298E+03  0.63566322877E+03  0.47000000000E+01 0. -1.
         -5   -1    0    0    0  501 -0.00000000000E+00 -0.00000000000E+00 -0.27190533153E+03  0.27194594925E+03  0.47000000000E+01 0.  1.
          6    1    1    2  502    0  0.18749042386E+03  0.23245106796E+03 -0.71984017380E+02  0.35206797184E+03  0.17200000000E+03 0. -1.
         -6    1    1    2    0  502 -0.18749042386E+03 -0.23245106796E+03  0.43572453883E+03  0.55554120618E+03  0.17200000000E+03 0. -1.
</event>
<event>
 4    1 -0.3291270E-004  0.6766796E+03  0.7818608E-02  0.9757966E-01
         -5   -1    0    0    0  501 -0.00000000000E+00  0.00000000000E+00  0.18403963868E+04  0.18404023882E+04  0.47000000000E+01 0.  1.
          5   -1    0    0  501    0  0.00000000000E+00 -0.00000000000E+00 -0.26146293522E+03  0.26150517489E+03  0.47000000000E+01 0. -1.
          6    1    1    2  502    0 -0.65335001829E+03  0.38013961698E+02  0.55796663336E+03  0.87705306090E+03  0.17200000000E+03 0. -1.
         -6    1    1    2    0  502  0.65335001829E+03 -0.38013961698E+02  0.10209668182E+04  0.12248545022E+04  0.17200000000E+03 0.  1.
</event>
<event>
 4    1 -0.3291270E-004  0.1771174E+03  0.7818608E-02  0.1170622E+00
          5   -1    0    0  501    0  0.00000000000E+00  0.00000000000E+00  0.30211274511E+03  0.30214930210E+03  0.47000000000E+01 0. -1.
         -5   -1    0    0    0  501 -0.00000000000E+00 -0.00000000000E+00 -0.27216580461E+03  0.27220638347E+03  0.47000000000E+01 0.  1.
          6    1    1    2  502    0  0.25664877669E+02 -0.33584031569E+02  0.24083852771E+03  0.29895446066E+03  0.17200000000E+03 0. -1.
         -6    1    1    2    0  502 -0.25664877669E+02  0.33584031569E+02 -0.21089158721E+03  0.27540122490E+03  0.17200000000E+03 0.  1.
</event>
<event>
 4    1 -0.3291270E-004  0.2814885E+03  0.7818608E-02  0.1094879E+00
         -5   -1    0    0    0  501 -0.00000000000E+00  0.00000000000E+00  0.22610688617E+03  0.22615572947E+03  0.47000000000E+01 0.  1.
          5   -1    0    0  501    0  0.00000000000E+00 -0.00000000000E+00 -0.35151936442E+03  0.35155078376E+03  0.47000000000E+01 0. -1.
          6    1    1    2  502    0  0.19352771326E+02  0.22198482290E+03 -0.79487523145E+02  0.29249625244E+03  0.17200000000E+03 0. -1.
         -6    1    1    2    0  502 -0.19352771326E+02 -0.22198482290E+03 -0.45924955104E+02  0.28521026079E+03  0.17200000000E+03 0.  1.
</event>
<event>
 4    1 -0.3291270E-004  0.5257767E+03  0.7818608E-02  0.1007262E+00
          5   -1    0    0  501    0  0.00000000000E+00  0.00000000000E+00  0.15872649673E+03  0.15879606659E+03  0.47000000000E+01 0. -1.
         -5   -1    0    0    0  501 -0.00000000000E+00 -0.00000000000E+00 -0.17414173298E+04  0.17414236723E+04  0.47000000000E+01 0.  1.
          6    1    1    2  502    0 -0.37129526425E+03  0.33014688716E+03 -0.77990948461E+03  0.94058489491E+03  0.17200000000E+03 0. -1.
         -6    1    1    2    0  502  0.37129526425E+03 -0.33014688716E+03 -0.80278134846E+03  0.95963484398E+03  0.17200000000E+03 0.  1.
</event>
<event>
 4    1 -0.3291270E-004  0.2499956E+03  0.7818608E-02  0.1113308E+00
         -5   -1    0    0    0  501 -0.00000000000E+00  0.00000000000E+00  0.84056135505E+03  0.84057449498E+03  0.47000000000E+01 0.  1.
          5   -1    0    0  501    0  0.00000000000E+00 -0.00000000000E+00 -0.12247106625E+03  0.12256121764E+03  0.47000000000E+01 0. -1.
          6    1    1    2  502    0  0.15250508311E+03  0.98264916916E+02  0.57078275554E+02  0.25642878897E+03  0.17200000000E+03 0. -1.
         -6    1    1    2    0  502 -0.15250508311E+03 -0.98264916916E+02  0.66101201325E+03  0.70670692365E+03  0.17200000000E+03 0.  1.
</event>
<event>
 4    1 -0.3291270E-004  0.1804986E+03  0.7818608E-02  0.1167321E+00
          5   -1    0    0  501    0  0.00000000000E+00  0.00000000000E+00  0.19804583273E+03  0.19810159480E+03  0.47000000000E+01 0. -1.
         -5   -1    0    0    0  501 -0.00000000000E+00 -0.00000000000E+00 -0.20639545276E+03  0.20644895960E+03  0.47000000000E+01 0.  1.
          6    1    1    2  502    0 -0.53900271852E+02  0.95127664381E+01  0.87048386327E+02  0.20039249884E+03  0.17200000000E+03 0. -1.
         -6    1    1    2    0  502  0.53900271852E+02 -0.95127664381E+01 -0.95398006358E+02  0.20415805556E+03  0.17200000000E+03 0.  1.
</event>
<event>
 4    1 -0.3291270E-004  0.1731650E+03  0.7818608E-02  0.1174587E+00
          5   -1    0    0  501    0  0.00000000000E+00  0.00000000000E+00  0.20385865780E+03  0.20391283029E+03  0.47000000000E+01 0. -1.
         -5   -1    0    0    0  501 -0.00000000000E+00 -0.00000000000E+00 -0.20948338133E+03  0.20953609964E+03  0.47000000000E+01 0.  1.
          6    1    1    2  502    0 -0.30275140509E+01 -0.19822846914E+02  0.11007405225E+03  0.20518871333E+03  0.17200000000E+03 0. -1.
         -6    1    1    2    0  502  0.30275140509E+01  0.19822846914E+02 -0.11569877578E+03  0.20826021660E+03  0.17200000000E+03 0.  1.
</event>
<event>
 4    1 -0.3291270E-004  0.2181401E+03  0.7818608E-02  0.1135277E+00
         -5   -1    0    0    0  501 -0.00000000000E+00  0.00000000000E+00  0.23221042299E+03  0.23225798274E+03  0.47000000000E+01 0.  1.
          5   -1    0    0  501    0  0.00000000000E+00 -0.00000000000E+00 -0.21777925941E+03  0.21782996999E+03  0.47000000000E+01 0. -1.
          6    1    1    2  502    0 -0.84386535089E+02  0.10430734323E+03  0.62085542978E+02  0.22680327115E+03  0.17200000000E+03 0. -1.
         -6    1    1    2    0  502  0.84386535089E+02 -0.10430734323E+03 -0.47654379391E+02  0.22328468159E+03  0.17200000000E+03 0.  1.
</event>
<event>
 4    1 -0.3291270E-004  0.2212367E+03  0.7818608E-02  0.1132964E+00
         -5   -1    0    0    0  501 -0.00000000000E+00  0.00000000000E+00  0.12723502278E+03  0.12732180105E+03  0.47000000000E+01 0.  1.
          5   -1    0    0  501    0  0.00000000000E+00 -0.00000000000E+00 -0.54152085451E+03  0.54154125038E+03  0.47000000000E+01 0. -1.
          6    1    1    2  502    0 -0.57411779605E+02 -0.12675004350E+03 -0.38723555682E+03  0.44597876904E+03  0.17200000000E+03 0. -1.
         -6    1    1    2    0  502  0.57411779605E+02  0.12675004350E+03 -0.27050274906E+02  0.22288428239E+03  0.17200000000E+03 0.  1.
</event>
<event>
 4    1 -0.3291270E-004  0.4792926E+03  0.7818608E-02  0.1019330E+00
          5   -1    0    0  501    0  0.00000000000E+00  0.00000000000E+00  0.15660593484E+03  0.15667644631E+03  0.47000000000E+01 0. -1.
         -5   -1    0    0    0  501 -0.00000000000E+00 -0.00000000000E+00 -0.20492279519E+04  0.20492333418E+04  0.47000000000E+01 0.  1.
          6    1    1    2  502    0  0.44547680380E+02 -0.44514366843E+03 -0.35814728857E+03  0.59832337551E+03  0.17200000000E+03 0. -1.
         -6    1    1    2    0  502 -0.44547680380E+02  0.44514366843E+03 -0.15344747285E+04  0.16075864126E+04  0.17200000000E+03 0.  1.
</event>
<event>
 4    1 -0.3291270E-004  0.2113310E+03  0.7818608E-02  0.1140516E+00
         -5   -1    0    0    0  501 -0.00000000000E+00  0.00000000000E+00  0.68609596565E+02  0.68770391455E+02  0.47000000000E+01 0.  1.
          5   -1    0    0  501    0  0.00000000000E+00 -0.00000000000E+00 -0.13305172959E+04  0.13305255972E+04  0.47000000000E+01 0. -1.
          6    1    1    2  502    0 -0.47370233338E+02 -0.11328224980E+03 -0.11312848826E+04  0.11508545924E+04  0.17200000000E+03 0. -1.
         -6    1    1    2    0  502  0.47370233338E+02  0.11328224980E+03 -0.13062281673E+03  0.24844139626E+03  0.17200000000E+03 0.  1.
</event>
<event>
 4    1 -0.3291270E-004  0.2046601E+03  0.7818608E-02  0.1145866E+00
         -5   -1    0    0    0  501 -0.00000000000E+00  0.00000000000E+00  0.14391788732E+04  0.14391865477E+04  0.47000000000E+01 0.  1.
          5   -1    0    0  501    0  0.00000000000E+00 -0.00000000000E+00 -0.31889825017E+02  0.32234313078E+02  0.47000000000E+01 0. -1.
          6    1    1    2  502    0 -0.80363442383E+02  0.76442488108E+02  0.47990740534E+03  0.52172488397E+03  0.17200000000E+03 0. -1.
         -6    1    1    2    0  502  0.80363442383E+02 -0.76442488108E+02  0.92738164283E+03  0.94969597678E+03  0.17200000000E+03 0.  1.
</event>
<event>
 4    1 -0.3291270E-004  0.2078156E+03  0.7818608E-02  0.1143308E+00
         -5   -1    0    0    0  501 -0.00000000000E+00  0.00000000000E+00  0.55255709671E+02  0.55455238267E+02  0.47000000000E+01 0.  1.
          5   -1    0    0  501    0  0.00000000000E+00 -0.00000000000E+00 -0.87339354725E+03  0.87340619323E+03  0.47000000000E+01 0. -1.
          6    1    1    2  502    0 -0.11660696929E+03  0.24737227802E+01 -0.25719599579E+03  0.33066158658E+03  0.17200000000E+03 0. -1.
         -6    1    1    2    0  502  0.11660696929E+03 -0.24737227802E+01 -0.56094184179E+03  0.59819984492E+03  0.17200000000E+03 0.  1.
</event>
<event>
 4    1 -0.3291270E-004  0.4834742E+03  0.7818608E-02  0.1018185E+00
          5   -1    0    0  501    0  0.00000000000E+00  0.00000000000E+00  0.52696377237E+03  0.52698473165E+03  0.47000000000E+01 0. -1.
         -5   -1    0    0    0  501 -0.00000000000E+00 -0.00000000000E+00 -0.61717009496E+03  0.61718799090E+03  0.47000000000E+01 0.  1.
          6    1    1    2  502    0  0.40699362701E+03 -0.19626385797E+03  0.25833298920E+03  0.54816352276E+03  0.17200000000E+03 0. -1.
         -6    1    1    2    0  502 -0.40699362701E+03  0.19626385797E+03 -0.34853931179E+03  0.59600919979E+03  0.17200000000E+03 0.  1.
</event>
<event>
 4    1 -0.3291270E-004  0.1878778E+03  0.7818608E-02  0.1160389E+00
         -5   -1    0    0    0  501 -0.00000000000E+00  0.00000000000E+00  0.52444168271E+02  0.52654352010E+02  0.47000000000E+01 0.  1.
          5   -1    0    0  501    0  0.00000000000E+00 -0.00000000000E+00 -0.73798617948E+03  0.73800114573E+03  0.47000000000E+01 0. -1.
          6    1    1    2  502    0  0.72831736443E+02 -0.20238289224E+02 -0.46141569940E+03  0.49819925515E+03  0.17200000000E+03 0.  1.
         -6    1    1    2    0  502 -0.72831736443E+02  0.20238289224E+02 -0.22412631181E+03  0.29245624259E+03  0.17200000000E+03 0.  1.
</event>
<event>
 4    1 -0.3291270E-004  0.3594280E+03  0.7818608E-02  0.1058811E+00
          5   -1    0    0  501    0  0.00000000000E+00  0.00000000000E+00  0.61664404172E+03  0.61666195292E+03  0.47000000000E+01 0. -1.
         -5   -1    0    0    0  501 -0.00000000000E+00 -0.00000000000E+00 -0.21749575957E+03  0.21754653624E+03  0.47000000000E+01 0.  1.
          6    1    1    2  502    0  0.13197868123E+03  0.28668125945E+03  0.27975877296E+03  0.45547062240E+03  0.17200000000E+03 0. -1.
         -6    1    1    2    0  502 -0.13197868123E+03 -0.28668125945E+03  0.11938950918E+03  0.37873786677E+03  0.17200000000E+03 0.  1.
</event>
<event>
 4    1 -0.3291270E-004  0.2490697E+03  0.7818608E-02  0.1113894E+00
          5   -1    0    0  501    0  0.00000000000E+00  0.00000000000E+00  0.20538233560E+03  0.20543610632E+03  0.47000000000E+01 0. -1.
         -5   -1    0    0    0  501 -0.00000000000E+00 -0.00000000000E+00 -0.31771625128E+03  0.31775101310E+03  0.47000000000E+01 0.  1.
          6    1    1    2  502    0  0.91657417715E+02 -0.15508260174E+03  0.21201750629E+01  0.24907868381E+03  0.17200000000E+03 0.  1.
         -6    1    1    2    0  502 -0.91657417715E+02  0.15508260174E+03 -0.11445409074E+03  0.27410843561E+03  0.17200000000E+03 0.  1.
</event>
<event>
 4    1 -0.3291270E-004  0.1979863E+03  0.7818608E-02  0.1151449E+00
         -5   -1    0    0    0  501 -0.00000000000E+00  0.00000000000E+00  0.13710573930E+03  0.13718627391E+03  0.47000000000E+01 0.  1.
          5   -1    0    0  501    0  0.00000000000E+00 -0.00000000000E+00 -0.29256042204E+03  0.29259817249E+03  0.47000000000E+01 0. -1.
          6    1    1    2  502    0 -0.29651676434E+02 -0.93463083119E+02 -0.11058814274E+03  0.22677810109E+03  0.17200000000E+03 0. -1.
         -6    1    1    2    0  502  0.29651676434E+02  0.93463083119E+02 -0.44866540010E+02  0.20300634530E+03  0.17200000000E+03 0. -1.
</event>
<event>
 4    1 -0.3291270E-004  0.1875565E+03  0.7818608E-02  0.1160684E+00
          5   -1    0    0  501    0  0.00000000000E+00  0.00000000000E+00  0.47967646965E+03  0.47969949503E+03  0.47000000000E+01 0. -1.
         -5   -1    0    0    0  501 -0.00000000000E+00 -0.00000000000E+00 -0.76033020552E+02  0.76178147879E+02  0.47000000000E+01 0.  1.
          6    1    1    2  502    0 -0.69911066854E+02  0.26568389178E+02  0.25507376805E+03  0.31660711255E+03  0.17200000000E+03 0. -1.
         -6    1    1    2    0  502  0.69911066854E+02 -0.26568389178E+02  0.14856968105E+03  0.23927053036E+03  0.17200000000E+03 0.  1.
</event>
<event>
 4    1 -0.3291270E-004  0.1907843E+03  0.7818608E-02  0.1157756E+00
          5   -1    0    0  501    0  0.00000000000E+00  0.00000000000E+00  0.21990078488E+03  0.21995100635E+03  0.47000000000E+01 0. -1.
         -5   -1    0    0    0  501 -0.00000000000E+00 -0.00000000000E+00 -0.18895069563E+03  0.18900914099E+03  0.47000000000E+01 0.  1.
          6    1    1    2  502    0  0.65488265915E+02  0.50258654767E+02 -0.56662203798E+02  0.19902072930E+03  0.17200000000E+03 0.  1.
         -6    1    1    2    0  502 -0.65488265915E+02 -0.50258654767E+02  0.87612293054E+02  0.20993941804E+03  0.17200000000E+03 0.  1.
</event>
<event>
 4    1 -0.3291270E-004  0.3011575E+03  0.7818608E-02  0.1084663E+00
          5   -1    0    0  501    0  0.00000000000E+00  0.00000000000E+00  0.12312231250E+03  0.12321198739E+03  0.47000000000E+01 0. -1.
         -5   -1    0    0    0  501 -0.00000000000E+00 -0.00000000000E+00 -0.76634387536E+03  0.76635828781E+03  0.47000000000E+01 0.  1.
          6    1    1    2  502    0  0.24573156117E+03  0.26978311409E+02 -0.23350021372E+03  0.38107503099E+03  0.17200000000E+03 0. -1.
         -6    1    1    2    0  502 -0.24573156117E+03 -0.26978311409E+02 -0.40972134914E+03  0.50849524421E+03  0.17200000000E+03 0.  1.
</event>
<event>
 4    1 -0.3291270E-004  0.2633124E+03  0.7818608E-02  0.1105169E+00
         -5   -1    0    0    0  501 -0.00000000000E+00  0.00000000000E+00  0.12737361956E+03  0.12746030347E+03  0.47000000000E+01 0.  1.
          5   -1    0    0  501    0  0.00000000000E+00 -0.00000000000E+00 -0.61460271204E+03  0.61462068273E+03  0.47000000000E+01 0. -1.
          6    1    1    2  502    0 -0.12217231760E+02 -0.19899790533E+03 -0.11791138792E+03  0.28850740455E+03  0.17200000000E+03 0. -1.
         -6    1    1    2    0  502  0.12217231760E+02  0.19899790533E+03 -0.36931770455E+03  0.45357358166E+03  0.17200000000E+03 0.  1.
</event>
<event>
 4    1 -0.3291270E-004  0.3317222E+03  0.7818608E-02  0.1070377E+00
          5   -1    0    0  501    0  0.00000000000E+00  0.00000000000E+00  0.11065341034E+03  0.11075318153E+03  0.47000000000E+01 0. -1.
         -5   -1    0    0    0  501 -0.00000000000E+00 -0.00000000000E+00 -0.15968805148E+04  0.15968874314E+04  0.47000000000E+01 0.  1.
          6    1    1    2  502    0 -0.26292784669E+03  0.10641685218E+03 -0.21846638369E+03  0.39719914375E+03  0.17200000000E+03 0. -1.
         -6    1    1    2    0  502  0.26292784669E+03 -0.10641685218E+03 -0.12677607208E+04  0.13104414692E+04  0.17200000000E+03 0.  1.
</event>
<event>
 4    1 -0.3291270E-004  0.1826234E+03  0.7818608E-02  0.1165288E+00
         -5   -1    0    0    0  501 -0.00000000000E+00  0.00000000000E+00  0.36154976169E+03  0.36158030945E+03  0.47000000000E+01 0.  1.
          5   -1    0    0  501    0  0.00000000000E+00 -0.00000000000E+00 -0.11050331192E+03  0.11060321851E+03  0.47000000000E+01 0. -1.
          6    1    1    2  502    0 -0.12471813204E+02 -0.60097889950E+02  0.29370391653E+02  0.18497005814E+03  0.17200000000E+03 0. -1.
         -6    1    1    2    0  502  0.12471813204E+02  0.60097889950E+02  0.22167605812E+03  0.28721346982E+03  0.17200000000E+03 0.  1.
</event>
<event>
 4    1 -0.3291270E-004  0.2044727E+03  0.7818608E-02  0.1146019E+00
         -5   -1    0    0    0  501 -0.00000000000E+00  0.00000000000E+00  0.29215159980E+03  0.29218940307E+03  0.47000000000E+01 0.  1.
          5   -1    0    0  501    0  0.00000000000E+00 -0.00000000000E+00 -0.18063493827E+03  0.18069607335E+03  0.47000000000E+01 0. -1.
          6    1    1    2  502    0  0.84179457961E+02  0.71686061281E+02  0.16361980931E+03  0.26187881649E+03  0.17200000000E+03 0.  1.
         -6    1    1    2    0  502 -0.84179457961E+02 -0.71686061281E+02 -0.52103147783E+02  0.21100665993E+03  0.17200000000E+03 0. -1.
</event>
<event>
 4    1 -0.3291270E-004  0.4006595E+03  0.7818608E-02  0.1043552E+00
         -5   -1    0    0    0  501 -0.00000000000E+00  0.00000000000E+00  0.28678277361E+03  0.28682128450E+03  0.47000000000E+01 0.  1.
          5   -1    0    0  501    0  0.00000000000E+00 -0.00000000000E+00 -0.93050229337E+03  0.93051416323E+03  0.47000000000E+01 0. -1.
          6    1    1    2  502    0  0.88210652356E+02  0.35094576088E+03 -0.70609598052E+03  0.81184948111E+03  0.17200000000E+03 0. -1.
         -6    1    1    2    0  502 -0.88210652356E+02 -0.35094576088E+03  0.62376460758E+02  0.40548596662E+03  0.17200000000E+03 0.  1.
</event>
<event>
 4    1 -0.3291270E-004  0.2320121E+03  0.7818608E-02  0.1125231E+00
         -5   -1    0    0    0  501 -0.00000000000E+00  0.00000000000E+00  0.26923788109E+03  0.26927890117E+03  0.47000000000E+01 0.  1.
          5   -1    0    0  501    0  0.00000000000E+00 -0.00000000000E+00 -0.25585232053E+03  0.25589548633E+03  0.47000000000E+01 0. -1.
          6    1    1    2  502    0 -0.13121572889E+03 -0.83833555000E+02 -0.11613803749E+03  0.25945650156E+03  0.17200000000E+03 0. -1.
         -6    1    1    2    0  502  0.13121572889E+03  0.83833555000E+02  0.12952359805E+03  0.26571788593E+03  0.17200000000E+03 0.  1.
</event>
<event>
 4    1 -0.3291270E-004  0.3356663E+03  0.7818608E-02  0.1068657E+00
          5   -1    0    0  501    0  0.00000000000E+00  0.00000000000E+00  0.11185238997E+03  0.11195109263E+03  0.47000000000E+01 0. -1.
         -5   -1    0    0    0  501 -0.00000000000E+00 -0.00000000000E+00 -0.10804705523E+04  0.10804807747E+04  0.47000000000E+01 0.  1.
          6    1    1    2  502    0  0.28459958640E+03  0.45727053908E+02 -0.64000831620E+03  0.72269117390E+03  0.17200000000E+03 0.  1.
         -6    1    1    2    0  502 -0.28459958640E+03 -0.45727053908E+02 -0.32860984614E+03  0.46974069338E+03  0.17200000000E+03 0.  1.
</event>
<event>
 4    1 -0.3291270E-004  0.3661505E+03  0.7818608E-02  0.1056175E+00
         -5   -1    0    0    0  501 -0.00000000000E+00  0.00000000000E+00  0.65493607947E+03  0.65495294349E+03  0.47000000000E+01 0.  1.
          5   -1    0    0  501    0  0.00000000000E+00 -0.00000000000E+00 -0.37330165896E+03  0.37333124512E+03  0.47000000000E+01 0. -1.
          6    1    1    2  502    0 -0.17303396769E+03 -0.27302283130E+03 -0.20473071490E+03  0.41950075805E+03  0.17200000000E+03 0. -1.
         -6    1    1    2    0  502  0.17303396769E+03  0.27302283130E+03  0.48636513540E+03  0.60878343056E+03  0.17200000000E+03 0.  1.
</event>
<event>
 4    1 -0.3291270E-004  0.2065986E+03  0.7818608E-02  0.1144288E+00
          5   -1    0    0  501    0  0.00000000000E+00  0.00000000000E+00  0.35516976315E+03  0.35520085960E+03  0.47000000000E+01 0. -1.
         -5   -1    0    0    0  501 -0.00000000000E+00 -0.00000000000E+00 -0.19514845525E+03  0.19520504498E+03  0.47000000000E+01 0.  1.
          6    1    1    2  502    0  0.40841601389E+02 -0.10691561943E+03  0.25063525334E+03  0.32480919984E+03  0.17200000000E+03 0. -1.
         -6    1    1    2    0  502 -0.40841601389E+02  0.10691561943E+03 -0.90613945435E+02  0.22559670474E+03  0.17200000000E+03 0.  1.
</event>
<event>
 4    1 -0.3291270E-004  0.1973925E+03  0.7818608E-02  0.1151958E+00
         -5   -1    0    0    0  501 -0.00000000000E+00  0.00000000000E+00  0.72059588472E+03  0.72061121215E+03  0.47000000000E+01 0.  1.
          5   -1    0    0  501    0  0.00000000000E+00 -0.00000000000E+00 -0.11753126155E+03  0.11762519901E+03  0.47000000000E+01 0. -1.
          6    1    1    2  502    0 -0.29816460282E+02  0.92145495469E+02 -0.65086493104E+01  0.19749981305E+03  0.17200000000E+03 0. -1.
         -6    1    1    2    0  502  0.29816460282E+02 -0.92145495469E+02  0.60957327248E+03  0.64073659811E+03  0.17200000000E+03 0.  1.
</event>
<event>
 4    1 -0.3291270E-004  0.1968503E+03  0.7818608E-02  0.1152424E+00
          5   -1    0    0  501    0  0.00000000000E+00  0.00000000000E+00  0.45916899333E+03  0.45919304703E+03  0.47000000000E+01 0. -1.
         -5   -1    0    0    0  501 -0.00000000000E+00 -0.00000000000E+00 -0.91725602018E+02  0.91845936576E+02  0.47000000000E+01 0.  1.
          6    1    1    2  502    0  0.23513268943E+02  0.92807087171E+02  0.26205040143E+03  0.32775057915E+03  0.17200000000E+03 0. -1.
         -6    1    1    2    0  502 -0.23513268943E+02 -0.92807087171E+02  0.10539298989E+03  0.22328840445E+03  0.17200000000E+03 0.  1.
</event>
<event>
 4    1 -0.3291270E-004  0.2056233E+03  0.7818608E-02  0.1145080E+00
          5   -1    0    0  501    0  0.00000000000E+00  0.00000000000E+00  0.64779482712E+03  0.64781187705E+03  0.47000000000E+01 0. -1.
         -5   -1    0    0    0  501 -0.00000000000E+00 -0.00000000000E+00 -0.65179578828E+02  0.65348814039E+02  0.47000000000E+01 0.  1.
          6    1    1    2  502    0 -0.11086928316E+03 -0.20123006911E+02  0.29635630265E+03  0.36070485369E+03  0.17200000000E+03 0.  1.
         -6    1    1    2    0  502  0.11086928316E+03  0.20123006911E+02  0.28625894564E+03  0.35245583740E+03  0.17200000000E+03 0.  1.
</event>
<event>
 4    1 -0.3291270E-004  0.2305496E+03  0.7818608E-02  0.1126254E+00
          5   -1    0    0  501    0  0.00000000000E+00  0.00000000000E+00  0.39053766408E+03  0.39056594457E+03  0.47000000000E+01 0. -1.
         -5   -1    0    0    0  501 -0.00000000000E+00 -0.00000000000E+00 -0.46210452501E+03  0.46212842591E+03  0.47000000000E+01 0.  1.
          6    1    1    2  502    0  0.15313679979E+03  0.10873058595E+02  0.32232512491E+03  0.39629104078E+03  0.17200000000E+03 0. -1.
         -6    1    1    2    0  502 -0.15313679979E+03 -0.10873058595E+02 -0.39389198585E+03  0.45640332971E+03  0.17200000000E+03 0.  1.
</event>
<event>
 4    1 -0.3291270E-004  0.2187632E+03  0.7818608E-02  0.1134808E+00
         -5   -1    0    0    0  501 -0.00000000000E+00  0.00000000000E+00  0.25459218231E+02  0.25889414689E+02  0.47000000000E+01 0.  1.
          5   -1    0    0  501    0  0.00000000000E+00 -0.00000000000E+00 -0.23776394088E+04  0.23776440542E+04  0.47000000000E+01 0. -1.
          6    1    1    2  502    0 -0.11571766510E+03 -0.69876860092E+02 -0.17348337435E+04  0.17485724094E+04  0.17200000000E+03 0. -1.
         -6    1    1    2    0  502  0.11571766510E+03  0.69876860092E+02 -0.61734644714E+03  0.65496105945E+03  0.17200000000E+03 0.  1.
</event>
<event>
 4    1 -0.3291270E-004  0.2414245E+03  0.7818608E-02  0.1118848E+00
         -5   -1    0    0    0  501 -0.00000000000E+00  0.00000000000E+00  0.87933855612E+03  0.87935111661E+03  0.47000000000E+01 0.  1.
          5   -1    0    0  501    0  0.00000000000E+00 -0.00000000000E+00 -0.19242385528E+03  0.19248124605E+03  0.47000000000E+01 0. -1.
          6    1    1    2  502    0  0.20284740723E+01  0.16940381853E+03 -0.90472428317E+02  0.25781976016E+03  0.17200000000E+03 0. -1.
         -6    1    1    2    0  502 -0.20284740723E+01 -0.16940381853E+03  0.77738712916E+03  0.81401260250E+03  0.17200000000E+03 0.  1.
</event>
<event>
 4    1 -0.3291270E-004  0.2741169E+03  0.7818608E-02  0.1098946E+00
          5   -1    0    0  501    0  0.00000000000E+00  0.00000000000E+00  0.36332070067E+03  0.36335109954E+03  0.47000000000E+01 0. -1.
         -5   -1    0    0    0  501 -0.00000000000E+00 -0.00000000000E+00 -0.83476493222E+03  0.83477816339E+03  0.47000000000E+01 0.  1.
          6    1    1    2  502    0  0.13205289786E+03 -0.16768450186E+03 -0.75531160660E+03  0.80351458173E+03  0.17200000000E+03 0.  1.
         -6    1    1    2    0  502 -0.13205289786E+03  0.16768450186E+03  0.28386737505E+03  0.39461468119E+03  0.17200000000E+03 0.  1.
</event>
<event>
 4    1 -0.3291270E-004  0.1930962E+03  0.7818608E-02  0.1155698E+00
          5   -1    0    0  501    0  0.00000000000E+00  0.00000000000E+00  0.60557322898E+03  0.60559146763E+03  0.47000000000E+01 0. -1.
         -5   -1    0    0    0  501 -0.00000000000E+00 -0.00000000000E+00 -0.62508230081E+02  0.62684677776E+02  0.47000000000E+01 0.  1.
          6    1    1    2  502    0  0.64772987197E+02  0.59216609664E+02  0.31467752741E+03  0.36919925919E+03  0.17200000000E+03 0. -1.
         -6    1    1    2    0  502 -0.64772987197E+02 -0.59216609664E+02  0.22838747150E+03  0.29907688621E+03  0.17200000000E+03 0.  1.
</event>
<event>
 4    1 -0.3291270E-004  0.2513530E+03  0.7818608E-02  0.1112453E+00
          5   -1    0    0  501    0  0.00000000000E+00  0.00000000000E+00  0.26945695031E+03  0.26949793704E+03  0.47000000000E+01 0. -1.
         -5   -1    0    0    0  501 -0.00000000000E+00 -0.00000000000E+00 -0.33715776882E+03  0.33719052638E+03  0.47000000000E+01 0.  1.
          6    1    1    2  502    0 -0.98103287749E+02  0.15482279333E+03  0.13360920424E+03  0.28465728843E+03  0.17200000000E+03 0. -1.
         -6    1    1    2    0  502  0.98103287749E+02 -0.15482279333E+03 -0.20131002275E+03  0.32203117498E+03  0.17200000000E+03 0.  1.
</event>
<event>
 4    1 -0.3291270E-004  0.3731164E+03  0.7818608E-02  0.1053508E+00
         -5   -1    0    0    0  501 -0.00000000000E+00  0.00000000000E+00  0.42905439214E+03  0.42908013402E+03  0.47000000000E+01 0.  1.
          5   -1    0    0  501    0  0.00000000000E+00 -0.00000000000E+00 -0.36685144371E+03  0.36688155003E+03  0.47000000000E+01 0. -1.
          6    1    1    2  502    0 -0.23418699174E+03 -0.23406893705E+03 -0.10424069222E+03  0.38740409949E+03  0.17200000000E+03 0. -1.
         -6    1    1    2    0  502  0.23418699174E+03  0.23406893705E+03  0.16644364065E+03  0.40855758456E+03  0.17200000000E+03 0.  1.
</event>
<event>
 4    1 -0.3291270E-004  0.2739000E+03  0.7818608E-02  0.1099068E+00
         -5   -1    0    0    0  501 -0.00000000000E+00  0.00000000000E+00  0.39029381043E+03  0.39032210860E+03  0.47000000000E+01 0.  1.
          5   -1    0    0  501    0  0.00000000000E+00 -0.00000000000E+00 -0.71732362806E+03  0.71733902541E+03  0.47000000000E+01 0. -1.
          6    1    1    2  502    0 -0.19901835293E+03 -0.76347408448E+02 -0.63737467928E+03  0.69373461307E+03  0.17200000000E+03 0. -1.
         -6    1    1    2    0  502  0.19901835293E+03  0.76347408448E+02  0.31034486165E+03  0.41392652094E+03  0.17200000000E+03 0.  1.
</event>
<event>
 4    1 -0.3291270E-004  0.1780121E+03  0.7818608E-02  0.1169741E+00
         -5   -1    0    0    0  501 -0.00000000000E+00  0.00000000000E+00  0.42799551407E+02  0.43056841508E+02  0.47000000000E+01 0.  1.
          5   -1    0    0  501    0  0.00000000000E+00 -0.00000000000E+00 -0.73828861749E+03  0.73830357762E+03  0.47000000000E+01 0. -1.
          6    1    1    2  502    0 -0.41614311012E+02 -0.19301787262E+02 -0.35664517639E+03  0.39860267399E+03  0.17200000000E+03 0. -1.
         -6    1    1    2    0  502  0.41614311012E+02  0.19301787262E+02 -0.33884388970E+03  0.38275774513E+03  0.17200000000E+03 0. -1.
</event>
<event>
 4    1 -0.3291270E-004  0.1961044E+03  0.7818608E-02  0.1153068E+00
          5   -1    0    0  501    0  0.00000000000E+00  0.00000000000E+00  0.16965136837E+03  0.16971645998E+03  0.47000000000E+01 0. -1.
         -5   -1    0    0    0  501 -0.00000000000E+00 -0.00000000000E+00 -0.35384076496E+03  0.35387197819E+03  0.47000000000E+01 0.  1.
          6    1    1    2  502    0  0.90866791347E+02  0.24822361811E+02  0.64902385899E+02  0.20656534828E+03  0.17200000000E+03 0. -1.
         -6    1    1    2    0  502 -0.90866791347E+02 -0.24822361811E+02 -0.24909178250E+03  0.31702308989E+03  0.17200000000E+03 0. -1.
</event>
<event>
 4    1 -0.3291270E-004  0.7764983E+03  0.7818608E-02  0.9594672E-01
         -5   -1    0    0    0  501 -0.00000000000E+00  0.00000000000E+00  0.21819120856E+04  0.21819171476E+04  0.47000000000E+01 0.  1.
          5   -1    0    0  501    0  0.00000000000E+00 -0.00000000000E+00 -0.28983365744E+03  0.28987176300E+03  0.47000000000E+01 0. -1.
          6    1    1    2  502    0 -0.75630438218E+03 -0.37004093304E+02  0.67914057534E+03  0.10315917519E+04  0.17200000000E+03 0. -1.
         -6    1    1    2    0  502  0.75630438218E+03  0.37004093304E+02  0.12129378528E+04  0.14401971588E+04  0.17200000000E+03 0.  1.
</event>
<event>
 4    1 -0.3291270E-004  0.2871720E+03  0.7818608E-02  0.1091835E+00
          5   -1    0    0  501    0  0.00000000000E+00  0.00000000000E+00  0.34703915892E+03  0.34707098384E+03  0.47000000000E+01 0. -1.
         -5   -1    0    0    0  501 -0.00000000000E+00 -0.00000000000E+00 -0.23910712081E+03  0.23915330904E+03  0.47000000000E+01 0.  1.
          6    1    1    2  502    0  0.95547064093E+02  0.20917574257E+03  0.77491036583E+02  0.29744342906E+03  0.17200000000E+03 0. -1.
         -6    1    1    2    0  502 -0.95547064093E+02 -0.20917574257E+03  0.30441001524E+02  0.28878086383E+03  0.17200000000E+03 0.  1.
</event>
<event>
 4    1 -0.3291270E-004  0.3344518E+03  0.7818608E-02  0.1069184E+00
         -5   -1    0    0    0  501 -0.00000000000E+00  0.00000000000E+00  0.14623499263E+03  0.14631050226E+03  0.47000000000E+01 0.  1.
          5   -1    0    0  501    0  0.00000000000E+00 -0.00000000000E+00 -0.78163439887E+03  0.78164852939E+03  0.47000000000E+01 0. -1.
          6    1    1    2  502    0  0.16162220427E+03 -0.23696474726E+03 -0.24928794048E+03  0.41713607567E+03  0.17200000000E+03 0. -1.
         -6    1    1    2    0  502 -0.16162220427E+03  0.23696474726E+03 -0.38611146576E+03  0.51082295597E+03  0.17200000000E+03 0.  1.
</event>
<event>
 4    1 -0.3291270E-004  0.3403860E+03  0.7818608E-02  0.1066632E+00
          5   -1    0    0  501    0  0.00000000000E+00  0.00000000000E+00  0.28838176809E+03  0.28842006547E+03  0.47000000000E+01 0. -1.
         -5   -1    0    0    0  501 -0.00000000000E+00 -0.00000000000E+00 -0.71581210962E+03  0.71582753948E+03  0.47000000000E+01 0.  1.
          6    1    1    2  502    0  0.69944353792E+02  0.28528303045E+03  0.11890055802E+03  0.36055507594E+03  0.17200000000E+03 0. -1.
         -6    1    1    2    0  502 -0.69944353792E+02 -0.28528303045E+03 -0.54633089955E+03  0.64369252901E+03  0.17200000000E+03 0.  1.
</event>
<event>
 4    1 -0.3291270E-004  0.2217134E+03  0.7818608E-02  0.1132612E+00
          5   -1    0    0  501    0  0.00000000000E+00  0.00000000000E+00  0.66956381966E+03  0.66958031527E+03  0.47000000000E+01 0. -1.
         -5   -1    0    0    0  501 -0.00000000000E+00 -0.00000000000E+00 -0.75641110523E+02  0.75786988337E+02  0.47000000000E+01 0.  1.
          6    1    1    2  502    0  0.13347303969E+03  0.41925715268E+02  0.36212504089E+03  0.42460730465E+03  0.17200000000E+03 0.  1.
         -6    1    1    2    0  502 -0.13347303969E+03 -0.41925715268E+02  0.23179766825E+03  0.32075999896E+03  0.17200000000E+03 0.  1.
</event>
<event>
 4    1 -0.3291270E-004  0.2181549E+03  0.7818608E-02  0.1135266E+00
          5   -1    0    0  501    0  0.00000000000E+00  0.00000000000E+00  0.62433730135E+02  0.62610387785E+02  0.47000000000E+01 0. -1.
         -5   -1    0    0    0  501 -0.00000000000E+00 -0.00000000000E+00 -0.12369097022E+04  0.12369186317E+04  0.47000000000E+01 0.  1.
          6    1    1    2  502    0  0.71765162831E+02  0.11339020302E+03 -0.18423299308E+03  0.28554049183E+03  0.17200000000E+03 0. -1.
         -6    1    1    2    0  502 -0.71765162831E+02 -0.11339020302E+03 -0.99024297899E+03  0.10139885276E+04  0.17200000000E+03 0.  1.
</event>
<event>
 4    1 -0.3291270E-004  0.1752700E+03  0.7818608E-02  0.1172461E+00
          5   -1    0    0  501    0  0.00000000000E+00  0.00000000000E+00  0.23322627967E+03  0.23327363230E+03  0.47000000000E+01 0. -1.
         -5   -1    0    0    0  501 -0.00000000000E+00 -0.00000000000E+00 -0.20033812849E+03  0.20039325270E+03  0.47000000000E+01 0.  1.
          6    1    1    2  502    0  0.33280284870E+02 -0.52921524941E+01  0.14340650249E+03  0.22646193763E+03  0.17200000000E+03 0. -1.
         -6    1    1    2    0  502 -0.33280284870E+02  0.52921524941E+01 -0.11051835131E+03  0.20720494737E+03  0.17200000000E+03 0.  1.
</event>
<event>
 4    1 -0.3291270E-004  0.1978393E+03  0.7818608E-02  0.1151575E+00
          5   -1    0    0  501    0  0.00000000000E+00  0.00000000000E+00  0.22848992845E+03  0.22853826245E+03  0.47000000000E+01 0. -1.
         -5   -1    0    0    0  501 -0.00000000000E+00 -0.00000000000E+00 -0.17700135313E+03  0.17706374279E+03  0.47000000000E+01 0.  1.
          6    1    1    2  502    0 -0.91662175427E+02 -0.33976931651E+02  0.62442996022E+02  0.20745966847E+03  0.17200000000E+03 0. -1.
         -6    1    1    2    0  502  0.91662175427E+02  0.33976931651E+02 -0.10954420706E+02  0.19814233677E+03  0.17200000000E+03 0. -1.
</event>
<event>
 4    1 -0.3291270E-004  0.2324571E+03  0.7818608E-02  0.1124922E+00
         -5   -1    0    0    0  501 -0.00000000000E+00  0.00000000000E+00  0.15367559739E+04  0.15367631611E+04  0.47000000000E+01 0.  1.
          5   -1    0    0  501    0  0.00000000000E+00 -0.00000000000E+00 -0.39472571092E+02  0.39751400838E+02  0.47000000000E+01 0. -1.
          6    1    1    2  502    0 -0.54676255086E+02 -0.14650189721E+03  0.48426632904E+03  0.53716866644E+03  0.17200000000E+03 0. -1.
         -6    1    1    2    0  502  0.54676255086E+02  0.14650189721E+03  0.10130170737E+04  0.10393458955E+04  0.17200000000E+03 0.  1.
</event>
<event>
 4    1 -0.3291270E-004  0.1856602E+03  0.7818608E-02  0.1162435E+00
          5   -1    0    0  501    0  0.00000000000E+00  0.00000000000E+00  0.41932147365E+03  0.41934781300E+03  0.47000000000E+01 0. -1.
         -5   -1    0    0    0  501 -0.00000000000E+00 -0.00000000000E+00 -0.19070896683E+03  0.19076687351E+03  0.47000000000E+01 0.  1.
          6    1    1    2  502    0  0.55331082449E+02  0.42710549290E+02  0.34443689638E+03  0.39128825090E+03  0.17200000000E+03 0. -1.
         -6    1    1    2    0  502 -0.55331082449E+02 -0.42710549290E+02 -0.11582438956E+03  0.21882643561E+03  0.17200000000E+03 0.  1.
</event>
<event>
 4    1 -0.3291270E-004  0.1945676E+03  0.7818608E-02  0.1154405E+00
          5   -1    0    0  501    0  0.00000000000E+00  0.00000000000E+00  0.19715026210E+03  0.19720627740E+03  0.47000000000E+01 0. -1.
         -5   -1    0    0    0  501 -0.00000000000E+00 -0.00000000000E+00 -0.21069596918E+03  0.21074838417E+03  0.47000000000E+01 0.  1.
          6    1    1    2  502    0  0.88306934767E+02 -0.21781263443E+02 -0.67669736197E+02  0.20599934797E+03  0.17200000000E+03 0. -1.
         -6    1    1    2    0  502 -0.88306934767E+02  0.21781263443E+02  0.54124029115E+02  0.20195531360E+03  0.17200000000E+03 0.  1.
</event>
<event>
 4    1 -0.3291270E-004  0.3965917E+03  0.7818608E-02  0.1044966E+00
         -5   -1    0    0    0  501 -0.00000000000E+00  0.00000000000E+00  0.19471956780E+04  0.19472013503E+04  0.47000000000E+01 0.  1.
          5   -1    0    0  501    0  0.00000000000E+00 -0.00000000000E+00 -0.21421927987E+03  0.21427083299E+03  0.47000000000E+01 0. -1.
          6    1    1    2  502    0 -0.34222651238E+03  0.10286866749E+03  0.13467320417E+02  0.39682025811E+03  0.17200000000E+03 0. -1.
         -6    1    1    2    0  502  0.34222651238E+03 -0.10286866749E+03  0.17195090777E+04  0.17646519251E+04  0.17200000000E+03 0.  1.
</event>
<event>
 4    1 -0.3291270E-004  0.1744504E+03  0.7818608E-02  0.1173285E+00
         -5   -1    0    0    0  501 -0.00000000000E+00  0.00000000000E+00  0.24580328932E+03  0.24584821952E+03  0.47000000000E+01 0.  1.
          5   -1    0    0  501    0  0.00000000000E+00 -0.00000000000E+00 -0.12796465058E+03  0.12805093439E+03  0.47000000000E+01 0. -1.
          6    1    1    2  502    0 -0.17526741952E+02 -0.23275782214E+02  0.92993222846E+02  0.19768836136E+03  0.17200000000E+03 0.  1.
         -6    1    1    2    0  502  0.17526741952E+02  0.23275782214E+02  0.24845415898E+02  0.17621079255E+03  0.17200000000E+03 0. -1.
</event>
<event>
 4    1 -0.3291270E-004  0.2726069E+03  0.7818608E-02  0.1099797E+00
         -5   -1    0    0    0  501 -0.00000000000E+00  0.00000000000E+00  0.71614578076E+03  0.71616120343E+03  0.47000000000E+01 0.  1.
          5   -1    0    0  501    0  0.00000000000E+00 -0.00000000000E+00 -0.10401252629E+03  0.10411866127E+03  0.47000000000E+01 0. -1.
          6    1    1    2  502    0  0.20980292706E+03 -0.26706881472E+02  0.32852308588E+03  0.42689804834E+03  0.17200000000E+03 0.  1.
         -6    1    1    2    0  502 -0.20980292706E+03  0.26706881472E+02  0.28361016859E+03  0.39338181637E+03  0.17200000000E+03 0.  1.
</event>
<event>
 4    1 -0.3291270E-004  0.1922096E+03  0.7818608E-02  0.1156483E+00
          5   -1    0    0  501    0  0.00000000000E+00  0.00000000000E+00  0.12665830959E+03  0.12674548272E+03  0.47000000000E+01 0. -1.
         -5   -1    0    0    0  501 -0.00000000000E+00 -0.00000000000E+00 -0.41102641883E+03  0.41105328970E+03  0.47000000000E+01 0.  1.
          6    1    1    2  502    0  0.49000450911E+02  0.70423732300E+02  0.28131463103E+01  0.19223022669E+03  0.17200000000E+03 0. -1.
         -6    1    1    2    0  502 -0.49000450911E+02 -0.70423732300E+02 -0.28718125554E+03  0.34556854573E+03  0.17200000000E+03 0.  1.
</event>
<event>
 4    1 -0.3291270E-004  0.2657710E+03  0.7818608E-02  0.1103725E+00
         -5   -1    0    0    0  501 -0.00000000000E+00  0.00000000000E+00  0.96889388105E+03  0.96890528058E+03  0.47000000000E+01 0.  1.
          5   -1    0    0  501    0  0.00000000000E+00 -0.00000000000E+00 -0.75733572069E+02  0.75879272126E+02  0.47000000000E+01 0. -1.
          6    1    1    2  502    0 -0.13045145966E+03 -0.15502462756E+03  0.34412591446E+03  0.43480669668E+03  0.17200000000E+03 0. -1.
         -6    1    1    2    0  502  0.13045145966E+03  0.15502462756E+03  0.54903439453E+03  0.60997785603E+03  0.17200000000E+03 0.  1.
</event>
<event>
 4    1 -0.3291270E-004  0.1754487E+03  0.7818608E-02  0.1172282E+00
         -5   -1    0    0    0  501 -0.00000000000E+00  0.00000000000E+00  0.90927914985E+02  0.91049303806E+02  0.47000000000E+01 0.  1.
          5   -1    0    0  501    0  0.00000000000E+00 -0.00000000000E+00 -0.62141703013E+03  0.62143480377E+03  0.47000000000E+01 0. -1.
          6    1    1    2  502    0 -0.34140231448E+02 -0.57174250412E+01 -0.50572749389E+03  0.53529668636E+03  0.17200000000E+03 0. -1.
         -6    1    1    2    0  502  0.34140231448E+02  0.57174250412E+01 -0.24761621265E+02  0.17718742122E+03  0.17200000000E+03 0.  1.
</event>
<event>
 4    1 -0.3291270E-004  0.1843968E+03  0.7818608E-02  0.1163614E+00
         -5   -1    0    0    0  501 -0.00000000000E+00  0.00000000000E+00  0.50415242772E+02  0.50633849387E+02  0.47000000000E+01 0.  1.
          5   -1    0    0  501    0  0.00000000000E+00 -0.00000000000E+00 -0.67443802699E+03  0.67445440338E+03  0.47000000000E+01 0. -1.
          6    1    1    2  502    0  0.66017646570E+02  0.77362650006E+01 -0.33011065584E+03  0.37812064815E+03  0.17200000000E+03 0. -1.
         -6    1    1    2    0  502 -0.66017646570E+02 -0.77362650006E+01 -0.29391212837E+03  0.34696760462E+03  0.17200000000E+03 0.  1.
</event>
<event>
 4    1 -0.3291270E-004  0.2797636E+03  0.7818608E-02  0.1095818E+00
          5   -1    0    0  501    0  0.00000000000E+00  0.00000000000E+00  0.19800589554E+03  0.19806166886E+03  0.47000000000E+01 0. -1.
         -5   -1    0    0    0  501 -0.00000000000E+00 -0.00000000000E+00 -0.97523776532E+03  0.97524909070E+03  0.47000000000E+01 0.  1.
          6    1    1    2  502    0 -0.96762608860E+02  0.19829438872E+03  0.63819219167E+02  0.28695044835E+03  0.17200000000E+03 0. -1.
         -6    1    1    2    0  502  0.96762608860E+02 -0.19829438872E+03 -0.84105108895E+03  0.88636031121E+03  0.17200000000E+03 0.  1.
</event>
<event>
 4    1 -0.3291270E-004  0.2982974E+03  0.7818608E-02  0.1086095E+00
         -5   -1    0    0    0  501 -0.00000000000E+00  0.00000000000E+00  0.16925033062E+03  0.16931557641E+03  0.47000000000E+01 0.  1.
          5   -1    0    0  501    0  0.00000000000E+00 -0.00000000000E+00 -0.66525570378E+03  0.66527230621E+03  0.47000000000E+01 0. -1.
          6    1    1    2  502    0  0.18874233442E+03  0.15418704941E+03 -0.43921266921E+03  0.53093227798E+03  0.17200000000E+03 0. -1.
         -6    1    1    2    0  502 -0.18874233442E+03 -0.15418704941E+03 -0.56792703948E+02  0.30365560464E+03  0.17200000000E+03 0.  1.
</event>
<event>
 4    1 -0.3291270E-004  0.1727853E+03  0.7818608E-02  0.1174974E+00
         -5   -1    0    0    0  501 -0.00000000000E+00  0.00000000000E+00  0.31146777728E+03  0.31150323639E+03  0.47000000000E+01 0.  1.
          5   -1    0    0  501    0  0.00000000000E+00 -0.00000000000E+00 -0.99095653498E+02  0.99207048853E+02  0.47000000000E+01 0. -1.
          6    1    1    2  502    0  0.38084677799E+01  0.16008221169E+02  0.68500232140E+02  0.18586836572E+03  0.17200000000E+03 0. -1.
         -6    1    1    2    0  502 -0.38084677799E+01 -0.16008221169E+02  0.14387189164E+03  0.22484191953E+03  0.17200000000E+03 0.  1.
</event>
<event>
 4    1 -0.3291270E-004  0.2891194E+03  0.7818608E-02  0.1090810E+00
          5   -1    0    0  501    0  0.00000000000E+00  0.00000000000E+00  0.13438049921E+04  0.13438132112E+04  0.47000000000E+01 0. -1.
         -5   -1    0    0    0  501 -0.00000000000E+00 -0.00000000000E+00 -0.65056162876E+02  0.65225718303E+02  0.47000000000E+01 0.  1.
          6    1    1    2  502    0 -0.12741851518E+03  0.19434644004E+03  0.78917332298E+03  0.84046686459E+03  0.17200000000E+03 0. -1.
         -6    1    1    2    0  502  0.12741851518E+03 -0.19434644004E+03  0.48957550622E+03  0.56857206496E+03  0.17200000000E+03 0.  1.
</event>
<event>
 4    1 -0.3291270E-004  0.2475704E+03  0.7818608E-02  0.1114850E+00
         -5   -1    0    0    0  501 -0.00000000000E+00  0.00000000000E+00  0.43616019993E+03  0.43618552246E+03  0.47000000000E+01 0.  1.
          5   -1    0    0  501    0  0.00000000000E+00 -0.00000000000E+00 -0.17146412653E+03  0.17152853024E+03  0.47000000000E+01 0. -1.
          6    1    1    2  502    0  0.17699014660E+03  0.19534079493E+02  0.26152971185E+03  0.36012342667E+03  0.17200000000E+03 0.  1.
         -6    1    1    2    0  502 -0.17699014660E+03 -0.19534079493E+02  0.31663615529E+01  0.24759062603E+03  0.17200000000E+03 0. -1.
</event>
<event>
 4    1 -0.3291270E-004  0.1929844E+03  0.7818608E-02  0.1155797E+00
          5   -1    0    0  501    0  0.00000000000E+00  0.00000000000E+00  0.23759263104E+03  0.23763911362E+03  0.47000000000E+01 0. -1.
         -5   -1    0    0    0  501 -0.00000000000E+00 -0.00000000000E+00 -0.17261415605E+03  0.17267813083E+03  0.47000000000E+01 0.  1.
          6    1    1    2  502    0  0.60006404170E+02  0.63704140672E+02  0.94851524493E+02  0.21503441069E+03  0.17200000000E+03 0. -1.
         -6    1    1    2    0  502 -0.60006404170E+02 -0.63704140672E+02 -0.29873049502E+02  0.19528283377E+03  0.17200000000E+03 0.  1.
</event>
<event>
 4    1 -0.3291270E-004  0.1830314E+03  0.7818608E-02  0.1164901E+00
          5   -1    0    0  501    0  0.00000000000E+00  0.00000000000E+00  0.14417184631E+03  0.14424843593E+03  0.47000000000E+01 0. -1.
         -5   -1    0    0    0  501 -0.00000000000E+00 -0.00000000000E+00 -0.24126279655E+03  0.24130857216E+03  0.47000000000E+01 0.  1.
          6    1    1    2  502    0  0.38925080498E+02  0.49003290723E+02 -0.85893253056E+02  0.20218341998E+03  0.17200000000E+03 0.  1.
         -6    1    1    2    0  502 -0.38925080498E+02 -0.49003290723E+02 -0.11197697184E+02  0.18337358811E+03  0.17200000000E+03 0. -1.
</event>
<event>
 4    1 -0.3291270E-004  0.1846121E+03  0.7818608E-02  0.1163413E+00
         -5   -1    0    0    0  501 -0.00000000000E+00  0.00000000000E+00  0.13262469318E+04  0.13262552598E+04  0.47000000000E+01 0.  1.
          5   -1    0    0  501    0  0.00000000000E+00 -0.00000000000E+00 -0.41399595396E+02  0.41665531306E+02  0.47000000000E+01 0. -1.
          6    1    1    2  502    0 -0.38596523017E+02 -0.54844513860E+02  0.22003302587E+03  0.28722142114E+03  0.17200000000E+03 0. -1.
         -6    1    1    2    0  502  0.38596523017E+02  0.54844513860E+02  0.10648143106E+04  0.10806993700E+04  0.17200000000E+03 0.  1.
</event>
<event>
 4    1 -0.3291270E-004  0.5596741E+03  0.7818608E-02  0.9992792E-01
          5   -1    0    0  501    0  0.00000000000E+00  0.00000000000E+00  0.10210450959E+04  0.10210559132E+04  0.47000000000E+01 0. -1.
         -5   -1    0    0    0  501 -0.00000000000E+00 -0.00000000000E+00 -0.42966029851E+03  0.42968600410E+03  0.47000000000E+01 0.  1.
          6    1    1    2  502    0  0.37694798888E+03  0.37624632209E+03  0.68364027086E+03  0.88351519577E+03  0.17200000000E+03 0. -1.
         -6    1    1    2    0  502 -0.37694798888E+03 -0.37624632209E+03 -0.92255473483E+02  0.56722672151E+03  0.17200000000E+03 0.  1.
</event>
<event>
 4    1 -0.3291270E-004  0.2551115E+03  0.7818608E-02  0.1110116E+00
          5   -1    0    0  501    0  0.00000000000E+00  0.00000000000E+00  0.82416378344E+03  0.82417718479E+03  0.47000000000E+01 0. -1.
         -5   -1    0    0    0  501 -0.00000000000E+00 -0.00000000000E+00 -0.21350006092E+03  0.21355178766E+03  0.47000000000E+01 0.  1.
          6    1    1    2  502    0 -0.14774568388E+03  0.11691480948E+03  0.71723366741E+03  0.76125291031E+03  0.17200000000E+03 0. -1.
         -6    1    1    2    0  502  0.14774568388E+03 -0.11691480948E+03 -0.10656994489E+03  0.27647606214E+03  0.17200000000E+03 0.  1.
</event>
<event>
 4    1 -0.3291270E-004  0.2403056E+03  0.7818608E-02  0.1119589E+00
         -5   -1    0    0    0  501 -0.00000000000E+00  0.00000000000E+00  0.11846491594E+04  0.11846584828E+04  0.47000000000E+01 0.  1.
          5   -1    0    0  501    0  0.00000000000E+00 -0.00000000000E+00 -0.59687750467E+02  0.59872510853E+02  0.47000000000E+01 0. -1.
          6    1    1    2  502    0  0.16231346057E+03  0.42627960058E+02  0.29504374904E+03  0.38052281969E+03  0.17200000000E+03 0. -1.
         -6    1    1    2    0  502 -0.16231346057E+03 -0.42627960058E+02  0.82991765993E+03  0.86400817399E+03  0.17200000000E+03 0.  1.
</event>
<event>
 4    1 -0.3291270E-004  0.2115598E+03  0.7818608E-02  0.1140337E+00
          5   -1    0    0  501    0  0.00000000000E+00  0.00000000000E+00  0.44271860848E+03  0.44274355591E+03  0.47000000000E+01 0. -1.
         -5   -1    0    0    0  501 -0.00000000000E+00 -0.00000000000E+00 -0.22116692497E+03  0.22121685899E+03  0.47000000000E+01 0.  1.
          6    1    1    2  502    0 -0.41204326267E+02  0.11608509399E+03  0.35540911713E+03  0.41360994438E+03  0.17200000000E+03 0. -1.
         -6    1    1    2    0  502  0.41204326267E+02 -0.11608509399E+03 -0.13385743362E+03  0.25035047051E+03  0.17200000000E+03 0.  1.
</event>
<event>
 4    1 -0.3291270E-004  0.1770996E+03  0.7818608E-02  0.1170640E+00
          5   -1    0    0  501    0  0.00000000000E+00  0.00000000000E+00  0.22882182283E+03  0.22887008674E+03  0.47000000000E+01 0. -1.
         -5   -1    0    0    0  501 -0.00000000000E+00 -0.00000000000E+00 -0.15104138611E+03  0.15111449407E+03  0.47000000000E+01 0.  1.
          6    1    1    2  502    0  0.14576829500E+02  0.39595052349E+02  0.96866091506E+02  0.20185958440E+03  0.17200000000E+03 0. -1.
         -6    1    1    2    0  502 -0.14576829500E+02 -0.39595052349E+02 -0.19085654779E+02  0.17812499641E+03  0.17200000000E+03 0.  1.
</event>
<event>
 4    1 -0.3291270E-004  0.2281247E+03  0.7818608E-02  0.1127967E+00
         -5   -1    0    0    0  501 -0.00000000000E+00  0.00000000000E+00  0.35474567042E+03  0.35477680404E+03  0.47000000000E+01 0.  1.
          5   -1    0    0  501    0  0.00000000000E+00 -0.00000000000E+00 -0.15573411964E+03  0.15580502566E+03  0.47000000000E+01 0. -1.
          6    1    1    2  502    0  0.14132860930E+03  0.49830762709E+02  0.37780569521E+02  0.23123203098E+03  0.17200000000E+03 0. -1.
         -6    1    1    2    0  502 -0.14132860930E+03 -0.49830762709E+02  0.16123098126E+03  0.27934979871E+03  0.17200000000E+03 0.  1.
</event>
<event>
 4    1 -0.3291270E-004  0.1987638E+03  0.7818608E-02  0.1150786E+00
         -5   -1    0    0    0  501 -0.00000000000E+00  0.00000000000E+00  0.27054875437E+03  0.27058957573E+03  0.47000000000E+01 0.  1.
          5   -1    0    0  501    0  0.00000000000E+00 -0.00000000000E+00 -0.21858311955E+03  0.21863364368E+03  0.47000000000E+01 0. -1.
          6    1    1    2  502    0 -0.18256515760E+02 -0.97927275734E+02 -0.11500281839E+03  0.22963601620E+03  0.17200000000E+03 0. -1.
         -6    1    1    2    0  502  0.18256515760E+02  0.97927275734E+02  0.16696845322E+03  0.25958720321E+03  0.17200000000E+03 0.  1.
</event>
<event>
 4    1 -0.3291270E-004  0.2549999E+03  0.7818608E-02  0.1110185E+00
         -5   -1    0    0    0  501 -0.00000000000E+00  0.00000000000E+00  0.20854474848E+03  0.20859770401E+03  0.47000000000E+01 0.  1.
          5   -1    0    0  501    0  0.00000000000E+00 -0.00000000000E+00 -0.34389008250E+03  0.34392219883E+03  0.47000000000E+01 0. -1.
          6    1    1    2  502    0 -0.18794365625E+03  0.10869062169E+02 -0.15219293663E+03  0.29696404563E+03  0.17200000000E+03 0. -1.
         -6    1    1    2    0  502  0.18794365625E+03 -0.10869062169E+02  0.16847602609E+02  0.25555585721E+03  0.17200000000E+03 0.  1.
</event>
<event>
 4    1 -0.3291270E-004  0.2159711E+03  0.7818608E-02  0.1136923E+00
          5   -1    0    0  501    0  0.00000000000E+00  0.00000000000E+00  0.16378395418E+03  0.16385137670E+03  0.47000000000E+01 0. -1.
         -5   -1    0    0    0  501 -0.00000000000E+00 -0.00000000000E+00 -0.30060563211E+03  0.30064237236E+03  0.47000000000E+01 0.  1.
          6    1    1    2  502    0 -0.12916486344E+03  0.19389729849E+02 -0.12192250967E+03  0.24800931824E+03  0.17200000000E+03 0.  1.
         -6    1    1    2    0  502  0.12916486344E+03 -0.19389729849E+02 -0.14899168260E+02  0.21648443081E+03  0.17200000000E+03 0.  1.
</event>
<event>
 4    1 -0.3291270E-004  0.2015544E+03  0.7818608E-02  0.1148434E+00
          5   -1    0    0  501    0  0.00000000000E+00  0.00000000000E+00  0.25581222878E+03  0.25585540134E+03  0.47000000000E+01 0. -1.
         -5   -1    0    0    0  501 -0.00000000000E+00 -0.00000000000E+00 -0.26584963498E+03  0.26589117777E+03  0.47000000000E+01 0.  1.
          6    1    1    2  502    0 -0.43157814922E+02  0.95799754178E+02  0.16055799385E+03  0.25768791062E+03  0.17200000000E+03 0. -1.
         -6    1    1    2    0  502  0.43157814922E+02 -0.95799754178E+02 -0.17059540004E+03  0.26405866849E+03  0.17200000000E+03 0.  1.
</event>
<event>
 4    1 -0.3291270E-004  0.2345193E+03  0.7818608E-02  0.1123499E+00
         -5   -1    0    0    0  501 -0.00000000000E+00  0.00000000000E+00  0.13028997736E+03  0.13037472225E+03  0.47000000000E+01 0.  1.
          5   -1    0    0  501    0  0.00000000000E+00 -0.00000000000E+00 -0.44942338215E+03  0.44944795742E+03  0.47000000000E+01 0. -1.
          6    1    1    2  502    0  0.11785899294E+03  0.10735260318E+03 -0.23130881867E+03  0.32939807714E+03  0.17200000000E+03 0. -1.
         -6    1    1    2    0  502 -0.11785899294E+03 -0.10735260318E+03 -0.87824586118E+02  0.25042460253E+03  0.17200000000E+03 0.  1.
</event>
<event>
 4    1 -0.3291270E-004  0.1721780E+03  0.7818608E-02  0.1175595E+00
          5   -1    0    0  501    0  0.00000000000E+00  0.00000000000E+00  0.64017527116E+03  0.64019252402E+03  0.47000000000E+01 0. -1.
         -5   -1    0    0    0  501 -0.00000000000E+00 -0.00000000000E+00 -0.11952721386E+03  0.11961958390E+03  0.47000000000E+01 0.  1.
          6    1    1    2  502    0 -0.48082179257E+01  0.61772982328E+01  0.55771641338E+03  0.58368902313E+03  0.17200000000E+03 0. -1.
         -6    1    1    2    0  502  0.48082179257E+01 -0.61772982328E+01 -0.37068356075E+02  0.17612308479E+03  0.17200000000E+03 0.  1.
</event>
<event>
 4    1 -0.3291270E-004  0.1882529E+03  0.7818608E-02  0.1160047E+00
          5   -1    0    0  501    0  0.00000000000E+00  0.00000000000E+00  0.10364215948E+03  0.10374867335E+03  0.47000000000E+01 0. -1.
         -5   -1    0    0    0  501 -0.00000000000E+00 -0.00000000000E+00 -0.35610256607E+03  0.35613358106E+03  0.47000000000E+01 0.  1.
          6    1    1    2  502    0  0.70691970582E+02  0.29288093599E+02 -0.79898458091E+02  0.20450650537E+03  0.17200000000E+03 0. -1.
         -6    1    1    2    0  502 -0.70691970582E+02 -0.29288093599E+02 -0.17256194850E+03  0.25537574905E+03  0.17200000000E+03 0.  1.
</event>
<event>
 4    1 -0.3291270E-004  0.3970273E+03  0.7818608E-02  0.1044814E+00
         -5   -1    0    0    0  501 -0.00000000000E+00  0.00000000000E+00  0.64724604443E+03  0.64726310881E+03  0.47000000000E+01 0.  1.
          5   -1    0    0  501    0  0.00000000000E+00 -0.00000000000E+00 -0.24474959829E+03  0.24479472189E+03  0.47000000000E+01 0. -1.
          6    1    1    2  502    0  0.21338518937E+03 -0.28725145742E+03  0.16935090628E+03  0.43163684770E+03  0.17200000000E+03 0. -1.
         -6    1    1    2    0  502 -0.21338518937E+03  0.28725145742E+03  0.23314553986E+03  0.46042098300E+03  0.17200000000E+03 0.  1.
</event>
<event>
 4    1 -0.3291270E-004  0.6036018E+03  0.7818608E-02  0.9897961E-01
          5   -1    0    0  501    0  0.00000000000E+00  0.00000000000E+00  0.28710020656E+03  0.28713867487E+03  0.47000000000E+01 0. -1.
         -5   -1    0    0    0  501 -0.00000000000E+00 -0.00000000000E+00 -0.12727374024E+04  0.12727460805E+04  0.47000000000E+01 0.  1.
          6    1    1    2  502    0 -0.73693938798E+02 -0.57386439951E+03 -0.44993456304E+03  0.75284544009E+03  0.17200000000E+03 0. -1.
         -6    1    1    2    0  502  0.73693938798E+02  0.57386439951E+03 -0.53570263280E+03  0.80703931529E+03  0.17200000000E+03 0.  1.
</event>
<event>
 4    1 -0.3291270E-004  0.2366415E+03  0.7818608E-02  0.1122051E+00
         -5   -1    0    0    0  501 -0.00000000000E+00  0.00000000000E+00  0.44666560527E+03  0.44669033226E+03  0.47000000000E+01 0.  1.
          5   -1    0    0  501    0  0.00000000000E+00 -0.00000000000E+00 -0.24739986665E+03  0.24744450695E+03  0.47000000000E+01 0. -1.
          6    1    1    2  502    0  0.73410538308E+02 -0.14500369929E+03 -0.14414424424E+03  0.27708616547E+03  0.17200000000E+03 0. -1.
         -6    1    1    2    0  502 -0.73410538308E+02  0.14500369929E+03  0.34340998286E+03  0.41704867375E+03  0.17200000000E+03 0.  1.
</event>
<event>
 4    1 -0.3291270E-004  0.1807209E+03  0.7818608E-02  0.1167107E+00
          5   -1    0    0  501    0  0.00000000000E+00  0.00000000000E+00  0.43021122540E+02  0.43277095381E+02  0.47000000000E+01 0. -1.
         -5   -1    0    0    0  501 -0.00000000000E+00 -0.00000000000E+00 -0.84770049253E+03  0.84771352180E+03  0.47000000000E+01 0.  1.
          6    1    1    2  502    0 -0.20740880925E+02 -0.51438014253E+02 -0.25635798429E+03  0.31365501679E+03  0.17200000000E+03 0. -1.
         -6    1    1    2    0  502  0.20740880925E+02  0.51438014253E+02 -0.54832138571E+03  0.57733560039E+03  0.17200000000E+03 0.  1.
</event>
<event>
 4    1 -0.3291270E-004  0.5615383E+03  0.7818608E-02  0.9988580E-01
         -5   -1    0    0    0  501 -0.00000000000E+00  0.00000000000E+00  0.16133863436E+03  0.16140707833E+03  0.47000000000E+01 0.  1.
          5   -1    0    0  501    0  0.00000000000E+00 -0.00000000000E+00 -0.23279381807E+04  0.23279429252E+04  0.47000000000E+01 0. -1.
          6    1    1    2  502    0  0.52804576295E+03  0.83120313503E+02 -0.15821782412E+04  0.16788726281E+04  0.17200000000E+03 0. -1.
         -6    1    1    2    0  502 -0.52804576295E+03 -0.83120313503E+02 -0.58442130505E+03  0.81047737543E+03  0.17200000000E+03 0.  1.
</event>
<event>
 4    1 -0.3291270E-004  0.3896704E+03  0.7818608E-02  0.1047416E+00
         -5   -1    0    0    0  501 -0.00000000000E+00  0.00000000000E+00  0.13058602480E+04  0.13058687060E+04  0.47000000000E+01 0.  1.
          5   -1    0    0  501    0  0.00000000000E+00 -0.00000000000E+00 -0.12445884896E+03  0.12454756153E+03  0.47000000000E+01 0. -1.
          6    1    1    2  502    0 -0.27300413170E+03 -0.21846691861E+03  0.40678059030E+03  0.56330586638E+03  0.17200000000E+03 0. -1.
         -6    1    1    2    0  502  0.27300413170E+03  0.21846691861E+03  0.77462080871E+03  0.86711040112E+03  0.17200000000E+03 0.  1.
</event>
<event>
 4    1 -0.3291270E-004  0.3998259E+03  0.7818608E-02  0.1043840E+00
          5   -1    0    0  501    0  0.00000000000E+00  0.00000000000E+00  0.20205099291E+03  0.20210564993E+03  0.47000000000E+01 0. -1.
         -5   -1    0    0    0  501 -0.00000000000E+00 -0.00000000000E+00 -0.79124735669E+03  0.79126131554E+03  0.47000000000E+01 0.  1.
          6    1    1    2  502    0  0.24917277902E+03  0.26113156289E+03 -0.28620832684E+03  0.49170720281E+03  0.17200000000E+03 0. -1.
         -6    1    1    2    0  502 -0.24917277902E+03 -0.26113156289E+03 -0.30298803695E+03  0.50165976267E+03  0.17200000000E+03 0.  1.
</event>
<event>
 4    1 -0.3291270E-004  0.1935684E+03  0.7818608E-02  0.1155282E+00
         -5   -1    0    0    0  501 -0.00000000000E+00  0.00000000000E+00  0.79876645056E+02  0.80014801289E+02  0.47000000000E+01 0.  1.
          5   -1    0    0  501    0  0.00000000000E+00 -0.00000000000E+00 -0.48135918329E+03  0.48138212819E+03  0.47000000000E+01 0. -1.
          6    1    1    2  502    0  0.74930700931E+02  0.47645618489E+02 -0.15491826972E+03  0.24792818556E+03  0.17200000000E+03 0. -1.
         -6    1    1    2    0  502 -0.74930700931E+02 -0.47645618489E+02 -0.24656426851E+03  0.31346874391E+03  0.17200000000E+03 0. -1.
</event>
<event>
 4    1 -0.3291270E-004  0.1918020E+03  0.7818608E-02  0.1156846E+00
         -5   -1    0    0    0  501 -0.00000000000E+00  0.00000000000E+00  0.98753874425E+02  0.98865654875E+02  0.47000000000E+01 0.  1.
          5   -1    0    0  501    0  0.00000000000E+00 -0.00000000000E+00 -0.53060188910E+03  0.53062270468E+03  0.47000000000E+01 0. -1.
          6    1    1    2  502    0  0.21336063296E+01  0.84849702057E+02 -0.38788026088E+03  0.43271135991E+03  0.17200000000E+03 0. -1.
         -6    1    1    2    0  502 -0.21336063296E+01 -0.84849702057E+02 -0.43967753801E+02  0.19677699965E+03  0.17200000000E+03 0.  1.
</event>
<event>
 4    1 -0.3291270E-004  0.1784797E+03  0.7818608E-02  0.1169283E+00
          5   -1    0    0  501    0  0.00000000000E+00  0.00000000000E+00  0.32304812443E+03  0.32308231257E+03  0.47000000000E+01 0. -1.
         -5   -1    0    0    0  501 -0.00000000000E+00 -0.00000000000E+00 -0.11786193794E+03  0.11795561205E+03  0.47000000000E+01 0.  1.
          6    1    1    2  502    0  0.24176691759E+02  0.41067079043E+02  0.19189158093E+03  0.26206372553E+03  0.17200000000E+03 0. -1.
         -6    1    1    2    0  502 -0.24176691759E+02 -0.41067079043E+02  0.13294605557E+02  0.17897419910E+03  0.17200000000E+03 0.  1.
</event>
<event>
 4    1 -0.3291270E-004  0.2167242E+03  0.7818608E-02  0.1136349E+00
         -5   -1    0    0    0  501 -0.00000000000E+00  0.00000000000E+00  0.53371091942E+03  0.53373161374E+03  0.47000000000E+01 0.  1.
          5   -1    0    0  501    0  0.00000000000E+00 -0.00000000000E+00 -0.10773503589E+03  0.10783750720E+03  0.47000000000E+01 0. -1.
          6    1    1    2  502    0 -0.68121587320E+02  0.11289294290E+03  0.75501432072E+02  0.22949909250E+03  0.17200000000E+03 0. -1.
         -6    1    1    2    0  502  0.68121587320E+02 -0.11289294290E+03  0.35047445146E+03  0.41207002844E+03  0.17200000000E+03 0.  1.
</event>
<event>
 4    1 -0.3291270E-004  0.3338108E+03  0.7818608E-02  0.1069463E+00
         -5   -1    0    0    0  501 -0.00000000000E+00  0.00000000000E+00  0.13107462794E+04  0.13107547059E+04  0.47000000000E+01 0.  1.
          5   -1    0    0  501    0  0.00000000000E+00 -0.00000000000E+00 -0.10027323800E+03  0.10038332660E+03  0.47000000000E+01 0. -1.
          6    1    1    2  502    0  0.21569079801E+03 -0.18794453627E+03  0.88097926330E+03  0.94210091360E+03  0.17200000000E+03 0.  1.
         -6    1    1    2    0  502 -0.21569079801E+03  0.18794453627E+03  0.32949377808E+03  0.46903711884E+03  0.17200000000E+03 0.  1.
</event>
<event>
 4    1 -0.3291270E-004  0.1841740E+03  0.7818608E-02  0.1163824E+00
         -5   -1    0    0    0  501 -0.00000000000E+00  0.00000000000E+00  0.28945393736E+03  0.28949209291E+03  0.47000000000E+01 0.  1.
          5   -1    0    0  501    0  0.00000000000E+00 -0.00000000000E+00 -0.11729160989E+03  0.11738573913E+03  0.47000000000E+01 0. -1.
          6    1    1    2  502    0 -0.57447784369E+02  0.32183957503E+02  0.77721591293E+02  0.19990172786E+03  0.17200000000E+03 0.  1.
         -6    1    1    2    0  502  0.57447784369E+02 -0.32183957503E+02  0.94440736179E+02  0.20697610417E+03  0.17200000000E+03 0.  1.
</event>
<event>
 4    1 -0.3291270E-004  0.2372348E+03  0.7818608E-02  0.1121649E+00
          5   -1    0    0  501    0  0.00000000000E+00  0.00000000000E+00  0.76715952742E+02  0.76859790561E+02  0.47000000000E+01 0. -1.
         -5   -1    0    0    0  501 -0.00000000000E+00 -0.00000000000E+00 -0.96068315361E+03  0.96069465057E+03  0.47000000000E+01 0.  1.
          6    1    1    2  502    0  0.15786618521E+03 -0.42126361799E+02 -0.18932798844E+03  0.30352174551E+03  0.17200000000E+03 0. -1.
         -6    1    1    2    0  502 -0.15786618521E+03  0.42126361799E+02 -0.69463921242E+03  0.73403269561E+03  0.17200000000E+03 0.  1.
</event>
<event>
 4    1 -0.3291270E-004  0.2744916E+03  0.7818608E-02  0.1098736E+00
          5   -1    0    0  501    0  0.00000000000E+00  0.00000000000E+00  0.20850512410E+03  0.20855808969E+03  0.47000000000E+01 0. -1.
         -5   -1    0    0    0  501 -0.00000000000E+00 -0.00000000000E+00 -0.37240463517E+03  0.37243429258E+03  0.47000000000E+01 0.  1.
          6    1    1    2  502    0  0.16049344891E+03  0.14143378439E+03 -0.13222676344E+03  0.30467947007E+03  0.17200000000E+03 0. -1.
         -6    1    1    2    0  502 -0.16049344891E+03 -0.14143378439E+03 -0.31672747629E+02  0.27631291221E+03  0.17200000000E+03 0.  1.
</event>
<event>
 4    1 -0.3291270E-004  0.2715765E+03  0.7818608E-02  0.1100381E+00
          5   -1    0    0  501    0  0.00000000000E+00  0.00000000000E+00  0.11438029424E+04  0.11438125987E+04  0.47000000000E+01 0. -1.
         -5   -1    0    0    0  501 -0.00000000000E+00 -0.00000000000E+00 -0.69059922405E+02  0.69219671211E+02  0.47000000000E+01 0.  1.
          6    1    1    2  502    0  0.19775393850E+03  0.71156038523E+02  0.69496461741E+03  0.74614316418E+03  0.17200000000E+03 0. -1.
         -6    1    1    2    0  502 -0.19775393850E+03 -0.71156038523E+02  0.37977840258E+03  0.46688910576E+03  0.17200000000E+03 0.  1.
</event>
<event>
 4    1 -0.3291270E-004  0.1747576E+03  0.7818608E-02  0.1172975E+00
         -5   -1    0    0    0  501 -0.00000000000E+00  0.00000000000E+00  0.24102110428E+02  0.24556093482E+02  0.47000000000E+01 0.  1.
          5   -1    0    0  501    0  0.00000000000E+00 -0.00000000000E+00 -0.15611499095E+04  0.15611569844E+04  0.47000000000E+01 0. -1.
          6    1    1    2  502    0 -0.13254579914E+02 -0.27937965129E+02 -0.11196722297E+04  0.11332281835E+04  0.17200000000E+03 0. -1.
         -6    1    1    2    0  502  0.13254579914E+02  0.27937965129E+02 -0.41737556935E+03  0.45248489441E+03  0.17200000000E+03 0.  1.
</event>
<event>
 4    1 -0.3291270E-004  0.1873645E+03  0.7818608E-02  0.1160860E+00
          5   -1    0    0  501    0  0.00000000000E+00  0.00000000000E+00  0.12640292311E+02  0.13485806973E+02  0.47000000000E+01 0. -1.
         -5   -1    0    0    0  501 -0.00000000000E+00 -0.00000000000E+00 -0.27471883505E+04  0.27471923710E+04  0.47000000000E+01 0.  1.
          6    1    1    2  502    0  0.68145231899E+02  0.29625952132E+02 -0.15723365177E+04  0.15834606388E+04  0.17200000000E+03 0.  1.
         -6    1    1    2    0  502 -0.68145231899E+02 -0.29625952132E+02 -0.11622115404E+04  0.11772175391E+04  0.17200000000E+03 0. -1.
</event>
<event>
 4    1 -0.3291270E-004  0.1850444E+03  0.7818608E-02  0.1163008E+00
         -5   -1    0    0    0  501 -0.00000000000E+00  0.00000000000E+00  0.79951855642E+03  0.79953237087E+03  0.47000000000E+01 0.  1.
          5   -1    0    0  501    0  0.00000000000E+00 -0.00000000000E+00 -0.50875198367E+02  0.51091837009E+02  0.47000000000E+01 0. -1.
          6    1    1    2  502    0 -0.23540384677E+02  0.64056928875E+02  0.20408682676E+03  0.27548661076E+03  0.17200000000E+03 0. -1.
         -6    1    1    2    0  502  0.23540384677E+02 -0.64056928875E+02  0.54455653129E+03  0.57513759712E+03  0.17200000000E+03 0.  1.
</event>
<event>
 4    1 -0.3291270E-004  0.2152126E+03  0.7818608E-02  0.1137503E+00
          5   -1    0    0  501    0  0.00000000000E+00  0.00000000000E+00  0.89043604956E+03  0.89044845351E+03  0.47000000000E+01 0. -1.
         -5   -1    0    0    0  501 -0.00000000000E+00 -0.00000000000E+00 -0.79323591600E+02  0.79462709395E+02  0.47000000000E+01 0.  1.
          6    1    1    2  502    0  0.10339287365E+03 -0.77732817486E+02  0.69037973974E+03  0.72314636297E+03  0.17200000000E+03 0.  1.
         -6    1    1    2    0  502 -0.10339287365E+03  0.77732817486E+02  0.12073271822E+03  0.24676479993E+03  0.17200000000E+03 0.  1.
</event>
<event>
 4    1 -0.3291270E-004  0.1810850E+03  0.7818608E-02  0.1166757E+00
          5   -1    0    0  501    0  0.00000000000E+00  0.00000000000E+00  0.26973215866E+02  0.27379634296E+02  0.47000000000E+01 0. -1.
         -5   -1    0    0    0  501 -0.00000000000E+00 -0.00000000000E+00 -0.13864271291E+04  0.13864350956E+04  0.47000000000E+01 0.  1.
          6    1    1    2  502    0 -0.51973198468E+02  0.22506919986E+02 -0.42490238017E+03  0.46188072863E+03  0.17200000000E+03 0. -1.
         -6    1    1    2    0  502  0.51973198468E+02 -0.22506919986E+02 -0.93455153304E+03  0.95193400123E+03  0.17200000000E+03 0.  1.
</event>
<event>
 4    1 -0.3291270E-004  0.3128438E+03  0.7818608E-02  0.1078991E+00
          5   -1    0    0  501    0  0.00000000000E+00  0.00000000000E+00  0.40076976786E+03  0.40079732638E+03  0.47000000000E+01 0. -1.
         -5   -1    0    0    0  501 -0.00000000000E+00 -0.00000000000E+00 -0.32687158775E+03  0.32690537603E+03  0.47000000000E+01 0.  1.
          6    1    1    2  502    0 -0.21749274567E+03 -0.14485915516E+03  0.21997021665E+03  0.38243713924E+03  0.17200000000E+03 0. -1.
         -6    1    1    2    0  502  0.21749274567E+03  0.14485915516E+03 -0.14607203654E+03  0.34526556317E+03  0.17200000000E+03 0.  1.
</event>
<event>
 4    1 -0.3291270E-004  0.2924156E+03  0.7818608E-02  0.1089095E+00
          5   -1    0    0  501    0  0.00000000000E+00  0.00000000000E+00  0.24363194336E+04  0.24363239671E+04  0.47000000000E+01 0. -1.
         -5   -1    0    0    0  501 -0.00000000000E+00 -0.00000000000E+00 -0.36787859945E+02  0.37086879611E+02  0.47000000000E+01 0.  1.
          6    1    1    2  502    0 -0.98199706464E+02 -0.21512719245E+03  0.14761586642E+04  0.15048426141E+04  0.17200000000E+03 0. -1.
         -6    1    1    2    0  502  0.98199706464E+02  0.21512719245E+03  0.92337290945E+03  0.96856823260E+03  0.17200000000E+03 0.  1.
</event>
<event>
 4    1 -0.3291270E-004  0.1763762E+03  0.7818608E-02  0.1171357E+00
         -5   -1    0    0    0  501 -0.00000000000E+00  0.00000000000E+00  0.67409070747E+03  0.67410709231E+03  0.47000000000E+01 0.  1.
          5   -1    0    0  501    0  0.00000000000E+00 -0.00000000000E+00 -0.50136012488E+02  0.50355831323E+02  0.47000000000E+01 0. -1.
          6    1    1    2  502    0  0.35131996230E+02  0.17038089703E+02  0.20834513913E+03  0.27297664856E+03  0.17200000000E+03 0. -1.
         -6    1    1    2    0  502 -0.35131996230E+02 -0.17038089703E+02  0.41560955586E+03  0.45148627507E+03  0.17200000000E+03 0. -1.
</event>
<event>
 4    1 -0.3291270E-004  0.2197997E+03  0.7818608E-02  0.1134032E+00
         -5   -1    0    0    0  501 -0.00000000000E+00  0.00000000000E+00  0.82108060847E+03  0.82109406014E+03  0.47000000000E+01 0.  1.
          5   -1    0    0  501    0  0.00000000000E+00 -0.00000000000E+00 -0.74191016484E+02  0.74339739890E+02  0.47000000000E+01 0. -1.
          6    1    1    2  502    0  0.13064505722E+03 -0.40740323268E+02  0.16932123941E+03  0.27745555866E+03  0.17200000000E+03 0. -1.
         -6    1    1    2    0  502 -0.13064505722E+03  0.40740323268E+02  0.57756835258E+03  0.61797824138E+03  0.17200000000E+03 0.  1.
</event>
<event>
 4    1 -0.3291270E-004  0.2059059E+03  0.7818608E-02  0.1144850E+00
         -5   -1    0    0    0  501 -0.00000000000E+00  0.00000000000E+00  0.88416403425E+03  0.88417652619E+03  0.47000000000E+01 0.  1.
          5   -1    0    0  501    0  0.00000000000E+00 -0.00000000000E+00 -0.51629011935E+02  0.51842500648E+02  0.47000000000E+01 0. -1.
          6    1    1    2  502    0  0.60293601137E+02 -0.95801401613E+02  0.28949737587E+03  0.35525477833E+03  0.17200000000E+03 0. -1.
         -6    1    1    2    0  502 -0.60293601137E+02  0.95801401613E+02  0.54303764644E+03  0.58076424851E+03  0.17200000000E+03 0. -1.
</event>
<event>
 4    1 -0.3291270E-004  0.2441410E+03  0.7818608E-02  0.1117065E+00
          5   -1    0    0  501    0  0.00000000000E+00  0.00000000000E+00  0.42762682656E+03  0.42765265437E+03  0.47000000000E+01 0. -1.
         -5   -1    0    0    0  501 -0.00000000000E+00 -0.00000000000E+00 -0.20787196942E+03  0.20792509629E+03  0.47000000000E+01 0.  1.
          6    1    1    2  502    0  0.15762344856E+03  0.71942229002E+02  0.29233792021E+03  0.38087569553E+03  0.17200000000E+03 0. -1.
         -6    1    1    2    0  502 -0.15762344856E+03 -0.71942229002E+02 -0.72583063065E+02  0.25470205514E+03  0.17200000000E+03 0.  1.
</event>
<event>
 4    1 -0.3291270E-004  0.1898021E+03  0.7818608E-02  0.1158640E+00
          5   -1    0    0  501    0  0.00000000000E+00  0.00000000000E+00  0.87163845013E+03  0.87165112158E+03  0.47000000000E+01 0. -1.
         -5   -1    0    0    0  501 -0.00000000000E+00 -0.00000000000E+00 -0.44832904609E+02  0.45078590658E+02  0.47000000000E+01 0.  1.
          6    1    1    2  502    0 -0.50037809519E+02  0.62745931788E+02  0.54378868284E+03  0.57596090659E+03  0.17200000000E+03 0. -1.
         -6    1    1    2    0  502  0.50037809519E+02 -0.62745931788E+02  0.28301686269E+03  0.34076880565E+03  0.17200000000E+03 0.  1.
</event>
<event>
 4    1 -0.3291270E-004  0.1781021E+03  0.7818608E-02  0.1169653E+00
          5   -1    0    0  501    0  0.00000000000E+00  0.00000000000E+00  0.20713551611E+03  0.20718883182E+03  0.47000000000E+01 0. -1.
         -5   -1    0    0    0  501 -0.00000000000E+00 -0.00000000000E+00 -0.18277923513E+03  0.18283965323E+03  0.47000000000E+01 0.  1.
          6    1    1    2  502    0 -0.24782368348E+02  0.39015478700E+02  0.90829254618E+02  0.19992580337E+03  0.17200000000E+03 0. -1.
         -6    1    1    2    0  502  0.24782368348E+02 -0.39015478700E+02 -0.66472973636E+02  0.19010268168E+03  0.17200000000E+03 0.  1.
</event>
<event>
 4    1 -0.3291270E-004  0.2944078E+03  0.7818608E-02  0.1088070E+00
          5   -1    0    0  501    0  0.00000000000E+00  0.00000000000E+00  0.44383800185E+03  0.44386288636E+03  0.47000000000E+01 0. -1.
         -5   -1    0    0    0  501 -0.00000000000E+00 -0.00000000000E+00 -0.19809154026E+03  0.19814728947E+03  0.47000000000E+01 0.  1.
          6    1    1    2  502    0 -0.62822603290E+02 -0.23053263309E+03  0.16145512102E+03  0.33577333203E+03  0.17200000000E+03 0. -1.
         -6    1    1    2    0  502  0.62822603290E+02  0.23053263309E+03  0.84291340576E+02  0.30623684380E+03  0.17200000000E+03 0.  1.
</event>
<event>
 4    1 -0.3291270E-004  0.2005693E+03  0.7818608E-02  0.1149260E+00
         -5   -1    0    0    0  501 -0.00000000000E+00  0.00000000000E+00  0.18937573747E+03  0.18943405170E+03  0.47000000000E+01 0.  1.
          5   -1    0    0  501    0  0.00000000000E+00 -0.00000000000E+00 -0.23880247404E+03  0.23884872118E+03  0.47000000000E+01 0. -1.
          6    1    1    2  502    0 -0.79568967166E+02 -0.65672097691E+02 -0.96025848525E+02  0.22237133029E+03  0.17200000000E+03 0. -1.
         -6    1    1    2    0  502  0.79568967166E+02  0.65672097691E+02  0.46599111955E+02  0.20591144258E+03  0.17200000000E+03 0.  1.
</event>
<event>
 4    1 -0.3291270E-004  0.2028591E+03  0.7818608E-02  0.1147349E+00
         -5   -1    0    0    0  501 -0.00000000000E+00  0.00000000000E+00  0.31473256341E+03  0.31476765474E+03  0.47000000000E+01 0.  1.
          5   -1    0    0  501    0  0.00000000000E+00 -0.00000000000E+00 -0.20076964248E+03  0.20082464825E+03  0.47000000000E+01 0. -1.
          6    1    1    2  502    0 -0.10152485124E+03 -0.35503919559E+02 -0.95311894404E+02  0.22413429220E+03  0.17200000000E+03 0. -1.
         -6    1    1    2    0  502  0.10152485124E+03  0.35503919559E+02  0.20927481533E+03  0.29145801079E+03  0.17200000000E+03 0.  1.
</event>
<event>
 4    1 -0.3291270E-004  0.8154253E+03  0.7818608E-02  0.9537954E-01
         -5   -1    0    0    0  501 -0.00000000000E+00  0.00000000000E+00  0.45565322356E+03  0.45567746284E+03  0.47000000000E+01 0.  1.
          5   -1    0    0  501    0  0.00000000000E+00 -0.00000000000E+00 -0.14680568500E+04  0.14680643735E+04  0.47000000000E+01 0. -1.
          6    1    1    2  502    0  0.68624236822E+03 -0.40546998105E+03 -0.43148094785E+03  0.92254772334E+03  0.17200000000E+03 0. -1.
         -6    1    1    2    0  502 -0.68624236822E+03  0.40546998105E+03 -0.58092267861E+03  0.10011941130E+04  0.17200000000E+03 0.  1.
</event>
<event>
 4    1 -0.3291270E-004  0.1771607E+03  0.7818608E-02  0.1170580E+00
         -5   -1    0    0    0  501 -0.00000000000E+00  0.00000000000E+00  0.94764388584E+02  0.94880869219E+02  0.47000000000E+01 0.  1.
          5   -1    0    0  501    0  0.00000000000E+00 -0.00000000000E+00 -0.38455310527E+03  0.38458182585E+03  0.47000000000E+01 0. -1.
          6    1    1    2  502    0  0.42361424160E+02  0.27243001709E+01 -0.23445375732E+03  0.29386132170E+03  0.17200000000E+03 0. -1.
         -6    1    1    2    0  502 -0.42361424160E+02 -0.27243001709E+01 -0.55334959363E+02  0.18560137337E+03  0.17200000000E+03 0.  1.
</event>
<event>
 4    1 -0.3291270E-004  0.2409061E+03  0.7818608E-02  0.1119191E+00
          5   -1    0    0  501    0  0.00000000000E+00  0.00000000000E+00  0.78207682810E+02  0.78348782062E+02  0.47000000000E+01 0. -1.
         -5   -1    0    0    0  501 -0.00000000000E+00 -0.00000000000E+00 -0.12345879400E+04  0.12345968863E+04  0.47000000000E+01 0.  1.
          6    1    1    2  502    0 -0.22564203179E+01 -0.16866133922E+03 -0.16323703676E+03  0.29100183668E+03  0.17200000000E+03 0. -1.
         -6    1    1    2    0  502  0.22564203179E+01  0.16866133922E+03 -0.99314322047E+03  0.10219438317E+04  0.17200000000E+03 0.  1.
</event>
<event>
 4    1 -0.3291270E-004  0.1984056E+03  0.7818608E-02  0.1151091E+00
         -5   -1    0    0    0  501 -0.00000000000E+00  0.00000000000E+00  0.11774284296E+04  0.11774378102E+04  0.47000000000E+01 0.  1.
          5   -1    0    0  501    0  0.00000000000E+00 -0.00000000000E+00 -0.34285116567E+02  0.34605768566E+02  0.47000000000E+01 0. -1.
          6    1    1    2  502    0 -0.74165024779E+02  0.65424090764E+02  0.46719196713E+03  0.50757570539E+03  0.17200000000E+03 0. -1.
         -6    1    1    2    0  502  0.74165024779E+02 -0.65424090764E+02  0.67595134590E+03  0.70446787335E+03  0.17200000000E+03 0.  1.
</event>
<event>
 4    1 -0.3291270E-004  0.4347416E+03  0.7818608E-02  0.1032373E+00
         -5   -1    0    0    0  501 -0.00000000000E+00  0.00000000000E+00  0.44017802677E+03  0.44020311817E+03  0.47000000000E+01 0.  1.
          5   -1    0    0  501    0  0.00000000000E+00 -0.00000000000E+00 -0.44649030507E+03  0.44651504176E+03  0.47000000000E+01 0. -1.
          6    1    1    2  502    0 -0.19897458400E+03  0.34615806141E+03 -0.90089487165E+02  0.44397793217E+03  0.17200000000E+03 0. -1.
         -6    1    1    2    0  502  0.19897458400E+03 -0.34615806141E+03  0.83777208866E+02  0.44274022777E+03  0.17200000000E+03 0.  1.
</event>
<event>
 4    1 -0.3291270E-004  0.4969811E+03  0.7818608E-02  0.1014570E+00
          5   -1    0    0  501    0  0.00000000000E+00  0.00000000000E+00  0.19757710390E+03  0.19763299822E+03  0.47000000000E+01 0. -1.
         -5   -1    0    0    0  501 -0.00000000000E+00 -0.00000000000E+00 -0.12663088998E+04  0.12663176219E+04  0.47000000000E+01 0.  1.
          6    1    1    2  502    0 -0.32828493174E+03  0.33111203830E+03 -0.45093826357E+03  0.67107041051E+03  0.17200000000E+03 0. -1.
         -6    1    1    2    0  502  0.32828493174E+03 -0.33111203830E+03 -0.61779353228E+03  0.79288020964E+03  0.17200000000E+03 0.  1.
</event>
<event>
 4    1 -0.3291270E-004  0.1837592E+03  0.7818608E-02  0.1164214E+00
          5   -1    0    0  501    0  0.00000000000E+00  0.00000000000E+00  0.21435032206E+03  0.21440184366E+03  0.47000000000E+01 0. -1.
         -5   -1    0    0    0  501 -0.00000000000E+00 -0.00000000000E+00 -0.18538351751E+03  0.18544308713E+03  0.47000000000E+01 0.  1.
          6    1    1    2  502    0 -0.24542168960E+02 -0.59842500915E+02  0.92093922049E+02  0.20554496698E+03  0.17200000000E+03 0. -1.
         -6    1    1    2    0  502  0.24542168960E+02  0.59842500915E+02 -0.63127117505E+02  0.19429996381E+03  0.17200000000E+03 0.  1.
</event>
<event>
 4    1 -0.3291270E-004  0.1954048E+03  0.7818608E-02  0.1153675E+00
          5   -1    0    0  501    0  0.00000000000E+00  0.00000000000E+00  0.20915918947E+03  0.20921198948E+03  0.47000000000E+01 0. -1.
         -5   -1    0    0    0  501 -0.00000000000E+00 -0.00000000000E+00 -0.29933782366E+03  0.29937471950E+03  0.47000000000E+01 0.  1.
          6    1    1    2  502    0 -0.90347355442E+02  0.20890095299E+02  0.11379001443E+03  0.22612210883E+03  0.17200000000E+03 0. -1.
         -6    1    1    2    0  502  0.90347355442E+02 -0.20890095299E+02 -0.20396864862E+03  0.28246460015E+03  0.17200000000E+03 0.  1.
</event>
<event>
 4    1 -0.3291270E-004  0.1841332E+03  0.7818608E-02  0.1163862E+00
         -5   -1    0    0    0  501 -0.00000000000E+00  0.00000000000E+00  0.11425323890E+03  0.11434986926E+03  0.47000000000E+01 0.  1.
          5   -1    0    0  501    0  0.00000000000E+00 -0.00000000000E+00 -0.52099200767E+03  0.52101320718E+03  0.47000000000E+01 0. -1.
          6    1    1    2  502    0  0.27434336532E+02  0.59736112223E+02 -0.41187227136E+03  0.45115830242E+03  0.17200000000E+03 0. -1.
         -6    1    1    2    0  502 -0.27434336532E+02 -0.59736112223E+02  0.51335025955E+01  0.18420477402E+03  0.17200000000E+03 0.  1.
</event>
<event>
 4    1 -0.3291270E-004  0.1844703E+03  0.7818608E-02  0.1163545E+00
         -5   -1    0    0    0  501 -0.00000000000E+00  0.00000000000E+00  0.16389671758E+03  0.16396409374E+03  0.47000000000E+01 0.  1.
          5   -1    0    0  501    0  0.00000000000E+00 -0.00000000000E+00 -0.24145485725E+03  0.24150059646E+03  0.47000000000E+01 0. -1.
          6    1    1    2  502    0  0.63073863538E+02  0.21609941003E+02 -0.11479697860E+03  0.21727321075E+03  0.17200000000E+03 0. -1.
         -6    1    1    2    0  502 -0.63073863538E+02 -0.21609941003E+02  0.37238838934E+02  0.18819147945E+03  0.17200000000E+03 0.  1.
</event>
<event>
 4    1 -0.3291270E-004  0.1760971E+03  0.7818608E-02  0.1171635E+00
          5   -1    0    0  501    0  0.00000000000E+00  0.00000000000E+00  0.38260142237E+02  0.38547742917E+02  0.47000000000E+01 0. -1.
         -5   -1    0    0    0  501 -0.00000000000E+00 -0.00000000000E+00 -0.80848026841E+03  0.80849392973E+03  0.47000000000E+01 0.  1.
          6    1    1    2  502    0  0.17895582643E+02  0.33255590002E+02 -0.40209443058E+03  0.43896482461E+03  0.17200000000E+03 0.  1.
         -6    1    1    2    0  502 -0.17895582643E+02 -0.33255590002E+02 -0.36812569560E+03  0.40807684804E+03  0.17200000000E+03 0. -1.
</event>
<event>
 4    1 -0.3291270E-004  0.1875565E+03  0.7818608E-02  0.1160684E+00
          5   -1    0    0  501    0  0.00000000000E+00  0.00000000000E+00  0.17110028726E+03  0.17116482788E+03  0.47000000000E+01 0. -1.
         -5   -1    0    0    0  501 -0.00000000000E+00 -0.00000000000E+00 -0.22031857068E+03  0.22036869693E+03  0.47000000000E+01 0.  1.
          6    1    1    2  502    0  0.65387478489E+02 -0.36303384918E+02  0.26207824969E+02  0.18937874271E+03  0.17200000000E+03 0. -1.
         -6    1    1    2    0  502 -0.65387478489E+02  0.36303384918E+02 -0.75426108387E+02  0.20215478210E+03  0.17200000000E+03 0.  1.
</event>
<event>
 4    1 -0.3291270E-004  0.2376230E+03  0.7818608E-02  0.1121387E+00
          5   -1    0    0  501    0  0.00000000000E+00  0.00000000000E+00  0.11006099238E+03  0.11016130011E+03  0.47000000000E+01 0. -1.
         -5   -1    0    0    0  501 -0.00000000000E+00 -0.00000000000E+00 -0.56834791553E+03  0.56836734871E+03  0.47000000000E+01 0.  1.
          6    1    1    2  502    0  0.15064155202E+03 -0.64713207534E+02 -0.12298272580E+03  0.26756200640E+03  0.17200000000E+03 0. -1.
         -6    1    1    2    0  502 -0.15064155202E+03  0.64713207534E+02 -0.33530419735E+03  0.41096664243E+03  0.17200000000E+03 0.  1.
</event>
<event>
 4    1 -0.3291270E-004  0.2881454E+03  0.7818608E-02  0.1091321E+00
          5   -1    0    0  501    0  0.00000000000E+00  0.00000000000E+00  0.72851720071E+03  0.72853236148E+03  0.47000000000E+01 0. -1.
         -5   -1    0    0    0  501 -0.00000000000E+00 -0.00000000000E+00 -0.11762070511E+03  0.11771457119E+03  0.47000000000E+01 0.  1.
          6    1    1    2  502    0 -0.14548707488E+03  0.17965872632E+03  0.38063471884E+03  0.47739976549E+03  0.17200000000E+03 0. -1.
         -6    1    1    2    0  502  0.14548707488E+03 -0.17965872632E+03  0.23026177676E+03  0.36884716718E+03  0.17200000000E+03 0.  1.
</event>
<event>
 4    1 -0.3291270E-004  0.3190117E+03  0.7818608E-02  0.1076105E+00
          5   -1    0    0  501    0  0.00000000000E+00  0.00000000000E+00  0.11283097752E+03  0.11292882488E+03  0.47000000000E+01 0. -1.
         -5   -1    0    0    0  501 -0.00000000000E+00 -0.00000000000E+00 -0.12110088637E+04  0.12110179842E+04  0.47000000000E+01 0.  1.
          6    1    1    2  502    0 -0.89500474750E+02  0.25332608935E+03 -0.21442256110E+03  0.38437673868E+03  0.17200000000E+03 0. -1.
         -6    1    1    2    0  502  0.89500474750E+02 -0.25332608935E+03 -0.88375532511E+03  0.93957007040E+03  0.17200000000E+03 0.  1.
</event>
<event>
 4    1 -0.3291270E-004  0.2444531E+03  0.7818608E-02  0.1116861E+00
         -5   -1    0    0    0  501 -0.00000000000E+00  0.00000000000E+00  0.53012767518E+02  0.53220705744E+02  0.47000000000E+01 0.  1.
          5   -1    0    0  501    0  0.00000000000E+00 -0.00000000000E+00 -0.11281477436E+04  0.11281575339E+04  0.47000000000E+01 0. -1.
          6    1    1    2  502    0  0.15357893410E+03  0.81159305649E+02 -0.56971378794E+03  0.61994445079E+03  0.17200000000E+03 0. -1.
         -6    1    1    2    0  502 -0.15357893410E+03 -0.81159305649E+02 -0.50542118813E+03  0.56143378889E+03  0.17200000000E+03 0.  1.
</event>
<event>
 4    1 -0.3291270E-004  0.2530269E+03  0.7818608E-02  0.1111407E+00
         -5   -1    0    0    0  501 -0.00000000000E+00  0.00000000000E+00  0.60180821983E+02  0.60364073211E+02  0.47000000000E+01 0.  1.
          5   -1    0    0  501    0  0.00000000000E+00 -0.00000000000E+00 -0.17413192615E+04  0.17413256044E+04  0.47000000000E+01 0. -1.
          6    1    1    2  502    0  0.17811090665E+03 -0.52106670109E+02 -0.14031874159E+04  0.14258181947E+04  0.17200000000E+03 0. -1.
         -6    1    1    2    0  502 -0.17811090665E+03  0.52106670109E+02 -0.27795102362E+03  0.37587148292E+03  0.17200000000E+03 0.  1.
</event>
<event>
 4    1 -0.3291270E-004  0.2574925E+03  0.7818608E-02  0.1108659E+00
          5   -1    0    0  501    0  0.00000000000E+00  0.00000000000E+00  0.18708996995E+03  0.18714899641E+03  0.47000000000E+01 0. -1.
         -5   -1    0    0    0  501 -0.00000000000E+00 -0.00000000000E+00 -0.35778921431E+03  0.35782008311E+03  0.47000000000E+01 0.  1.
          6    1    1    2  502    0 -0.11073155634E+03  0.15638697332E+03 -0.58279354674E+02  0.26400539043E+03  0.17200000000E+03 0. -1.
         -6    1    1    2    0  502  0.11073155634E+03 -0.15638697332E+03 -0.11241988968E+03  0.28096368909E+03  0.17200000000E+03 0. -1.
</event>
<event>
 4    1 -0.3291270E-004  0.1874894E+03  0.7818608E-02  0.1160745E+00
         -5   -1    0    0    0  501 -0.00000000000E+00  0.00000000000E+00  0.76575907676E+03  0.76577350023E+03  0.47000000000E+01 0.  1.
          5   -1    0    0  501    0  0.00000000000E+00 -0.00000000000E+00 -0.57872583561E+02  0.58063120206E+02  0.47000000000E+01 0. -1.
          6    1    1    2  502    0  0.46377006599E+02 -0.58459047958E+02  0.54194114824E+03  0.57345662015E+03  0.17200000000E+03 0.  1.
         -6    1    1    2    0  502 -0.46377006599E+02  0.58459047958E+02  0.16594534496E+03  0.25038000029E+03  0.17200000000E+03 0.  1.
</event>
<event>
 4    1 -0.3291270E-004  0.1994352E+03  0.7818608E-02  0.1150216E+00
         -5   -1    0    0    0  501 -0.00000000000E+00  0.00000000000E+00  0.53077072740E+03  0.53079153635E+03  0.47000000000E+01 0.  1.
          5   -1    0    0  501    0  0.00000000000E+00 -0.00000000000E+00 -0.74853900165E+02  0.75001309121E+02  0.47000000000E+01 0. -1.
          6    1    1    2  502    0  0.31377836018E+01  0.10089876181E+03  0.22399864675E+03  0.29991632094E+03  0.17200000000E+03 0. -1.
         -6    1    1    2    0  502 -0.31377836018E+01 -0.10089876181E+03  0.23191818049E+03  0.30587652453E+03  0.17200000000E+03 0.  1.
</event>
<event>
 4    1 -0.3291270E-004  0.1759361E+03  0.7818608E-02  0.1171795E+00
         -5   -1    0    0    0  501 -0.00000000000E+00  0.00000000000E+00  0.40096957835E+03  0.40099712313E+03  0.47000000000E+01 0.  1.
          5   -1    0    0  501    0  0.00000000000E+00 -0.00000000000E+00 -0.77229500764E+02  0.77372383887E+02  0.47000000000E+01 0. -1.
          6    1    1    2  502    0 -0.74694446776E+01 -0.36245473845E+02  0.15189683440E+03  0.23243531418E+03  0.17200000000E+03 0. -1.
         -6    1    1    2    0  502  0.74694446776E+01  0.36245473845E+02  0.17184324318E+03  0.24593419284E+03  0.17200000000E+03 0. -1.
</event>
<event>
 4    1 -0.3291270E-004  0.2063644E+03  0.7818608E-02  0.1144478E+00
          5   -1    0    0  501    0  0.00000000000E+00  0.00000000000E+00  0.68738682029E+02  0.68899175663E+02  0.47000000000E+01 0. -1.
         -5   -1    0    0    0  501 -0.00000000000E+00 -0.00000000000E+00 -0.12623318277E+04  0.12623405773E+04  0.47000000000E+01 0.  1.
          6    1    1    2  502    0 -0.99215846391E+02 -0.56200276554E+02 -0.12152001333E+03  0.23948563402E+03  0.17200000000E+03 0. -1.
         -6    1    1    2    0  502  0.99215846391E+02  0.56200276554E+02 -0.10720731323E+04  0.10917541190E+04  0.17200000000E+03 0.  1.
</event>
<event>
 4    1 -0.3291270E-004  0.1805210E+03  0.7818608E-02  0.1167300E+00
         -5   -1    0    0    0  501 -0.00000000000E+00  0.00000000000E+00  0.19644494225E+04  0.19644550449E+04  0.47000000000E+01 0.  1.
          5   -1    0    0  501    0  0.00000000000E+00 -0.00000000000E+00 -0.26180183037E+02  0.26598721471E+02  0.47000000000E+01 0. -1.
          6    1    1    2  502    0 -0.29240692661E+01  0.54729287928E+02  0.15759327768E+04  0.15862383056E+04  0.17200000000E+03 0.  1.
         -6    1    1    2    0  502  0.29240692661E+01 -0.54729287928E+02  0.36233646269E+03  0.40481546084E+03  0.17200000000E+03 0. -1.
</event>
<event>
 4    1 -0.3291270E-004  0.1731423E+03  0.7818608E-02  0.1174610E+00
          5   -1    0    0  501    0  0.00000000000E+00  0.00000000000E+00  0.26523541396E+02  0.26936745315E+02  0.47000000000E+01 0. -1.
         -5   -1    0    0    0  501 -0.00000000000E+00 -0.00000000000E+00 -0.11224007385E+04  0.11224105790E+04  0.47000000000E+01 0.  1.
          6    1    1    2  502    0  0.19184100382E+02  0.51207499742E+01 -0.56752341239E+03  0.59334734801E+03  0.17200000000E+03 0. -1.
         -6    1    1    2    0  502 -0.19184100382E+02 -0.51207499742E+01 -0.52835378470E+03  0.55599997625E+03  0.17200000000E+03 0. -1.
</event>
<event>
 4    1 -0.3291270E-004  0.1942979E+03  0.7818608E-02  0.1154641E+00
         -5   -1    0    0    0  501 -0.00000000000E+00  0.00000000000E+00  0.81069908691E+03  0.81071271084E+03  0.47000000000E+01 0.  1.
          5   -1    0    0  501    0  0.00000000000E+00 -0.00000000000E+00 -0.48274319219E+02  0.48502576179E+02  0.47000000000E+01 0. -1.
          6    1    1    2  502    0  0.46367596977E+02  0.77573879698E+02  0.46487603259E+03  0.50384659028E+03  0.17200000000E+03 0. -1.
         -6    1    1    2    0  502 -0.46367596977E+02 -0.77573879698E+02  0.29754873510E+03  0.35536869674E+03  0.17200000000E+03 0. -1.
</event>
<event>
 4    1 -0.3291270E-004  0.2159139E+03  0.7818608E-02  0.1136967E+00
         -5   -1    0    0    0  501 -0.00000000000E+00  0.00000000000E+00  0.75536939413E+03  0.75538401597E+03  0.47000000000E+01 0.  1.
          5   -1    0    0  501    0  0.00000000000E+00 -0.00000000000E+00 -0.12743226251E+03  0.12751890655E+03  0.47000000000E+01 0. -1.
          6    1    1    2  502    0  0.11431229074E+03 -0.62988099278E+02 -0.31140842275E+01  0.21593632854E+03  0.17200000000E+03 0. -1.
         -6    1    1    2    0  502 -0.11431229074E+03  0.62988099278E+02  0.63105121584E+03  0.66696659398E+03  0.17200000000E+03 0.  1.
</event>
<event>
 4    1 -0.3291270E-004  0.2296600E+03  0.7818608E-02  0.1126879E+00
          5   -1    0    0  501    0  0.00000000000E+00  0.00000000000E+00  0.35527541142E+03  0.35530649862E+03  0.47000000000E+01 0. -1.
         -5   -1    0    0    0  501 -0.00000000000E+00 -0.00000000000E+00 -0.17013386259E+03  0.17019876968E+03  0.47000000000E+01 0.  1.
          6    1    1    2  502    0  0.14774124599E+03 -0.36499976145E+02  0.18648953644E+03  0.29584129398E+03  0.17200000000E+03 0. -1.
         -6    1    1    2    0  502 -0.14774124599E+03  0.36499976145E+02 -0.13479876123E+01  0.22966397431E+03  0.17200000000E+03 0. -1.
</event>
<event>
 4    1 -0.3291270E-004  0.2367185E+03  0.7818608E-02  0.1121998E+00
         -5   -1    0    0    0  501 -0.00000000000E+00  0.00000000000E+00  0.93506574710E+02  0.93624620235E+02  0.47000000000E+01 0.  1.
          5   -1    0    0  501    0  0.00000000000E+00 -0.00000000000E+00 -0.59974901230E+03  0.59976742805E+03  0.47000000000E+01 0. -1.
          6    1    1    2  502    0 -0.85596084651E+02 -0.13829298148E+03 -0.26716848608E+03  0.35695187125E+03  0.17200000000E+03 0. -1.
         -6    1    1    2    0  502  0.85596084651E+02  0.13829298148E+03 -0.23907395150E+03  0.33644017703E+03  0.17200000000E+03 0. -1.
</event>
<event>
 4    1 -0.3291270E-004  0.2903730E+03  0.7818608E-02  0.1090155E+00
         -5   -1    0    0    0  501 -0.00000000000E+00  0.00000000000E+00  0.61772791873E+02  0.61951334253E+02  0.47000000000E+01 0.  1.
          5   -1    0    0  501    0  0.00000000000E+00 -0.00000000000E+00 -0.15432347533E+04  0.15432419103E+04  0.47000000000E+01 0. -1.
          6    1    1    2  502    0  0.23333074208E+03 -0.17006830031E+02 -0.10151561537E+04  0.10558685921E+04  0.17200000000E+03 0. -1.
         -6    1    1    2    0  502 -0.23333074208E+03  0.17006830031E+02 -0.46630580777E+03  0.54932465249E+03  0.17200000000E+03 0.  1.
</event>
<event>
 4    1 -0.3291270E-004  0.2232806E+03  0.7818608E-02  0.1131461E+00
         -5   -1    0    0    0  501 -0.00000000000E+00  0.00000000000E+00  0.38487146373E+03  0.38490016055E+03  0.47000000000E+01 0.  1.
          5   -1    0    0  501    0  0.00000000000E+00 -0.00000000000E+00 -0.15531440005E+03  0.15538549759E+03  0.47000000000E+01 0. -1.
          6    1    1    2  502    0  0.10665557082E+03 -0.94312389848E+02  0.45948819071E+01  0.22332789930E+03  0.17200000000E+03 0.  1.
         -6    1    1    2    0  502 -0.10665557082E+03  0.94312389848E+02  0.22496218178E+03  0.31695775885E+03  0.17200000000E+03 0.  1.
</event>
<event>
 4    1 -0.3291270E-004  0.1806955E+03  0.7818608E-02  0.1167132E+00
         -5   -1    0    0    0  501 -0.00000000000E+00  0.00000000000E+00  0.96264070377E+03  0.96265217735E+03  0.47000000000E+01 0.  1.
          5   -1    0    0  501    0  0.00000000000E+00 -0.00000000000E+00 -0.45085435892E+02  0.45329753248E+02  0.47000000000E+01 0. -1.
          6    1    1    2  502    0  0.54130421390E+02 -0.11693977628E+02  0.20682117059E+03  0.27463766719E+03  0.17200000000E+03 0. -1.
         -6    1    1    2    0  502 -0.54130421390E+02  0.11693977628E+02  0.71073409729E+03  0.73334426341E+03  0.17200000000E+03 0.  1.
</event>
<event>
 4    1 -0.3291270E-004  0.1991877E+03  0.7818608E-02  0.1150426E+00
          5   -1    0    0  501    0  0.00000000000E+00  0.00000000000E+00  0.44248584539E+03  0.44251080593E+03  0.47000000000E+01 0. -1.
         -5   -1    0    0    0  501 -0.00000000000E+00 -0.00000000000E+00 -0.10625624336E+03  0.10636013940E+03  0.47000000000E+01 0.  1.
          6    1    1    2  502    0 -0.90432788135E+02  0.43745263483E+02  0.27677622869E+03  0.34099973316E+03  0.17200000000E+03 0. -1.
         -6    1    1    2    0  502  0.90432788135E+02 -0.43745263483E+02  0.59453373336E+02  0.20787121217E+03  0.17200000000E+03 0.  1.
</event>
<event>
 4    1 -0.3291270E-004  0.2251862E+03  0.7818608E-02  0.1130075E+00
          5   -1    0    0  501    0  0.00000000000E+00  0.00000000000E+00  0.89815862795E+03  0.89817092525E+03  0.47000000000E+01 0. -1.
         -5   -1    0    0    0  501 -0.00000000000E+00 -0.00000000000E+00 -0.78197415749E+02  0.78338533492E+02  0.47000000000E+01 0.  1.
          6    1    1    2  502    0  0.14243059866E+03 -0.28954103991E+02  0.66777160424E+03  0.70471819261E+03  0.17200000000E+03 0. -1.
         -6    1    1    2    0  502 -0.14243059866E+03  0.28954103991E+02  0.15218960797E+03  0.27179126614E+03  0.17200000000E+03 0.  1.
</event>
<event>
 4    1 -0.3291270E-004  0.1820905E+03  0.7818608E-02  0.1165795E+00
         -5   -1    0    0    0  501 -0.00000000000E+00  0.00000000000E+00  0.30492712595E+03  0.30496334556E+03  0.47000000000E+01 0.  1.
          5   -1    0    0  501    0  0.00000000000E+00 -0.00000000000E+00 -0.12073494178E+03  0.12082638854E+03  0.47000000000E+01 0. -1.
          6    1    1    2  502    0 -0.28610637675E+02 -0.52482222703E+02  0.24760686719E+02  0.18376627518E+03  0.17200000000E+03 0. -1.
         -6    1    1    2    0  502  0.28610637675E+02  0.52482222703E+02  0.15943149745E+03  0.24202345892E+03  0.17200000000E+03 0.  1.
</event>
<event>
 4    1 -0.3291270E-004  0.1971657E+03  0.7818608E-02  0.1152153E+00
          5   -1    0    0  501    0  0.00000000000E+00  0.00000000000E+00  0.36984285097E+02  0.37281729361E+02  0.47000000000E+01 0. -1.
         -5   -1    0    0    0  501 -0.00000000000E+00 -0.00000000000E+00 -0.14058240557E+04  0.14058319123E+04  0.47000000000E+01 0.  1.
          6    1    1    2  502    0  0.95815565381E+02  0.10472422738E+02 -0.31971117553E+03  0.37561886263E+03  0.17200000000E+03 0. -1.
         -6    1    1    2    0  502 -0.95815565381E+02 -0.10472422738E+02 -0.10491285951E+04  0.10674947790E+04  0.17200000000E+03 0.  1.
</event>
<event>
 4    1 -0.3291270E-004  0.1990182E+03  0.7818608E-02  0.1150570E+00
         -5   -1    0    0    0  501 -0.00000000000E+00  0.00000000000E+00  0.30464908842E+03  0.30468534109E+03  0.47000000000E+01 0.  1.
          5   -1    0    0  501    0  0.00000000000E+00 -0.00000000000E+00 -0.14263857711E+03  0.14271598957E+03  0.47000000000E+01 0. -1.
          6    1    1    2  502    0 -0.11188846802E+02 -0.99493947537E+02  0.14250238366E+02  0.19952770530E+03  0.17200000000E+03 0. -1.
         -6    1    1    2    0  502  0.11188846802E+02  0.99493947537E+02  0.14776027295E+03  0.24787362537E+03  0.17200000000E+03 0.  1.
</event>
<event>
 4    1 -0.3291270E-004  0.2001641E+03  0.7818608E-02  0.1149601E+00
         -5   -1    0    0    0  501 -0.00000000000E+00  0.00000000000E+00  0.83846366259E+03  0.83847683539E+03  0.47000000000E+01 0.  1.
          5   -1    0    0  501    0  0.00000000000E+00 -0.00000000000E+00 -0.47890449272E+02  0.48120527132E+02  0.47000000000E+01 0. -1.
          6    1    1    2  502    0 -0.83378090935E+02  0.59411624751E+02  0.36431179797E+03  0.41567864191E+03  0.17200000000E+03 0.  1.
         -6    1    1    2    0  502  0.83378090935E+02 -0.59411624751E+02  0.42626141535E+03  0.47091872061E+03  0.17200000000E+03 0.  1.
</event>
<event>
 4    1 -0.3291270E-004  0.1790590E+03  0.7818608E-02  0.1168717E+00
         -5   -1    0    0    0  501 -0.00000000000E+00  0.00000000000E+00  0.42190497472E+02  0.42451479091E+02  0.47000000000E+01 0.  1.
          5   -1    0    0  501    0  0.00000000000E+00 -0.00000000000E+00 -0.89275335958E+03  0.89276573133E+03  0.47000000000E+01 0. -1.
          6    1    1    2  502    0 -0.45534242224E+02  0.20118653024E+02 -0.60737879000E+03  0.63322280594E+03  0.17200000000E+03 0.  1.
         -6    1    1    2    0  502  0.45534242224E+02 -0.20118653024E+02 -0.24318407210E+03  0.30199440448E+03  0.17200000000E+03 0.  1.
</event>
<event>
 4    1 -0.3291270E-004  0.1999216E+03  0.7818608E-02  0.1149805E+00
         -5   -1    0    0    0  501 -0.00000000000E+00  0.00000000000E+00  0.11642959343E+03  0.11652441901E+03  0.47000000000E+01 0.  1.
          5   -1    0    0  501    0  0.00000000000E+00 -0.00000000000E+00 -0.35497044116E+03  0.35500155507E+03  0.47000000000E+01 0. -1.
          6    1    1    2  502    0 -0.93724181679E+02 -0.40005095026E+02 -0.16249377152E+03  0.25762929888E+03  0.17200000000E+03 0. -1.
         -6    1    1    2    0  502  0.93724181679E+02  0.40005095026E+02 -0.76047076217E+02  0.21389667520E+03  0.17200000000E+03 0.  1.
</event>
<event>
 4    1 -0.3291270E-004  0.4203798E+03  0.7818608E-02  0.1036943E+00
          5   -1    0    0  501    0  0.00000000000E+00  0.00000000000E+00  0.17658934845E+03  0.17665188362E+03  0.47000000000E+01 0. -1.
         -5   -1    0    0    0  501 -0.00000000000E+00 -0.00000000000E+00 -0.10968843204E+04  0.10968943898E+04  0.47000000000E+01 0.  1.
          6    1    1    2  502    0 -0.19881583515E+03  0.32803575788E+03 -0.27138513067E+03  0.50036894778E+03  0.17200000000E+03 0. -1.
         -6    1    1    2    0  502  0.19881583515E+03 -0.32803575788E+03 -0.64890984126E+03  0.77317732561E+03  0.17200000000E+03 0.  1.
</event>
<event>
 4    1 -0.3291270E-004  0.1729682E+03  0.7818608E-02  0.1174787E+00
         -5   -1    0    0    0  501 -0.00000000000E+00  0.00000000000E+00  0.38125896644E+03  0.38128793515E+03  0.47000000000E+01 0.  1.
          5   -1    0    0  501    0  0.00000000000E+00 -0.00000000000E+00 -0.94363750548E+02  0.94480725111E+02  0.47000000000E+01 0. -1.
          6    1    1    2  502    0 -0.16576266844E+02 -0.76964097396E+01  0.45592065159E+02  0.17887605695E+03  0.17200000000E+03 0. -1.
         -6    1    1    2    0  502  0.16576266844E+02  0.76964097396E+01  0.24130315073E+03  0.29689260331E+03  0.17200000000E+03 0.  1.
</event>
<event>
 4    1 -0.3291270E-004  0.3205553E+03  0.7818608E-02  0.1075394E+00
          5   -1    0    0  501    0  0.00000000000E+00  0.00000000000E+00  0.46417065423E+03  0.46419444875E+03  0.47000000000E+01 0. -1.
         -5   -1    0    0    0  501 -0.00000000000E+00 -0.00000000000E+00 -0.22838890722E+03  0.22843726260E+03  0.47000000000E+01 0.  1.
          6    1    1    2  502    0 -0.19452597104E+03  0.18796628775E+03  0.17880674224E+03  0.36705248918E+03  0.17200000000E+03 0. -1.
         -6    1    1    2    0  502  0.19452597104E+03 -0.18796628775E+03  0.56975004767E+02  0.32557922217E+03  0.17200000000E+03 0.  1.
</event>
<event>
 4    1 -0.3291270E-004  0.1837047E+03  0.7818608E-02  0.1164265E+00
          5   -1    0    0  501    0  0.00000000000E+00  0.00000000000E+00  0.35711888002E+03  0.35714980675E+03  0.47000000000E+01 0. -1.
         -5   -1    0    0    0  501 -0.00000000000E+00 -0.00000000000E+00 -0.10979144605E+03  0.10989199983E+03  0.47000000000E+01 0.  1.
          6    1    1    2  502    0 -0.11494091504E+02 -0.63492546271E+02  0.21102633951E+03  0.27978479862E+03  0.17200000000E+03 0. -1.
         -6    1    1    2    0  502  0.11494091504E+02  0.63492546271E+02  0.36301094458E+02  0.18725700796E+03  0.17200000000E+03 0.  1.
</event>
<event>
 4    1 -0.3291270E-004  0.2378249E+03  0.7818608E-02  0.1121250E+00
         -5   -1    0    0    0  501 -0.00000000000E+00  0.00000000000E+00  0.25385668668E+03  0.25390019175E+03  0.47000000000E+01 0.  1.
          5   -1    0    0  501    0  0.00000000000E+00 -0.00000000000E+00 -0.22439378208E+03  0.22444299818E+03  0.47000000000E+01 0. -1.
          6    1    1    2  502    0  0.15180062830E+03  0.62715753657E+02 -0.59315444184E+01  0.23789888551E+03  0.17200000000E+03 0.  1.
         -6    1    1    2    0  502 -0.15180062830E+03 -0.62715753657E+02  0.35394449020E+02  0.24044430442E+03  0.17200000000E+03 0. -1.
</event>
<event>
 4    1 -0.3291270E-004  0.1792906E+03  0.7818608E-02  0.1168491E+00
          5   -1    0    0  501    0  0.00000000000E+00  0.00000000000E+00  0.17548084812E+03  0.17554377818E+03  0.47000000000E+01 0. -1.
         -5   -1    0    0    0  501 -0.00000000000E+00 -0.00000000000E+00 -0.18418944031E+03  0.18424939599E+03  0.47000000000E+01 0.  1.
          6    1    1    2  502    0 -0.27846987191E+02 -0.42257294653E+02 -0.18454117834E+02  0.18023786537E+03  0.17200000000E+03 0. -1.
         -6    1    1    2    0  502  0.27846987191E+02  0.42257294653E+02  0.97455256424E+01  0.17955530880E+03  0.17200000000E+03 0. -1.
</event>
<event>
 4    1 -0.3291270E-004  0.2138605E+03  0.7818608E-02  0.1138545E+00
          5   -1    0    0  501    0  0.00000000000E+00  0.00000000000E+00  0.55746781393E+03  0.55748762638E+03  0.47000000000E+01 0. -1.
         -5   -1    0    0    0  501 -0.00000000000E+00 -0.00000000000E+00 -0.84624849758E+02  0.84755266483E+02  0.47000000000E+01 0.  1.
          6    1    1    2  502    0  0.12351587382E+03 -0.29935790023E+02  0.29341472739E+03  0.36308198091E+03  0.17200000000E+03 0. -1.
         -6    1    1    2    0  502 -0.12351587382E+03  0.29935790023E+02  0.17942823677E+03  0.27916091195E+03  0.17200000000E+03 0. -1.
</event>
<event>
 4    1 -0.3291270E-004  0.1785694E+03  0.7818608E-02  0.1169195E+00
         -5   -1    0    0    0  501 -0.00000000000E+00  0.00000000000E+00  0.59555978877E+02  0.59741146792E+02  0.47000000000E+01 0.  1.
          5   -1    0    0  501    0  0.00000000000E+00 -0.00000000000E+00 -0.54338527264E+03  0.54340559854E+03  0.47000000000E+01 0. -1.
          6    1    1    2  502    0  0.45018328502E+02  0.16625014881E+02 -0.28071643860E+03  0.33269920337E+03  0.17200000000E+03 0. -1.
         -6    1    1    2    0  502 -0.45018328502E+02 -0.16625014881E+02 -0.20311285516E+03  0.27044754196E+03  0.17200000000E+03 0.  1.
</event>
<event>
 4    1 -0.3291270E-004  0.1999490E+03  0.7818608E-02  0.1149782E+00
         -5   -1    0    0    0  501 -0.00000000000E+00  0.00000000000E+00  0.67990528064E+02  0.68152783556E+02  0.47000000000E+01 0.  1.
          5   -1    0    0  501    0  0.00000000000E+00 -0.00000000000E+00 -0.60891908417E+03  0.60893722260E+03  0.47000000000E+01 0. -1.
          6    1    1    2  502    0 -0.82646803147E+02  0.59708509995E+02 -0.20645472863E+03  0.28740764640E+03  0.17200000000E+03 0.  1.
         -6    1    1    2    0  502  0.82646803147E+02 -0.59708509995E+02 -0.33447382747E+03  0.38968235975E+03  0.17200000000E+03 0. -1.
</event>
<event>
 4    1 -0.3291270E-004  0.2861620E+03  0.7818608E-02  0.1092370E+00
          5   -1    0    0  501    0  0.00000000000E+00  0.00000000000E+00  0.40713652728E+03  0.40716365487E+03  0.47000000000E+01 0. -1.
         -5   -1    0    0    0  501 -0.00000000000E+00 -0.00000000000E+00 -0.26075819461E+03  0.26080054842E+03  0.47000000000E+01 0.  1.
          6    1    1    2  502    0 -0.20059836249E+03  0.10984075831E+03  0.23295289730E+03  0.36899288283E+03  0.17200000000E+03 0. -1.
         -6    1    1    2    0  502  0.20059836249E+03 -0.10984075831E+03 -0.86574564622E+02  0.29897132046E+03  0.17200000000E+03 0.  1.
</event>
<event>
 4    1 -0.3291270E-004  0.1834968E+03  0.7818608E-02  0.1164461E+00
         -5   -1    0    0    0  501 -0.00000000000E+00  0.00000000000E+00  0.20793605481E+03  0.20798916531E+03  0.47000000000E+01 0.  1.
          5   -1    0    0  501    0  0.00000000000E+00 -0.00000000000E+00 -0.17621522785E+03  0.17627789574E+03  0.47000000000E+01 0. -1.
          6    1    1    2  502    0  0.27865079689E+02  0.57537812785E+02 -0.39032311573E+02  0.18760219592E+03  0.17200000000E+03 0. -1.
         -6    1    1    2    0  502 -0.27865079689E+02 -0.57537812785E+02  0.70753138532E+02  0.19666486513E+03  0.17200000000E+03 0.  1.
</event>
<event>
 4    1 -0.3291270E-004  0.2303938E+03  0.7818608E-02  0.1126363E+00
         -5   -1    0    0    0  501 -0.00000000000E+00  0.00000000000E+00  0.27986805634E+03  0.27990751858E+03  0.47000000000E+01 0.  1.
          5   -1    0    0  501    0  0.00000000000E+00 -0.00000000000E+00 -0.21256764531E+03  0.21261959889E+03  0.47000000000E+01 0. -1.
          6    1    1    2  502    0 -0.45118837773E+02 -0.14649771059E+03 -0.47309639062E+02  0.23520095807E+03  0.17200000000E+03 0. -1.
         -6    1    1    2    0  502  0.45118837773E+02  0.14649771059E+03  0.11461005009E+03  0.25732615940E+03  0.17200000000E+03 0.  1.
</event>
<event>
 4    1 -0.3291270E-004  0.1752115E+03  0.7818608E-02  0.1172520E+00
          5   -1    0    0  501    0  0.00000000000E+00  0.00000000000E+00  0.10086094839E+04  0.10086204345E+04  0.47000000000E+01 0. -1.
         -5   -1    0    0    0  501 -0.00000000000E+00 -0.00000000000E+00 -0.31843019827E+02  0.32188008819E+02  0.47000000000E+01 0.  1.
          6    1    1    2  502    0  0.22703969856E+02 -0.24486467725E+02  0.60432317008E+03  0.62921025996E+03  0.17200000000E+03 0. -1.
         -6    1    1    2    0  502 -0.22703969856E+02  0.24486467725E+02  0.37244329398E+03  0.41159818340E+03  0.17200000000E+03 0.  1.
</event>
<event>
 4    1 -0.3291270E-004  0.2936516E+03  0.7818608E-02  0.1088458E+00
          5   -1    0    0  501    0  0.00000000000E+00  0.00000000000E+00  0.15938139367E+04  0.15938208666E+04  0.47000000000E+01 0. -1.
         -5   -1    0    0    0  501 -0.00000000000E+00 -0.00000000000E+00 -0.78668383611E+02  0.78808658027E+02  0.47000000000E+01 0.  1.
          6    1    1    2  502    0 -0.23797165577E+03  0.40899860757E+01  0.12254089635E+04  0.12601025215E+04  0.17200000000E+03 0. -1.
         -6    1    1    2    0  502  0.23797165577E+03 -0.40899860757E+01  0.28973658958E+03  0.41252700309E+03  0.17200000000E+03 0.  1.
</event>
<event>
 4    1 -0.3291270E-004  0.1990542E+03  0.7818608E-02  0.1150539E+00
          5   -1    0    0  501    0  0.00000000000E+00  0.00000000000E+00  0.31497381439E+02  0.31846114951E+02  0.47000000000E+01 0. -1.
         -5   -1    0    0    0  501 -0.00000000000E+00 -0.00000000000E+00 -0.12539572955E+04  0.12539661035E+04  0.47000000000E+01 0.  1.
          6    1    1    2  502    0 -0.79520863916E+02 -0.60950772246E+02 -0.64406773912E+03  0.67412596524E+03  0.17200000000E+03 0.  1.
         -6    1    1    2    0  502  0.79520863916E+02  0.60950772246E+02 -0.57839217491E+03  0.61168625326E+03  0.17200000000E+03 0.  1.
</event>
<event>
 4    1 -0.3291270E-004  0.2029062E+03  0.7818608E-02  0.1147310E+00
         -5   -1    0    0    0  501 -0.00000000000E+00  0.00000000000E+00  0.71057827338E+03  0.71059381689E+03  0.47000000000E+01 0.  1.
          5   -1    0    0  501    0  0.00000000000E+00 -0.00000000000E+00 -0.63755831897E+02  0.63928836223E+02  0.47000000000E+01 0. -1.
          6    1    1    2  502    0 -0.78127298985E+02  0.74047715550E+02  0.20551458536E+03  0.28880301907E+03  0.17200000000E+03 0. -1.
         -6    1    1    2    0  502  0.78127298985E+02 -0.74047715550E+02  0.44130785612E+03  0.48571963405E+03  0.17200000000E+03 0.  1.
</event>
<event>
 4    1 -0.3291270E-004  0.2699620E+03  0.7818608E-02  0.1101301E+00
         -5   -1    0    0    0  501 -0.00000000000E+00  0.00000000000E+00  0.10428279791E+03  0.10438865810E+03  0.47000000000E+01 0.  1.
          5   -1    0    0  501    0  0.00000000000E+00 -0.00000000000E+00 -0.11533726269E+04  0.11533822032E+04  0.47000000000E+01 0. -1.
          6    1    1    2  502    0 -0.16505222993E+03  0.12670144605E+03 -0.91951033592E+03  0.95832079853E+03  0.17200000000E+03 0. -1.
         -6    1    1    2    0  502  0.16505222993E+03 -0.12670144605E+03 -0.12957949311E+03  0.29945006274E+03  0.17200000000E+03 0. -1.
</event>
<event>
 4    1 -0.3291270E-004  0.1769426E+03  0.7818608E-02  0.1170795E+00
          5   -1    0    0  501    0  0.00000000000E+00  0.00000000000E+00  0.49243077454E+03  0.49245320358E+03  0.47000000000E+01 0. -1.
         -5   -1    0    0    0  501 -0.00000000000E+00 -0.00000000000E+00 -0.82356178559E+02  0.82490182124E+02  0.47000000000E+01 0.  1.
          6    1    1    2  502    0 -0.38583946305E+02 -0.15361527114E+02  0.67517693349E+02  0.18938673751E+03  0.17200000000E+03 0.  1.
         -6    1    1    2    0  502  0.38583946305E+02  0.15361527114E+02  0.34255690264E+03  0.38555664820E+03  0.17200000000E+03 0. -1.
</event>
<event>
 4    1 -0.3291270E-004  0.1736490E+03  0.7818608E-02  0.1174095E+00
         -5   -1    0    0    0  501 -0.00000000000E+00  0.00000000000E+00  0.98878895025E+02  0.98990534302E+02  0.47000000000E+01 0.  1.
          5   -1    0    0  501    0  0.00000000000E+00 -0.00000000000E+00 -0.67449397947E+03  0.67451035451E+03  0.47000000000E+01 0. -1.
          6    1    1    2  502    0 -0.40438211309E+01  0.23529149871E+02 -0.57416114391E+03  0.59984580732E+03  0.17200000000E+03 0. -1.
         -6    1    1    2    0  502  0.40438211309E+01 -0.23529149871E+02 -0.14539405293E+01  0.17365508149E+03  0.17200000000E+03 0.  1.
</event>
<event>
 4    1 -0.3291270E-004  0.1789152E+03  0.7818608E-02  0.1168857E+00
         -5   -1    0    0    0  501 -0.00000000000E+00  0.00000000000E+00  0.49064264371E+03  0.49066515449E+03  0.47000000000E+01 0.  1.
          5   -1    0    0  501    0  0.00000000000E+00 -0.00000000000E+00 -0.67262263802E+02  0.67426271822E+02  0.47000000000E+01 0. -1.
          6    1    1    2  502    0 -0.23724691657E+02 -0.43171402437E+02  0.26126221456E+03  0.31665213680E+03  0.17200000000E+03 0.  1.
         -6    1    1    2    0  502  0.23724691657E+02  0.43171402437E+02  0.16211816535E+03  0.24143928951E+03  0.17200000000E+03 0. -1.
</event>
<event>
 4    1 -0.3291270E-004  0.1904908E+03  0.7818608E-02  0.1158019E+00
         -5   -1    0    0    0  501 -0.00000000000E+00  0.00000000000E+00  0.10045133634E+03  0.10056122997E+03  0.47000000000E+01 0.  1.
          5   -1    0    0  501    0  0.00000000000E+00 -0.00000000000E+00 -0.45544375186E+03  0.45546800229E+03  0.47000000000E+01 0. -1.
          6    1    1    2  502    0 -0.81679402833E+02  0.55863562421E+01 -0.30413550657E+03  0.35886646343E+03  0.17200000000E+03 0. -1.
         -6    1    1    2    0  502  0.81679402833E+02 -0.55863562421E+01 -0.50856908951E+02  0.19716276883E+03  0.17200000000E+03 0.  1.
</event>
<event>
 4    1 -0.3291270E-004  0.1943373E+03  0.7818608E-02  0.1154606E+00
          5   -1    0    0  501    0  0.00000000000E+00  0.00000000000E+00  0.15685624551E+03  0.15692664450E+03  0.47000000000E+01 0. -1.
         -5   -1    0    0    0  501 -0.00000000000E+00 -0.00000000000E+00 -0.27904500968E+03  0.27908458831E+03  0.47000000000E+01 0.  1.
          6    1    1    2  502    0 -0.65076907279E+02  0.62833124403E+02  0.19779530610E+02  0.19534133002E+03  0.17200000000E+03 0. -1.
         -6    1    1    2    0  502  0.65076907279E+02 -0.62833124403E+02 -0.14196829479E+03  0.24066990279E+03  0.17200000000E+03 0.  1.
</event>
<event>
 4    1 -0.3291270E-004  0.1757746E+03  0.7818608E-02  0.1171956E+00
          5   -1    0    0  501    0  0.00000000000E+00  0.00000000000E+00  0.91975951083E+02  0.92095958530E+02  0.47000000000E+01 0. -1.
         -5   -1    0    0    0  501 -0.00000000000E+00 -0.00000000000E+00 -0.34979121529E+03  0.34982278985E+03  0.47000000000E+01 0.  1.
          6    1    1    2  502    0  0.35797403502E+02 -0.55900943310E+01 -0.17345704520E+03  0.24694948832E+03  0.17200000000E+03 0.  1.
         -6    1    1    2    0  502 -0.35797403502E+02  0.55900943310E+01 -0.84358219006E+02  0.19496926005E+03  0.17200000000E+03 0. -1.
</event>
<event>
 4    1 -0.3291270E-004  0.3399688E+03  0.7818608E-02  0.1066809E+00
          5   -1    0    0  501    0  0.00000000000E+00  0.00000000000E+00  0.32297415965E+03  0.32300835562E+03  0.47000000000E+01 0. -1.
         -5   -1    0    0    0  501 -0.00000000000E+00 -0.00000000000E+00 -0.44935023447E+03  0.44937481373E+03  0.47000000000E+01 0.  1.
          6    1    1    2  502    0  0.70253214173E+02  0.28470911307E+03  0.11112741888E+03  0.35767037393E+03  0.17200000000E+03 0. -1.
         -6    1    1    2    0  502 -0.70253214173E+02 -0.28470911307E+03 -0.23750349370E+03  0.41471279542E+03  0.17200000000E+03 0.  1.
</event>
<event>
 4    1 -0.3291270E-004  0.1735591E+03  0.7818608E-02  0.1174186E+00
         -5   -1    0    0    0  501 -0.00000000000E+00  0.00000000000E+00  0.26994037710E+02  0.27400147297E+02  0.47000000000E+01 0.  1.
          5   -1    0    0  501    0  0.00000000000E+00 -0.00000000000E+00 -0.11390293665E+04  0.11390390633E+04  0.47000000000E+01 0. -1.
          6    1    1    2  502    0  0.16261555682E+01  0.23154331559E+02 -0.65355229271E+03  0.67620512181E+03  0.17200000000E+03 0. -1.
         -6    1    1    2    0  502 -0.16261555682E+01 -0.23154331559E+02 -0.45848303611E+03  0.49023408884E+03  0.17200000000E+03 0.  1.
</event>
<event>
 4    1 -0.3291270E-004  0.3755316E+03  0.7818608E-02  0.1052598E+00
         -5   -1    0    0    0  501 -0.00000000000E+00  0.00000000000E+00  0.94940112278E+03  0.94941275636E+03  0.47000000000E+01 0.  1.
          5   -1    0    0  501    0  0.00000000000E+00 -0.00000000000E+00 -0.14934871846E+03  0.14942265460E+03  0.47000000000E+01 0. -1.
          6    1    1    2  502    0 -0.16205127765E+03  0.29185502771E+03  0.35838228438E+03  0.51909713498E+03  0.17200000000E+03 0. -1.
         -6    1    1    2    0  502  0.16205127765E+03 -0.29185502771E+03  0.44167011993E+03  0.57973827598E+03  0.17200000000E+03 0.  1.
</event>
<event>
 4    1 -0.3291270E-004  0.2170958E+03  0.7818608E-02  0.1136067E+00
          5   -1    0    0  501    0  0.00000000000E+00  0.00000000000E+00  0.17790450520E+04  0.17790512604E+04  0.47000000000E+01 0. -1.
         -5   -1    0    0    0  501 -0.00000000000E+00 -0.00000000000E+00 -0.34988526576E+02  0.35302790144E+02  0.47000000000E+01 0.  1.
          6    1    1    2  502    0  0.13216514413E+03 -0.88857733268E+01  0.13222981595E+04  0.13400011213E+04  0.17200000000E+03 0. -1.
         -6    1    1    2    0  502 -0.13216514413E+03  0.88857733268E+01  0.42175836587E+03  0.47435292923E+03  0.17200000000E+03 0.  1.
</event>
<event>
 4    1 -0.3291270E-004  0.5542369E+03  0.7818608E-02  0.1000518E+00
          5   -1    0    0  501    0  0.00000000000E+00  0.00000000000E+00  0.44315947677E+03  0.44318439938E+03  0.47000000000E+01 0. -1.
         -5   -1    0    0    0  501 -0.00000000000E+00 -0.00000000000E+00 -0.69437998295E+03  0.69439588905E+03  0.47000000000E+01 0.  1.
          6    1    1    2  502    0 -0.16216065330E+03  0.50129681930E+03 -0.10122341454E+03  0.56340461320E+03  0.17200000000E+03 0. -1.
         -6    1    1    2    0  502  0.16216065330E+03 -0.50129681930E+03 -0.14999709164E+03  0.57417567523E+03  0.17200000000E+03 0. -1.
</event>
<event>
 4    1 -0.3291270E-004  0.2440689E+03  0.7818608E-02  0.1117112E+00
         -5   -1    0    0    0  501 -0.00000000000E+00  0.00000000000E+00  0.25221109659E+03  0.25225488547E+03  0.47000000000E+01 0.  1.
          5   -1    0    0  501    0  0.00000000000E+00 -0.00000000000E+00 -0.24167463883E+03  0.24172033645E+03  0.47000000000E+01 0. -1.
          6    1    1    2  502    0 -0.88544440117E+02 -0.14881365782E+03  0.42766800154E+02  0.24778745292E+03  0.17200000000E+03 0.  1.
         -6    1    1    2    0  502  0.88544440117E+02  0.14881365782E+03 -0.32230342396E+02  0.24618776899E+03  0.17200000000E+03 0. -1.
</event>
<event>
 4    1 -0.3291270E-004  0.2075933E+03  0.7818608E-02  0.1143486E+00
          5   -1    0    0  501    0  0.00000000000E+00  0.00000000000E+00  0.50933501648E+02  0.51149893354E+02  0.47000000000E+01 0. -1.
         -5   -1    0    0    0  501 -0.00000000000E+00 -0.00000000000E+00 -0.90717880869E+03  0.90719098372E+03  0.47000000000E+01 0.  1.
          6    1    1    2  502    0 -0.39785691151E+02  0.10921565302E+03 -0.30177161848E+03  0.36628004287E+03  0.17200000000E+03 0. -1.
         -6    1    1    2    0  502  0.39785691151E+02 -0.10921565302E+03 -0.55447368856E+03  0.59206083420E+03  0.17200000000E+03 0.  1.
</event>
<event>
 4    1 -0.3291270E-004  0.2020227E+03  0.7818608E-02  0.1148044E+00
         -5   -1    0    0    0  501 -0.00000000000E+00  0.00000000000E+00  0.17526384965E+03  0.17532685759E+03  0.47000000000E+01 0.  1.
          5   -1    0    0  501    0  0.00000000000E+00 -0.00000000000E+00 -0.36960736623E+03  0.36963724808E+03  0.47000000000E+01 0. -1.
          6    1    1    2  502    0  0.50324828040E+02 -0.93255557295E+02 -0.26296245310E+03  0.33160584890E+03  0.17200000000E+03 0. -1.
         -6    1    1    2    0  502 -0.50324828040E+02  0.93255557295E+02  0.68618936526E+02  0.21335825677E+03  0.17200000000E+03 0.  1.
</event>
<event>
 4    1 -0.3291270E-004  0.2072083E+03  0.7818608E-02  0.1143796E+00
         -5   -1    0    0    0  501 -0.00000000000E+00  0.00000000000E+00  0.29062105191E+03  0.29065905424E+03  0.47000000000E+01 0.  1.
          5   -1    0    0  501    0  0.00000000000E+00 -0.00000000000E+00 -0.14877777497E+03  0.14885199470E+03  0.47000000000E+01 0. -1.
          6    1    1    2  502    0  0.10379165643E+02 -0.11508058577E+03  0.51806156578E+02  0.21358639039E+03  0.17200000000E+03 0. -1.
         -6    1    1    2    0  502 -0.10379165643E+02  0.11508058577E+03  0.90037120361E+02  0.22592465855E+03  0.17200000000E+03 0. -1.
</event>
<event>
 4    1 -0.3291270E-004  0.2144932E+03  0.7818608E-02  0.1138056E+00
          5   -1    0    0  501    0  0.00000000000E+00  0.00000000000E+00  0.44128093440E+03  0.44130596310E+03  0.47000000000E+01 0. -1.
         -5   -1    0    0    0  501 -0.00000000000E+00 -0.00000000000E+00 -0.13113642234E+03  0.13122062058E+03  0.47000000000E+01 0.  1.
          6    1    1    2  502    0 -0.55378062459E+02 -0.11557074775E+03  0.28480675614E+03  0.35654202541E+03  0.17200000000E+03 0. -1.
         -6    1    1    2    0  502  0.55378062459E+02  0.11557074775E+03  0.25337755918E+02  0.21598455827E+03  0.17200000000E+03 0.  1.
</event>
<event>
 4    1 -0.3291270E-004  0.2314149E+03  0.7818608E-02  0.1125648E+00
         -5   -1    0    0    0  501 -0.00000000000E+00  0.00000000000E+00  0.16010969779E+03  0.16017866689E+03  0.47000000000E+01 0.  1.
          5   -1    0    0  501    0  0.00000000000E+00 -0.00000000000E+00 -0.34350114520E+03  0.34353329788E+03  0.47000000000E+01 0. -1.
          6    1    1    2  502    0  0.15426704253E+03 -0.13058045618E+02 -0.50522873792E+02  0.23686577157E+03  0.17200000000E+03 0. -1.
         -6    1    1    2    0  502 -0.15426704253E+03  0.13058045618E+02 -0.13286857362E+03  0.26684619319E+03  0.17200000000E+03 0.  1.
</event>
<event>
 4    1 -0.3291270E-004  0.1767552E+03  0.7818608E-02  0.1170981E+00
         -5   -1    0    0    0  501 -0.00000000000E+00  0.00000000000E+00  0.10235794210E+03  0.10246579093E+03  0.47000000000E+01 0.  1.
          5   -1    0    0  501    0  0.00000000000E+00 -0.00000000000E+00 -0.57703717295E+03  0.57705631351E+03  0.47000000000E+01 0. -1.
          6    1    1    2  502    0  0.38595055575E+02 -0.12992960737E+02 -0.47062232585E+03  0.50272036852E+03  0.17200000000E+03 0. -1.
         -6    1    1    2    0  502 -0.38595055575E+02  0.12992960737E+02 -0.40569050054E+01  0.17680173591E+03  0.17200000000E+03 0.  1.
</event>
<event>
 4    1 -0.3291270E-004  0.3451948E+03  0.7818608E-02  0.1064605E+00
          5   -1    0    0  501    0  0.00000000000E+00  0.00000000000E+00  0.11619136038E+03  0.11628638023E+03  0.47000000000E+01 0. -1.
         -5   -1    0    0    0  501 -0.00000000000E+00 -0.00000000000E+00 -0.11977448830E+04  0.11977541045E+04  0.47000000000E+01 0.  1.
          6    1    1    2  502    0  0.26357253500E+03 -0.14179202175E+03 -0.29128954737E+03  0.45167362005E+03  0.17200000000E+03 0. -1.
         -6    1    1    2    0  502 -0.26357253500E+03  0.14179202175E+03 -0.79026397526E+03  0.86236686465E+03  0.17200000000E+03 0.  1.
</event>
<event>
 4    1 -0.3291270E-004  0.2672503E+03  0.7818608E-02  0.1102864E+00
          5   -1    0    0  501    0  0.00000000000E+00  0.00000000000E+00  0.49121558407E+03  0.49123806859E+03  0.47000000000E+01 0. -1.
         -5   -1    0    0    0  501 -0.00000000000E+00 -0.00000000000E+00 -0.14729627198E+03  0.14737123783E+03  0.47000000000E+01 0.  1.
          6    1    1    2  502    0 -0.58410934464E+02 -0.19602773066E+03  0.20878184432E+03  0.33913502764E+03  0.17200000000E+03 0. -1.
         -6    1    1    2    0  502  0.58410934464E+02  0.19602773066E+03  0.13513746777E+03  0.29947427878E+03  0.17200000000E+03 0.  1.
</event>
<event>
 4    1 -0.3291270E-004  0.3077272E+03  0.7818608E-02  0.1081440E+00
          5   -1    0    0  501    0  0.00000000000E+00  0.00000000000E+00  0.33175910032E+03  0.33179239088E+03  0.47000000000E+01 0. -1.
         -5   -1    0    0    0  501 -0.00000000000E+00 -0.00000000000E+00 -0.55245835127E+03  0.55247834336E+03  0.47000000000E+01 0.  1.
          6    1    1    2  502    0  0.17373736237E+03 -0.18688859616E+03  0.19705404800E+03  0.36541252892E+03  0.17200000000E+03 0. -1.
         -6    1    1    2    0  502 -0.17373736237E+03  0.18688859616E+03 -0.41775329894E+03  0.51885820533E+03  0.17200000000E+03 0.  1.
</event>
<event>
 4    1 -0.3291270E-004  0.2333495E+03  0.7818608E-02  0.1124304E+00
         -5   -1    0    0    0  501 -0.00000000000E+00  0.00000000000E+00  0.15088004990E+03  0.15095323599E+03  0.47000000000E+01 0.  1.
          5   -1    0    0  501    0  0.00000000000E+00 -0.00000000000E+00 -0.36622888635E+03  0.36625904385E+03  0.47000000000E+01 0. -1.
          6    1    1    2  502    0  0.15753793948E+03 -0.70543416085E+01 -0.13938789173E+03  0.27181050471E+03  0.17200000000E+03 0. -1.
         -6    1    1    2    0  502 -0.15753793948E+03  0.70543416085E+01 -0.75960944729E+02  0.24540177513E+03  0.17200000000E+03 0.  1.
</event>
<event>
 4    1 -0.3291270E-004  0.3321576E+03  0.7818608E-02  0.1070186E+00
          5   -1    0    0  501    0  0.00000000000E+00  0.00000000000E+00  0.61427908651E+03  0.61429706668E+03  0.47000000000E+01 0. -1.
         -5   -1    0    0    0  501 -0.00000000000E+00 -0.00000000000E+00 -0.19178787704E+03  0.19184545807E+03  0.47000000000E+01 0.  1.
          6    1    1    2  502    0 -0.48828897455E+02 -0.27992929408E+03  0.31302054899E+03  0.45641048958E+03  0.17200000000E+03 0. -1.
         -6    1    1    2    0  502  0.48828897455E+02  0.27992929408E+03  0.10947066048E+03  0.34973203516E+03  0.17200000000E+03 0.  1.
</event>
<event>
 4    1 -0.3291270E-004  0.2093342E+03  0.7818608E-02  0.1142094E+00
         -5   -1    0    0    0  501 -0.00000000000E+00  0.00000000000E+00  0.90699785620E+02  0.90821479351E+02  0.47000000000E+01 0.  1.
          5   -1    0    0  501    0  0.00000000000E+00 -0.00000000000E+00 -0.81918719858E+03  0.81920068134E+03  0.47000000000E+01 0. -1.
          6    1    1    2  502    0  0.67055125417E+02 -0.98693637613E+02 -0.65584380553E+03  0.68844166144E+03  0.17200000000E+03 0. -1.
         -6    1    1    2    0  502 -0.67055125417E+02  0.98693637613E+02 -0.72643607425E+02  0.22158049925E+03  0.17200000000E+03 0.  1.
</event>
<event>
 4    1 -0.3291270E-004  0.2254366E+03  0.7818608E-02  0.1129894E+00
          5   -1    0    0  501    0  0.00000000000E+00  0.00000000000E+00  0.26994741382E+03  0.26998832610E+03  0.47000000000E+01 0. -1.
         -5   -1    0    0    0  501 -0.00000000000E+00 -0.00000000000E+00 -0.21364614611E+03  0.21369783749E+03  0.47000000000E+01 0.  1.
          6    1    1    2  502    0 -0.89250504166E+01  0.14545787283E+03  0.11162747944E+03  0.25155982084E+03  0.17200000000E+03 0. -1.
         -6    1    1    2    0  502  0.89250504166E+01 -0.14545787283E+03 -0.55326211732E+02  0.23212634275E+03  0.17200000000E+03 0.  1.
</event>
<event>
 4    1 -0.3291270E-004  0.2844528E+03  0.7818608E-02  0.1093281E+00
          5   -1    0    0  501    0  0.00000000000E+00  0.00000000000E+00  0.87616144648E+02  0.87742115333E+02  0.47000000000E+01 0. -1.
         -5   -1    0    0    0  501 -0.00000000000E+00 -0.00000000000E+00 -0.14759595468E+04  0.14759670301E+04  0.47000000000E+01 0.  1.
          6    1    1    2  502    0  0.21574600987E+03  0.69159638733E+02 -0.21550641173E+03  0.35687029843E+03  0.17200000000E+03 0. -1.
         -6    1    1    2    0  502 -0.21574600987E+03 -0.69159638733E+02 -0.11728369904E+04  0.12068388470E+04  0.17200000000E+03 0.  1.
</event>
<event>
 4    1 -0.3291270E-004  0.1781924E+03  0.7818608E-02  0.1169564E+00
         -5   -1    0    0    0  501 -0.00000000000E+00  0.00000000000E+00  0.38203810624E+02  0.38491832201E+02  0.47000000000E+01 0.  1.
          5   -1    0    0  501    0  0.00000000000E+00 -0.00000000000E+00 -0.14181595669E+04  0.14181673551E+04  0.47000000000E+01 0. -1.
          6    1    1    2  502    0  0.46072424782E+02  0.67724578581E+01 -0.11598802774E+04  0.11734883009E+04  0.17200000000E+03 0. -1.
         -6    1    1    2    0  502 -0.46072424782E+02 -0.67724578581E+01 -0.22007547887E+03  0.28317088641E+03  0.17200000000E+03 0.  1.
</event>
<event>
 4    1 -0.3291270E-004  0.2044579E+03  0.7818608E-02  0.1146031E+00
         -5   -1    0    0    0  501 -0.00000000000E+00  0.00000000000E+00  0.17613321951E+03  0.17619591656E+03  0.47000000000E+01 0.  1.
          5   -1    0    0  501    0  0.00000000000E+00 -0.00000000000E+00 -0.23875269389E+03  0.23879895066E+03  0.47000000000E+01 0. -1.
          6    1    1    2  502    0 -0.10962849871E+03 -0.14164042479E+02 -0.14630664329E+02  0.20498069218E+03  0.17200000000E+03 0.  1.
         -6    1    1    2    0  502  0.10962849871E+03  0.14164042479E+02 -0.47988810051E+02  0.21001417504E+03  0.17200000000E+03 0. -1.
</event>
<event>
 4    1 -0.3291270E-004  0.2300744E+03  0.7818608E-02  0.1126587E+00
          5   -1    0    0  501    0  0.00000000000E+00  0.00000000000E+00  0.35436809214E+02  0.35747132015E+02  0.47000000000E+01 0. -1.
         -5   -1    0    0    0  501 -0.00000000000E+00 -0.00000000000E+00 -0.14875411725E+04  0.14875485974E+04  0.47000000000E+01 0.  1.
          6    1    1    2  502    0  0.14784648953E+03  0.38621913930E+02 -0.74138564030E+03  0.77626471281E+03  0.17200000000E+03 0. -1.
         -6    1    1    2    0  502 -0.14784648953E+03 -0.38621913930E+02 -0.71071872294E+03  0.74703101666E+03  0.17200000000E+03 0.  1.
</event>
<event>
 4    1 -0.3291270E-004  0.2090173E+03  0.7818608E-02  0.1142347E+00
          5   -1    0    0  501    0  0.00000000000E+00  0.00000000000E+00  0.36145734929E+02  0.36450022682E+02  0.47000000000E+01 0. -1.
         -5   -1    0    0    0  501 -0.00000000000E+00 -0.00000000000E+00 -0.13151424340E+04  0.13151508323E+04  0.47000000000E+01 0.  1.
          6    1    1    2  502    0 -0.26202053486E+02 -0.11583480739E+03 -0.44244021961E+03  0.48932770015E+03  0.17200000000E+03 0. -1.
         -6    1    1    2    0  502  0.26202053486E+02  0.11583480739E+03 -0.83655647945E+03  0.86227315482E+03  0.17200000000E+03 0.  1.
</event>
<event>
 4    1 -0.3291270E-004  0.2481231E+03  0.7818608E-02  0.1114497E+00
         -5   -1    0    0    0  501 -0.00000000000E+00  0.00000000000E+00  0.46368421607E+03  0.46370803555E+03  0.47000000000E+01 0.  1.
          5   -1    0    0  501    0  0.00000000000E+00 -0.00000000000E+00 -0.16623704104E+03  0.16630346903E+03  0.47000000000E+01 0. -1.
          6    1    1    2  502    0 -0.94740378610E+02  0.15167508023E+03  0.72886773341E+01  0.24823012331E+03  0.17200000000E+03 0. -1.
         -6    1    1    2    0  502  0.94740378610E+02 -0.15167508023E+03  0.29015849770E+03  0.38178138128E+03  0.17200000000E+03 0.  1.
</event>
<event>
 4    1 -0.3291270E-004  0.2507934E+03  0.7818608E-02  0.1112804E+00
          5   -1    0    0  501    0  0.00000000000E+00  0.00000000000E+00  0.13636889470E+03  0.13644986421E+03  0.47000000000E+01 0. -1.
         -5   -1    0    0    0  501 -0.00000000000E+00 -0.00000000000E+00 -0.48875810303E+03  0.48878070060E+03  0.47000000000E+01 0.  1.
          6    1    1    2  502    0 -0.79241083343E+02  0.16442079298E+03 -0.10170167235E+03  0.27062996252E+03  0.17200000000E+03 0. -1.
         -6    1    1    2    0  502  0.79241083343E+02 -0.16442079298E+03 -0.25068753598E+03  0.35460060229E+03  0.17200000000E+03 0.  1.
</event>
<event>
 4    1 -0.3291270E-004  0.1964770E+03  0.7818608E-02  0.1152746E+00
         -5   -1    0    0    0  501 -0.00000000000E+00  0.00000000000E+00  0.14493316295E+03  0.14500935047E+03  0.47000000000E+01 0.  1.
          5   -1    0    0  501    0  0.00000000000E+00 -0.00000000000E+00 -0.81284604041E+03  0.81285962835E+03  0.47000000000E+01 0. -1.
          6    1    1    2  502    0 -0.71264045790E+02  0.62774706608E+02 -0.72669479179E+03  0.75278718668E+03  0.17200000000E+03 0. -1.
         -6    1    1    2    0  502  0.71264045790E+02 -0.62774706608E+02  0.58781914339E+02  0.20508179214E+03  0.17200000000E+03 0.  1.
</event>
<event>
 4    1 -0.3291270E-004  0.3307227E+03  0.7818608E-02  0.1070818E+00
          5   -1    0    0  501    0  0.00000000000E+00  0.00000000000E+00  0.12653119509E+04  0.12653206799E+04  0.47000000000E+01 0. -1.
         -5   -1    0    0    0  501 -0.00000000000E+00 -0.00000000000E+00 -0.24362478559E+03  0.24367011748E+03  0.47000000000E+01 0.  1.
          6    1    1    2  502    0 -0.21891014368E+03 -0.17852687698E+03  0.11168993942E+04  0.11648355049E+04  0.17200000000E+03 0. -1.
         -6    1    1    2    0  502  0.21891014368E+03  0.17852687698E+03 -0.95212228892E+02  0.34415529247E+03  0.17200000000E+03 0.  1.
</event>
<event>
 4    1 -0.3291270E-004  0.1798947E+03  0.7818608E-02  0.1167905E+00
         -5   -1    0    0    0  501 -0.00000000000E+00  0.00000000000E+00  0.11431371479E+04  0.11431468099E+04  0.47000000000E+01 0.  1.
          5   -1    0    0  501    0  0.00000000000E+00 -0.00000000000E+00 -0.41005412464E+02  0.41273888251E+02  0.47000000000E+01 0. -1.
          6    1    1    2  502    0 -0.48265533297E+02 -0.21178433508E+02  0.22026285102E+03  0.28439024472E+03  0.17200000000E+03 0. -1.
         -6    1    1    2    0  502  0.48265533297E+02  0.21178433508E+02  0.88186888441E+03  0.90003045340E+03  0.17200000000E+03 0.  1.
</event>
<event>
 4    1 -0.3291270E-004  0.1939261E+03  0.7818608E-02  0.1154967E+00
         -5   -1    0    0    0  501 -0.00000000000E+00  0.00000000000E+00  0.33337798552E+02  0.33667474100E+02  0.47000000000E+01 0.  1.
          5   -1    0    0  501    0  0.00000000000E+00 -0.00000000000E+00 -0.11430543847E+04  0.11430640473E+04  0.47000000000E+01 0. -1.
          6    1    1    2  502    0  0.89048460725E+02  0.96810224426E+01 -0.47536888220E+03  0.51340327689E+03  0.17200000000E+03 0. -1.
         -6    1    1    2    0  502 -0.89048460725E+02 -0.96810224426E+01 -0.63434770391E+03  0.66332824454E+03  0.17200000000E+03 0.  1.
</event>
<event>
 4    1 -0.3291270E-004  0.2514634E+03  0.7818608E-02  0.1112383E+00
         -5   -1    0    0    0  501 -0.00000000000E+00  0.00000000000E+00  0.23876153560E+03  0.23880779066E+03  0.47000000000E+01 0.  1.
          5   -1    0    0  501    0  0.00000000000E+00 -0.00000000000E+00 -0.34365252834E+03  0.34368466686E+03  0.47000000000E+01 0. -1.
          6    1    1    2  502    0  0.14983093096E+03  0.10583265609E+03  0.87094313251E+02  0.26611891772E+03  0.17200000000E+03 0.  1.
         -6    1    1    2    0  502 -0.14983093096E+03 -0.10583265609E+03 -0.19198530599E+03  0.31637353980E+03  0.17200000000E+03 0. -1.
</event>
<event>
 4    1 -0.3291270E-004  0.1809454E+03  0.7818608E-02  0.1166891E+00
          5   -1    0    0  501    0  0.00000000000E+00  0.00000000000E+00  0.15554361044E+03  0.15561460326E+03  0.47000000000E+01 0. -1.
         -5   -1    0    0    0  501 -0.00000000000E+00 -0.00000000000E+00 -0.24662996170E+03  0.24667474132E+03  0.47000000000E+01 0.  1.
          6    1    1    2  502    0 -0.55493450722E+02 -0.88164135274E+01  0.31584724151E+02  0.18368137363E+03  0.17200000000E+03 0. -1.
         -6    1    1    2    0  502  0.55493450722E+02  0.88164135274E+01 -0.12267107541E+03  0.21860797095E+03  0.17200000000E+03 0.  1.
</event>
<event>
 4    1 -0.3291270E-004  0.2096153E+03  0.7818608E-02  0.1141871E+00
         -5   -1    0    0    0  501 -0.00000000000E+00  0.00000000000E+00  0.22839528800E+03  0.22844364202E+03  0.47000000000E+01 0.  1.
          5   -1    0    0  501    0  0.00000000000E+00 -0.00000000000E+00 -0.23570212255E+03  0.23574897789E+03  0.47000000000E+01 0. -1.
          6    1    1    2  502    0  0.13951531946E+02 -0.11899548117E+03 -0.10324878674E+03  0.23366403606E+03  0.17200000000E+03 0. -1.
         -6    1    1    2    0  502 -0.13951531946E+02  0.11899548117E+03  0.95941952191E+02  0.23052858385E+03  0.17200000000E+03 0.  1.
</event>
<event>
 4    1 -0.3291270E-004  0.1957801E+03  0.7818608E-02  0.1153349E+00
          5   -1    0    0  501    0  0.00000000000E+00  0.00000000000E+00  0.11097479987E+03  0.11107428238E+03  0.47000000000E+01 0. -1.
         -5   -1    0    0    0  501 -0.00000000000E+00 -0.00000000000E+00 -0.34647112424E+03  0.34650300133E+03  0.47000000000E+01 0.  1.
          6    1    1    2  502    0  0.81914636570E+02  0.45120456247E+02 -0.10347559567E+03  0.22144313526E+03  0.17200000000E+03 0. -1.
         -6    1    1    2    0  502 -0.81914636570E+02 -0.45120456247E+02 -0.13202072870E+03  0.23613414845E+03  0.17200000000E+03 0. -1.
</event>
<event>
 4    1 -0.3291270E-004  0.1774493E+03  0.7818608E-02  0.1170295E+00
          5   -1    0    0  501    0  0.00000000000E+00  0.00000000000E+00  0.96937543511E+03  0.96938682898E+03  0.47000000000E+01 0. -1.
         -5   -1    0    0    0  501 -0.00000000000E+00 -0.00000000000E+00 -0.39287164390E+02  0.39567300714E+02  0.47000000000E+01 0.  1.
          6    1    1    2  502    0 -0.36108586413E+02  0.24503242992E+02  0.25318162973E+03  0.30917499343E+03  0.17200000000E+03 0.  1.
         -6    1    1    2    0  502  0.36108586413E+02 -0.24503242992E+02  0.67690664100E+03  0.69977913627E+03  0.17200000000E+03 0. -1.
</event>
<event>
 4    1 -0.3291270E-004  0.2069311E+03  0.7818608E-02  0.1144019E+00
         -5   -1    0    0    0  501 -0.00000000000E+00  0.00000000000E+00  0.17367286072E+03  0.17373644566E+03  0.47000000000E+01 0.  1.
          5   -1    0    0  501    0  0.00000000000E+00 -0.00000000000E+00 -0.27064240818E+03  0.27068321541E+03  0.47000000000E+01 0. -1.
          6    1    1    2  502    0  0.79260383011E+02 -0.83392387552E+02 -0.11493915413E+03  0.23670975427E+03  0.17200000000E+03 0.  1.
         -6    1    1    2    0  502 -0.79260383011E+02  0.83392387552E+02  0.17969606672E+02  0.20770990679E+03  0.17200000000E+03 0.  1.
</event>
<event>
 4    1 -0.3291270E-004  0.3951624E+03  0.7818608E-02  0.1045468E+00
          5   -1    0    0  501    0  0.00000000000E+00  0.00000000000E+00  0.36008745449E+03  0.36011812629E+03  0.47000000000E+01 0. -1.
         -5   -1    0    0    0  501 -0.00000000000E+00 -0.00000000000E+00 -0.45490571928E+03  0.45492999839E+03  0.47000000000E+01 0.  1.
          6    1    1    2  502    0 -0.10428946754E+03  0.34013673067E+03 -0.13561481624E+03  0.41778543174E+03  0.17200000000E+03 0. -1.
         -6    1    1    2    0  502  0.10428946754E+03 -0.34013673067E+03  0.40796551446E+02  0.39726269294E+03  0.17200000000E+03 0. -1.
</event>
<event>
 4    1 -0.3291270E-004  0.2195284E+03  0.7818608E-02  0.1134235E+00
          5   -1    0    0  501    0  0.00000000000E+00  0.00000000000E+00  0.49389199692E+03  0.49391435960E+03  0.47000000000E+01 0. -1.
         -5   -1    0    0    0  501 -0.00000000000E+00 -0.00000000000E+00 -0.11646208881E+03  0.11655688796E+03  0.47000000000E+01 0.  1.
          6    1    1    2  502    0 -0.97849588063E+02  0.95048218414E+02  0.31182503425E+03  0.38134965281E+03  0.17200000000E+03 0. -1.
         -6    1    1    2    0  502  0.97849588063E+02 -0.95048218414E+02  0.65604873851E+02  0.22912159475E+03  0.17200000000E+03 0.  1.
</event>
<event>
 4    1 -0.3291270E-004  0.4150899E+03  0.7818608E-02  0.1038676E+00
         -5   -1    0    0    0  501 -0.00000000000E+00  0.00000000000E+00  0.51215094443E+03  0.51217250988E+03  0.47000000000E+01 0.  1.
          5   -1    0    0  501    0  0.00000000000E+00 -0.00000000000E+00 -0.33724061508E+03  0.33727336458E+03  0.47000000000E+01 0. -1.
          6    1    1    2  502    0  0.37322631146E+03  0.58461178618E+02  0.65981221241E+02  0.42030121405E+03  0.17200000000E+03 0. -1.
         -6    1    1    2    0  502 -0.37322631146E+03 -0.58461178618E+02  0.10892910811E+03  0.42914466042E+03  0.17200000000E+03 0. -1.
</event>
<event>
 4    1 -0.3291270E-004  0.4564212E+03  0.7818608E-02  0.1025824E+00
          5   -1    0    0  501    0  0.00000000000E+00  0.00000000000E+00  0.23859866348E+03  0.23864495011E+03  0.47000000000E+01 0. -1.
         -5   -1    0    0    0  501 -0.00000000000E+00 -0.00000000000E+00 -0.10300681818E+04  0.10300789043E+04  0.47000000000E+01 0.  1.
          6    1    1    2  502    0  0.35951143517E+03 -0.22245859867E+03 -0.14799901088E+03  0.47981663931E+03  0.17200000000E+03 0. -1.
         -6    1    1    2    0  502 -0.35951143517E+03  0.22245859867E+03 -0.64347050744E+03  0.78890721513E+03  0.17200000000E+03 0.  1.
</event>
<event>
 4    1 -0.3291270E-004  0.1901429E+03  0.7818608E-02  0.1158333E+00
         -5   -1    0    0    0  501 -0.00000000000E+00  0.00000000000E+00  0.76253038033E+02  0.76397747409E+02  0.47000000000E+01 0.  1.
          5   -1    0    0  501    0  0.00000000000E+00 -0.00000000000E+00 -0.47655083891E+03  0.47657401530E+03  0.47000000000E+01 0. -1.
          6    1    1    2  502    0 -0.80633641208E+02 -0.82785565926E+01 -0.17814055968E+03  0.26055398211E+03  0.17200000000E+03 0.  1.
         -6    1    1    2    0  502  0.80633641208E+02  0.82785565926E+01 -0.22215724120E+03  0.29241778060E+03  0.17200000000E+03 0.  1.
</event>
<event>
 4    1 -0.3291270E-004  0.1946228E+03  0.7818608E-02  0.1154357E+00
         -5   -1    0    0    0  501 -0.00000000000E+00  0.00000000000E+00  0.69410038844E+02  0.69568983695E+02  0.47000000000E+01 0.  1.
          5   -1    0    0  501    0  0.00000000000E+00 -0.00000000000E+00 -0.57962246727E+03  0.57964152246E+03  0.47000000000E+01 0. -1.
          6    1    1    2  502    0  0.12663827858E+02  0.90186845014E+02 -0.17569344387E+03  0.26219501477E+03  0.17200000000E+03 0.  1.
         -6    1    1    2    0  502 -0.12663827858E+02 -0.90186845014E+02 -0.33451898455E+03  0.38701549139E+03  0.17200000000E+03 0. -1.
</event>
<event>
 4    1 -0.3291270E-004  0.1882660E+03  0.7818608E-02  0.1160035E+00
         -5   -1    0    0    0  501 -0.00000000000E+00  0.00000000000E+00  0.17698328740E+03  0.17704568343E+03  0.47000000000E+01 0.  1.
          5   -1    0    0  501    0  0.00000000000E+00 -0.00000000000E+00 -0.21529240607E+03  0.21534370228E+03  0.47000000000E+01 0. -1.
          6    1    1    2  502    0 -0.71999613977E+02  0.26002643749E+02  0.32876032485E+02  0.19111492722E+03  0.17200000000E+03 0. -1.
         -6    1    1    2    0  502  0.71999613977E+02 -0.26002643749E+02 -0.71185151152E+02  0.20127445849E+03  0.17200000000E+03 0. -1.
</event>
<event>
 4    1 -0.3291270E-004  0.1880325E+03  0.7818608E-02  0.1160248E+00
         -5   -1    0    0    0  501 -0.00000000000E+00  0.00000000000E+00  0.72045760865E+02  0.72198903445E+02  0.47000000000E+01 0.  1.
          5   -1    0    0  501    0  0.00000000000E+00 -0.00000000000E+00 -0.51264892545E+03  0.51267046996E+03  0.47000000000E+01 0. -1.
          6    1    1    2  502    0 -0.68529911314E+02  0.32800656944E+02 -0.28167477164E+03  0.33866932075E+03  0.17200000000E+03 0. -1.
         -6    1    1    2    0  502  0.68529911314E+02 -0.32800656944E+02 -0.15892839295E+03  0.24620005265E+03  0.17200000000E+03 0.  1.
</event>
<event>
 4    1 -0.3291270E-004  0.1903960E+03  0.7818608E-02  0.1158105E+00
         -5   -1    0    0    0  501 -0.00000000000E+00  0.00000000000E+00  0.12370611859E+04  0.12370701143E+04  0.47000000000E+01 0.  1.
          5   -1    0    0  501    0  0.00000000000E+00 -0.00000000000E+00 -0.29492538722E+02  0.29864692201E+02  0.47000000000E+01 0. -1.
          6    1    1    2  502    0 -0.50995808398E+02  0.63765759351E+02  0.67581122817E+03  0.70211926384E+03  0.17200000000E+03 0. -1.
         -6    1    1    2    0  502  0.50995808398E+02 -0.63765759351E+02  0.53175741898E+03  0.56481554262E+03  0.17200000000E+03 0. -1.
</event>
<event>
 4    1 -0.3291270E-004  0.1926402E+03  0.7818608E-02  0.1156101E+00
          5   -1    0    0  501    0  0.00000000000E+00  0.00000000000E+00  0.25318830509E+03  0.25323192499E+03  0.47000000000E+01 0. -1.
         -5   -1    0    0    0  501 -0.00000000000E+00 -0.00000000000E+00 -0.15289383587E+03  0.15296605848E+03  0.47000000000E+01 0.  1.
          6    1    1    2  502    0 -0.17571584165E+02 -0.84955676301E+02  0.91736620793E+02  0.21336783989E+03  0.17200000000E+03 0. -1.
         -6    1    1    2    0  502  0.17571584165E+02  0.84955676301E+02  0.85578484265E+01  0.19283014359E+03  0.17200000000E+03 0. -1.
</event>
<event>
 4    1 -0.3291270E-004  0.2266248E+03  0.7818608E-02  0.1129038E+00
          5   -1    0    0  501    0  0.00000000000E+00  0.00000000000E+00  0.30559860165E+03  0.30563474170E+03  0.47000000000E+01 0. -1.
         -5   -1    0    0    0  501 -0.00000000000E+00 -0.00000000000E+00 -0.17107169423E+03  0.17113624563E+03  0.47000000000E+01 0.  1.
          6    1    1    2  502    0 -0.14445702447E+03 -0.30115894188E+02  0.99297369463E+02  0.24742426434E+03  0.17200000000E+03 0. -1.
         -6    1    1    2    0  502  0.14445702447E+03  0.30115894188E+02  0.35229537960E+02  0.22934672299E+03  0.17200000000E+03 0. -1.
</event>
<event>
 4    1 -0.3291270E-004  0.1831314E+03  0.7818608E-02  0.1164806E+00
         -5   -1    0    0    0  501 -0.00000000000E+00  0.00000000000E+00  0.33947428331E+03  0.33950681735E+03  0.47000000000E+01 0.  1.
          5   -1    0    0  501    0  0.00000000000E+00 -0.00000000000E+00 -0.14466083020E+03  0.14473716107E+03  0.47000000000E+01 0. -1.
          6    1    1    2  502    0  0.62732327833E+02 -0.42129513208E+01 -0.39011306333E+02  0.18724042282E+03  0.17200000000E+03 0. -1.
         -6    1    1    2    0  502 -0.62732327833E+02  0.42129513208E+01  0.23382475944E+03  0.29700355561E+03  0.17200000000E+03 0.  1.
</event>
<event>
 4    1 -0.3291270E-004  0.1784992E+03  0.7818608E-02  0.1169264E+00
          5   -1    0    0  501    0  0.00000000000E+00  0.00000000000E+00  0.79613900297E+03  0.79615287606E+03  0.47000000000E+01 0. -1.
         -5   -1    0    0    0  501 -0.00000000000E+00 -0.00000000000E+00 -0.42145177930E+02  0.42406438458E+02  0.47000000000E+01 0.  1.
          6    1    1    2  502    0 -0.45358641591E+02  0.14850753066E+02  0.27986851923E+03  0.33194628977E+03  0.17200000000E+03 0.  1.
         -6    1    1    2    0  502  0.45358641591E+02 -0.14850753066E+02  0.47412530581E+03  0.50661302475E+03  0.17200000000E+03 0. -1.
</event>
<event>
 4    1 -0.3291270E-004  0.2229021E+03  0.7818608E-02  0.1131738E+00
          5   -1    0    0  501    0  0.00000000000E+00  0.00000000000E+00  0.21879448370E+03  0.21884495904E+03  0.47000000000E+01 0. -1.
         -5   -1    0    0    0  501 -0.00000000000E+00 -0.00000000000E+00 -0.24668181072E+03  0.24672658093E+03  0.47000000000E+01 0.  1.
          6    1    1    2  502    0 -0.13786982151E+03  0.33064347474E+02  0.51820823654E+02  0.22884653487E+03  0.17200000000E+03 0. -1.
         -6    1    1    2    0  502  0.13786982151E+03 -0.33064347474E+02 -0.79708150671E+02  0.23672500510E+03  0.17200000000E+03 0.  1.
</event>
<event>
 4    1 -0.3291270E-004  0.1859130E+03  0.7818608E-02  0.1162200E+00
         -5   -1    0    0    0  501 -0.00000000000E+00  0.00000000000E+00  0.11689411097E+03  0.11698856003E+03  0.47000000000E+01 0.  1.
          5   -1    0    0  501    0  0.00000000000E+00 -0.00000000000E+00 -0.29739118705E+03  0.29742832437E+03  0.47000000000E+01 0. -1.
          6    1    1    2  502    0  0.35816067947E+02 -0.60801649355E+02 -0.10698263774E+03  0.21449689057E+03  0.17200000000E+03 0. -1.
         -6    1    1    2    0  502 -0.35816067947E+02  0.60801649355E+02 -0.73514438350E+02  0.19991999383E+03  0.17200000000E+03 0. -1.
</event>
<event>
 4    1 -0.3291270E-004  0.2003932E+03  0.7818608E-02  0.1149408E+00
          5   -1    0    0  501    0  0.00000000000E+00  0.00000000000E+00  0.76510087134E+02  0.76654311251E+02  0.47000000000E+01 0. -1.
         -5   -1    0    0    0  501 -0.00000000000E+00 -0.00000000000E+00 -0.52452627882E+03  0.52454733549E+03  0.47000000000E+01 0.  1.
          6    1    1    2  502    0  0.16341119133E+02 -0.10152038697E+03 -0.21669115332E+03  0.29514822898E+03  0.17200000000E+03 0. -1.
         -6    1    1    2    0  502 -0.16341119133E+02  0.10152038697E+03 -0.23132503836E+03  0.30605341776E+03  0.17200000000E+03 0.  1.
</event>
<event>
 4    1 -0.3291270E-004  0.2130983E+03  0.7818608E-02  0.1139136E+00
         -5   -1    0    0    0  501 -0.00000000000E+00  0.00000000000E+00  0.87204875241E+02  0.87331439160E+02  0.47000000000E+01 0.  1.
          5   -1    0    0  501    0  0.00000000000E+00 -0.00000000000E+00 -0.64091655257E+03  0.64093378547E+03  0.47000000000E+01 0. -1.
          6    1    1    2  502    0 -0.12153400916E+03 -0.32501774097E+02 -0.43485375006E+03  0.48426094684E+03  0.17200000000E+03 0. -1.
         -6    1    1    2    0  502  0.12153400916E+03  0.32501774097E+02 -0.11885792727E+03  0.24400427778E+03  0.17200000000E+03 0. -1.
</event>
<event>
 4    1 -0.3291270E-004  0.2064937E+03  0.7818608E-02  0.1144373E+00
         -5   -1    0    0    0  501 -0.00000000000E+00  0.00000000000E+00  0.10839881459E+03  0.10850065901E+03  0.47000000000E+01 0.  1.
          5   -1    0    0  501    0  0.00000000000E+00 -0.00000000000E+00 -0.40542247096E+03  0.40544971324E+03  0.47000000000E+01 0. -1.
          6    1    1    2  502    0  0.10224804683E+03 -0.50999792106E+02 -0.10364246773E+03  0.23104415810E+03  0.17200000000E+03 0.  1.
         -6    1    1    2    0  502 -0.10224804683E+03  0.50999792106E+02 -0.19338118865E+03  0.28290621414E+03  0.17200000000E+03 0.  1.
</event>
<event>
 4    1 -0.3291270E-004  0.2658789E+03  0.7818608E-02  0.1103662E+00
          5   -1    0    0  501    0  0.00000000000E+00  0.00000000000E+00  0.20869657271E+03  0.20874948973E+03  0.47000000000E+01 0. -1.
         -5   -1    0    0    0  501 -0.00000000000E+00 -0.00000000000E+00 -0.34085728842E+03  0.34088969047E+03  0.47000000000E+01 0.  1.
          6    1    1    2  502    0  0.12036547651E+02  0.20239247018E+03 -0.88358080724E+02  0.28017626754E+03  0.17200000000E+03 0.  1.
         -6    1    1    2    0  502 -0.12036547651E+02 -0.20239247018E+03 -0.43802634985E+02  0.26946291265E+03  0.17200000000E+03 0. -1.
</event>
<event>
 4    1 -0.3291270E-004  0.4273533E+03  0.7818608E-02  0.1034699E+00
          5   -1    0    0  501    0  0.00000000000E+00  0.00000000000E+00  0.91832754352E+03  0.91833957074E+03  0.47000000000E+01 0. -1.
         -5   -1    0    0    0  501 -0.00000000000E+00 -0.00000000000E+00 -0.20627727015E+03  0.20633080764E+03  0.47000000000E+01 0.  1.
          6    1    1    2  502    0 -0.66054406974E+02  0.38559517418E+03  0.46284059575E+03  0.62996209419E+03  0.17200000000E+03 0. -1.
         -6    1    1    2    0  502  0.66054406974E+02 -0.38559517418E+03  0.24920967762E+03  0.49470828420E+03  0.17200000000E+03 0.  1.
</event>
<event>
 4    1 -0.3291270E-004  0.2496056E+03  0.7818608E-02  0.1113554E+00
          5   -1    0    0  501    0  0.00000000000E+00  0.00000000000E+00  0.10157376601E+03  0.10168244657E+03  0.47000000000E+01 0. -1.
         -5   -1    0    0    0  501 -0.00000000000E+00 -0.00000000000E+00 -0.62529156156E+03  0.62530922507E+03  0.47000000000E+01 0.  1.
          6    1    1    2  502    0 -0.17409407513E+03  0.49094072124E+02 -0.21075737448E+03  0.32668279081E+03  0.17200000000E+03 0. -1.
         -6    1    1    2    0  502  0.17409407513E+03 -0.49094072124E+02 -0.31296042108E+03  0.40030888084E+03  0.17200000000E+03 0.  1.
</event>
<event>
 4    1 -0.3291270E-004  0.2809082E+03  0.7818608E-02  0.1095194E+00
          5   -1    0    0  501    0  0.00000000000E+00  0.00000000000E+00  0.21221871799E+03  0.21227075698E+03  0.47000000000E+01 0. -1.
         -5   -1    0    0    0  501 -0.00000000000E+00 -0.00000000000E+00 -0.53186399970E+03  0.53188476588E+03  0.47000000000E+01 0.  1.
          6    1    1    2  502    0  0.19650091926E+03 -0.10350270000E+03  0.44332211402E+02  0.28438488910E+03  0.17200000000E+03 0. -1.
         -6    1    1    2    0  502 -0.19650091926E+03  0.10350270000E+03 -0.36397749311E+03  0.45977063376E+03  0.17200000000E+03 0.  1.
</event>
<event>
 4    1 -0.3291270E-004  0.2899276E+03  0.7818608E-02  0.1090387E+00
         -5   -1    0    0    0  501 -0.00000000000E+00  0.00000000000E+00  0.52914862878E+02  0.53123184330E+02  0.47000000000E+01 0.  1.
          5   -1    0    0  501    0  0.00000000000E+00 -0.00000000000E+00 -0.16024278707E+04  0.16024347634E+04  0.47000000000E+01 0. -1.
          6    1    1    2  502    0 -0.21383687353E+03 -0.93529692256E+02 -0.86053290855E+03  0.90806106541E+03  0.17200000000E+03 0. -1.
         -6    1    1    2    0  502  0.21383687353E+03  0.93529692256E+02 -0.68898009928E+03  0.74749688228E+03  0.17200000000E+03 0.  1.
</event>
<event>
 4    1 -0.3291270E-004  0.4556672E+03  0.7818608E-02  0.1026045E+00
          5   -1    0    0  501    0  0.00000000000E+00  0.00000000000E+00  0.10117631680E+04  0.10117740845E+04  0.47000000000E+01 0. -1.
         -5   -1    0    0    0  501 -0.00000000000E+00 -0.00000000000E+00 -0.22272168673E+03  0.22277127225E+03  0.47000000000E+01 0.  1.
          6    1    1    2  502    0  0.40685795199E+03  0.11187132529E+03  0.56773155579E+03  0.72797781969E+03  0.17200000000E+03 0. -1.
         -6    1    1    2    0  502 -0.40685795199E+03 -0.11187132529E+03  0.22130992549E+03  0.50656753710E+03  0.17200000000E+03 0.  1.
</event>
<event>
 4    1 -0.3291270E-004  0.2574654E+03  0.7818608E-02  0.1108676E+00
          5   -1    0    0  501    0  0.00000000000E+00  0.00000000000E+00  0.19624185652E+03  0.19629813104E+03  0.47000000000E+01 0. -1.
         -5   -1    0    0    0  501 -0.00000000000E+00 -0.00000000000E+00 -0.46682981839E+03  0.46685347738E+03  0.47000000000E+01 0.  1.
          6    1    1    2  502    0  0.15422986241E+03 -0.11365561345E+03  0.39099599106E+02  0.26041741028E+03  0.17200000000E+03 0. -1.
         -6    1    1    2    0  502 -0.15422986241E+03  0.11365561345E+03 -0.30968756097E+03  0.40273419814E+03  0.17200000000E+03 0.  1.
</event>
<event>
 4    1 -0.3291270E-004  0.1745318E+03  0.7818608E-02  0.1173203E+00
         -5   -1    0    0    0  501 -0.00000000000E+00  0.00000000000E+00  0.14334655862E+03  0.14342358896E+03  0.47000000000E+01 0.  1.
          5   -1    0    0  501    0  0.00000000000E+00 -0.00000000000E+00 -0.33814590514E+03  0.33817856698E+03  0.47000000000E+01 0. -1.
          6    1    1    2  502    0 -0.27507247100E+00 -0.29618766372E+02 -0.24425103800E+03  0.30019979439E+03  0.17200000000E+03 0. -1.
         -6    1    1    2    0  502  0.27507247100E+00  0.29618766372E+02  0.49451691477E+02  0.18140236155E+03  0.17200000000E+03 0.  1.
</event>
<event>
 4    1 -0.3291270E-004  0.2331416E+03  0.7818608E-02  0.1124448E+00
         -5   -1    0    0    0  501 -0.00000000000E+00  0.00000000000E+00  0.87976912450E+03  0.87978167884E+03  0.47000000000E+01 0.  1.
          5   -1    0    0  501    0  0.00000000000E+00 -0.00000000000E+00 -0.19339046759E+03  0.19344757159E+03  0.47000000000E+01 0. -1.
          6    1    1    2  502    0 -0.12013378489E+03 -0.10168030073E+03 -0.99508294636E+02  0.25348946828E+03  0.17200000000E+03 0. -1.
         -6    1    1    2    0  502  0.12013378489E+03  0.10168030073E+03  0.78588695155E+03  0.81973978216E+03  0.17200000000E+03 0.  1.
</event>
<event>
 4    1 -0.3291270E-004  0.1776722E+03  0.7818608E-02  0.1170075E+00
          5   -1    0    0  501    0  0.00000000000E+00  0.00000000000E+00  0.11772353368E+03  0.11781731784E+03  0.47000000000E+01 0. -1.
         -5   -1    0    0    0  501 -0.00000000000E+00 -0.00000000000E+00 -0.26807005995E+03  0.26811125870E+03  0.47000000000E+01 0.  1.
          6    1    1    2  502    0  0.42067638557E+02  0.14619908643E+02 -0.70726980250E+02  0.19123214604E+03  0.17200000000E+03 0.  1.
         -6    1    1    2    0  502 -0.42067638557E+02 -0.14619908643E+02 -0.79619546024E+02  0.19469643051E+03  0.17200000000E+03 0.  1.
</event>
<event>
 4    1 -0.3291270E-004  0.1775079E+03  0.7818608E-02  0.1170237E+00
         -5   -1    0    0    0  501 -0.00000000000E+00  0.00000000000E+00  0.36642776360E+02  0.36942970365E+02  0.47000000000E+01 0.  1.
          5   -1    0    0  501    0  0.00000000000E+00 -0.00000000000E+00 -0.11720989247E+04  0.11721083479E+04  0.47000000000E+01 0. -1.
          6    1    1    2  502    0  0.63838702099E+01  0.43408705590E+02 -0.88158288708E+03  0.89927607347E+03  0.17200000000E+03 0. -1.
         -6    1    1    2    0  502 -0.63838702099E+01 -0.43408705590E+02 -0.25387326123E+03  0.30977524479E+03  0.17200000000E+03 0.  1.
</event>
<event>
 4    1 -0.3291270E-004  0.2483820E+03  0.7818608E-02  0.1114332E+00
          5   -1    0    0  501    0  0.00000000000E+00  0.00000000000E+00  0.12733705875E+04  0.12733792613E+04  0.47000000000E+01 0. -1.
         -5   -1    0    0    0  501 -0.00000000000E+00 -0.00000000000E+00 -0.51744478768E+02  0.51957493040E+02  0.47000000000E+01 0.  1.
          6    1    1    2  502    0 -0.25430494940E+02 -0.17737788065E+03  0.44086876081E+03  0.50602261498E+03  0.17200000000E+03 0.  1.
         -6    1    1    2    0  502  0.25430494940E+02  0.17737788065E+03  0.78075734788E+03  0.81931413932E+03  0.17200000000E+03 0.  1.
</event>
<event>
 4    1 -0.3291270E-004  0.1744799E+03  0.7818608E-02  0.1173255E+00
          5   -1    0    0  501    0  0.00000000000E+00  0.00000000000E+00  0.19879105137E+03  0.19884660446E+03  0.47000000000E+01 0. -1.
         -5   -1    0    0    0  501 -0.00000000000E+00 -0.00000000000E+00 -0.15364039851E+03  0.15371227034E+03  0.47000000000E+01 0.  1.
          6    1    1    2  502    0 -0.29268392708E+02  0.16093337285E+01  0.33692562678E+02  0.17770317258E+03  0.17200000000E+03 0.  1.
         -6    1    1    2    0  502  0.29268392708E+02 -0.16093337285E+01  0.11458090185E+02  0.17485570222E+03  0.17200000000E+03 0.  1.
</event>
<event>
 4    1 -0.3291270E-004  0.2538831E+03  0.7818608E-02  0.1110875E+00
          5   -1    0    0  501    0  0.00000000000E+00  0.00000000000E+00  0.48150698577E+03  0.48152992362E+03  0.47000000000E+01 0. -1.
         -5   -1    0    0    0  501 -0.00000000000E+00 -0.00000000000E+00 -0.27898654522E+03  0.27902613213E+03  0.47000000000E+01 0.  1.
          6    1    1    2  502    0  0.13976220560E+03 -0.12385131047E+03  0.37555147472E+03  0.45331614948E+03  0.17200000000E+03 0. -1.
         -6    1    1    2    0  502 -0.13976220560E+03  0.12385131047E+03 -0.17303103416E+03  0.30723990627E+03  0.17200000000E+03 0.  1.
</event>
<event>
 4    1 -0.3291270E-004  0.1922404E+03  0.7818608E-02  0.1156456E+00
          5   -1    0    0  501    0  0.00000000000E+00  0.00000000000E+00  0.13783249688E+04  0.13783329821E+04  0.47000000000E+01 0. -1.
         -5   -1    0    0    0  501 -0.00000000000E+00 -0.00000000000E+00 -0.30157458806E+02  0.30521505887E+02  0.47000000000E+01 0.  1.
          6    1    1    2  502    0  0.85654581781E+02 -0.59720868966E+01  0.43366274569E+03  0.47436246711E+03  0.17200000000E+03 0.  1.
         -6    1    1    2    0  502 -0.85654581781E+02  0.59720868966E+01  0.91450476432E+03  0.93449202092E+03  0.17200000000E+03 0. -1.
</event>
<event>
 4    1 -0.3291270E-004  0.1929121E+03  0.7818608E-02  0.1155861E+00
         -5   -1    0    0    0  501 -0.00000000000E+00  0.00000000000E+00  0.37276474608E+03  0.37279437485E+03  0.47000000000E+01 0.  1.
          5   -1    0    0  501    0  0.00000000000E+00 -0.00000000000E+00 -0.12194212672E+03  0.12203266886E+03  0.47000000000E+01 0. -1.
          6    1    1    2  502    0 -0.60851152917E+02 -0.62675497714E+02  0.19911974752E+02  0.19393701958E+03  0.17200000000E+03 0. -1.
         -6    1    1    2    0  502  0.60851152917E+02  0.62675497714E+02  0.23091064461E+03  0.30089002413E+03  0.17200000000E+03 0.  1.
</event>
<event>
 4    1 -0.3291270E-004  0.1849951E+03  0.7818608E-02  0.1163055E+00
         -5   -1    0    0    0  501 -0.00000000000E+00  0.00000000000E+00  0.84646622478E+02  0.84777005708E+02  0.47000000000E+01 0.  1.
          5   -1    0    0  501    0  0.00000000000E+00 -0.00000000000E+00 -0.42735403506E+03  0.42737987936E+03  0.47000000000E+01 0. -1.
          6    1    1    2  502    0  0.51885754043E+02  0.44125301291E+02 -0.23139627979E+03  0.29625565309E+03  0.17200000000E+03 0.  1.
         -6    1    1    2    0  502 -0.51885754043E+02 -0.44125301291E+02 -0.11131113279E+03  0.21590123198E+03  0.17200000000E+03 0.  1.
</event>
<event>
 4    1 -0.3291270E-004  0.4306048E+03  0.7818608E-02  0.1033669E+00
         -5   -1    0    0    0  501 -0.00000000000E+00  0.00000000000E+00  0.10335255579E+04  0.10335362446E+04  0.47000000000E+01 0.  1.
          5   -1    0    0  501    0  0.00000000000E+00 -0.00000000000E+00 -0.41066254500E+03  0.41068943969E+03  0.47000000000E+01 0. -1.
          6    1    1    2  502    0  0.65989033284E+02 -0.38920683227E+03 -0.23047013626E+03  0.48840249232E+03  0.17200000000E+03 0. -1.
         -6    1    1    2    0  502 -0.65989033284E+02  0.38920683227E+03  0.85333314915E+03  0.95582319194E+03  0.17200000000E+03 0.  1.
</event>
<event>
 4    1 -0.3291270E-004  0.2026773E+03  0.7818608E-02  0.1147500E+00
          5   -1    0    0  501    0  0.00000000000E+00  0.00000000000E+00  0.96817769864E+02  0.96931783030E+02  0.47000000000E+01 0. -1.
         -5   -1    0    0    0  501 -0.00000000000E+00 -0.00000000000E+00 -0.14128505196E+04  0.14128583371E+04  0.47000000000E+01 0.  1.
          6    1    1    2  502    0 -0.10717437262E+03 -0.27808555808E+01 -0.26471267618E+02  0.20439864802E+03  0.17200000000E+03 0. -1.
         -6    1    1    2    0  502  0.10717437262E+03  0.27808555808E+01 -0.12895614821E+04  0.13053914721E+04  0.17200000000E+03 0.  1.
</event>
<event>
 4    1 -0.3291270E-004  0.1777614E+03  0.7818608E-02  0.1169987E+00
         -5   -1    0    0    0  501 -0.00000000000E+00  0.00000000000E+00  0.48811670065E+02  0.49037425856E+02  0.47000000000E+01 0.  1.
          5   -1    0    0  501    0  0.00000000000E+00 -0.00000000000E+00 -0.11829310938E+04  0.11829404307E+04  0.47000000000E+01 0. -1.
          6    1    1    2  502    0  0.24293164930E+02 -0.37748690428E+02 -0.98216095601E+03  0.99811786128E+03  0.17200000000E+03 0. -1.
         -6    1    1    2    0  502 -0.24293164930E+02  0.37748690428E+02 -0.15195846769E+03  0.23385999528E+03  0.17200000000E+03 0.  1.
</event>
<event>
 4    1 -0.3291270E-004  0.2060282E+03  0.7818608E-02  0.1144750E+00
          5   -1    0    0  501    0  0.00000000000E+00  0.00000000000E+00  0.42218848474E+03  0.42221464524E+03  0.47000000000E+01 0. -1.
         -5   -1    0    0    0  501 -0.00000000000E+00 -0.00000000000E+00 -0.10540336145E+03  0.10550809734E+03  0.47000000000E+01 0.  1.
          6    1    1    2  502    0  0.68153391307E+02  0.90657131128E+02  0.10127229913E+03  0.22957281795E+03  0.17200000000E+03 0. -1.
         -6    1    1    2    0  502 -0.68153391307E+02 -0.90657131128E+02  0.21551282417E+03  0.29814992462E+03  0.17200000000E+03 0.  1.
</event>
<event>
 4    1 -0.3291270E-004  0.2214557E+03  0.7818608E-02  0.1132802E+00
         -5   -1    0    0    0  501 -0.00000000000E+00  0.00000000000E+00  0.14339834620E+03  0.14347534872E+03  0.47000000000E+01 0.  1.
          5   -1    0    0  501    0  0.00000000000E+00 -0.00000000000E+00 -0.43851848295E+03  0.43854366931E+03  0.47000000000E+01 0. -1.
          6    1    1    2  502    0 -0.94166443585E+02 -0.10291400208E+03 -0.28419946688E+03  0.36029425182E+03  0.17200000000E+03 0. -1.
         -6    1    1    2    0  502  0.94166443585E+02  0.10291400208E+03 -0.10920669879E+02  0.22172476621E+03  0.17200000000E+03 0.  1.
</event>
<event>
 4    1 -0.3291270E-004  0.1928449E+03  0.7818608E-02  0.1155920E+00
          5   -1    0    0  501    0  0.00000000000E+00  0.00000000000E+00  0.57291564095E+02  0.57484026620E+02  0.47000000000E+01 0. -1.
         -5   -1    0    0    0  501 -0.00000000000E+00 -0.00000000000E+00 -0.64804394508E+03  0.64806098845E+03  0.47000000000E+01 0.  1.
          6    1    1    2  502    0 -0.49782231969E+02  0.71602352544E+02 -0.28899281052E+03  0.34742770765E+03  0.17200000000E+03 0. -1.
         -6    1    1    2    0  502  0.49782231969E+02 -0.71602352544E+02 -0.30175957047E+03  0.35811730743E+03  0.17200000000E+03 0.  1.
</event>
<event>
 4    1 -0.3291270E-004  0.4149670E+03  0.7818608E-02  0.1038717E+00
         -5   -1    0    0    0  501 -0.00000000000E+00  0.00000000000E+00  0.88760407481E+03  0.88761651834E+03  0.47000000000E+01 0.  1.
          5   -1    0    0  501    0  0.00000000000E+00 -0.00000000000E+00 -0.19636695282E+03  0.19642319150E+03  0.47000000000E+01 0. -1.
          6    1    1    2  502    0  0.24098439746E+03  0.29075788137E+03  0.40561091704E+03  0.58027393653E+03  0.17200000000E+03 0. -1.
         -6    1    1    2    0  502 -0.24098439746E+03 -0.29075788137E+03  0.28562620495E+03  0.50376577331E+03  0.17200000000E+03 0.  1.
</event>
<event>
 4    1 -0.3291270E-004  0.1755744E+03  0.7818608E-02  0.1172156E+00
          5   -1    0    0  501    0  0.00000000000E+00  0.00000000000E+00  0.21481244383E+03  0.21486385463E+03  0.47000000000E+01 0. -1.
         -5   -1    0    0    0  501 -0.00000000000E+00 -0.00000000000E+00 -0.22909309419E+03  0.22914130096E+03  0.47000000000E+01 0.  1.
          6    1    1    2  502    0 -0.25859846420E+02 -0.23950485193E+02  0.12860526419E+03  0.21763655800E+03  0.17200000000E+03 0. -1.
         -6    1    1    2    0  502  0.25859846420E+02  0.23950485193E+02 -0.14288591455E+03  0.22636859759E+03  0.17200000000E+03 0.  1.
</event>
<event>
 4    1 -0.3291270E-004  0.1967993E+03  0.7818608E-02  0.1152468E+00
          5   -1    0    0  501    0  0.00000000000E+00  0.00000000000E+00  0.48442015226E+02  0.48669485708E+02  0.47000000000E+01 0. -1.
         -5   -1    0    0    0  501 -0.00000000000E+00 -0.00000000000E+00 -0.99291134251E+03  0.99292246630E+03  0.47000000000E+01 0.  1.
          6    1    1    2  502    0 -0.57661295323E+02 -0.76296374137E+02 -0.24116615788E+03  0.31127331622E+03  0.17200000000E+03 0. -1.
         -6    1    1    2    0  502  0.57661295323E+02  0.76296374137E+02 -0.70330316941E+03  0.73031863579E+03  0.17200000000E+03 0.  1.
</event>
<event>
 4    1 -0.3291270E-004  0.3848623E+03  0.7818608E-02  0.1049151E+00
          5   -1    0    0  501    0  0.00000000000E+00  0.00000000000E+00  0.12299961864E+04  0.12300051660E+04  0.47000000000E+01 0. -1.
         -5   -1    0    0    0  501 -0.00000000000E+00 -0.00000000000E+00 -0.12068890323E+03  0.12078038484E+03  0.47000000000E+01 0.  1.
          6    1    1    2  502    0 -0.31174697666E+03  0.14611236663E+03  0.58951749901E+03  0.70402406406E+03  0.17200000000E+03 0. -1.
         -6    1    1    2    0  502  0.31174697666E+03 -0.14611236663E+03  0.51978978414E+03  0.64676148682E+03  0.17200000000E+03 0.  1.
</event>
<event>
 4    1 -0.3291270E-004  0.2095826E+03  0.7818608E-02  0.1141897E+00
          5   -1    0    0  501    0  0.00000000000E+00  0.00000000000E+00  0.15010428002E+03  0.15017784418E+03  0.47000000000E+01 0. -1.
         -5   -1    0    0    0  501 -0.00000000000E+00 -0.00000000000E+00 -0.61698627180E+03  0.61700417307E+03  0.47000000000E+01 0.  1.
          6    1    1    2  502    0  0.22022406025E+02  0.11771101771E+03  0.44733070309E+02  0.21430333091E+03  0.17200000000E+03 0. -1.
         -6    1    1    2    0  502 -0.22022406025E+02 -0.11771101771E+03 -0.51161506208E+03  0.55287868634E+03  0.17200000000E+03 0.  1.
</event>
<event>
 4    1 -0.3291270E-004  0.2217309E+03  0.7818608E-02  0.1132599E+00
         -5   -1    0    0    0  501 -0.00000000000E+00  0.00000000000E+00  0.17217875479E+03  0.17224289129E+03  0.47000000000E+01 0.  1.
          5   -1    0    0  501    0  0.00000000000E+00 -0.00000000000E+00 -0.32162792031E+03  0.32166225940E+03  0.47000000000E+01 0. -1.
          6    1    1    2  502    0 -0.24996813950E+02 -0.13767984556E+03 -0.15758506934E+03  0.27202506256E+03  0.17200000000E+03 0. -1.
         -6    1    1    2    0  502  0.24996813950E+02  0.13767984556E+03  0.81359038199E+01  0.22188008814E+03  0.17200000000E+03 0.  1.
</event>
<event>
 4    1 -0.3291270E-004  0.2237425E+03  0.7818608E-02  0.1131123E+00
         -5   -1    0    0    0  501 -0.00000000000E+00  0.00000000000E+00  0.96989626253E+03  0.96990765027E+03  0.47000000000E+01 0.  1.
          5   -1    0    0  501    0  0.00000000000E+00 -0.00000000000E+00 -0.53520141828E+02  0.53726116380E+02  0.47000000000E+01 0. -1.
          6    1    1    2  502    0 -0.60339544093E+02  0.12975293419E+03  0.35885233990E+03  0.42288968581E+03  0.17200000000E+03 0. -1.
         -6    1    1    2    0  502  0.60339544093E+02 -0.12975293419E+03  0.55752378080E+03  0.60074408084E+03  0.17200000000E+03 0.  1.
</event>
<event>
 4    1 -0.3291270E-004  0.2119351E+03  0.7818608E-02  0.1140043E+00
         -5   -1    0    0    0  501 -0.00000000000E+00  0.00000000000E+00  0.52193250730E+03  0.52195366862E+03  0.47000000000E+01 0.  1.
          5   -1    0    0  501    0  0.00000000000E+00 -0.00000000000E+00 -0.12247770322E+03  0.12256784972E+03  0.47000000000E+01 0. -1.
          6    1    1    2  502    0  0.38934887443E+02 -0.11754388879E+03  0.23880636494E+02  0.21327629041E+03  0.17200000000E+03 0. -1.
         -6    1    1    2    0  502 -0.38934887443E+02  0.11754388879E+03  0.37557416759E+03  0.43124522793E+03  0.17200000000E+03 0. -1.
</event>
<event>
 4    1 -0.3291270E-004  0.2299633E+03  0.7818608E-02  0.1126666E+00
          5   -1    0    0  501    0  0.00000000000E+00  0.00000000000E+00  0.86989002213E+03  0.86990271905E+03  0.47000000000E+01 0. -1.
         -5   -1    0    0    0  501 -0.00000000000E+00 -0.00000000000E+00 -0.61173236726E+02  0.61353523872E+02  0.47000000000E+01 0.  1.
          6    1    1    2  502    0  0.56797452852E+02 -0.14167975431E+03  0.44572633590E+03  0.50155265920E+03  0.17200000000E+03 0. -1.
         -6    1    1    2    0  502 -0.56797452852E+02  0.14167975431E+03  0.36299044950E+03  0.42970358372E+03  0.17200000000E+03 0. -1.
</event>
<event>
 4    1 -0.3291270E-004  0.4636695E+03  0.7818608E-02  0.1023722E+00
         -5   -1    0    0    0  501 -0.00000000000E+00  0.00000000000E+00  0.24340000339E+04  0.24340045717E+04  0.47000000000E+01 0.  1.
          5   -1    0    0  501    0  0.00000000000E+00 -0.00000000000E+00 -0.95834523722E+02  0.95949705248E+02  0.47000000000E+01 0. -1.
          6    1    1    2  502    0  0.42523777206E+03 -0.67662446058E+02  0.81369356719E+03  0.93652901219E+03  0.17200000000E+03 0. -1.
         -6    1    1    2    0  502 -0.42523777206E+03  0.67662446058E+02  0.15244719430E+04  0.15934252648E+04  0.17200000000E+03 0. -1.
</event>
<event>
 4    1 -0.3291270E-004  0.1782516E+03  0.7818608E-02  0.1169506E+00
         -5   -1    0    0    0  501 -0.00000000000E+00  0.00000000000E+00  0.16457846752E+03  0.16464556469E+03  0.47000000000E+01 0.  1.
          5   -1    0    0  501    0  0.00000000000E+00 -0.00000000000E+00 -0.19400318429E+03  0.19406010799E+03  0.47000000000E+01 0. -1.
          6    1    1    2  502    0 -0.21645904309E+02  0.41485858984E+02 -0.13494877994E+01  0.17825667669E+03  0.17200000000E+03 0. -1.
         -6    1    1    2    0  502  0.21645904309E+02 -0.41485858984E+02 -0.28075228969E+02  0.18044899598E+03  0.17200000000E+03 0. -1.
</event>
<event>
 4    1 -0.3291270E-004  0.2251324E+03  0.7818608E-02  0.1130113E+00
          5   -1    0    0  501    0  0.00000000000E+00  0.00000000000E+00  0.97330670146E+02  0.97444083202E+02  0.47000000000E+01 0. -1.
         -5   -1    0    0    0  501 -0.00000000000E+00 -0.00000000000E+00 -0.79100950401E+03  0.79102346705E+03  0.47000000000E+01 0.  1.
          6    1    1    2  502    0  0.87489729833E+02 -0.11595756079E+03 -0.86990418600E+02  0.24135439018E+03  0.17200000000E+03 0. -1.
         -6    1    1    2    0  502 -0.87489729833E+02  0.11595756079E+03 -0.60668841526E+03  0.64711316007E+03  0.17200000000E+03 0.  1.
</event>
<event>
 4    1 -0.3291270E-004  0.1836391E+03  0.7818608E-02  0.1164327E+00
         -5   -1    0    0    0  501 -0.00000000000E+00  0.00000000000E+00  0.14834060593E+03  0.14841504427E+03  0.47000000000E+01 0.  1.
          5   -1    0    0  501    0  0.00000000000E+00 -0.00000000000E+00 -0.25394097508E+03  0.25398446571E+03  0.47000000000E+01 0. -1.
          6    1    1    2  502    0  0.66233407499E+01  0.63995668350E+02 -0.11809801404E+03  0.21833564787E+03  0.17200000000E+03 0. -1.
         -6    1    1    2    0  502 -0.66233407499E+01 -0.63995668350E+02  0.12497644885E+02  0.18406386212E+03  0.17200000000E+03 0.  1.
</event>
<event>
 4    1 -0.3291270E-004  0.1794647E+03  0.7818608E-02  0.1168322E+00
          5   -1    0    0  501    0  0.00000000000E+00  0.00000000000E+00  0.97507305634E+02  0.97620513479E+02  0.47000000000E+01 0. -1.
         -5   -1    0    0    0  501 -0.00000000000E+00 -0.00000000000E+00 -0.33714013284E+03  0.33717289210E+03  0.47000000000E+01 0.  1.
          6    1    1    2  502    0 -0.51016956270E+02 -0.45651886986E+01 -0.15147414236E+03  0.23484460091E+03  0.17200000000E+03 0. -1.
         -6    1    1    2    0  502  0.51016956270E+02  0.45651886986E+01 -0.88158684843E+02  0.19994880467E+03  0.17200000000E+03 0.  1.
</event>
<event>
 4    1 -0.3291270E-004  0.4396795E+03  0.7818608E-02  0.1030845E+00
         -5   -1    0    0    0  501 -0.00000000000E+00  0.00000000000E+00  0.55193758341E+03  0.55195759436E+03  0.47000000000E+01 0.  1.
          5   -1    0    0  501    0  0.00000000000E+00 -0.00000000000E+00 -0.44802378150E+03  0.44804843353E+03  0.47000000000E+01 0. -1.
          6    1    1    2  502    0  0.30940742895E+03  0.26077015159E+03 -0.18165551476E+03  0.47572760598E+03  0.17200000000E+03 0. -1.
         -6    1    1    2    0  502 -0.30940742895E+03 -0.26077015159E+03  0.28556931667E+03  0.52427842191E+03  0.17200000000E+03 0.  1.
</event>
<event>
 4    1 -0.3291270E-004  0.1870548E+03  0.7818608E-02  0.1161145E+00
          5   -1    0    0  501    0  0.00000000000E+00  0.00000000000E+00  0.25454373147E+02  0.25884650130E+02  0.47000000000E+01 0. -1.
         -5   -1    0    0    0  501 -0.00000000000E+00 -0.00000000000E+00 -0.17536090362E+04  0.17536153346E+04  0.47000000000E+01 0.  1.
          6    1    1    2  502    0  0.73094075820E+02  0.79217561455E+01 -0.44401122379E+03  0.48180438457E+03  0.17200000000E+03 0.  1.
         -6    1    1    2    0  502 -0.73094075820E+02 -0.79217561455E+01 -0.12841434392E+04  0.12976956002E+04  0.17200000000E+03 0.  1.
</event>
<event>
 4    1 -0.3291270E-004  0.3362177E+03  0.7818608E-02  0.1068418E+00
         -5   -1    0    0    0  501 -0.00000000000E+00  0.00000000000E+00  0.41500534034E+03  0.41503195360E+03  0.47000000000E+01 0.  1.
          5   -1    0    0  501    0  0.00000000000E+00 -0.00000000000E+00 -0.73452980157E+03  0.73454483825E+03  0.47000000000E+01 0. -1.
          6    1    1    2  502    0  0.20355044253E+03 -0.20500136713E+03 -0.61569531437E+03  0.70151483471E+03  0.17200000000E+03 0. -1.
         -6    1    1    2    0  502 -0.20355044253E+03  0.20500136713E+03  0.29617085314E+03  0.44806195713E+03  0.17200000000E+03 0.  1.
</event>
<event>
 4    1 -0.3291270E-004  0.5920320E+03  0.7818608E-02  0.9922076E-01
          5   -1    0    0  501    0  0.00000000000E+00  0.00000000000E+00  0.63605654103E+03  0.63607390560E+03  0.47000000000E+01 0. -1.
         -5   -1    0    0    0  501 -0.00000000000E+00 -0.00000000000E+00 -0.13140873458E+04  0.13140957509E+04  0.47000000000E+01 0.  1.
          6    1    1    2  502    0 -0.17478518576E+03 -0.53885804200E+03  0.40401502613E+03  0.71674960197E+03  0.17200000000E+03 0. -1.
         -6    1    1    2    0  502  0.17478518576E+03  0.53885804200E+03 -0.10820458309E+04  0.12334200545E+04  0.17200000000E+03 0.  1.
</event>
<event>
 4    1 -0.3291270E-004  0.2510223E+03  0.7818608E-02  0.1112660E+00
         -5   -1    0    0    0  501 -0.00000000000E+00  0.00000000000E+00  0.47230086515E+02  0.47463365580E+02  0.47000000000E+01 0.  1.
          5   -1    0    0  501    0  0.00000000000E+00 -0.00000000000E+00 -0.21534203494E+04  0.21534254785E+04  0.47000000000E+01 0. -1.
          6    1    1    2  502    0  0.17976493911E+03  0.33358375217E+02 -0.37291473766E+03  0.44953043956E+03  0.17200000000E+03 0.  1.
         -6    1    1    2    0  502 -0.17976493911E+03 -0.33358375217E+02 -0.17332755253E+04  0.17513584045E+04  0.17200000000E+03 0. -1.
</event>
<event>
 4    1 -0.3291270E-004  0.2184071E+03  0.7818608E-02  0.1135076E+00
          5   -1    0    0  501    0  0.00000000000E+00  0.00000000000E+00  0.49822613070E+02  0.50043808540E+02  0.47000000000E+01 0. -1.
         -5   -1    0    0    0  501 -0.00000000000E+00 -0.00000000000E+00 -0.11411835714E+04  0.11411932499E+04  0.47000000000E+01 0.  1.
          6    1    1    2  502    0  0.85823453595E+02  0.10369179466E+03 -0.30517711231E+03  0.37527952695E+03  0.17200000000E+03 0. -1.
         -6    1    1    2    0  502 -0.85823453595E+02 -0.10369179466E+03 -0.78618384599E+03  0.81595753147E+03  0.17200000000E+03 0.  1.
</event>
<event>
 4    1 -0.3291270E-004  0.2179840E+03  0.7818608E-02  0.1135395E+00
          5   -1    0    0  501    0  0.00000000000E+00  0.00000000000E+00  0.12533422042E+04  0.12533510166E+04  0.47000000000E+01 0. -1.
         -5   -1    0    0    0  501 -0.00000000000E+00 -0.00000000000E+00 -0.38315708567E+02  0.38602895267E+02  0.47000000000E+01 0.  1.
          6    1    1    2  502    0  0.86281837781E+02  0.10241322387E+03  0.52985225676E+03  0.57294016961E+03  0.17200000000E+03 0.  1.
         -6    1    1    2    0  502 -0.86281837781E+02 -0.10241322387E+03  0.68517423888E+03  0.71901374228E+03  0.17200000000E+03 0. -1.
</event>
<event>
 4    1 -0.3291270E-004  0.1771517E+03  0.7818608E-02  0.1170588E+00
         -5   -1    0    0    0  501 -0.00000000000E+00  0.00000000000E+00  0.43910230994E+03  0.43912746281E+03  0.47000000000E+01 0.  1.
          5   -1    0    0  501    0  0.00000000000E+00 -0.00000000000E+00 -0.84441464217E+02  0.84572163737E+02  0.47000000000E+01 0. -1.
          6    1    1    2  502    0 -0.11080224638E+01 -0.42396711030E+02  0.74391979434E+02  0.19213764708E+03  0.17200000000E+03 0. -1.
         -6    1    1    2    0  502  0.11080224638E+01  0.42396711030E+02  0.28026886629E+03  0.33156197947E+03  0.17200000000E+03 0.  1.
</event>
<event>
 4    1 -0.3291270E-004  0.2405215E+03  0.7818608E-02  0.1119446E+00
         -5   -1    0    0    0  501 -0.00000000000E+00  0.00000000000E+00  0.95597747261E+02  0.95713213724E+02  0.47000000000E+01 0.  1.
          5   -1    0    0  501    0  0.00000000000E+00 -0.00000000000E+00 -0.11162958048E+04  0.11163056991E+04  0.47000000000E+01 0. -1.
          6    1    1    2  502    0 -0.16707282107E+03 -0.18794735468E+02 -0.92059730028E+03  0.95149879606E+03  0.17200000000E+03 0. -1.
         -6    1    1    2    0  502  0.16707282107E+03  0.18794735468E+02 -0.10010075724E+03  0.26052011673E+03  0.17200000000E+03 0.  1.
</event>
<event>
 4    1 -0.3291270E-004  0.2012537E+03  0.7818608E-02  0.1148686E+00
         -5   -1    0    0    0  501 -0.00000000000E+00  0.00000000000E+00  0.86523222993E+03  0.86524499520E+03  0.47000000000E+01 0.  1.
          5   -1    0    0  501    0  0.00000000000E+00 -0.00000000000E+00 -0.11313809342E+03  0.11323567540E+03  0.47000000000E+01 0. -1.
          6    1    1    2  502    0  0.57131188448E+02 -0.87493257826E+02  0.13802106008E+01  0.20125841061E+03  0.17200000000E+03 0. -1.
         -6    1    1    2    0  502 -0.57131188448E+02  0.87493257826E+02  0.75071392591E+03  0.77722225999E+03  0.17200000000E+03 0.  1.
</event>
<event>
 4    1 -0.3291270E-004  0.2466171E+03  0.7818608E-02  0.1115462E+00
         -5   -1    0    0    0  501 -0.00000000000E+00  0.00000000000E+00  0.35358026940E+02  0.35669035158E+02  0.47000000000E+01 0.  1.
          5   -1    0    0  501    0  0.00000000000E+00 -0.00000000000E+00 -0.20475889612E+04  0.20475943554E+04  0.47000000000E+01 0. -1.
          6    1    1    2  502    0  0.11269124929E+03  0.13614937614E+03 -0.14276054064E+04  0.14487502085E+04  0.17200000000E+03 0. -1.
         -6    1    1    2    0  502 -0.11269124929E+03 -0.13614937614E+03 -0.58462552793E+03  0.63451318205E+03  0.17200000000E+03 0.  1.
</event>
<event>
 4    1 -0.3291270E-004  0.1887372E+03  0.7818608E-02  0.1159605E+00
          5   -1    0    0  501    0  0.00000000000E+00  0.00000000000E+00  0.12770197439E+03  0.12778843556E+03  0.47000000000E+01 0. -1.
         -5   -1    0    0    0  501 -0.00000000000E+00 -0.00000000000E+00 -0.28389109934E+03  0.28393000244E+03  0.47000000000E+01 0.  1.
          6    1    1    2  502    0  0.57561226041E+02 -0.52196084977E+02 -0.10580857133E+03  0.21637277970E+03  0.17200000000E+03 0.  1.
         -6    1    1    2    0  502 -0.57561226041E+02  0.52196084977E+02 -0.50380553617E+02  0.19534565829E+03  0.17200000000E+03 0. -1.
</event>
<event>
 4    1 -0.3291270E-004  0.4442366E+03  0.7818608E-02  0.1029455E+00
         -5   -1    0    0    0  501 -0.00000000000E+00  0.00000000000E+00  0.58235671293E+03  0.58237567866E+03  0.47000000000E+01 0.  1.
          5   -1    0    0  501    0  0.00000000000E+00 -0.00000000000E+00 -0.34332532535E+03  0.34335749450E+03  0.47000000000E+01 0. -1.
          6    1    1    2  502    0 -0.10544877376E+03 -0.39578109745E+03  0.66580076601E+02  0.44919820524E+03  0.17200000000E+03 0. -1.
         -6    1    1    2    0  502  0.10544877376E+03  0.39578109745E+03  0.17245131098E+03  0.47653496792E+03  0.17200000000E+03 0.  1.
</event>
<event>
 4    1 -0.3291270E-004  0.1792342E+03  0.7818608E-02  0.1168546E+00
         -5   -1    0    0    0  501 -0.00000000000E+00  0.00000000000E+00  0.12495209583E+03  0.12504045846E+03  0.47000000000E+01 0.  1.
          5   -1    0    0  501    0  0.00000000000E+00 -0.00000000000E+00 -0.45602959623E+03  0.45605381551E+03  0.47000000000E+01 0. -1.
          6    1    1    2  502    0  0.30385716509E+02 -0.40219660766E+02 -0.35750862706E+03  0.39992165646E+03  0.17200000000E+03 0. -1.
         -6    1    1    2    0  502 -0.30385716509E+02  0.40219660766E+02  0.26431126657E+02  0.18117261751E+03  0.17200000000E+03 0.  1.
</event>
<event>
 4    1 -0.3291270E-004  0.1969489E+03  0.7818608E-02  0.1152339E+00
          5   -1    0    0  501    0  0.00000000000E+00  0.00000000000E+00  0.24902110510E+02  0.25341766076E+02  0.47000000000E+01 0. -1.
         -5   -1    0    0    0  501 -0.00000000000E+00 -0.00000000000E+00 -0.16119139061E+04  0.16119207582E+04  0.47000000000E+01 0.  1.
          6    1    1    2  502    0 -0.95220025251E+02 -0.11747950701E+02 -0.62497713063E+03  0.65527496623E+03  0.17200000000E+03 0. -1.
         -6    1    1    2    0  502  0.95220025251E+02  0.11747950701E+02 -0.96203466497E+03  0.98198755805E+03  0.17200000000E+03 0.  1.
</event>
<event>
 4    1 -0.3291270E-004  0.2014868E+03  0.7818608E-02  0.1148491E+00
          5   -1    0    0  501    0  0.00000000000E+00  0.00000000000E+00  0.24445269824E+03  0.24449787663E+03  0.47000000000E+01 0. -1.
         -5   -1    0    0    0  501 -0.00000000000E+00 -0.00000000000E+00 -0.18409747053E+03  0.18415745615E+03  0.47000000000E+01 0.  1.
          6    1    1    2  502    0 -0.97403979792E+02  0.39056255290E+02  0.97395984531E+02  0.22379210031E+03  0.17200000000E+03 0. -1.
         -6    1    1    2    0  502  0.97403979792E+02 -0.39056255290E+02 -0.37040756820E+02  0.20486323248E+03  0.17200000000E+03 0.  1.
</event>
<event>
 4    1 -0.3291270E-004  0.2096970E+03  0.7818608E-02  0.1141806E+00
          5   -1    0    0  501    0  0.00000000000E+00  0.00000000000E+00  0.20915699359E+03  0.20920979415E+03  0.47000000000E+01 0. -1.
         -5   -1    0    0    0  501 -0.00000000000E+00 -0.00000000000E+00 -0.21056818599E+03  0.21062063278E+03  0.47000000000E+01 0.  1.
          6    1    1    2  502    0  0.11977376192E+03 -0.65649468332E+01 -0.10247474160E+02  0.20994728695E+03  0.17200000000E+03 0. -1.
         -6    1    1    2    0  502 -0.11977376192E+03  0.65649468332E+01  0.88362817598E+01  0.20988313997E+03  0.17200000000E+03 0.  1.
</event>
<event>
 4    1 -0.3291270E-004  0.1830591E+03  0.7818608E-02  0.1164875E+00
          5   -1    0    0  501    0  0.00000000000E+00  0.00000000000E+00  0.27510893063E+03  0.27514907543E+03  0.47000000000E+01 0. -1.
         -5   -1    0    0    0  501 -0.00000000000E+00 -0.00000000000E+00 -0.16924968125E+03  0.16931492729E+03  0.47000000000E+01 0.  1.
          6    1    1    2  502    0 -0.50814495394E+02  0.36667524734E+02  0.17066318398E+03  0.25027293637E+03  0.17200000000E+03 0. -1.
         -6    1    1    2    0  502  0.50814495394E+02 -0.36667524734E+02 -0.64803934594E+02  0.19419106635E+03  0.17200000000E+03 0.  1.
</event>
<event>
 4    1 -0.3291270E-004  0.5251436E+03  0.7818608E-02  0.1007417E+00
          5   -1    0    0  501    0  0.00000000000E+00  0.00000000000E+00  0.82271111185E+03  0.82272453687E+03  0.47000000000E+01 0. -1.
         -5   -1    0    0    0  501 -0.00000000000E+00 -0.00000000000E+00 -0.33609168083E+03  0.33612454228E+03  0.47000000000E+01 0.  1.
          6    1    1    2  502    0  0.48972369067E+03  0.79765320546E+02  0.21298615940E+03  0.56669118897E+03  0.17200000000E+03 0. -1.
         -6    1    1    2    0  502 -0.48972369067E+03 -0.79765320546E+02  0.27363327161E+03  0.59215789018E+03  0.17200000000E+03 0.  1.
</event>
<event>
 4    1 -0.3291270E-004  0.1761874E+03  0.7818608E-02  0.1171545E+00
          5   -1    0    0  501    0  0.00000000000E+00  0.00000000000E+00  0.32628055328E+03  0.32631440276E+03  0.47000000000E+01 0. -1.
         -5   -1    0    0    0  501 -0.00000000000E+00 -0.00000000000E+00 -0.95237252084E+02  0.95353155084E+02  0.47000000000E+01 0.  1.
          6    1    1    2  502    0 -0.68132687956E+01 -0.37570979749E+02  0.12505743708E+03  0.21605869971E+03  0.17200000000E+03 0. -1.
         -6    1    1    2    0  502  0.68132687956E+01  0.37570979749E+02  0.10598586411E+03  0.20560885813E+03  0.17200000000E+03 0.  1.
</event>
<event>
 4    1 -0.3291270E-004  0.3191480E+03  0.7818608E-02  0.1076042E+00
          5   -1    0    0  501    0  0.00000000000E+00  0.00000000000E+00  0.31555700866E+03  0.31559200832E+03  0.47000000000E+01 0. -1.
         -5   -1    0    0    0  501 -0.00000000000E+00 -0.00000000000E+00 -0.39650720051E+03  0.39653505526E+03  0.47000000000E+01 0.  1.
          6    1    1    2  502    0 -0.13454257337E+03  0.23274390340E+03  0.11312318461E+03  0.33860343104E+03  0.17200000000E+03 0.  1.
         -6    1    1    2    0  502  0.13454257337E+03 -0.23274390340E+03 -0.19407337645E+03  0.37352363254E+03  0.17200000000E+03 0.  1.
</event>
<event>
 4    1 -0.3291270E-004  0.1807348E+03  0.7818608E-02  0.1167094E+00
         -5   -1    0    0    0  501 -0.00000000000E+00  0.00000000000E+00  0.10107610309E+04  0.10107719582E+04  0.47000000000E+01 0.  1.
          5   -1    0    0  501    0  0.00000000000E+00 -0.00000000000E+00 -0.32480691897E+02  0.32818978444E+02  0.47000000000E+01 0. -1.
          6    1    1    2  502    0  0.38166183249E+02 -0.40303846395E+02  0.54266360581E+03  0.57196927072E+03  0.17200000000E+03 0.  1.
         -6    1    1    2    0  502 -0.38166183249E+02  0.40303846395E+02  0.43561673318E+03  0.47162166596E+03  0.17200000000E+03 0. -1.
</event>
<event>
 4    1 -0.3291270E-004  0.2619703E+03  0.7818608E-02  0.1105965E+00
          5   -1    0    0  501    0  0.00000000000E+00  0.00000000000E+00  0.78760824876E+02  0.78900934945E+02  0.47000000000E+01 0. -1.
         -5   -1    0    0    0  501 -0.00000000000E+00 -0.00000000000E+00 -0.88014423931E+03  0.88015678830E+03  0.47000000000E+01 0.  1.
          6    1    1    2  502    0 -0.21926692215E+02  0.19637637176E+03 -0.45106052653E+03  0.52161677293E+03  0.17200000000E+03 0.  1.
         -6    1    1    2    0  502  0.21926692215E+02 -0.19637637176E+03 -0.35032288790E+03  0.43744095031E+03  0.17200000000E+03 0. -1.
</event>
<event>
 4    1 -0.3291270E-004  0.1789304E+03  0.7818608E-02  0.1168842E+00
          5   -1    0    0  501    0  0.00000000000E+00  0.00000000000E+00  0.26400829079E+02  0.26815923927E+02  0.47000000000E+01 0. -1.
         -5   -1    0    0    0  501 -0.00000000000E+00 -0.00000000000E+00 -0.12070463201E+04  0.12070554705E+04  0.47000000000E+01 0.  1.
          6    1    1    2  502    0 -0.13606711633E+02 -0.47401778317E+02 -0.62685180539E+03  0.65188899140E+03  0.17200000000E+03 0.  1.
         -6    1    1    2    0  502  0.13606711633E+02  0.47401778317E+02 -0.55379368564E+03  0.58198240303E+03  0.17200000000E+03 0.  1.
</event>
<event>
 4    1 -0.3291270E-004  0.1845912E+03  0.7818608E-02  0.1163432E+00
          5   -1    0    0  501    0  0.00000000000E+00  0.00000000000E+00  0.20428194017E+03  0.20433600045E+03  0.47000000000E+01 0. -1.
         -5   -1    0    0    0  501 -0.00000000000E+00 -0.00000000000E+00 -0.16802137750E+03  0.16808710033E+03  0.47000000000E+01 0.  1.
          6    1    1    2  502    0  0.66794011769E+02  0.53368090236E+01  0.15556893085E+01  0.18459778359E+03  0.17200000000E+03 0.  1.
         -6    1    1    2    0  502 -0.66794011769E+02 -0.53368090236E+01  0.34704873361E+02  0.18782531718E+03  0.17200000000E+03 0.  1.
</event>
<event>
 4    1 -0.3291270E-004  0.2462465E+03  0.7818608E-02  0.1115700E+00
          5   -1    0    0  501    0  0.00000000000E+00  0.00000000000E+00  0.43721787471E+02  0.43973681898E+02  0.47000000000E+01 0. -1.
         -5   -1    0    0    0  501 -0.00000000000E+00 -0.00000000000E+00 -0.15942161985E+04  0.15942231266E+04  0.47000000000E+01 0.  1.
          6    1    1    2  502    0 -0.17434410811E+03 -0.25641430563E+02 -0.47688151502E+03  0.53670599993E+03  0.17200000000E+03 0. -1.
         -6    1    1    2    0  502  0.17434410811E+03  0.25641430563E+02 -0.10736128960E+04  0.11014908086E+04  0.17200000000E+03 0.  1.
</event>
<event>
 4    1 -0.3291270E-004  0.2458678E+03  0.7818608E-02  0.1115944E+00
          5   -1    0    0  501    0  0.00000000000E+00  0.00000000000E+00  0.84538883584E+03  0.84540190073E+03  0.47000000000E+01 0. -1.
         -5   -1    0    0    0  501 -0.00000000000E+00 -0.00000000000E+00 -0.11099265371E+03  0.11109212024E+03  0.47000000000E+01 0.  1.
          6    1    1    2  502    0 -0.81428222671E+02 -0.15568049900E+03  0.65259660050E+03  0.69737600776E+03  0.17200000000E+03 0. -1.
         -6    1    1    2    0  502  0.81428222671E+02  0.15568049900E+03  0.81799581624E+02  0.25911801321E+03  0.17200000000E+03 0.  1.
</event>
<event>
 4    1 -0.3291270E-004  0.2998345E+03  0.7818608E-02  0.1085323E+00
         -5   -1    0    0    0  501 -0.00000000000E+00  0.00000000000E+00  0.87800519117E+03  0.87801777074E+03  0.47000000000E+01 0.  1.
          5   -1    0    0  501    0  0.00000000000E+00 -0.00000000000E+00 -0.23752494027E+03  0.23757143610E+03  0.47000000000E+01 0. -1.
          6    1    1    2  502    0  0.26172111150E+02  0.24419612023E+03 -0.10051195572E+03  0.31623310671E+03  0.17200000000E+03 0. -1.
         -6    1    1    2    0  502 -0.26172111150E+02 -0.24419612023E+03  0.74099220662E+03  0.79935610013E+03  0.17200000000E+03 0.  1.
</event>
<event>
 4    1 -0.3291270E-004  0.1778896E+03  0.7818608E-02  0.1169861E+00
          5   -1    0    0  501    0  0.00000000000E+00  0.00000000000E+00  0.28731216403E+03  0.28735060396E+03  0.47000000000E+01 0. -1.
         -5   -1    0    0    0  501 -0.00000000000E+00 -0.00000000000E+00 -0.15274284521E+03  0.15281513918E+03  0.47000000000E+01 0.  1.
          6    1    1    2  502    0 -0.39926693773E+02  0.21600381463E+02  0.18359910954E+03  0.25564301356E+03  0.17200000000E+03 0. -1.
         -6    1    1    2    0  502  0.39926693773E+02 -0.21600381463E+02 -0.49029790728E+02  0.18452272959E+03  0.17200000000E+03 0.  1.
</event>
<event>
 4    1 -0.3291270E-004  0.2428883E+03  0.7818608E-02  0.1117884E+00
          5   -1    0    0  501    0  0.00000000000E+00  0.00000000000E+00  0.11125754633E+03  0.11135677624E+03  0.47000000000E+01 0. -1.
         -5   -1    0    0    0  501 -0.00000000000E+00 -0.00000000000E+00 -0.53040543882E+03  0.53042626211E+03  0.47000000000E+01 0.  1.
          6    1    1    2  502    0 -0.13747251192E+03  0.10252820175E+03 -0.19974470199E+03  0.31447204909E+03  0.17200000000E+03 0. -1.
         -6    1    1    2    0  502  0.13747251192E+03 -0.10252820175E+03 -0.21940319050E+03  0.32731098926E+03  0.17200000000E+03 0.  1.
</event>
<event>
 4    1 -0.3291270E-004  0.1765409E+03  0.7818608E-02  0.1171193E+00
         -5   -1    0    0    0  501 -0.00000000000E+00  0.00000000000E+00  0.40958031116E+03  0.40960727690E+03  0.47000000000E+01 0.  1.
          5   -1    0    0  501    0  0.00000000000E+00 -0.00000000000E+00 -0.14524687152E+03  0.14532289457E+03  0.47000000000E+01 0. -1.
          6    1    1    2  502    0  0.15720853760E+02  0.36544877330E+02 -0.59335674299E+02  0.18624552490E+03  0.17200000000E+03 0. -1.
         -6    1    1    2    0  502 -0.15720853760E+02 -0.36544877330E+02  0.32366911393E+03  0.36868464657E+03  0.17200000000E+03 0.  1.
</event>
<event>
 4    1 -0.3291270E-004  0.1877540E+03  0.7818608E-02  0.1160503E+00
         -5   -1    0    0    0  501 -0.00000000000E+00  0.00000000000E+00  0.12131810831E+03  0.12140911582E+03  0.47000000000E+01 0.  1.
          5   -1    0    0  501    0  0.00000000000E+00 -0.00000000000E+00 -0.33637064406E+03  0.33640347826E+03  0.47000000000E+01 0. -1.
          6    1    1    2  502    0 -0.73418775805E+02 -0.16650402496E+02 -0.19217740120E+03  0.26867025529E+03  0.17200000000E+03 0. -1.
         -6    1    1    2    0  502  0.73418775805E+02  0.16650402496E+02 -0.22875134557E+02  0.18914233880E+03  0.17200000000E+03 0.  1.
</event>
<event>
 4    1 -0.3291270E-004  0.2118768E+03  0.7818608E-02  0.1140088E+00
          5   -1    0    0  501    0  0.00000000000E+00  0.00000000000E+00  0.13763813407E+04  0.13763893654E+04  0.47000000000E+01 0. -1.
         -5   -1    0    0    0  501 -0.00000000000E+00 -0.00000000000E+00 -0.66567130489E+02  0.66732846946E+02  0.47000000000E+01 0.  1.
          6    1    1    2  502    0  0.12358791242E+03  0.58142497771E+01  0.11705587873E+04  0.11895796115E+04  0.17200000000E+03 0. -1.
         -6    1    1    2    0  502 -0.12358791242E+03 -0.58142497771E+01  0.13925542291E+03  0.25354260077E+03  0.17200000000E+03 0.  1.
</event>
<event>
 4    1 -0.3291270E-004  0.3600156E+03  0.7818608E-02  0.1058578E+00
         -5   -1    0    0    0  501 -0.00000000000E+00  0.00000000000E+00  0.63285435513E+03  0.63287180756E+03  0.47000000000E+01 0.  1.
          5   -1    0    0  501    0  0.00000000000E+00 -0.00000000000E+00 -0.20485284923E+03  0.20490675889E+03  0.47000000000E+01 0. -1.
          6    1    1    2  502    0 -0.30943936702E+02 -0.31475339939E+03  0.22306220910E+03  0.42351856957E+03  0.17200000000E+03 0. -1.
         -6    1    1    2    0  502  0.30943936702E+02  0.31475339939E+03  0.20493929680E+03  0.41425999688E+03  0.17200000000E+03 0.  1.
</event>
<event>
 4    1 -0.3291270E-004  0.1784186E+03  0.7818608E-02  0.1169342E+00
         -5   -1    0    0    0  501 -0.00000000000E+00  0.00000000000E+00  0.90528788666E+02  0.90650711952E+02  0.47000000000E+01 0.  1.
          5   -1    0    0  501    0  0.00000000000E+00 -0.00000000000E+00 -0.93567431700E+03  0.93568612125E+03  0.47000000000E+01 0. -1.
          6    1    1    2  502    0  0.47412357131E+02  0.11277803693E+01 -0.82810365788E+03  0.84710617498E+03  0.17200000000E+03 0. -1.
         -6    1    1    2    0  502 -0.47412357131E+02 -0.11277803693E+01 -0.17041870457E+02  0.17923065822E+03  0.17200000000E+03 0.  1.
</event>
<event>
 4    1 -0.3291270E-004  0.1856884E+03  0.7818608E-02  0.1162409E+00
         -5   -1    0    0    0  501 -0.00000000000E+00  0.00000000000E+00  0.13754689311E+03  0.13762716957E+03  0.47000000000E+01 0.  1.
          5   -1    0    0  501    0  0.00000000000E+00 -0.00000000000E+00 -0.25648327951E+03  0.25652633913E+03  0.47000000000E+01 0. -1.
          6    1    1    2  502    0  0.63865937854E+02 -0.28589018460E+02 -0.89551318105E+02  0.20615438043E+03  0.17200000000E+03 0. -1.
         -6    1    1    2    0  502 -0.63865937854E+02  0.28589018460E+02 -0.29385068299E+02  0.18799912828E+03  0.17200000000E+03 0.  1.
</event>
<event>
 4    1 -0.3291270E-004  0.3238617E+03  0.7818608E-02  0.1073886E+00
         -5   -1    0    0    0  501 -0.00000000000E+00  0.00000000000E+00  0.83640353832E+02  0.83772303234E+02  0.47000000000E+01 0.  1.
          5   -1    0    0  501    0  0.00000000000E+00 -0.00000000000E+00 -0.12827613560E+04  0.12827699663E+04  0.47000000000E+01 0. -1.
          6    1    1    2  502    0 -0.24953593411E+03  0.11416764280E+03 -0.49530314677E+03  0.59178681996E+03  0.17200000000E+03 0.  1.
         -6    1    1    2    0  502  0.24953593411E+03 -0.11416764280E+03 -0.70381785540E+03  0.77475544958E+03  0.17200000000E+03 0.  1.
</event>
<event>
 4    1 -0.3291270E-004  0.2683674E+03  0.7818608E-02  0.1102218E+00
         -5   -1    0    0    0  501 -0.00000000000E+00  0.00000000000E+00  0.40044321972E+03  0.40047080071E+03  0.47000000000E+01 0.  1.
          5   -1    0    0  501    0  0.00000000000E+00 -0.00000000000E+00 -0.18841124000E+03  0.18846985265E+03  0.47000000000E+01 0. -1.
          6    1    1    2  502    0 -0.14970161644E+03  0.14151488545E+03  0.16899586755E+03  0.31714450968E+03  0.17200000000E+03 0. -1.
         -6    1    1    2    0  502  0.14970161644E+03 -0.14151488545E+03  0.43036112173E+02  0.27179614368E+03  0.17200000000E+03 0.  1.
</event>
<event>
 4    1 -0.3291270E-004  0.5444462E+03  0.7818608E-02  0.1002788E+00
          5   -1    0    0  501    0  0.00000000000E+00  0.00000000000E+00  0.83252537474E+03  0.83253864150E+03  0.47000000000E+01 0. -1.
         -5   -1    0    0    0  501 -0.00000000000E+00 -0.00000000000E+00 -0.78905565479E+03  0.78906965241E+03  0.47000000000E+01 0.  1.
          6    1    1    2  502    0 -0.51227164424E+03 -0.66448325837E+02  0.62237500861E+03  0.82690523570E+03  0.17200000000E+03 0. -1.
         -6    1    1    2    0  502  0.51227164424E+03  0.66448325837E+02 -0.57890528865E+03  0.79470305821E+03  0.17200000000E+03 0.  1.
</event>
<event>
 4    1 -0.3291270E-004  0.2160561E+03  0.7818608E-02  0.1136858E+00
          5   -1    0    0  501    0  0.00000000000E+00  0.00000000000E+00  0.89244322774E+02  0.89367998452E+02  0.47000000000E+01 0. -1.
         -5   -1    0    0    0  501 -0.00000000000E+00 -0.00000000000E+00 -0.56818400845E+03  0.56820344724E+03  0.47000000000E+01 0.  1.
          6    1    1    2  502    0  0.99983113054E+02  0.84259159028E+02 -0.14631870015E+03  0.26093943893E+03  0.17200000000E+03 0. -1.
         -6    1    1    2    0  502 -0.99983113054E+02 -0.84259159028E+02 -0.33262098553E+03  0.39663200676E+03  0.17200000000E+03 0.  1.
</event>
<event>
 4    1 -0.3291270E-004  0.2936147E+03  0.7818608E-02  0.1088477E+00
          5   -1    0    0  501    0  0.00000000000E+00  0.00000000000E+00  0.82693515662E+03  0.82694851306E+03  0.47000000000E+01 0. -1.
         -5   -1    0    0    0  501 -0.00000000000E+00 -0.00000000000E+00 -0.14842253893E+03  0.14849693621E+03  0.47000000000E+01 0.  1.
          6    1    1    2  502    0  0.22843941088E+03  0.66641190956E+02  0.60543186706E+03  0.67287246818E+03  0.17200000000E+03 0. -1.
         -6    1    1    2    0  502 -0.22843941088E+03 -0.66641190956E+02  0.73080750620E+02  0.30257298109E+03  0.17200000000E+03 0.  1.
</event>
<event>
 4    1 -0.3291270E-004  0.2286253E+03  0.7818608E-02  0.1127611E+00
          5   -1    0    0  501    0  0.00000000000E+00  0.00000000000E+00  0.79145955952E+03  0.79147351463E+03  0.47000000000E+01 0. -1.
         -5   -1    0    0    0  501 -0.00000000000E+00 -0.00000000000E+00 -0.67378767927E+02  0.67542493049E+02  0.47000000000E+01 0.  1.
          6    1    1    2  502    0 -0.14752463538E+03  0.30364606830E+02  0.29944269778E+03  0.37674322375E+03  0.17200000000E+03 0.  1.
         -6    1    1    2    0  502  0.14752463538E+03 -0.30364606830E+02  0.42463809382E+03  0.48227278393E+03  0.17200000000E+03 0. -1.
</event>
<event>
 4    1 -0.3291270E-004  0.2072084E+03  0.7818608E-02  0.1143796E+00
          5   -1    0    0  501    0  0.00000000000E+00  0.00000000000E+00  0.61003489617E+03  0.61005300142E+03  0.47000000000E+01 0. -1.
         -5   -1    0    0    0  501 -0.00000000000E+00 -0.00000000000E+00 -0.88258804836E+02  0.88383859562E+02  0.47000000000E+01 0.  1.
          6    1    1    2  502    0 -0.27053488709E+02  0.11233620670E+03  0.41834355507E+03  0.46684756040E+03  0.17200000000E+03 0.  1.
         -6    1    1    2    0  502  0.27053488709E+02 -0.11233620670E+03  0.10343253627E+03  0.23158930058E+03  0.17200000000E+03 0. -1.
</event>
<event>
 4    1 -0.3291270E-004  0.1834443E+03  0.7818608E-02  0.1164511E+00
         -5   -1    0    0    0  501 -0.00000000000E+00  0.00000000000E+00  0.26584589520E+03  0.26588743858E+03  0.47000000000E+01 0.  1.
          5   -1    0    0  501    0  0.00000000000E+00 -0.00000000000E+00 -0.12672180977E+03  0.12680893924E+03  0.47000000000E+01 0. -1.
          6    1    1    2  502    0  0.51295210007E+02 -0.37902886880E+02  0.61148281393E+02  0.19336736985E+03  0.17200000000E+03 0. -1.
         -6    1    1    2    0  502 -0.51295210007E+02  0.37902886880E+02  0.77975804037E+02  0.19932900797E+03  0.17200000000E+03 0.  1.
</event>
<event>
 4    1 -0.3291270E-004  0.5430433E+03  0.7818608E-02  0.1003117E+00
          5   -1    0    0  501    0  0.00000000000E+00  0.00000000000E+00  0.13902358924E+04  0.13902438371E+04  0.47000000000E+01 0. -1.
         -5   -1    0    0    0  501 -0.00000000000E+00 -0.00000000000E+00 -0.32879267386E+03  0.32882626474E+03  0.47000000000E+01 0.  1.
          6    1    1    2  502    0 -0.42837910725E+03 -0.28601288656E+03  0.10427794380E+04  0.11757061653E+04  0.17200000000E+03 0. -1.
         -6    1    1    2    0  502  0.42837910725E+03  0.28601288656E+03  0.18663780560E+02  0.54336393652E+03  0.17200000000E+03 0.  1.
</event>
<event>
 4    1 -0.3291270E-004  0.1779746E+03  0.7818608E-02  0.1169778E+00
          5   -1    0    0  501    0  0.00000000000E+00  0.00000000000E+00  0.40921443403E+03  0.40924142388E+03  0.47000000000E+01 0. -1.
         -5   -1    0    0    0  501 -0.00000000000E+00 -0.00000000000E+00 -0.77308573241E+02  0.77451310490E+02  0.47000000000E+01 0.  1.
          6    1    1    2  502    0 -0.34900194014E+02  0.29545673981E+02  0.16793848833E+03  0.24470044188E+03  0.17200000000E+03 0. -1.
         -6    1    1    2    0  502  0.34900194014E+02 -0.29545673981E+02  0.16396737246E+03  0.24199229249E+03  0.17200000000E+03 0. -1.
</event>
<event>
 4    1 -0.3291270E-004  0.2321286E+03  0.7818608E-02  0.1125150E+00
          5   -1    0    0  501    0  0.00000000000E+00  0.00000000000E+00  0.10239304567E+03  0.10250085757E+03  0.47000000000E+01 0. -1.
         -5   -1    0    0    0  501 -0.00000000000E+00 -0.00000000000E+00 -0.10047704892E+04  0.10047814817E+04  0.47000000000E+01 0.  1.
          6    1    1    2  502    0  0.49390394843E+02  0.14785219521E+03 -0.68979961031E+02  0.24216093359E+03  0.17200000000E+03 0. -1.
         -6    1    1    2    0  502 -0.49390394843E+02 -0.14785219521E+03 -0.83339748248E+03  0.86512140566E+03  0.17200000000E+03 0.  1.
</event>
<event>
 4    1 -0.3291270E-004  0.2636287E+03  0.7818608E-02  0.1104982E+00
         -5   -1    0    0    0  501 -0.00000000000E+00  0.00000000000E+00  0.83617604759E+02  0.83749590003E+02  0.47000000000E+01 0.  1.
          5   -1    0    0  501    0  0.00000000000E+00 -0.00000000000E+00 -0.10008459846E+04  0.10008570202E+04  0.47000000000E+01 0. -1.
          6    1    1    2  502    0  0.78338460167E+02 -0.18379112181E+03 -0.68241250965E+03  0.73156470946E+03  0.17200000000E+03 0. -1.
         -6    1    1    2    0  502 -0.78338460167E+02  0.18379112181E+03 -0.23481587023E+03  0.35304190079E+03  0.17200000000E+03 0.  1.
</event>
<event>
 4    1 -0.3291270E-004  0.2423357E+03  0.7818608E-02  0.1118247E+00
         -5   -1    0    0    0  501 -0.00000000000E+00  0.00000000000E+00  0.31236234313E+03  0.31239770071E+03  0.47000000000E+01 0.  1.
          5   -1    0    0  501    0  0.00000000000E+00 -0.00000000000E+00 -0.19153162594E+03  0.19158928397E+03  0.47000000000E+01 0. -1.
          6    1    1    2  502    0 -0.12725242851E+03 -0.11379557272E+03  0.25880668688E+02  0.24371381156E+03  0.17200000000E+03 0. -1.
         -6    1    1    2    0  502  0.12725242851E+03  0.11379557272E+03  0.94950048506E+02  0.26027317312E+03  0.17200000000E+03 0. -1.
</event>
<event>
 4    1 -0.3291270E-004  0.5779485E+03  0.7818608E-02  0.9952242E-01
          5   -1    0    0  501    0  0.00000000000E+00  0.00000000000E+00  0.10504924251E+04  0.10505029391E+04  0.47000000000E+01 0. -1.
         -5   -1    0    0    0  501 -0.00000000000E+00 -0.00000000000E+00 -0.32256103082E+03  0.32259527058E+03  0.47000000000E+01 0.  1.
          6    1    1    2  502    0 -0.15825022979E+03 -0.52858051551E+03  0.44613432130E+03  0.73010980629E+03  0.17200000000E+03 0. -1.
         -6    1    1    2    0  502  0.15825022979E+03  0.52858051551E+03  0.28179707296E+03  0.64298840342E+03  0.17200000000E+03 0.  1.
</event>
<event>
 4    1 -0.3291270E-004  0.2975741E+03  0.7818608E-02  0.1086460E+00
          5   -1    0    0  501    0  0.00000000000E+00  0.00000000000E+00  0.33524507198E+03  0.33527801641E+03  0.47000000000E+01 0. -1.
         -5   -1    0    0    0  501 -0.00000000000E+00 -0.00000000000E+00 -0.26948714217E+03  0.26952812431E+03  0.47000000000E+01 0.  1.
          6    1    1    2  502    0  0.18132138958E+03  0.16152065589E+03 -0.99923414750E+01  0.29774186049E+03  0.17200000000E+03 0. -1.
         -6    1    1    2    0  502 -0.18132138958E+03 -0.16152065589E+03  0.75750271282E+02  0.30706428024E+03  0.17200000000E+03 0.  1.
</event>
<event>
 4    1 -0.3291270E-004  0.2541731E+03  0.7818608E-02  0.1110696E+00
         -5   -1    0    0    0  501 -0.00000000000E+00  0.00000000000E+00  0.57068954506E+02  0.57262165244E+02  0.47000000000E+01 0.  1.
          5   -1    0    0  501    0  0.00000000000E+00 -0.00000000000E+00 -0.15339917718E+04  0.15339989720E+04  0.47000000000E+01 0. -1.
          6    1    1    2  502    0 -0.16705170358E+03  0.84342682508E+02 -0.11467802966E+04  0.11746101517E+04  0.17200000000E+03 0. -1.
         -6    1    1    2    0  502  0.16705170358E+03 -0.84342682508E+02 -0.33014252069E+03  0.41665098551E+03  0.17200000000E+03 0.  1.
</event>
<event>
 4    1 -0.3291270E-004  0.2789541E+03  0.7818608E-02  0.1096262E+00
          5   -1    0    0  501    0  0.00000000000E+00  0.00000000000E+00  0.79720165847E+03  0.79721551306E+03  0.47000000000E+01 0. -1.
         -5   -1    0    0    0  501 -0.00000000000E+00 -0.00000000000E+00 -0.18464197810E+03  0.18470178688E+03  0.47000000000E+01 0.  1.
          6    1    1    2  502    0 -0.31629128499E+02 -0.21732687629E+03  0.64339424414E+03  0.70126423431E+03  0.17200000000E+03 0. -1.
         -6    1    1    2    0  502  0.31629128499E+02  0.21732687629E+03 -0.30834563763E+02  0.28065306563E+03  0.17200000000E+03 0.  1.
</event>
<event>
 4    1 -0.3291270E-004  0.2226067E+03  0.7818608E-02  0.1131954E+00
         -5   -1    0    0    0  501 -0.00000000000E+00  0.00000000000E+00  0.36638918705E+03  0.36641933135E+03  0.47000000000E+01 0.  1.
          5   -1    0    0  501    0  0.00000000000E+00 -0.00000000000E+00 -0.14128401576E+03  0.14136217000E+03  0.47000000000E+01 0. -1.
          6    1    1    2  502    0  0.87185199420E+02  0.11121359224E+03  0.59767365709E+02  0.23049047724E+03  0.17200000000E+03 0. -1.
         -6    1    1    2    0  502 -0.87185199420E+02 -0.11121359224E+03  0.16533780558E+03  0.27729102411E+03  0.17200000000E+03 0.  1.
</event>
<event>
 4    1 -0.3291270E-004  0.1988567E+03  0.7818608E-02  0.1150707E+00
          5   -1    0    0  501    0  0.00000000000E+00  0.00000000000E+00  0.16384911741E+03  0.16391651313E+03  0.47000000000E+01 0. -1.
         -5   -1    0    0    0  501 -0.00000000000E+00 -0.00000000000E+00 -0.29525310347E+03  0.29529050968E+03  0.47000000000E+01 0.  1.
          6    1    1    2  502    0 -0.57736445732E+02  0.81403253988E+02  0.32516985477E+02  0.20149774507E+03  0.17200000000E+03 0. -1.
         -6    1    1    2    0  502  0.57736445732E+02 -0.81403253988E+02 -0.16392097153E+03  0.25770927774E+03  0.17200000000E+03 0.  1.
</event>
<event>
 4    1 -0.3291270E-004  0.1880045E+03  0.7818608E-02  0.1160274E+00
          5   -1    0    0  501    0  0.00000000000E+00  0.00000000000E+00  0.28472011166E+03  0.28475890150E+03  0.47000000000E+01 0. -1.
         -5   -1    0    0    0  501 -0.00000000000E+00 -0.00000000000E+00 -0.14971364774E+03  0.14978740374E+03  0.47000000000E+01 0.  1.
          6    1    1    2  502    0 -0.57492940096E+02 -0.49560731555E+02  0.15742374871E+03  0.24520999354E+03  0.17200000000E+03 0. -1.
         -6    1    1    2    0  502  0.57492940096E+02  0.49560731555E+02 -0.22417284791E+02  0.18933631171E+03  0.17200000000E+03 0.  1.
</event>
<event>
 4    1 -0.3291270E-004  0.2614847E+03  0.7818608E-02  0.1106254E+00
          5   -1    0    0  501    0  0.00000000000E+00  0.00000000000E+00  0.25746264062E+03  0.25750553647E+03  0.47000000000E+01 0. -1.
         -5   -1    0    0    0  501 -0.00000000000E+00 -0.00000000000E+00 -0.26673567464E+03  0.26677707946E+03  0.47000000000E+01 0.  1.
          6    1    1    2  502    0  0.19088075874E+03 -0.48526056166E+02 -0.22592762058E+02  0.26245890170E+03  0.17200000000E+03 0. -1.
         -6    1    1    2    0  502 -0.19088075874E+03  0.48526056166E+02  0.13319728038E+02  0.26182371424E+03  0.17200000000E+03 0. -1.
</event>
<event>
 4    1 -0.3291270E-004  0.1751301E+03  0.7818608E-02  0.1172601E+00
          5   -1    0    0  501    0  0.00000000000E+00  0.00000000000E+00  0.15634324690E+03  0.15641387679E+03  0.47000000000E+01 0. -1.
         -5   -1    0    0    0  501 -0.00000000000E+00 -0.00000000000E+00 -0.20990390130E+03  0.20995651402E+03  0.47000000000E+01 0.  1.
          6    1    1    2  502    0  0.30433188162E+02  0.12664462719E+02  0.20298676274E+02  0.17630259163E+03  0.17200000000E+03 0. -1.
         -6    1    1    2    0  502 -0.30433188162E+02 -0.12664462719E+02 -0.73859330668E+02  0.19006779918E+03  0.17200000000E+03 0.  1.
</event>
<event>
 4    1 -0.3291270E-004  0.3558549E+03  0.7818608E-02  0.1060237E+00
         -5   -1    0    0    0  501 -0.00000000000E+00  0.00000000000E+00  0.60171644175E+03  0.60173479729E+03  0.47000000000E+01 0.  1.
          5   -1    0    0  501    0  0.00000000000E+00 -0.00000000000E+00 -0.36172485195E+03  0.36175538491E+03  0.47000000000E+01 0. -1.
          6    1    1    2  502    0 -0.29781938239E+03  0.91391247975E+02 -0.19156338330E+03  0.40414016697E+03  0.17200000000E+03 0. -1.
         -6    1    1    2    0  502  0.29781938239E+03 -0.91391247975E+02  0.43155497311E+03  0.55935001524E+03  0.17200000000E+03 0.  1.
</event>
<event>
 4    1 -0.3291270E-004  0.4590067E+03  0.7818608E-02  0.1025070E+00
         -5   -1    0    0    0  501 -0.00000000000E+00  0.00000000000E+00  0.20677574418E+04  0.20677627833E+04  0.47000000000E+01 0.  1.
          5   -1    0    0  501    0  0.00000000000E+00 -0.00000000000E+00 -0.14602637268E+03  0.14610199012E+03  0.47000000000E+01 0. -1.
          6    1    1    2  502    0  0.34142097288E+03 -0.25403722354E+03  0.35210793169E+03  0.57850426725E+03  0.17200000000E+03 0. -1.
         -6    1    1    2    0  502 -0.34142097288E+03  0.25403722354E+03  0.15696231374E+04  0.16353605062E+04  0.17200000000E+03 0.  1.
</event>
<event>
 4    1 -0.3291270E-004  0.1819987E+03  0.7818608E-02  0.1165883E+00
         -5   -1    0    0    0  501 -0.00000000000E+00  0.00000000000E+00  0.48720913585E+02  0.48947087968E+02  0.47000000000E+01 0.  1.
          5   -1    0    0  501    0  0.00000000000E+00 -0.00000000000E+00 -0.68759675877E+03  0.68761282178E+03  0.47000000000E+01 0. -1.
          6    1    1    2  502    0 -0.52921718087E+02  0.27181263252E+02 -0.36281631213E+03  0.40590541468E+03  0.17200000000E+03 0.  1.
         -6    1    1    2    0  502  0.52921718087E+02 -0.27181263252E+02 -0.27605953305E+03  0.33065449506E+03  0.17200000000E+03 0.  1.
</event>
<event>
 4    1 -0.3291270E-004  0.1784703E+03  0.7818608E-02  0.1169292E+00
         -5   -1    0    0    0  501 -0.00000000000E+00  0.00000000000E+00  0.48162721853E+02  0.48391505208E+02  0.47000000000E+01 0.  1.
          5   -1    0    0  501    0  0.00000000000E+00 -0.00000000000E+00 -0.67831718903E+03  0.67833347178E+03  0.47000000000E+01 0. -1.
          6    1    1    2  502    0  0.17636574174E+02 -0.44233479412E+02 -0.37553851642E+03  0.41578940194E+03  0.17200000000E+03 0. -1.
         -6    1    1    2    0  502 -0.17636574174E+02  0.44233479412E+02 -0.25461595076E+03  0.31093557505E+03  0.17200000000E+03 0.  1.
</event>
<event>
 4    1 -0.3291270E-004  0.3757708E+03  0.7818608E-02  0.1052508E+00
          5   -1    0    0  501    0  0.00000000000E+00  0.00000000000E+00  0.70928855164E+03  0.70930412341E+03  0.47000000000E+01 0. -1.
         -5   -1    0    0    0  501 -0.00000000000E+00 -0.00000000000E+00 -0.41062904693E+03  0.41065594381E+03  0.47000000000E+01 0.  1.
          6    1    1    2  502    0  0.27967064840E+03  0.18276766509E+03  0.55127977834E+03  0.66716795860E+03  0.17200000000E+03 0. -1.
         -6    1    1    2    0  502 -0.27967064840E+03 -0.18276766509E+03 -0.25262027363E+03  0.45279210862E+03  0.17200000000E+03 0.  1.
</event>
<event>
 4    1 -0.3291270E-004  0.2029703E+03  0.7818608E-02  0.1147257E+00
         -5   -1    0    0    0  501 -0.00000000000E+00  0.00000000000E+00  0.45730868390E+03  0.45733283543E+03  0.47000000000E+01 0.  1.
          5   -1    0    0  501    0  0.00000000000E+00 -0.00000000000E+00 -0.90541516185E+02  0.90663422355E+02  0.47000000000E+01 0. -1.
          6    1    1    2  502    0 -0.10227019601E+03  0.33966972484E+02  0.16216767694E+03  0.25979858286E+03  0.17200000000E+03 0. -1.
         -6    1    1    2    0  502  0.10227019601E+03 -0.33966972484E+02  0.20459949077E+03  0.28819767493E+03  0.17200000000E+03 0.  1.
</event>
<event>
 4    1 -0.3291270E-004  0.1881784E+03  0.7818608E-02  0.1160115E+00
         -5   -1    0    0    0  501 -0.00000000000E+00  0.00000000000E+00  0.27642578019E+03  0.27646573378E+03  0.47000000000E+01 0.  1.
          5   -1    0    0  501    0  0.00000000000E+00 -0.00000000000E+00 -0.12805824235E+03  0.12814446314E+03  0.47000000000E+01 0. -1.
          6    1    1    2  502    0 -0.41271266606E+02  0.64216685222E+02  0.70305101894E+02  0.20088282022E+03  0.17200000000E+03 0. -1.
         -6    1    1    2    0  502  0.41271266606E+02 -0.64216685222E+02  0.78062435947E+02  0.20372737669E+03  0.17200000000E+03 0.  1.
</event>
<event>
 4    1 -0.3291270E-004  0.2575988E+03  0.7818608E-02  0.1108595E+00
          5   -1    0    0  501    0  0.00000000000E+00  0.00000000000E+00  0.45744507648E+03  0.45746922081E+03  0.47000000000E+01 0. -1.
         -5   -1    0    0    0  501 -0.00000000000E+00 -0.00000000000E+00 -0.53959843322E+03  0.53961890175E+03  0.47000000000E+01 0.  1.
          6    1    1    2  502    0 -0.13468014590E+03 -0.13650783594E+03  0.38522778511E+03  0.46341944002E+03  0.17200000000E+03 0. -1.
         -6    1    1    2    0  502  0.13468014590E+03  0.13650783594E+03 -0.46738114185E+03  0.53366868254E+03  0.17200000000E+03 0.  1.
</event>
<event>
 4    1 -0.3291270E-004  0.2089108E+03  0.7818608E-02  0.1142431E+00
         -5   -1    0    0    0  501 -0.00000000000E+00  0.00000000000E+00  0.22531544357E+03  0.22536445840E+03  0.47000000000E+01 0.  1.
          5   -1    0    0  501    0  0.00000000000E+00 -0.00000000000E+00 -0.24391903329E+03  0.24396431050E+03  0.47000000000E+01 0. -1.
          6    1    1    2  502    0 -0.81233785169E+02 -0.86375971799E+02 -0.11586142514E+03  0.23888827136E+03  0.17200000000E+03 0. -1.
         -6    1    1    2    0  502  0.81233785169E+02  0.86375971799E+02  0.97257835425E+02  0.23044049754E+03  0.17200000000E+03 0.  1.
</event>
<event>
 4    1 -0.3291270E-004  0.1806474E+03  0.7818608E-02  0.1167178E+00
         -5   -1    0    0    0  501 -0.00000000000E+00  0.00000000000E+00  0.87224171224E+02  0.87350707185E+02  0.47000000000E+01 0.  1.
          5   -1    0    0  501    0  0.00000000000E+00 -0.00000000000E+00 -0.38516856847E+03  0.38519724316E+03  0.47000000000E+01 0. -1.
          6    1    1    2  502    0  0.53922335879E+02 -0.11910031212E+02 -0.18969739449E+03  0.26195146235E+03  0.17200000000E+03 0. -1.
         -6    1    1    2    0  502 -0.53922335879E+02  0.11910031212E+02 -0.10824700276E+03  0.21059648800E+03  0.17200000000E+03 0.  1.
</event>
<event>
 4    1 -0.3291270E-004  0.1939396E+03  0.7818608E-02  0.1154955E+00
          5   -1    0    0  501    0  0.00000000000E+00  0.00000000000E+00  0.10192579620E+03  0.10203410181E+03  0.47000000000E+01 0. -1.
         -5   -1    0    0    0  501 -0.00000000000E+00 -0.00000000000E+00 -0.37734063397E+03  0.37736990347E+03  0.47000000000E+01 0.  1.
          6    1    1    2  502    0  0.79788376701E+02  0.40772571820E+02 -0.10144167987E+03  0.21886754461E+03  0.17200000000E+03 0.  1.
         -6    1    1    2    0  502 -0.79788376701E+02 -0.40772571820E+02 -0.17397315789E+03  0.26053646067E+03  0.17200000000E+03 0.  1.
</event>
<event>
 4    1 -0.3291270E-004  0.3749440E+03  0.7818608E-02  0.1052818E+00
         -5   -1    0    0    0  501 -0.00000000000E+00  0.00000000000E+00  0.11436639728E+03  0.11446293211E+03  0.47000000000E+01 0.  1.
          5   -1    0    0  501    0  0.00000000000E+00 -0.00000000000E+00 -0.13050231477E+04  0.13050316111E+04  0.47000000000E+01 0. -1.
          6    1    1    2  502    0  0.53417306833E+02  0.32885491804E+03 -0.76706032177E+03  0.85379418072E+03  0.17200000000E+03 0. -1.
         -6    1    1    2    0  502 -0.53417306833E+02 -0.32885491804E+03 -0.42359642867E+03  0.56570036253E+03  0.17200000000E+03 0.  1.
</event>
<event>
 4    1 -0.3291270E-004  0.2115240E+03  0.7818608E-02  0.1140365E+00
         -5   -1    0    0    0  501 -0.00000000000E+00  0.00000000000E+00  0.16182511207E+04  0.16182579460E+04  0.47000000000E+01 0.  1.
          5   -1    0    0  501    0  0.00000000000E+00 -0.00000000000E+00 -0.27804821005E+02  0.28199256571E+02  0.47000000000E+01 0. -1.
          6    1    1    2  502    0  0.12310525272E+03 -0.18715640189E+01  0.70185299047E+03  0.73303480561E+03  0.17200000000E+03 0. -1.
         -6    1    1    2    0  502 -0.12310525272E+03  0.18715640189E+01  0.88859330927E+03  0.91342239696E+03  0.17200000000E+03 0.  1.
</event>
<event>
 4    1 -0.3291270E-004  0.1892455E+03  0.7818608E-02  0.1159144E+00
         -5   -1    0    0    0  501 -0.00000000000E+00  0.00000000000E+00  0.10313224701E+04  0.10313331796E+04  0.47000000000E+01 0.  1.
          5   -1    0    0  501    0  0.00000000000E+00 -0.00000000000E+00 -0.34712810391E+02  0.35029547603E+02  0.47000000000E+01 0. -1.
          6    1    1    2  502    0  0.50831018441E+02  0.60382570885E+02  0.53395329657E+03  0.56649798784E+03  0.17200000000E+03 0. -1.
         -6    1    1    2    0  502 -0.50831018441E+02 -0.60382570885E+02  0.46265636310E+03  0.49986473932E+03  0.17200000000E+03 0.  1.
</event>
<event>
 4    1 -0.3291270E-004  0.2350089E+03  0.7818608E-02  0.1123163E+00
          5   -1    0    0  501    0  0.00000000000E+00  0.00000000000E+00  0.98068985197E+02  0.98181545402E+02  0.47000000000E+01 0. -1.
         -5   -1    0    0    0  501 -0.00000000000E+00 -0.00000000000E+00 -0.59323419398E+03  0.59325281197E+03  0.47000000000E+01 0.  1.
          6    1    1    2  502    0 -0.10507812492E+03  0.12084601560E+03 -0.16918507887E+03  0.28957341510E+03  0.17200000000E+03 0. -1.
         -6    1    1    2    0  502  0.10507812492E+03 -0.12084601560E+03 -0.32598012991E+03  0.40186094227E+03  0.17200000000E+03 0.  1.
</event>
<event>
 4    1 -0.3291270E-004  0.2384516E+03  0.7818608E-02  0.1120829E+00
          5   -1    0    0  501    0  0.00000000000E+00  0.00000000000E+00  0.15502960210E+03  0.15510083020E+03  0.47000000000E+01 0. -1.
         -5   -1    0    0    0  501 -0.00000000000E+00 -0.00000000000E+00 -0.39267315386E+03  0.39270128058E+03  0.47000000000E+01 0.  1.
          6    1    1    2  502    0  0.13689296359E+03 -0.92387788863E+02 -0.48242271717E+02  0.24328276509E+03  0.17200000000E+03 0.  1.
         -6    1    1    2    0  502 -0.13689296359E+03  0.92387788863E+02 -0.18940128004E+03  0.30451934568E+03  0.17200000000E+03 0.  1.
</event>
<event>
 4    1 -0.3291270E-004  0.1772054E+03  0.7818608E-02  0.1170535E+00
          5   -1    0    0  501    0  0.00000000000E+00  0.00000000000E+00  0.11854558754E+03  0.11863872187E+03  0.47000000000E+01 0. -1.
         -5   -1    0    0    0  501 -0.00000000000E+00 -0.00000000000E+00 -0.32287592677E+03  0.32291013314E+03  0.47000000000E+01 0.  1.
          6    1    1    2  502    0  0.42454179424E+02 -0.39220771837E+01 -0.84493923196E+01  0.17740668609E+03  0.17200000000E+03 0. -1.
         -6    1    1    2    0  502 -0.42454179424E+02  0.39220771837E+01 -0.19588094690E+03  0.26414216892E+03  0.17200000000E+03 0.  1.
</event>
<event>
 4    1 -0.3291270E-004  0.6359965E+03  0.7818608E-02  0.9833417E-01
         -5   -1    0    0    0  501 -0.00000000000E+00  0.00000000000E+00  0.23211942807E+03  0.23216700646E+03  0.47000000000E+01 0.  1.
          5   -1    0    0  501    0  0.00000000000E+00 -0.00000000000E+00 -0.22838245471E+04  0.22838293833E+04  0.47000000000E+01 0. -1.
          6    1    1    2  502    0  0.51718144720E+03  0.32776644157E+03 -0.16383778501E+04  0.17574906740E+04  0.17200000000E+03 0. -1.
         -6    1    1    2    0  502 -0.51718144720E+03 -0.32776644157E+03 -0.41332726893E+03  0.75850571573E+03  0.17200000000E+03 0. -1.
</event>
<event>
 4    1 -0.3291270E-004  0.2243397E+03  0.7818608E-02  0.1130688E+00
         -5   -1    0    0    0  501 -0.00000000000E+00  0.00000000000E+00  0.86490418108E+02  0.86618025979E+02  0.47000000000E+01 0.  1.
          5   -1    0    0  501    0  0.00000000000E+00 -0.00000000000E+00 -0.83517077337E+03  0.83518399811E+03  0.47000000000E+01 0. -1.
          6    1    1    2  502    0  0.56298595635E+02 -0.13256988381E+03 -0.62841673946E+03  0.66725999760E+03  0.17200000000E+03 0. -1.
         -6    1    1    2    0  502 -0.56298595635E+02  0.13256988381E+03 -0.12026361581E+03  0.25454202649E+03  0.17200000000E+03 0.  1.
</event>
<event>
 4    1 -0.3291270E-004  0.2461884E+03  0.7818608E-02  0.1115738E+00
         -5   -1    0    0    0  501 -0.00000000000E+00  0.00000000000E+00  0.36871002592E+03  0.36873998050E+03  0.47000000000E+01 0.  1.
          5   -1    0    0  501    0  0.00000000000E+00 -0.00000000000E+00 -0.16452573681E+03  0.16459285548E+03  0.47000000000E+01 0. -1.
          6    1    1    2  502    0  0.42579303711E+02 -0.17091441813E+03  0.11173993610E+03  0.27036003541E+03  0.17200000000E+03 0.  1.
         -6    1    1    2    0  502 -0.42579303711E+02  0.17091441813E+03  0.92444353014E+02  0.26297280056E+03  0.17200000000E+03 0. -1.
</event>
<event>
 4    1 -0.3291270E-004  0.2083435E+03  0.7818608E-02  0.1142885E+00
         -5   -1    0    0    0  501 -0.00000000000E+00  0.00000000000E+00  0.18576048599E+04  0.18576108058E+04  0.47000000000E+01 0.  1.
          5   -1    0    0  501    0  0.00000000000E+00 -0.00000000000E+00 -0.52729648476E+02  0.52938698779E+02  0.47000000000E+01 0. -1.
          6    1    1    2  502    0 -0.11500538889E+03 -0.24428650262E+02  0.18899611672E+03  0.28129438417E+03  0.17200000000E+03 0. -1.
         -6    1    1    2    0  502  0.11500538889E+03  0.24428650262E+02  0.16158790947E+04  0.16292551204E+04  0.17200000000E+03 0.  1.
</event>
<event>
 4    1 -0.3291270E-004  0.2717521E+03  0.7818608E-02  0.1100281E+00
         -5   -1    0    0    0  501 -0.00000000000E+00  0.00000000000E+00  0.72199479616E+03  0.72201009389E+03  0.47000000000E+01 0.  1.
          5   -1    0    0  501    0  0.00000000000E+00 -0.00000000000E+00 -0.12536001013E+03  0.12544808544E+03  0.47000000000E+01 0. -1.
          6    1    1    2  502    0  0.21010610954E+03 -0.10982653219E+02  0.11632830802E+03  0.29560357099E+03  0.17200000000E+03 0.  1.
         -6    1    1    2    0  502 -0.21010610954E+03  0.10982653219E+02  0.48030647800E+03  0.55185460834E+03  0.17200000000E+03 0.  1.
</event>
<event>
 4    1 -0.3291270E-004  0.1806462E+03  0.7818608E-02  0.1167179E+00
          5   -1    0    0  501    0  0.00000000000E+00  0.00000000000E+00  0.12943412141E+03  0.12951942628E+03  0.47000000000E+01 0. -1.
         -5   -1    0    0    0  501 -0.00000000000E+00 -0.00000000000E+00 -0.26796065989E+03  0.26800187546E+03  0.47000000000E+01 0.  1.
          6    1    1    2  502    0  0.55205828797E+02 -0.11614186889E+01 -0.20660588918E+02  0.18182379482E+03  0.17200000000E+03 0. -1.
         -6    1    1    2    0  502 -0.55205828797E+02  0.11614186889E+01 -0.11786594957E+03  0.21569750692E+03  0.17200000000E+03 0.  1.
</event>
<event>
 4    1 -0.3291270E-004  0.2121315E+03  0.7818608E-02  0.1139889E+00
         -5   -1    0    0    0  501 -0.00000000000E+00  0.00000000000E+00  0.17119137834E+03  0.17125588463E+03  0.47000000000E+01 0.  1.
          5   -1    0    0  501    0  0.00000000000E+00 -0.00000000000E+00 -0.40318863980E+03  0.40321603300E+03  0.47000000000E+01 0. -1.
          6    1    1    2  502    0 -0.11979944586E+03 -0.32616648514E+02 -0.28551426405E+03  0.35569389644E+03  0.17200000000E+03 0. -1.
         -6    1    1    2    0  502  0.11979944586E+03  0.32616648514E+02  0.53517002588E+02  0.21877802119E+03  0.17200000000E+03 0.  1.
</event>
<event>
 4    1 -0.3291270E-004  0.3128052E+03  0.7818608E-02  0.1079009E+00
         -5   -1    0    0    0  501 -0.00000000000E+00  0.00000000000E+00  0.12677346446E+04  0.12677433570E+04  0.47000000000E+01 0.  1.
          5   -1    0    0  501    0  0.00000000000E+00 -0.00000000000E+00 -0.10405796120E+03  0.10416404988E+03  0.47000000000E+01 0. -1.
          6    1    1    2  502    0  0.20890706967E+03 -0.15691055885E+03  0.23293444678E+03  0.39000710728E+03  0.17200000000E+03 0. -1.
         -6    1    1    2    0  502 -0.20890706967E+03  0.15691055885E+03  0.93074223665E+03  0.98190029958E+03  0.17200000000E+03 0.  1.
</event>
<event>
 4    1 -0.3291270E-004  0.2455694E+03  0.7818608E-02  0.1116137E+00
         -5   -1    0    0    0  501 -0.00000000000E+00  0.00000000000E+00  0.11551650121E+03  0.11561207572E+03  0.47000000000E+01 0.  1.
          5   -1    0    0  501    0  0.00000000000E+00 -0.00000000000E+00 -0.53446650442E+03  0.53448716949E+03  0.47000000000E+01 0. -1.
          6    1    1    2  502    0 -0.38068978142E+02  0.17108787641E+03 -0.25967010369E+03  0.35739735771E+03  0.17200000000E+03 0. -1.
         -6    1    1    2    0  502  0.38068978142E+02 -0.17108787641E+03 -0.15927989953E+03  0.29270188750E+03  0.17200000000E+03 0.  1.
</event>
<event>
 4    1 -0.3291270E-004  0.1743665E+03  0.7818608E-02  0.1173369E+00
          5   -1    0    0  501    0  0.00000000000E+00  0.00000000000E+00  0.66107749720E+03  0.66109420456E+03  0.47000000000E+01 0. -1.
         -5   -1    0    0    0  501 -0.00000000000E+00 -0.00000000000E+00 -0.15113392636E+03  0.15120698958E+03  0.47000000000E+01 0.  1.
          6    1    1    2  502    0  0.28525292919E+02 -0.24496214207E+01  0.59376175611E+03  0.61883496669E+03  0.17200000000E+03 0. -1.
         -6    1    1    2    0  502 -0.28525292919E+02  0.24496214207E+01 -0.83818185269E+02  0.19346622745E+03  0.17200000000E+03 0.  1.
</event>
<event>
 4    1 -0.3291270E-004  0.1764280E+03  0.7818608E-02  0.1171305E+00
          5   -1    0    0  501    0  0.00000000000E+00  0.00000000000E+00  0.24321715129E+03  0.24326255915E+03  0.47000000000E+01 0. -1.
         -5   -1    0    0    0  501 -0.00000000000E+00 -0.00000000000E+00 -0.15557287218E+03  0.15564385165E+03  0.47000000000E+01 0.  1.
          6    1    1    2  502    0  0.30588920592E+02  0.24640841088E+02  0.12794065647E+03  0.21793500107E+03  0.17200000000E+03 0. -1.
         -6    1    1    2    0  502 -0.30588920592E+02 -0.24640841088E+02 -0.40296377352E+02  0.18097140973E+03  0.17200000000E+03 0.  1.
</event>
<event>
 4    1 -0.3291270E-004  0.5372148E+03  0.7818608E-02  0.1004497E+00
          5   -1    0    0  501    0  0.00000000000E+00  0.00000000000E+00  0.11193371877E+04  0.11193470551E+04  0.47000000000E+01 0. -1.
         -5   -1    0    0    0  501 -0.00000000000E+00 -0.00000000000E+00 -0.28910230607E+03  0.28914050802E+03  0.47000000000E+01 0.  1.
          6    1    1    2  502    0  0.49315901063E+03  0.12573736397E+03  0.64683463491E+03  0.84082979216E+03  0.17200000000E+03 0. -1.
         -6    1    1    2    0  502 -0.49315901063E+03 -0.12573736397E+03  0.18340024674E+03  0.56765777099E+03  0.17200000000E+03 0.  1.
</event>
<event>
 4    1 -0.3291270E-004  0.1883154E+03  0.7818608E-02  0.1159990E+00
          5   -1    0    0  501    0  0.00000000000E+00  0.00000000000E+00  0.95356304659E+03  0.95357462939E+03  0.47000000000E+01 0. -1.
         -5   -1    0    0    0  501 -0.00000000000E+00 -0.00000000000E+00 -0.45286474991E+02  0.45529713563E+02  0.47000000000E+01 0.  1.
          6    1    1    2  502    0 -0.20626842243E+02 -0.73845999796E+02  0.66678800767E+03  0.69287007836E+03  0.17200000000E+03 0. -1.
         -6    1    1    2    0  502  0.20626842243E+02  0.73845999796E+02  0.24148856392E+03  0.30623426460E+03  0.17200000000E+03 0.  1.
</event>
<event>
 4    1 -0.3291270E-004  0.1927830E+03  0.7818608E-02  0.1155975E+00
         -5   -1    0    0    0  501 -0.00000000000E+00  0.00000000000E+00  0.23324530836E+03  0.23329265713E+03  0.47000000000E+01 0.  1.
          5   -1    0    0  501    0  0.00000000000E+00 -0.00000000000E+00 -0.16436232796E+03  0.16442951332E+03  0.47000000000E+01 0. -1.
          6    1    1    2  502    0 -0.67174213941E+01 -0.86811089037E+02 -0.64634059183E+00  0.19278409345E+03  0.17200000000E+03 0. -1.
         -6    1    1    2    0  502  0.67174213941E+01  0.86811089037E+02  0.69529320995E+02  0.20493807701E+03  0.17200000000E+03 0.  1.
</event>
<event>
 4    1 -0.3291270E-004  0.1853682E+03  0.7818608E-02  0.1162707E+00
         -5   -1    0    0    0  501 -0.00000000000E+00  0.00000000000E+00  0.64520134899E+03  0.64521846745E+03  0.47000000000E+01 0.  1.
          5   -1    0    0  501    0  0.00000000000E+00 -0.00000000000E+00 -0.92463564447E+02  0.92582939845E+02  0.47000000000E+01 0. -1.
          6    1    1    2  502    0 -0.68412496243E+02  0.98539236751E+01  0.51672389392E+03  0.54896716842E+03  0.17200000000E+03 0.  1.
         -6    1    1    2    0  502  0.68412496243E+02 -0.98539236751E+01  0.36013890623E+02  0.18883423888E+03  0.17200000000E+03 0. -1.
</event>
<event>
 4    1 -0.3291270E-004  0.3461247E+03  0.7818608E-02  0.1064217E+00
         -5   -1    0    0    0  501 -0.00000000000E+00  0.00000000000E+00  0.16813766928E+03  0.16820334667E+03  0.47000000000E+01 0.  1.
          5   -1    0    0  501    0  0.00000000000E+00 -0.00000000000E+00 -0.71644696006E+03  0.71646237624E+03  0.47000000000E+01 0. -1.
          6    1    1    2  502    0 -0.12205818387E+02  0.30011546542E+03 -0.30775556646E+03  0.46315846453E+03  0.17200000000E+03 0. -1.
         -6    1    1    2    0  502  0.12205818387E+02 -0.30011546542E+03 -0.24055372432E+03  0.42150725838E+03  0.17200000000E+03 0.  1.
</event>
<event>
 4    1 -0.3291270E-004  0.3645045E+03  0.7818608E-02  0.1056814E+00
          5   -1    0    0  501    0  0.00000000000E+00  0.00000000000E+00  0.15820768764E+03  0.15827748554E+03  0.47000000000E+01 0. -1.
         -5   -1    0    0    0  501 -0.00000000000E+00 -0.00000000000E+00 -0.85338278883E+03  0.85339573134E+03  0.47000000000E+01 0.  1.
          6    1    1    2  502    0 -0.18200735426E+03 -0.26486388344E+03 -0.28317347131E+03  0.46157422871E+03  0.17200000000E+03 0. -1.
         -6    1    1    2    0  502  0.18200735426E+03  0.26486388344E+03 -0.41200162988E+03  0.55009898816E+03  0.17200000000E+03 0.  1.
</event>
<event>
 4    1 -0.3291270E-004  0.1731565E+03  0.7818608E-02  0.1174596E+00
         -5   -1    0    0    0  501 -0.00000000000E+00  0.00000000000E+00  0.44747671565E+02  0.44993823026E+02  0.47000000000E+01 0.  1.
          5   -1    0    0  501    0  0.00000000000E+00 -0.00000000000E+00 -0.83644653420E+03  0.83645973877E+03  0.47000000000E+01 0. -1.
          6    1    1    2  502    0  0.17173133595E+02  0.10209884384E+02 -0.19807564916E+03  0.26309146897E+03  0.17200000000E+03 0.  1.
         -6    1    1    2    0  502 -0.17173133595E+02 -0.10209884384E+02 -0.59362321348E+03  0.61836209282E+03  0.17200000000E+03 0. -1.
</event>
<event>
 4    1 -0.3291270E-004  0.3027272E+03  0.7818608E-02  0.1083885E+00
          5   -1    0    0  501    0  0.00000000000E+00  0.00000000000E+00  0.43509406378E+03  0.43511944835E+03  0.47000000000E+01 0. -1.
         -5   -1    0    0    0  501 -0.00000000000E+00 -0.00000000000E+00 -0.21092253893E+03  0.21097489763E+03  0.47000000000E+01 0.  1.
          6    1    1    2  502    0 -0.20749704465E+03 -0.13785761164E+03  0.98918145369E+02  0.31847848296E+03  0.17200000000E+03 0. -1.
         -6    1    1    2    0  502  0.20749704465E+03  0.13785761164E+03  0.12525337948E+03  0.32761586301E+03  0.17200000000E+03 0.  1.
</event>
<event>
 4    1 -0.3291270E-004  0.1721185E+03  0.7818608E-02  0.1175656E+00
         -5   -1    0    0    0  501 -0.00000000000E+00  0.00000000000E+00  0.45557157982E+03  0.45559582344E+03  0.47000000000E+01 0.  1.
          5   -1    0    0  501    0  0.00000000000E+00 -0.00000000000E+00 -0.65294151871E+02  0.65463090887E+02  0.47000000000E+01 0. -1.
          6    1    1    2  502    0  0.87336866013E+00 -0.63265993118E+01  0.21491519588E+03  0.27534220536E+03  0.17200000000E+03 0.  1.
         -6    1    1    2    0  502 -0.87336866013E+00  0.63265993118E+01  0.17536223206E+03  0.24571670897E+03  0.17200000000E+03 0. -1.
</event>
<event>
 4    1 -0.3291270E-004  0.1905813E+03  0.7818608E-02  0.1157938E+00
         -5   -1    0    0    0  501 -0.00000000000E+00  0.00000000000E+00  0.39827852212E+03  0.39830625300E+03  0.47000000000E+01 0.  1.
          5   -1    0    0  501    0  0.00000000000E+00 -0.00000000000E+00 -0.11579138164E+03  0.11588672945E+03  0.47000000000E+01 0. -1.
          6    1    1    2  502    0 -0.80335143661E+02  0.16837178005E+02  0.25988603080E+03  0.32227624001E+03  0.17200000000E+03 0.  1.
         -6    1    1    2    0  502  0.80335143661E+02 -0.16837178005E+02  0.22601109678E+02  0.19191674244E+03  0.17200000000E+03 0. -1.
</event>
<event>
 4    1 -0.3291270E-004  0.4097497E+03  0.7818608E-02  0.1040455E+00
         -5   -1    0    0    0  501 -0.00000000000E+00  0.00000000000E+00  0.16189819110E+03  0.16196639862E+03  0.47000000000E+01 0.  1.
          5   -1    0    0  501    0  0.00000000000E+00 -0.00000000000E+00 -0.11016608225E+04  0.11016708482E+04  0.47000000000E+01 0. -1.
          6    1    1    2  502    0 -0.28498236040E+03  0.23894740420E+03 -0.62324408663E+03  0.74587398348E+03  0.17200000000E+03 0. -1.
         -6    1    1    2    0  502  0.28498236040E+03 -0.23894740420E+03 -0.31651854479E+03  0.51776326339E+03  0.17200000000E+03 0.  1.
</event>
<event>
 4    1 -0.3291270E-004  0.4096692E+03  0.7818608E-02  0.1040482E+00
          5   -1    0    0  501    0  0.00000000000E+00  0.00000000000E+00  0.28973100430E+03  0.28976912336E+03  0.47000000000E+01 0. -1.
         -5   -1    0    0    0  501 -0.00000000000E+00 -0.00000000000E+00 -0.58694092625E+03  0.58695974385E+03  0.47000000000E+01 0.  1.
          6    1    1    2  502    0 -0.25134168190E+02  0.37096248019E+03 -0.98173479348E+02  0.42126822829E+03  0.17200000000E+03 0. -1.
         -6    1    1    2    0  502  0.25134168190E+02 -0.37096248019E+03 -0.19903644260E+03  0.45546063892E+03  0.17200000000E+03 0.  1.
</event>
<event>
 4    1 -0.3291270E-004  0.1746170E+03  0.7818608E-02  0.1173117E+00
          5   -1    0    0  501    0  0.00000000000E+00  0.00000000000E+00  0.89110001518E+02  0.89233863363E+02  0.47000000000E+01 0. -1.
         -5   -1    0    0    0  501 -0.00000000000E+00 -0.00000000000E+00 -0.57329318142E+03  0.57331244698E+03  0.47000000000E+01 0.  1.
          6    1    1    2  502    0  0.30093542269E+02 -0.12161872584E+01 -0.31610063483E+02  0.17745505490E+03  0.17200000000E+03 0. -1.
         -6    1    1    2    0  502 -0.30093542269E+02  0.12161872584E+01 -0.45257311642E+03  0.48509125544E+03  0.17200000000E+03 0.  1.
</event>
<event>
 4    1 -0.3291270E-004  0.1979450E+03  0.7818608E-02  0.1151484E+00
          5   -1    0    0  501    0  0.00000000000E+00  0.00000000000E+00  0.13547886622E+04  0.13547968147E+04  0.47000000000E+01 0. -1.
         -5   -1    0    0    0  501 -0.00000000000E+00 -0.00000000000E+00 -0.41331888377E+02  0.41598257137E+02  0.47000000000E+01 0.  1.
          6    1    1    2  502    0 -0.67805270348E+02 -0.70715419367E+02  0.10408346576E+04  0.10594899762E+04  0.17200000000E+03 0. -1.
         -6    1    1    2    0  502  0.67805270348E+02  0.70715419367E+02  0.27262211615E+03  0.33690509559E+03  0.17200000000E+03 0.  1.
</event>
<event>
 4    1 -0.3291270E-004  0.2785384E+03  0.7818608E-02  0.1096490E+00
          5   -1    0    0  501    0  0.00000000000E+00  0.00000000000E+00  0.15621765702E+04  0.15621836404E+04  0.47000000000E+01 0. -1.
         -5   -1    0    0    0  501 -0.00000000000E+00 -0.00000000000E+00 -0.23351862964E+03  0.23356592301E+03  0.47000000000E+01 0.  1.
          6    1    1    2  502    0  0.18410339004E+03 -0.11876694130E+03  0.14610391400E+04  0.14873530224E+04  0.17200000000E+03 0. -1.
         -6    1    1    2    0  502 -0.18410339004E+03  0.11876694130E+03 -0.13238119946E+03  0.30839654106E+03  0.17200000000E+03 0.  1.
</event>
<event>
 4    1 -0.3291270E-004  0.1813339E+03  0.7818608E-02  0.1166518E+00
         -5   -1    0    0    0  501 -0.00000000000E+00  0.00000000000E+00  0.38536336181E+03  0.38539202201E+03  0.47000000000E+01 0.  1.
          5   -1    0    0  501    0  0.00000000000E+00 -0.00000000000E+00 -0.10344234770E+03  0.10354906710E+03  0.47000000000E+01 0. -1.
          6    1    1    2  502    0  0.21814656480E+02 -0.53123629673E+02  0.38455678908E+02  0.18536676754E+03  0.17200000000E+03 0. -1.
         -6    1    1    2    0  502 -0.21814656480E+02  0.53123629673E+02  0.24346533521E+03  0.30357432157E+03  0.17200000000E+03 0.  1.
</event>
<event>
 4    1 -0.3291270E-004  0.2336420E+03  0.7818608E-02  0.1124102E+00
          5   -1    0    0  501    0  0.00000000000E+00  0.00000000000E+00  0.20392340069E+03  0.20397755600E+03  0.47000000000E+01 0. -1.
         -5   -1    0    0    0  501 -0.00000000000E+00 -0.00000000000E+00 -0.50274195242E+03  0.50276392146E+03  0.47000000000E+01 0.  1.
          6    1    1    2  502    0  0.13804288000E+03 -0.77128010622E+02  0.92249960679E+02  0.25119439083E+03  0.17200000000E+03 0. -1.
         -6    1    1    2    0  502 -0.13804288000E+03  0.77128010622E+02 -0.39106851240E+03  0.45554708662E+03  0.17200000000E+03 0.  1.
</event>
<event>
 4    1 -0.3291270E-004  0.1968872E+03  0.7818608E-02  0.1152392E+00
         -5   -1    0    0    0  501 -0.00000000000E+00  0.00000000000E+00  0.74905321301E+02  0.75052629263E+02  0.47000000000E+01 0.  1.
          5   -1    0    0  501    0  0.00000000000E+00 -0.00000000000E+00 -0.58087722744E+03  0.58089624147E+03  0.47000000000E+01 0. -1.
          6    1    1    2  502    0 -0.37489287298E+02 -0.88176621973E+02 -0.36186018461E+03  0.41195552737E+03  0.17200000000E+03 0. -1.
         -6    1    1    2    0  502  0.37489287298E+02  0.88176621973E+02 -0.14411172152E+03  0.24399334336E+03  0.17200000000E+03 0.  1.
</event>
<event>
 4    1 -0.3291270E-004  0.1893595E+03  0.7818608E-02  0.1159040E+00
          5   -1    0    0  501    0  0.00000000000E+00  0.00000000000E+00  0.19097744324E+03  0.19103526854E+03  0.47000000000E+01 0. -1.
         -5   -1    0    0    0  501 -0.00000000000E+00 -0.00000000000E+00 -0.19035701987E+03  0.19041503358E+03  0.47000000000E+01 0.  1.
          6    1    1    2  502    0  0.27166592304E+02  0.74397464558E+02  0.23091386329E+02  0.19076220431E+03  0.17200000000E+03 0. -1.
         -6    1    1    2    0  502 -0.27166592304E+02 -0.74397464558E+02 -0.22470962965E+02  0.19068809781E+03  0.17200000000E+03 0.  1.
</event>
<event>
 4    1 -0.3291270E-004  0.2053508E+03  0.7818608E-02  0.1145301E+00
          5   -1    0    0  501    0  0.00000000000E+00  0.00000000000E+00  0.54355384623E+03  0.54357416583E+03  0.47000000000E+01 0. -1.
         -5   -1    0    0    0  501 -0.00000000000E+00 -0.00000000000E+00 -0.77508070603E+02  0.77650441136E+02  0.47000000000E+01 0.  1.
          6    1    1    2  502    0  0.20637453713E+02  0.11026808774E+03  0.23812508084E+03  0.31443999395E+03  0.17200000000E+03 0. -1.
         -6    1    1    2    0  502 -0.20637453713E+02 -0.11026808774E+03  0.22792069479E+03  0.30678461302E+03  0.17200000000E+03 0.  1.
</event>
<event>
 4    1 -0.3291270E-004  0.1947673E+03  0.7818608E-02  0.1154230E+00
          5   -1    0    0  501    0  0.00000000000E+00  0.00000000000E+00  0.16363200190E+04  0.16363267689E+04  0.47000000000E+01 0. -1.
         -5   -1    0    0    0  501 -0.00000000000E+00 -0.00000000000E+00 -0.22962102321E+02  0.23438177040E+02  0.47000000000E+01 0.  1.
          6    1    1    2  502    0 -0.77545431284E+02  0.48342581055E+02  0.77985340394E+03  0.80380696109E+03  0.17200000000E+03 0. -1.
         -6    1    1    2    0  502  0.77545431284E+02 -0.48342581055E+02  0.83350451273E+03  0.85595798483E+03  0.17200000000E+03 0.  1.
</event>
<event>
 4    1 -0.3291270E-004  0.2996300E+03  0.7818608E-02  0.1085426E+00
          5   -1    0    0  501    0  0.00000000000E+00  0.00000000000E+00  0.68399957361E+02  0.68561243914E+02  0.47000000000E+01 0. -1.
         -5   -1    0    0    0  501 -0.00000000000E+00 -0.00000000000E+00 -0.14940335635E+04  0.14940409562E+04  0.47000000000E+01 0.  1.
          6    1    1    2  502    0 -0.15113249196E+03  0.19326948591E+03 -0.43924312281E+03  0.53170729282E+03  0.17200000000E+03 0. -1.
         -6    1    1    2    0  502  0.15113249196E+03 -0.19326948591E+03 -0.98639048336E+03  0.10308949073E+04  0.17200000000E+03 0.  1.
</event>
<event>
 4    1 -0.3291270E-004  0.2259671E+03  0.7818608E-02  0.1129511E+00
         -5   -1    0    0    0  501 -0.00000000000E+00  0.00000000000E+00  0.67422419491E+02  0.67586038869E+02  0.47000000000E+01 0.  1.
          5   -1    0    0  501    0  0.00000000000E+00 -0.00000000000E+00 -0.76323908385E+03  0.76325355493E+03  0.47000000000E+01 0. -1.
          6    1    1    2  502    0 -0.12441760974E+03  0.77442725532E+02 -0.38767725355E+03  0.44872571831E+03  0.17200000000E+03 0. -1.
         -6    1    1    2    0  502  0.12441760974E+03 -0.77442725532E+02 -0.30813941081E+03  0.38211387549E+03  0.17200000000E+03 0. -1.
</event>
<event>
 4    1 -0.3291270E-004  0.5678441E+03  0.7818608E-02  0.9974461E-01
          5   -1    0    0  501    0  0.00000000000E+00  0.00000000000E+00  0.14998663559E+03  0.15006025742E+03  0.47000000000E+01 0. -1.
         -5   -1    0    0    0  501 -0.00000000000E+00 -0.00000000000E+00 -0.27095421078E+04  0.27095461842E+04  0.47000000000E+01 0.  1.
          6    1    1    2  502    0 -0.51684444117E+03  0.16042058995E+03 -0.62959497198E+03  0.84784242097E+03  0.17200000000E+03 0. -1.
         -6    1    1    2    0  502  0.51684444117E+03 -0.16042058995E+03 -0.19299605003E+04  0.20117640206E+04  0.17200000000E+03 0.  1.
</event>
<event>
 4    1 -0.3291270E-004  0.2682875E+03  0.7818608E-02  0.1102264E+00
         -5   -1    0    0    0  501 -0.00000000000E+00  0.00000000000E+00  0.36790819825E+03  0.36793821810E+03  0.47000000000E+01 0.  1.
          5   -1    0    0  501    0  0.00000000000E+00 -0.00000000000E+00 -0.32322130644E+03  0.32325547626E+03  0.47000000000E+01 0. -1.
          6    1    1    2  502    0  0.12841184068E+03  0.16094898248E+03 -0.19481291286E+03  0.33155730546E+03  0.17200000000E+03 0. -1.
         -6    1    1    2    0  502 -0.12841184068E+03 -0.16094898248E+03  0.23949980467E+03  0.35963638891E+03  0.17200000000E+03 0.  1.
</event>
<event>
 4    1 -0.3291270E-004  0.2106193E+03  0.7818608E-02  0.1141076E+00
         -5   -1    0    0    0  501 -0.00000000000E+00  0.00000000000E+00  0.56841689787E+03  0.56843632869E+03  0.47000000000E+01 0.  1.
          5   -1    0    0  501    0  0.00000000000E+00 -0.00000000000E+00 -0.91356931610E+02  0.91477751138E+02  0.47000000000E+01 0. -1.
          6    1    1    2  502    0  0.10336192479E+03  0.63975128468E+02  0.11223589085E+03  0.23865749465E+03  0.17200000000E+03 0. -1.
         -6    1    1    2    0  502 -0.10336192479E+03 -0.63975128468E+02  0.36482407541E+03  0.42125658518E+03  0.17200000000E+03 0.  1.
</event>
<event>
 4    1 -0.3291270E-004  0.1867996E+03  0.7818608E-02  0.1161380E+00
          5   -1    0    0  501    0  0.00000000000E+00  0.00000000000E+00  0.15406207365E+03  0.15413374886E+03  0.47000000000E+01 0. -1.
         -5   -1    0    0    0  501 -0.00000000000E+00 -0.00000000000E+00 -0.28153002286E+03  0.28156925217E+03  0.47000000000E+01 0.  1.
          6    1    1    2  502    0 -0.25044405891E+01  0.72827281210E+02  0.32697740210E+02  0.18963973035E+03  0.17200000000E+03 0. -1.
         -6    1    1    2    0  502  0.25044405891E+01 -0.72827281210E+02 -0.16016568942E+03  0.24606327068E+03  0.17200000000E+03 0.  1.
</event>
<event>
 4    1 -0.3291270E-004  0.1949707E+03  0.7818608E-02  0.1154053E+00
          5   -1    0    0  501    0  0.00000000000E+00  0.00000000000E+00  0.92140174404E+02  0.92259968238E+02  0.47000000000E+01 0. -1.
         -5   -1    0    0    0  501 -0.00000000000E+00 -0.00000000000E+00 -0.46301082925E+03  0.46303468337E+03  0.47000000000E+01 0.  1.
          6    1    1    2  502    0 -0.32353992879E+02  0.85923287515E+02 -0.27743216041E+03  0.33909024732E+03  0.17200000000E+03 0.  1.
         -6    1    1    2    0  502  0.32353992879E+02 -0.85923287515E+02 -0.93438494429E+02  0.21620440429E+03  0.17200000000E+03 0. -1.
</event>
<event>
 4    1 -0.3291270E-004  0.1784963E+03  0.7818608E-02  0.1169266E+00
          5   -1    0    0  501    0  0.00000000000E+00  0.00000000000E+00  0.41501852331E+03  0.41504513573E+03  0.47000000000E+01 0. -1.
         -5   -1    0    0    0  501 -0.00000000000E+00 -0.00000000000E+00 -0.88885751791E+02  0.89009925691E+02  0.47000000000E+01 0.  1.
          6    1    1    2  502    0  0.47654592954E+02  0.24463170633E+01  0.25641748640E+03  0.31242738681E+03  0.17200000000E+03 0. -1.
         -6    1    1    2    0  502 -0.47654592954E+02 -0.24463170633E+01  0.69715285121E+02  0.19162767461E+03  0.17200000000E+03 0.  1.
</event>
<event>
 4    1 -0.3291270E-004  0.2774445E+03  0.7818608E-02  0.1097093E+00
          5   -1    0    0  501    0  0.00000000000E+00  0.00000000000E+00  0.54473432418E+03  0.54475459975E+03  0.47000000000E+01 0. -1.
         -5   -1    0    0    0  501 -0.00000000000E+00 -0.00000000000E+00 -0.14661699111E+03  0.14669230410E+03  0.47000000000E+01 0.  1.
          6    1    1    2  502    0  0.21387356083E+03  0.40614736203E+02  0.26520559501E+03  0.38380915107E+03  0.17200000000E+03 0. -1.
         -6    1    1    2    0  502 -0.21387356083E+03 -0.40614736203E+02  0.13291173806E+03  0.30763775277E+03  0.17200000000E+03 0.  1.
</event>
<event>
 4    1 -0.3291270E-004  0.3231863E+03  0.7818608E-02  0.1074192E+00
         -5   -1    0    0    0  501 -0.00000000000E+00  0.00000000000E+00  0.50426838656E+03  0.50429028910E+03  0.47000000000E+01 0.  1.
          5   -1    0    0  501    0  0.00000000000E+00 -0.00000000000E+00 -0.22172522667E+03  0.22177503498E+03  0.47000000000E+01 0. -1.
          6    1    1    2  502    0 -0.95457103872E+02  0.25642416565E+03  0.47978188893E+02  0.32672820205E+03  0.17200000000E+03 0. -1.
         -6    1    1    2    0  502  0.95457103872E+02 -0.25642416565E+03  0.23456497100E+03  0.39933712203E+03  0.17200000000E+03 0.  1.
</event>
<event>
 4    1 -0.3291270E-004  0.2354509E+03  0.7818608E-02  0.1122861E+00
          5   -1    0    0  501    0  0.00000000000E+00  0.00000000000E+00  0.33721831160E+03  0.33725106328E+03  0.47000000000E+01 0. -1.
         -5   -1    0    0    0  501 -0.00000000000E+00 -0.00000000000E+00 -0.18435016717E+03  0.18441007059E+03  0.47000000000E+01 0.  1.
          6    1    1    2  502    0 -0.18093731979E+02 -0.15976782696E+03  0.16238567632E+03  0.28601791822E+03  0.17200000000E+03 0. -1.
         -6    1    1    2    0  502  0.18093731979E+02  0.15976782696E+03 -0.95175318803E+01  0.23564321565E+03  0.17200000000E+03 0. -1.
</event>
<event>
 4    1 -0.3291270E-004  0.1900627E+03  0.7818608E-02  0.1158405E+00
         -5   -1    0    0    0  501 -0.00000000000E+00  0.00000000000E+00  0.29677289890E+02  0.30047155193E+02  0.47000000000E+01 0.  1.
          5   -1    0    0  501    0  0.00000000000E+00 -0.00000000000E+00 -0.17260334911E+04  0.17260398901E+04  0.47000000000E+01 0. -1.
          6    1    1    2  502    0 -0.40993359958E+02  0.69709087331E+02 -0.13285457914E+04  0.13420721785E+04  0.17200000000E+03 0. -1.
         -6    1    1    2    0  502  0.40993359958E+02 -0.69709087331E+02 -0.36781040982E+03  0.41401486687E+03  0.17200000000E+03 0.  1.
</event>
<event>
 4    1 -0.3291270E-004  0.1948424E+03  0.7818608E-02  0.1154165E+00
          5   -1    0    0  501    0  0.00000000000E+00  0.00000000000E+00  0.37509246362E+03  0.37512190854E+03  0.47000000000E+01 0. -1.
         -5   -1    0    0    0  501 -0.00000000000E+00 -0.00000000000E+00 -0.10418752574E+03  0.10429348264E+03  0.47000000000E+01 0.  1.
          6    1    1    2  502    0  0.76686605619E+02  0.49987107517E+02  0.17653512874E+03  0.26292241836E+03  0.17200000000E+03 0. -1.
         -6    1    1    2    0  502 -0.76686605619E+02 -0.49987107517E+02  0.94369809140E+02  0.21649297281E+03  0.17200000000E+03 0.  1.
</event>
<event>
 4    1 -0.3291270E-004  0.1849929E+03  0.7818608E-02  0.1163057E+00
          5   -1    0    0  501    0  0.00000000000E+00  0.00000000000E+00  0.11334672047E+04  0.11334769491E+04  0.47000000000E+01 0. -1.
         -5   -1    0    0    0  501 -0.00000000000E+00 -0.00000000000E+00 -0.30733422684E+02  0.31090726429E+02  0.47000000000E+01 0.  1.
          6    1    1    2  502    0 -0.51230701373E+01  0.67912520536E+02  0.46194146216E+03  0.49760654211E+03  0.17200000000E+03 0. -1.
         -6    1    1    2    0  502  0.51230701373E+01 -0.67912520536E+02  0.64079231988E+03  0.66696113344E+03  0.17200000000E+03 0.  1.
</event>
<event>
 4    1 -0.3291270E-004  0.2252958E+03  0.7818608E-02  0.1129995E+00
          5   -1    0    0  501    0  0.00000000000E+00  0.00000000000E+00  0.77279900639E+02  0.77422690749E+02  0.47000000000E+01 0. -1.
         -5   -1    0    0    0  501 -0.00000000000E+00 -0.00000000000E+00 -0.66015253750E+03  0.66016926827E+03  0.47000000000E+01 0.  1.
          6    1    1    2  502    0  0.11556965446E+03 -0.88418504618E+02 -0.26237425559E+03  0.34583005506E+03  0.17200000000E+03 0.  1.
         -6    1    1    2    0  502 -0.11556965446E+03  0.88418504618E+02 -0.32049838127E+03  0.39176190396E+03  0.17200000000E+03 0. -1.
</event>
<event>
 4    1 -0.3291270E-004  0.1827739E+03  0.7818608E-02  0.1165145E+00
         -5   -1    0    0    0  501 -0.00000000000E+00  0.00000000000E+00  0.47510039935E+03  0.47512364650E+03  0.47000000000E+01 0.  1.
          5   -1    0    0  501    0  0.00000000000E+00 -0.00000000000E+00 -0.78574403288E+02  0.78714845183E+02  0.47000000000E+01 0. -1.
          6    1    1    2  502    0  0.10245427265E+02 -0.60970022531E+02  0.10801502594E+03  0.21230534203E+03  0.17200000000E+03 0. -1.
         -6    1    1    2    0  502 -0.10245427265E+02  0.60970022531E+02  0.28851097012E+03  0.34153314965E+03  0.17200000000E+03 0.  1.
</event>
<event>
 4    1 -0.3291270E-004  0.2311796E+03  0.7818608E-02  0.1125812E+00
         -5   -1    0    0    0  501 -0.00000000000E+00  0.00000000000E+00  0.32443758627E+03  0.32447162801E+03  0.47000000000E+01 0.  1.
          5   -1    0    0  501    0  0.00000000000E+00 -0.00000000000E+00 -0.53508452330E+03  0.53510516450E+03  0.47000000000E+01 0. -1.
          6    1    1    2  502    0  0.87744941788E+02  0.12712530128E+03 -0.46289789483E+03  0.51741518926E+03  0.17200000000E+03 0. -1.
         -6    1    1    2    0  502 -0.87744941788E+02 -0.12712530128E+03  0.25225095780E+03  0.34216160326E+03  0.17200000000E+03 0.  1.
</event>
<event>
 4    1 -0.3291270E-004  0.1842654E+03  0.7818608E-02  0.1163738E+00
         -5   -1    0    0    0  501 -0.00000000000E+00  0.00000000000E+00  0.59879768219E+03  0.59881612720E+03  0.47000000000E+01 0.  1.
          5   -1    0    0  501    0  0.00000000000E+00 -0.00000000000E+00 -0.56593550540E+02  0.56788378765E+02  0.47000000000E+01 0. -1.
          6    1    1    2  502    0  0.53237249991E+02  0.39185909968E+02  0.26743630895E+03  0.32477056466E+03  0.17200000000E+03 0. -1.
         -6    1    1    2    0  502 -0.53237249991E+02 -0.39185909968E+02  0.27476782270E+03  0.33083394130E+03  0.17200000000E+03 0.  1.
</event>
<event>
 4    1 -0.3291270E-004  0.1787414E+03  0.7818608E-02  0.1169027E+00
         -5   -1    0    0    0  501 -0.00000000000E+00  0.00000000000E+00  0.18356894778E+03  0.18362910605E+03  0.47000000000E+01 0.  1.
          5   -1    0    0  501    0  0.00000000000E+00 -0.00000000000E+00 -0.18884513236E+03  0.18890361039E+03  0.47000000000E+01 0. -1.
          6    1    1    2  502    0 -0.42622545259E+02 -0.23405074258E+02 -0.54985656525E+02  0.18700775730E+03  0.17200000000E+03 0. -1.
         -6    1    1    2    0  502  0.42622545259E+02  0.23405074258E+02  0.49709471942E+02  0.18552495915E+03  0.17200000000E+03 0.  1.
</event>
<event>
 4    1 -0.3291270E-004  0.1851242E+03  0.7818608E-02  0.1162934E+00
         -5   -1    0    0    0  501 -0.00000000000E+00  0.00000000000E+00  0.19192374264E+03  0.19198128291E+03  0.47000000000E+01 0.  1.
          5   -1    0    0  501    0  0.00000000000E+00 -0.00000000000E+00 -0.31439488950E+03  0.31443001852E+03  0.47000000000E+01 0. -1.
          6    1    1    2  502    0  0.20607186263E+01 -0.68430411947E+02 -0.22770841185E+03  0.29346565160E+03  0.17200000000E+03 0. -1.
         -6    1    1    2    0  502 -0.20607186263E+01  0.68430411947E+02  0.10523726499E+03  0.21294564983E+03  0.17200000000E+03 0.  1.
</event>
<event>
 4    1 -0.3291270E-004  0.2421271E+03  0.7818608E-02  0.1118384E+00
          5   -1    0    0  501    0  0.00000000000E+00  0.00000000000E+00  0.32757094523E+03  0.32760466138E+03  0.47000000000E+01 0. -1.
         -5   -1    0    0    0  501 -0.00000000000E+00 -0.00000000000E+00 -0.29384721740E+03  0.29388480255E+03  0.47000000000E+01 0.  1.
          6    1    1    2  502    0 -0.86989792859E+02 -0.14654115954E+03  0.21119051195E+03  0.32128953895E+03  0.17200000000E+03 0. -1.
         -6    1    1    2    0  502  0.86989792859E+02  0.14654115954E+03 -0.17746678412E+03  0.30019992499E+03  0.17200000000E+03 0.  1.
</event>
<event>
 4    1 -0.3291270E-004  0.1898034E+03  0.7818608E-02  0.1158639E+00
         -5   -1    0    0    0  501 -0.00000000000E+00  0.00000000000E+00  0.42396722424E+02  0.42656442330E+02  0.47000000000E+01 0.  1.
          5   -1    0    0  501    0  0.00000000000E+00 -0.00000000000E+00 -0.92151606922E+03  0.92152805482E+03  0.47000000000E+01 0. -1.
          6    1    1    2  502    0 -0.20078609697E+02  0.77705607867E+02 -0.57675902916E+03  0.60718719500E+03  0.17200000000E+03 0. -1.
         -6    1    1    2    0  502  0.20078609697E+02 -0.77705607867E+02 -0.30236031764E+03  0.35699730215E+03  0.17200000000E+03 0.  1.
</event>
<event>
 4    1 -0.3291270E-004  0.1812929E+03  0.7818608E-02  0.1166558E+00
         -5   -1    0    0    0  501 -0.00000000000E+00  0.00000000000E+00  0.82154099750E+03  0.82155444164E+03  0.47000000000E+01 0.  1.
          5   -1    0    0  501    0  0.00000000000E+00 -0.00000000000E+00 -0.57631591098E+02  0.57822921861E+02  0.47000000000E+01 0. -1.
          6    1    1    2  502    0 -0.53252060928E+02 -0.21150188409E+02  0.13827906647E+03  0.22800923816E+03  0.17200000000E+03 0. -1.
         -6    1    1    2    0  502  0.53252060928E+02  0.21150188409E+02  0.62563033993E+03  0.65136812534E+03  0.17200000000E+03 0.  1.
</event>
<event>
 4    1 -0.3291270E-004  0.4238133E+03  0.7818608E-02  0.1035832E+00
         -5   -1    0    0    0  501 -0.00000000000E+00  0.00000000000E+00  0.81038604541E+02  0.81174783190E+02  0.47000000000E+01 0.  1.
          5   -1    0    0  501    0  0.00000000000E+00 -0.00000000000E+00 -0.23906239939E+04  0.23906286141E+04  0.47000000000E+01 0. -1.
          6    1    1    2  502    0  0.16516326100E+03  0.35036377880E+03 -0.81929408619E+03  0.92242098846E+03  0.17200000000E+03 0.  1.
         -6    1    1    2    0  502 -0.16516326100E+03 -0.35036377880E+03 -0.14902913032E+04  0.15493824088E+04  0.17200000000E+03 0. -1.
</event>
<event>
 4    1 -0.3291270E-004  0.2471218E+03  0.7818608E-02  0.1115137E+00
          5   -1    0    0  501    0  0.00000000000E+00  0.00000000000E+00  0.17721456975E+03  0.17727688437E+03  0.47000000000E+01 0. -1.
         -5   -1    0    0    0  501 -0.00000000000E+00 -0.00000000000E+00 -0.51251430664E+03  0.51253585681E+03  0.47000000000E+01 0.  1.
          6    1    1    2  502    0  0.12911671470E+03  0.12171292200E+03  0.29831647823E+02  0.24891582635E+03  0.17200000000E+03 0. -1.
         -6    1    1    2    0  502 -0.12911671470E+03 -0.12171292200E+03 -0.36513138472E+03  0.44089691482E+03  0.17200000000E+03 0.  1.
</event>
<event>
 4    1 -0.3291270E-004  0.2042590E+03  0.7818608E-02  0.1146195E+00
          5   -1    0    0  501    0  0.00000000000E+00  0.00000000000E+00  0.19724667359E+03  0.19730266152E+03  0.47000000000E+01 0. -1.
         -5   -1    0    0    0  501 -0.00000000000E+00 -0.00000000000E+00 -0.38294980666E+03  0.38297864747E+03  0.47000000000E+01 0.  1.
          6    1    1    2  502    0  0.67509683650E+02 -0.87064197966E+02  0.10131181808E+03  0.22800398338E+03  0.17200000000E+03 0. -1.
         -6    1    1    2    0  502 -0.67509683650E+02  0.87064197966E+02 -0.28701495115E+03  0.35227732561E+03  0.17200000000E+03 0.  1.
</event>
<event>
 4    1 -0.3291270E-004  0.1737630E+03  0.7818608E-02  0.1173979E+00
         -5   -1    0    0    0  501 -0.00000000000E+00  0.00000000000E+00  0.28797379422E+02  0.29178400600E+02  0.47000000000E+01 0.  1.
          5   -1    0    0  501    0  0.00000000000E+00 -0.00000000000E+00 -0.12062457240E+04  0.12062548805E+04  0.47000000000E+01 0. -1.
          6    1    1    2  502    0  0.16665808032E+02 -0.18216295864E+02 -0.36027243131E+03  0.39998725899E+03  0.17200000000E+03 0.  1.
         -6    1    1    2    0  502 -0.16665808032E+02  0.18216295864E+02 -0.81717591327E+03  0.83544602209E+03  0.17200000000E+03 0.  1.
</event>
<event>
 4    1 -0.3291270E-004  0.1735854E+03  0.7818608E-02  0.1174160E+00
         -5   -1    0    0    0  501 -0.00000000000E+00  0.00000000000E+00  0.54776604834E+02  0.54977872250E+02  0.47000000000E+01 0.  1.
          5   -1    0    0  501    0  0.00000000000E+00 -0.00000000000E+00 -0.54889231555E+03  0.54891243752E+03  0.47000000000E+01 0. -1.
          6    1    1    2  502    0 -0.23385152823E+02  0.10097800052E+01 -0.24912157272E+03  0.30363373170E+03  0.17200000000E+03 0. -1.
         -6    1    1    2    0  502  0.23385152823E+02 -0.10097800052E+01 -0.24499413799E+03  0.30025657808E+03  0.17200000000E+03 0.  1.
</event>
<event>
 4    1 -0.3291270E-004  0.1797174E+03  0.7818608E-02  0.1168077E+00
         -5   -1    0    0    0  501 -0.00000000000E+00  0.00000000000E+00  0.10921052984E+03  0.10931161799E+03  0.47000000000E+01 0.  1.
          5   -1    0    0  501    0  0.00000000000E+00 -0.00000000000E+00 -0.34943429722E+03  0.34946590403E+03  0.47000000000E+01 0. -1.
          6    1    1    2  502    0 -0.21817391357E+02  0.47311135197E+02 -0.21022519778E+03  0.27657363551E+03  0.17200000000E+03 0. -1.
         -6    1    1    2    0  502  0.21817391357E+02 -0.47311135197E+02 -0.29998569601E+02  0.18220388650E+03  0.17200000000E+03 0.  1.
</event>
<event>
 4    1 -0.3291270E-004  0.1909079E+03  0.7818608E-02  0.1157645E+00
         -5   -1    0    0    0  501 -0.00000000000E+00  0.00000000000E+00  0.89871063808E+03  0.89872292782E+03  0.47000000000E+01 0.  1.
          5   -1    0    0  501    0  0.00000000000E+00 -0.00000000000E+00 -0.48684948661E+02  0.48911289352E+02  0.47000000000E+01 0. -1.
          6    1    1    2  502    0 -0.32724377322E+02 -0.76098223240E+02  0.23013087428E+03  0.29900843425E+03  0.17200000000E+03 0. -1.
         -6    1    1    2    0  502  0.32724377322E+02  0.76098223240E+02  0.61989481513E+03  0.64862578293E+03  0.17200000000E+03 0.  1.
</event>
<event>
 4    1 -0.3291270E-004  0.9121555E+03  0.7818608E-02  0.9410513E-01
          5   -1    0    0  501    0  0.00000000000E+00  0.00000000000E+00  0.96250943624E+03  0.96252091138E+03  0.47000000000E+01 0. -1.
         -5   -1    0    0    0  501 -0.00000000000E+00 -0.00000000000E+00 -0.11930076873E+04  0.11930169454E+04  0.47000000000E+01 0.  1.
          6    1    1    2  502    0 -0.78251854355E+03 -0.43601418470E+03  0.45037814272E+03  0.10172846758E+04  0.17200000000E+03 0. -1.
         -6    1    1    2    0  502  0.78251854355E+03  0.43601418470E+03 -0.68087639379E+03  0.11382531809E+04  0.17200000000E+03 0.  1.
</event>
<event>
 4    1 -0.3291270E-004  0.1955502E+03  0.7818608E-02  0.1153549E+00
          5   -1    0    0  501    0  0.00000000000E+00  0.00000000000E+00  0.92723955259E+02  0.92842995852E+02  0.47000000000E+01 0. -1.
         -5   -1    0    0    0  501 -0.00000000000E+00 -0.00000000000E+00 -0.41619031969E+03  0.41621685719E+03  0.47000000000E+01 0.  1.
          6    1    1    2  502    0  0.26102328364E+02 -0.89300224677E+02 -0.13622355252E+03  0.23832062004E+03  0.17200000000E+03 0. -1.
         -6    1    1    2    0  502 -0.26102328364E+02  0.89300224677E+02 -0.18724281191E+03  0.27073923300E+03  0.17200000000E+03 0.  1.
</event>
<event>
 4    1 -0.3291270E-004  0.3181010E+03  0.7818608E-02  0.1076527E+00
          5   -1    0    0  501    0  0.00000000000E+00  0.00000000000E+00  0.18986140970E+03  0.18991957480E+03  0.47000000000E+01 0. -1.
         -5   -1    0    0    0  501 -0.00000000000E+00 -0.00000000000E+00 -0.55118713250E+03  0.55120717070E+03  0.47000000000E+01 0.  1.
          6    1    1    2  502    0 -0.25502209481E+03 -0.81043045544E+02 -0.11300146526E+03  0.33757602880E+03  0.17200000000E+03 0. -1.
         -6    1    1    2    0  502  0.25502209481E+03  0.81043045544E+02 -0.24832425754E+03  0.40355071670E+03  0.17200000000E+03 0.  1.
</event>
<event>
 4    1 -0.3291270E-004  0.4099682E+03  0.7818608E-02  0.1040382E+00
          5   -1    0    0  501    0  0.00000000000E+00  0.00000000000E+00  0.43361540027E+03  0.43364087141E+03  0.47000000000E+01 0. -1.
         -5   -1    0    0    0  501 -0.00000000000E+00 -0.00000000000E+00 -0.66029222419E+03  0.66030895142E+03  0.47000000000E+01 0.  1.
          6    1    1    2  502    0  0.51845340041E+02 -0.36851321148E+03  0.23818327966E+03  0.47413626842E+03  0.17200000000E+03 0. -1.
         -6    1    1    2    0  502 -0.51845340041E+02  0.36851321148E+03 -0.46486010358E+03  0.61981355440E+03  0.17200000000E+03 0.  1.
</event>
<event>
 4    1 -0.3291270E-004  0.2307961E+03  0.7818608E-02  0.1126081E+00
         -5   -1    0    0    0  501 -0.00000000000E+00  0.00000000000E+00  0.34293844932E+02  0.34614416075E+02  0.47000000000E+01 0.  1.
          5   -1    0    0  501    0  0.00000000000E+00 -0.00000000000E+00 -0.16578241295E+04  0.16578307918E+04  0.47000000000E+01 0. -1.
          6    1    1    2  502    0 -0.13030277835E+03  0.81878228198E+02 -0.10318171870E+04  0.10573143173E+04  0.17200000000E+03 0. -1.
         -6    1    1    2    0  502  0.13030277835E+03 -0.81878228198E+02 -0.59171309757E+03  0.63513089055E+03  0.17200000000E+03 0.  1.
</event>
<event>
 4    1 -0.3291270E-004  0.1893120E+03  0.7818608E-02  0.1159083E+00
          5   -1    0    0  501    0  0.00000000000E+00  0.00000000000E+00  0.11852913905E+03  0.11862228629E+03  0.47000000000E+01 0. -1.
         -5   -1    0    0    0  501 -0.00000000000E+00 -0.00000000000E+00 -0.63520665692E+03  0.63522404472E+03  0.47000000000E+01 0.  1.
          6    1    1    2  502    0 -0.64559565466E+02 -0.45684614781E+02  0.14573748348E+02  0.18987210343E+03  0.17200000000E+03 0. -1.
         -6    1    1    2    0  502  0.64559565466E+02  0.45684614781E+02 -0.53125126621E+03  0.56397422758E+03  0.17200000000E+03 0.  1.
</event>
<event>
 4    1 -0.3291270E-004  0.2225511E+03  0.7818608E-02  0.1131995E+00
          5   -1    0    0  501    0  0.00000000000E+00  0.00000000000E+00  0.66587780157E+03  0.66589438849E+03  0.47000000000E+01 0. -1.
         -5   -1    0    0    0  501 -0.00000000000E+00 -0.00000000000E+00 -0.95456117011E+02  0.95571754587E+02  0.47000000000E+01 0.  1.
          6    1    1    2  502    0  0.14122598688E+03 -0.47730551581E+00  0.46435552614E+03  0.51493209441E+03  0.17200000000E+03 0. -1.
         -6    1    1    2    0  502 -0.14122598688E+03  0.47730551581E+00  0.10606615841E+03  0.24653404867E+03  0.17200000000E+03 0.  1.
</event>
<event>
 4    1 -0.3291270E-004  0.2210703E+03  0.7818608E-02  0.1133088E+00
          5   -1    0    0  501    0  0.00000000000E+00  0.00000000000E+00  0.60212250264E+02  0.60395406132E+02  0.47000000000E+01 0. -1.
         -5   -1    0    0    0  501 -0.00000000000E+00 -0.00000000000E+00 -0.82098729381E+03  0.82100074701E+03  0.47000000000E+01 0.  1.
          6    1    1    2  502    0  0.80983363851E+02 -0.11282632570E+03 -0.43080164075E+03  0.48421290633E+03  0.17200000000E+03 0.  1.
         -6    1    1    2    0  502 -0.80983363851E+02  0.11282632570E+03 -0.32997340280E+03  0.39718324681E+03  0.17200000000E+03 0.  1.
</event>
<event>
 4    1 -0.3291270E-004  0.1755203E+03  0.7818608E-02  0.1172210E+00
          5   -1    0    0  501    0  0.00000000000E+00  0.00000000000E+00  0.32448149255E+03  0.32451552969E+03  0.47000000000E+01 0. -1.
         -5   -1    0    0    0  501 -0.00000000000E+00 -0.00000000000E+00 -0.94871113667E+02  0.94987463428E+02  0.47000000000E+01 0.  1.
          6    1    1    2  502    0  0.21645167533E+02 -0.27474511828E+02  0.11820515857E+03  0.21161243250E+03  0.17200000000E+03 0.  1.
         -6    1    1    2    0  502 -0.21645167533E+02  0.27474511828E+02  0.11140522031E+03  0.20789056061E+03  0.17200000000E+03 0.  1.
</event>
<event>
 4    1 -0.3291270E-004  0.3174443E+03  0.7818608E-02  0.1076832E+00
         -5   -1    0    0    0  501 -0.00000000000E+00  0.00000000000E+00  0.12686402907E+03  0.12695106093E+03  0.47000000000E+01 0.  1.
          5   -1    0    0  501    0  0.00000000000E+00 -0.00000000000E+00 -0.10941005932E+04  0.10941106882E+04  0.47000000000E+01 0. -1.
          6    1    1    2  502    0 -0.11280673390E+03  0.24178820914E+03 -0.80337878985E+03  0.86382195924E+03  0.17200000000E+03 0. -1.
         -6    1    1    2    0  502  0.11280673390E+03 -0.24178820914E+03 -0.16385777429E+03  0.35723978990E+03  0.17200000000E+03 0.  1.
</event>
<event>
 4    1 -0.3291270E-004  0.3001837E+03  0.7818608E-02  0.1085149E+00
         -5   -1    0    0    0  501 -0.00000000000E+00  0.00000000000E+00  0.13918718869E+04  0.13918798222E+04  0.47000000000E+01 0.  1.
          5   -1    0    0  501    0  0.00000000000E+00 -0.00000000000E+00 -0.64827051340E+02  0.64997204443E+02  0.47000000000E+01 0. -1.
          6    1    1    2  502    0 -0.23417129864E+03 -0.75432437265E+02  0.70186990598E+03  0.76336859683E+03  0.17200000000E+03 0.  1.
         -6    1    1    2    0  502  0.23417129864E+03  0.75432437265E+02  0.62517492956E+03  0.69350842983E+03  0.17200000000E+03 0.  1.
</event>
<event>
 4    1 -0.3291270E-004  0.1961496E+03  0.7818608E-02  0.1153029E+00
         -5   -1    0    0    0  501 -0.00000000000E+00  0.00000000000E+00  0.15115491358E+03  0.15122796666E+03  0.47000000000E+01 0.  1.
          5   -1    0    0  501    0  0.00000000000E+00 -0.00000000000E+00 -0.28533889689E+03  0.28537760262E+03  0.47000000000E+01 0. -1.
          6    1    1    2  502    0 -0.74604567456E+02 -0.57661121767E+02 -0.13898283024E+03  0.24039732434E+03  0.17200000000E+03 0.  1.
         -6    1    1    2    0  502  0.74604567456E+02  0.57661121767E+02  0.47988469331E+01  0.19620824494E+03  0.17200000000E+03 0.  1.
</event>
<event>
 4    1 -0.3291270E-004  0.1835352E+03  0.7818608E-02  0.1164425E+00
         -5   -1    0    0    0  501 -0.00000000000E+00  0.00000000000E+00  0.10623886563E+03  0.10634277865E+03  0.47000000000E+01 0.  1.
          5   -1    0    0  501    0  0.00000000000E+00 -0.00000000000E+00 -0.34669560885E+03  0.34672746530E+03  0.47000000000E+01 0. -1.
          6    1    1    2  502    0 -0.64026119227E+02  0.13465005306E+01 -0.18674422465E+03  0.26183690047E+03  0.17200000000E+03 0. -1.
         -6    1    1    2    0  502  0.64026119227E+02 -0.13465005306E+01 -0.53712518571E+02  0.19123334348E+03  0.17200000000E+03 0.  1.
</event>
<event>
 4    1 -0.3291270E-004  0.2047900E+03  0.7818608E-02  0.1145759E+00
          5   -1    0    0  501    0  0.00000000000E+00  0.00000000000E+00  0.10808559914E+04  0.10808662101E+04  0.47000000000E+01 0. -1.
         -5   -1    0    0    0  501 -0.00000000000E+00 -0.00000000000E+00 -0.43720356930E+02  0.43972259552E+02  0.47000000000E+01 0.  1.
          6    1    1    2  502    0 -0.11070497902E+03 -0.99665580766E+01  0.70951316127E+03  0.73847670964E+03  0.17200000000E+03 0. -1.
         -6    1    1    2    0  502  0.11070497902E+03  0.99665580766E+01  0.32762247318E+03  0.38636176000E+03  0.17200000000E+03 0.  1.
</event>
<event>
 4    1 -0.3291270E-004  0.4005169E+03  0.7818608E-02  0.1043601E+00
          5   -1    0    0  501    0  0.00000000000E+00  0.00000000000E+00  0.22376770577E+03  0.22381705955E+03  0.47000000000E+01 0. -1.
         -5   -1    0    0    0  501 -0.00000000000E+00 -0.00000000000E+00 -0.73818297777E+03  0.73819794003E+03  0.47000000000E+01 0.  1.
          6    1    1    2  502    0  0.30647470757E+03 -0.19210159633E+03 -0.17523078496E+03  0.43717227462E+03  0.17200000000E+03 0. -1.
         -6    1    1    2    0  502 -0.30647470757E+03  0.19210159633E+03 -0.33918448704E+03  0.52484272496E+03  0.17200000000E+03 0.  1.
</event>
<event>
 4    1 -0.3291270E-004  0.2002189E+03  0.7818608E-02  0.1149554E+00
         -5   -1    0    0    0  501 -0.00000000000E+00  0.00000000000E+00  0.59257293853E+03  0.59259157730E+03  0.47000000000E+01 0.  1.
          5   -1    0    0  501    0  0.00000000000E+00 -0.00000000000E+00 -0.72715115814E+02  0.72866851639E+02  0.47000000000E+01 0. -1.
          6    1    1    2  502    0  0.51770534556E+02 -0.88450037930E+02  0.17134647594E+03  0.26352838989E+03  0.17200000000E+03 0. -1.
         -6    1    1    2    0  502 -0.51770534556E+02  0.88450037930E+02  0.34851134678E+03  0.40193003905E+03  0.17200000000E+03 0.  1.
</event>
<event>
 4    1 -0.3291270E-004  0.2518982E+03  0.7818608E-02  0.1112111E+00
          5   -1    0    0  501    0  0.00000000000E+00  0.00000000000E+00  0.38575645983E+03  0.38578509082E+03  0.47000000000E+01 0. -1.
         -5   -1    0    0    0  501 -0.00000000000E+00 -0.00000000000E+00 -0.20967082389E+03  0.20972349509E+03  0.47000000000E+01 0.  1.
          6    1    1    2  502    0  0.11118773444E+03 -0.14664922778E+03  0.22633802616E+03  0.33864673390E+03  0.17200000000E+03 0. -1.
         -6    1    1    2    0  502 -0.11118773444E+03  0.14664922778E+03 -0.50252390220E+02  0.25686185201E+03  0.17200000000E+03 0.  1.
</event>
<event>
 4    1 -0.3291270E-004  0.2350789E+03  0.7818608E-02  0.1123115E+00
          5   -1    0    0  501    0  0.00000000000E+00  0.00000000000E+00  0.17120264878E+03  0.17126715082E+03  0.47000000000E+01 0. -1.
         -5   -1    0    0    0  501 -0.00000000000E+00 -0.00000000000E+00 -0.32280507332E+03  0.32283928720E+03  0.47000000000E+01 0.  1.
          6    1    1    2  502    0  0.15860861154E+03  0.22834346371E+02 -0.81297993019E+02  0.24873974893E+03  0.17200000000E+03 0. -1.
         -6    1    1    2    0  502 -0.15860861154E+03 -0.22834346371E+02 -0.70304431515E+02  0.24536668910E+03  0.17200000000E+03 0.  1.
</event>
<event>
 4    1 -0.3291270E-004  0.2066700E+03  0.7818608E-02  0.1144230E+00
          5   -1    0    0  501    0  0.00000000000E+00  0.00000000000E+00  0.30892909607E+03  0.30896484654E+03  0.47000000000E+01 0. -1.
         -5   -1    0    0    0  501 -0.00000000000E+00 -0.00000000000E+00 -0.13875301061E+03  0.13883258967E+03  0.47000000000E+01 0.  1.
          6    1    1    2  502    0 -0.11122329470E+03 -0.27529306492E+02  0.99519028652E+02  0.22938291363E+03  0.17200000000E+03 0. -1.
         -6    1    1    2    0  502  0.11122329470E+03  0.27529306492E+02  0.70657056808E+02  0.21841452259E+03  0.17200000000E+03 0.  1.
</event>
<event>
 4    1 -0.3291270E-004  0.1838924E+03  0.7818608E-02  0.1164088E+00
         -5   -1    0    0    0  501 -0.00000000000E+00  0.00000000000E+00  0.13649994974E+03  0.13658084155E+03  0.47000000000E+01 0.  1.
          5   -1    0    0  501    0  0.00000000000E+00 -0.00000000000E+00 -0.24814940385E+03  0.24819390934E+03  0.47000000000E+01 0. -1.
          6    1    1    2  502    0  0.64247603861E+02 -0.10230594288E+02 -0.65175935034E+02  0.19510080002E+03  0.17200000000E+03 0. -1.
         -6    1    1    2    0  502 -0.64247603861E+02  0.10230594288E+02 -0.46473519077E+02  0.18967395086E+03  0.17200000000E+03 0.  1.
</event>
<event>
 4    1 -0.3291270E-004  0.1909689E+03  0.7818608E-02  0.1157590E+00
         -5   -1    0    0    0  501 -0.00000000000E+00  0.00000000000E+00  0.64613128115E+03  0.64614837497E+03  0.47000000000E+01 0.  1.
          5   -1    0    0  501    0  0.00000000000E+00 -0.00000000000E+00 -0.56988862121E+02  0.57182343480E+02  0.47000000000E+01 0. -1.
          6    1    1    2  502    0  0.65238676272E+02  0.51273968159E+02  0.33241243452E+03  0.38336292377E+03  0.17200000000E+03 0.  1.
         -6    1    1    2    0  502 -0.65238676272E+02 -0.51273968159E+02  0.25672998450E+03  0.31996779469E+03  0.17200000000E+03 0. -1.
</event>
<event>
 4    1 -0.3291270E-004  0.1978041E+03  0.7818608E-02  0.1151605E+00
         -5   -1    0    0    0  501 -0.00000000000E+00  0.00000000000E+00  0.13151556777E+03  0.13159952343E+03  0.47000000000E+01 0.  1.
          5   -1    0    0  501    0  0.00000000000E+00 -0.00000000000E+00 -0.52984230645E+03  0.52986315187E+03  0.47000000000E+01 0. -1.
          6    1    1    2  502    0  0.91179183628E+02  0.35054350032E+02 -0.41824215000E+03  0.46265856419E+03  0.17200000000E+03 0. -1.
         -6    1    1    2    0  502 -0.91179183628E+02 -0.35054350032E+02  0.19915411320E+02  0.19880411110E+03  0.17200000000E+03 0.  1.
</event>
<event>
 4    1 -0.3291270E-004  0.2663530E+03  0.7818608E-02  0.1103385E+00
         -5   -1    0    0    0  501 -0.00000000000E+00  0.00000000000E+00  0.47860279996E+03  0.47862587699E+03  0.47000000000E+01 0.  1.
          5   -1    0    0  501    0  0.00000000000E+00 -0.00000000000E+00 -0.15107635608E+03  0.15114944713E+03  0.47000000000E+01 0. -1.
          6    1    1    2  502    0 -0.14769054132E+03 -0.13981212428E+03  0.12008287124E+03  0.29217087818E+03  0.17200000000E+03 0. -1.
         -6    1    1    2    0  502  0.14769054132E+03  0.13981212428E+03  0.20744357263E+03  0.33760444594E+03  0.17200000000E+03 0.  1.
</event>
<event>
 4    1 -0.3291270E-004  0.4266016E+03  0.7818608E-02  0.1034939E+00
         -5   -1    0    0    0  501 -0.00000000000E+00  0.00000000000E+00  0.57867785234E+03  0.57869693864E+03  0.47000000000E+01 0.  1.
          5   -1    0    0  501    0  0.00000000000E+00 -0.00000000000E+00 -0.31446622973E+03  0.31450135078E+03  0.47000000000E+01 0. -1.
          6    1    1    2  502    0  0.27753753578E+03  0.27455023332E+03  0.12880594928E+03  0.44562303234E+03  0.17200000000E+03 0.  1.
         -6    1    1    2    0  502 -0.27753753578E+03 -0.27455023332E+03  0.13540567333E+03  0.44757525708E+03  0.17200000000E+03 0. -1.
</event>
<event>
 4    1 -0.3291270E-004  0.1893592E+03  0.7818608E-02  0.1159041E+00
         -5   -1    0    0    0  501 -0.00000000000E+00  0.00000000000E+00  0.55290438679E+02  0.55489842398E+02  0.47000000000E+01 0.  1.
          5   -1    0    0  501    0  0.00000000000E+00 -0.00000000000E+00 -0.81249238089E+03  0.81250597475E+03  0.47000000000E+01 0. -1.
          6    1    1    2  502    0 -0.76054904827E+02 -0.22103556923E+02 -0.18284249856E+03  0.26322669898E+03  0.17200000000E+03 0.  1.
         -6    1    1    2    0  502  0.76054904827E+02  0.22103556923E+02 -0.57435944365E+03  0.60476911816E+03  0.17200000000E+03 0. -1.
</event>
<event>
 4    1 -0.3291270E-004  0.1836278E+03  0.7818608E-02  0.1164337E+00
          5   -1    0    0  501    0  0.00000000000E+00  0.00000000000E+00  0.21788470419E+02  0.22289626358E+02  0.47000000000E+01 0. -1.
         -5   -1    0    0    0  501 -0.00000000000E+00 -0.00000000000E+00 -0.15604743236E+04  0.15604814016E+04  0.47000000000E+01 0.  1.
          6    1    1    2  502    0 -0.64210799577E+02  0.34860603521E+01 -0.88087587277E+03  0.89981191514E+03  0.17200000000E+03 0.  1.
         -6    1    1    2    0  502  0.64210799577E+02 -0.34860603521E+01 -0.65780998041E+03  0.68295911278E+03  0.17200000000E+03 0. -1.
</event>
<event>
 4    1 -0.3291270E-004  0.1905831E+03  0.7818608E-02  0.1157937E+00
         -5   -1    0    0    0  501 -0.00000000000E+00  0.00000000000E+00  0.20114274480E+03  0.20119764856E+03  0.47000000000E+01 0.  1.
          5   -1    0    0  501    0  0.00000000000E+00 -0.00000000000E+00 -0.27633728204E+03  0.27637724842E+03  0.47000000000E+01 0. -1.
          6    1    1    2  502    0 -0.78299827072E+02 -0.24638174861E+02 -0.17821805543E+03  0.26092830023E+03  0.17200000000E+03 0. -1.
         -6    1    1    2    0  502  0.78299827072E+02  0.24638174861E+02  0.10302351820E+03  0.21664659675E+03  0.17200000000E+03 0.  1.
</event>
<event>
 4    1 -0.3291270E-004  0.1921777E+03  0.7818608E-02  0.1156512E+00
          5   -1    0    0  501    0  0.00000000000E+00  0.00000000000E+00  0.14355135987E+04  0.14355212928E+04  0.47000000000E+01 0. -1.
         -5   -1    0    0    0  501 -0.00000000000E+00 -0.00000000000E+00 -0.25567643350E+02  0.25996045593E+02  0.47000000000E+01 0.  1.
          6    1    1    2  502    0  0.69808328448E+02  0.49750139297E+02  0.66913237416E+03  0.69618274413E+03  0.17200000000E+03 0. -1.
         -6    1    1    2    0  502 -0.69808328448E+02 -0.49750139297E+02  0.74081358123E+03  0.76533459429E+03  0.17200000000E+03 0. -1.
</event>
<event>
 4    1 -0.3291270E-004  0.1914870E+03  0.7818608E-02  0.1157127E+00
         -5   -1    0    0    0  501 -0.00000000000E+00  0.00000000000E+00  0.61035055879E+03  0.61036865468E+03  0.47000000000E+01 0.  1.
          5   -1    0    0  501    0  0.00000000000E+00 -0.00000000000E+00 -0.60292447415E+02  0.60475360398E+02  0.47000000000E+01 0. -1.
          6    1    1    2  502    0 -0.46877789522E+02 -0.69898209696E+02  0.25034520699E+03  0.31518250195E+03  0.17200000000E+03 0.  1.
         -6    1    1    2    0  502  0.46877789522E+02  0.69898209696E+02  0.29971290438E+03  0.35566151313E+03  0.17200000000E+03 0. -1.
</event>
<event>
 4    1 -0.3291270E-004  0.1759870E+03  0.7818608E-02  0.1171744E+00
         -5   -1    0    0    0  501 -0.00000000000E+00  0.00000000000E+00  0.59340059293E+03  0.59341920570E+03  0.47000000000E+01 0.  1.
          5   -1    0    0  501    0  0.00000000000E+00 -0.00000000000E+00 -0.53145243320E+02  0.53352665234E+02  0.47000000000E+01 0. -1.
          6    1    1    2  502    0  0.29150974884E+02 -0.23187229354E+02  0.31607374509E+03  0.36176517145E+03  0.17200000000E+03 0.  1.
         -6    1    1    2    0  502 -0.29150974884E+02  0.23187229354E+02  0.22418160452E+03  0.28500669948E+03  0.17200000000E+03 0. -1.
</event>
<event>
 4    1 -0.3291270E-004  0.1947484E+03  0.7818608E-02  0.1154247E+00
          5   -1    0    0  501    0  0.00000000000E+00  0.00000000000E+00  0.10496181380E+04  0.10496286609E+04  0.47000000000E+01 0. -1.
         -5   -1    0    0    0  501 -0.00000000000E+00 -0.00000000000E+00 -0.44346048218E+02  0.44594416607E+02  0.47000000000E+01 0.  1.
          6    1    1    2  502    0 -0.15318167744E+02 -0.90045976160E+02  0.73963848101E+03  0.76484770162E+03  0.17200000000E+03 0. -1.
         -6    1    1    2    0  502  0.15318167744E+02  0.90045976160E+02  0.26563360882E+03  0.32937537586E+03  0.17200000000E+03 0.  1.
</event>
<event>
 4    1 -0.3291270E-004  0.2070234E+03  0.7818608E-02  0.1143945E+00
          5   -1    0    0  501    0  0.00000000000E+00  0.00000000000E+00  0.25834491990E+03  0.25838766928E+03  0.47000000000E+01 0. -1.
         -5   -1    0    0    0  501 -0.00000000000E+00 -0.00000000000E+00 -0.22076285270E+03  0.22081287810E+03  0.47000000000E+01 0.  1.
          6    1    1    2  502    0 -0.11241518785E+02  0.11466618359E+03  0.13830815348E+03  0.24897359443E+03  0.17200000000E+03 0. -1.
         -6    1    1    2    0  502  0.11241518785E+02 -0.11466618359E+03 -0.10072608629E+03  0.23022695295E+03  0.17200000000E+03 0.  1.
</event>
<event>
 4    1 -0.3291270E-004  0.5573297E+03  0.7818608E-02  0.9998115E-01
         -5   -1    0    0    0  501 -0.00000000000E+00  0.00000000000E+00  0.37643568039E+03  0.37646502025E+03  0.47000000000E+01 0.  1.
          5   -1    0    0  501    0  0.00000000000E+00 -0.00000000000E+00 -0.89405976975E+03  0.89407212343E+03  0.47000000000E+01 0. -1.
          6    1    1    2  502    0 -0.29188418325E+03 -0.44253367217E+03 -0.43525918061E+03  0.70715414284E+03  0.17200000000E+03 0. -1.
         -6    1    1    2    0  502  0.29188418325E+03  0.44253367217E+03 -0.82364908753E+02  0.56338300083E+03  0.17200000000E+03 0.  1.
</event>
<event>
 4    1 -0.3291270E-004  0.2999112E+03  0.7818608E-02  0.1085285E+00
         -5   -1    0    0    0  501 -0.00000000000E+00  0.00000000000E+00  0.43049612315E+03  0.43052177883E+03  0.47000000000E+01 0.  1.
          5   -1    0    0  501    0  0.00000000000E+00 -0.00000000000E+00 -0.33498949118E+03  0.33502246074E+03  0.47000000000E+01 0. -1.
          6    1    1    2  502    0  0.12659986722E+03  0.21055928092E+03 -0.18707785110E+03  0.35347540159E+03  0.17200000000E+03 0. -1.
         -6    1    1    2    0  502 -0.12659986722E+03 -0.21055928092E+03  0.28258448307E+03  0.41206883798E+03  0.17200000000E+03 0.  1.
</event>
<event>
 4    1 -0.3291270E-004  0.1827799E+03  0.7818608E-02  0.1165139E+00
          5   -1    0    0  501    0  0.00000000000E+00  0.00000000000E+00  0.30756519549E+03  0.30760110448E+03  0.47000000000E+01 0. -1.
         -5   -1    0    0    0  501 -0.00000000000E+00 -0.00000000000E+00 -0.21601942538E+03  0.21607054899E+03  0.47000000000E+01 0.  1.
          6    1    1    2  502    0 -0.61684948329E+02  0.44126893430E+01  0.23042481345E+03  0.29411579239E+03  0.17200000000E+03 0. -1.
         -6    1    1    2    0  502  0.61684948329E+02 -0.44126893430E+01 -0.13887904334E+03  0.22955586108E+03  0.17200000000E+03 0.  1.
</event>
<event>
 4    1 -0.3291270E-004  0.1777739E+03  0.7818608E-02  0.1169975E+00
          5   -1    0    0  501    0  0.00000000000E+00  0.00000000000E+00  0.10480745386E+04  0.10480850769E+04  0.47000000000E+01 0. -1.
         -5   -1    0    0    0  501 -0.00000000000E+00 -0.00000000000E+00 -0.30791947915E+02  0.31148580327E+02  0.47000000000E+01 0.  1.
          6    1    1    2  502    0 -0.11667152967E+01 -0.44924520067E+02  0.42047622030E+03  0.45651267842E+03  0.17200000000E+03 0.  1.
         -6    1    1    2    0  502  0.11667152967E+01  0.44924520067E+02  0.59680637038E+03  0.62272097882E+03  0.17200000000E+03 0. -1.
</event>
<event>
 4    1 -0.3291270E-004  0.2387132E+03  0.7818608E-02  0.1120653E+00
         -5   -1    0    0    0  501 -0.00000000000E+00  0.00000000000E+00  0.11425828094E+04  0.11425924761E+04  0.47000000000E+01 0.  1.
          5   -1    0    0  501    0  0.00000000000E+00 -0.00000000000E+00 -0.50023204622E+02  0.50243517001E+02  0.47000000000E+01 0. -1.
          6    1    1    2  502    0 -0.16552135006E+03  0.16290931826E+01  0.50249106530E+03  0.55631038277E+03  0.17200000000E+03 0. -1.
         -6    1    1    2    0  502  0.16552135006E+03 -0.16290931826E+01  0.59006853952E+03  0.63652561033E+03  0.17200000000E+03 0. -1.
</event>
<event>
 4    1 -0.3291270E-004  0.1808880E+03  0.7818608E-02  0.1166946E+00
          5   -1    0    0  501    0  0.00000000000E+00  0.00000000000E+00  0.18720901275E+03  0.18726800169E+03  0.47000000000E+01 0. -1.
         -5   -1    0    0    0  501 -0.00000000000E+00 -0.00000000000E+00 -0.17539104916E+03  0.17545401142E+03  0.47000000000E+01 0.  1.
          6    1    1    2  502    0 -0.40971755663E+02  0.38181024083E+02  0.17595223430E+02  0.18174175978E+03  0.17200000000E+03 0.  1.
         -6    1    1    2    0  502  0.40971755663E+02 -0.38181024083E+02 -0.57772598341E+01  0.18098025332E+03  0.17200000000E+03 0.  1.
</event>
<event>
 4    1 -0.3291270E-004  0.2256608E+03  0.7818608E-02  0.1129732E+00
         -5   -1    0    0    0  501 -0.00000000000E+00  0.00000000000E+00  0.35187934465E+03  0.35191073185E+03  0.47000000000E+01 0.  1.
          5   -1    0    0  501    0  0.00000000000E+00 -0.00000000000E+00 -0.14464910730E+03  0.14472544436E+03  0.47000000000E+01 0. -1.
          6    1    1    2  502    0  0.98911225746E+02  0.10749585948E+03  0.10551773721E+03  0.24911198937E+03  0.17200000000E+03 0. -1.
         -6    1    1    2    0  502 -0.98911225746E+02 -0.10749585948E+03  0.10171250013E+03  0.24752418683E+03  0.17200000000E+03 0.  1.
</event>
<event>
 4    1 -0.3291270E-004  0.1779501E+03  0.7818608E-02  0.1169802E+00
         -5   -1    0    0    0  501 -0.00000000000E+00  0.00000000000E+00  0.35649108703E+03  0.35652206822E+03  0.47000000000E+01 0.  1.
          5   -1    0    0  501    0  0.00000000000E+00 -0.00000000000E+00 -0.10335460811E+03  0.10346141802E+03  0.47000000000E+01 0. -1.
          6    1    1    2  502    0  0.27413086406E+02 -0.36479372813E+02  0.40116370846E+02  0.18241585775E+03  0.17200000000E+03 0. -1.
         -6    1    1    2    0  502 -0.27413086406E+02  0.36479372813E+02  0.21302010807E+03  0.27756762849E+03  0.17200000000E+03 0.  1.
</event>
<event>
 4    1 -0.3291270E-004  0.2088413E+03  0.7818608E-02  0.1142487E+00
          5   -1    0    0  501    0  0.00000000000E+00  0.00000000000E+00  0.69268389788E+02  0.69427658925E+02  0.47000000000E+01 0. -1.
         -5   -1    0    0    0  501 -0.00000000000E+00 -0.00000000000E+00 -0.68876089021E+03  0.68877692606E+03  0.47000000000E+01 0.  1.
          6    1    1    2  502    0  0.10871029489E+03 -0.47039826262E+02 -0.19786474514E+03  0.28768929566E+03  0.17200000000E+03 0.  1.
         -6    1    1    2    0  502 -0.10871029489E+03  0.47039826262E+02 -0.42162775528E+03  0.47051528933E+03  0.17200000000E+03 0.  1.
</event>
<event>
 4    1 -0.3291270E-004  0.2192259E+03  0.7818608E-02  0.1134461E+00
         -5   -1    0    0    0  501 -0.00000000000E+00  0.00000000000E+00  0.12197696563E+04  0.12197787112E+04  0.47000000000E+01 0.  1.
          5   -1    0    0  501    0  0.00000000000E+00 -0.00000000000E+00 -0.42824790365E+02  0.43081929736E+02  0.47000000000E+01 0. -1.
          6    1    1    2  502    0  0.59025381170E+02  0.12244189341E+03  0.40666656773E+03  0.46199319280E+03  0.17200000000E+03 0.  1.
         -6    1    1    2    0  502 -0.59025381170E+02 -0.12244189341E+03  0.77027829819E+03  0.80086744818E+03  0.17200000000E+03 0. -1.
</event>
<event>
 4    1 -0.3291270E-004  0.2138457E+03  0.7818608E-02  0.1138556E+00
          5   -1    0    0  501    0  0.00000000000E+00  0.00000000000E+00  0.72193153225E+02  0.72345983804E+02  0.47000000000E+01 0. -1.
         -5   -1    0    0    0  501 -0.00000000000E+00 -0.00000000000E+00 -0.76208927942E+03  0.76210377233E+03  0.47000000000E+01 0.  1.
          6    1    1    2  502    0 -0.11866662864E+03  0.45433399140E+02 -0.17298975834E+03  0.27505530171E+03  0.17200000000E+03 0. -1.
         -6    1    1    2    0  502  0.11866662864E+03 -0.45433399140E+02 -0.51690636785E+03  0.55939445442E+03  0.17200000000E+03 0.  1.
</event>
<event>
 4    1 -0.3291270E-004  0.1870218E+03  0.7818608E-02  0.1161175E+00
          5   -1    0    0  501    0  0.00000000000E+00  0.00000000000E+00  0.31927818319E+03  0.31931277497E+03  0.47000000000E+01 0. -1.
         -5   -1    0    0    0  501 -0.00000000000E+00 -0.00000000000E+00 -0.11979914112E+03  0.11989130166E+03  0.47000000000E+01 0.  1.
          6    1    1    2  502    0 -0.53822050000E+02  0.49963292799E+02  0.16421876500E+03  0.24888741726E+03  0.17200000000E+03 0. -1.
         -6    1    1    2    0  502  0.53822050000E+02 -0.49963292799E+02  0.35260277073E+02  0.19031665937E+03  0.17200000000E+03 0.  1.
</event>
<event>
 4    1 -0.3291270E-004  0.1791752E+03  0.7818608E-02  0.1168604E+00
          5   -1    0    0  501    0  0.00000000000E+00  0.00000000000E+00  0.79924875155E+02  0.80062948163E+02  0.47000000000E+01 0. -1.
         -5   -1    0    0    0  501 -0.00000000000E+00 -0.00000000000E+00 -0.11752667438E+04  0.11752761416E+04  0.47000000000E+01 0.  1.
          6    1    1    2  502    0 -0.15278658023E+02  0.47815474196E+02 -0.38304944998E+02  0.18322397707E+03  0.17200000000E+03 0. -1.
         -6    1    1    2    0  502  0.15278658023E+02 -0.47815474196E+02 -0.10570369237E+04  0.10721151127E+04  0.17200000000E+03 0.  1.
</event>
<event>
 4    1 -0.3291270E-004  0.2148892E+03  0.7818608E-02  0.1137752E+00
          5   -1    0    0  501    0  0.00000000000E+00  0.00000000000E+00  0.54665031569E+03  0.54667052019E+03  0.47000000000E+01 0. -1.
         -5   -1    0    0    0  501 -0.00000000000E+00 -0.00000000000E+00 -0.13203864595E+03  0.13212226922E+03  0.47000000000E+01 0.  1.
          6    1    1    2  502    0 -0.64246415041E+02 -0.11165016089E+03  0.41109921674E+03  0.46387490370E+03  0.17200000000E+03 0. -1.
         -6    1    1    2    0  502  0.64246415041E+02  0.11165016089E+03  0.35124529932E+01  0.21491788571E+03  0.17200000000E+03 0.  1.
</event>
<event>
 4    1 -0.3291270E-004  0.1869832E+03  0.7818608E-02  0.1161211E+00
          5   -1    0    0  501    0  0.00000000000E+00  0.00000000000E+00  0.92614531673E+02  0.92733712732E+02  0.47000000000E+01 0. -1.
         -5   -1    0    0    0  501 -0.00000000000E+00 -0.00000000000E+00 -0.81535960288E+03  0.81537314894E+03  0.47000000000E+01 0.  1.
          6    1    1    2  502    0  0.14920720881E+02 -0.71805928801E+02 -0.28525180590E+02  0.18914651794E+03  0.17200000000E+03 0. -1.
         -6    1    1    2    0  502 -0.14920720881E+02  0.71805928801E+02 -0.69421989062E+03  0.71896034373E+03  0.17200000000E+03 0.  1.
</event>
<event>
 4    1 -0.3291270E-004  0.1778879E+03  0.7818608E-02  0.1169863E+00
          5   -1    0    0  501    0  0.00000000000E+00  0.00000000000E+00  0.13095344698E+03  0.13103776279E+03  0.47000000000E+01 0. -1.
         -5   -1    0    0    0  501 -0.00000000000E+00 -0.00000000000E+00 -0.35440523761E+03  0.35443640113E+03  0.47000000000E+01 0.  1.
          6    1    1    2  502    0  0.24623230007E+02  0.38128830720E+02  0.25282349354E+02  0.17967556422E+03  0.17200000000E+03 0. -1.
         -6    1    1    2    0  502 -0.24623230007E+02 -0.38128830720E+02 -0.24873413998E+03  0.30579859970E+03  0.17200000000E+03 0.  1.
</event>
<event>
 4    1 -0.3291270E-004  0.2611381E+03  0.7818608E-02  0.1106461E+00
          5   -1    0    0  501    0  0.00000000000E+00  0.00000000000E+00  0.59458651786E+03  0.59460509350E+03  0.47000000000E+01 0. -1.
         -5   -1    0    0    0  501 -0.00000000000E+00 -0.00000000000E+00 -0.11733411960E+03  0.11742821476E+03  0.47000000000E+01 0.  1.
          6    1    1    2  502    0  0.15971616731E+02  0.19584187173E+03  0.29273200584E+03  0.39228198851E+03  0.17200000000E+03 0. -1.
         -6    1    1    2    0  502 -0.15971616731E+02 -0.19584187173E+03  0.18452039242E+03  0.31975131975E+03  0.17200000000E+03 0.  1.
</event>
<event>
 4    1 -0.3291270E-004  0.2632158E+03  0.7818608E-02  0.1105226E+00
          5   -1    0    0  501    0  0.00000000000E+00  0.00000000000E+00  0.46935257141E+03  0.46937610323E+03  0.47000000000E+01 0. -1.
         -5   -1    0    0    0  501 -0.00000000000E+00 -0.00000000000E+00 -0.15191755057E+03  0.15199023709E+03  0.47000000000E+01 0.  1.
          6    1    1    2  502    0 -0.14034983372E+03 -0.14142311642E+03  0.21138860686E+03  0.33759104964E+03  0.17200000000E+03 0. -1.
         -6    1    1    2    0  502  0.14034983372E+03  0.14142311642E+03  0.10604641398E+03  0.28377529068E+03  0.17200000000E+03 0.  1.
</event>
<event>
 4    1 -0.3291270E-004  0.1782594E+03  0.7818608E-02  0.1169498E+00
         -5   -1    0    0    0  501 -0.00000000000E+00  0.00000000000E+00  0.12357149495E+03  0.12366084411E+03  0.47000000000E+01 0.  1.
          5   -1    0    0  501    0  0.00000000000E+00 -0.00000000000E+00 -0.38334132732E+03  0.38337013868E+03  0.47000000000E+01 0. -1.
          6    1    1    2  502    0 -0.87419258791E+01  0.45999861174E+02 -0.27543279814E+03  0.32808479816E+03  0.17200000000E+03 0. -1.
         -6    1    1    2    0  502  0.87419258791E+01 -0.45999861174E+02  0.15662965766E+02  0.17894618463E+03  0.17200000000E+03 0.  1.
</event>
<event>
 4    1 -0.3291270E-004  0.3197925E+03  0.7818608E-02  0.1075745E+00
          5   -1    0    0  501    0  0.00000000000E+00  0.00000000000E+00  0.58955708948E+03  0.58957582358E+03  0.47000000000E+01 0. -1.
         -5   -1    0    0    0  501 -0.00000000000E+00 -0.00000000000E+00 -0.31321641570E+03  0.31325167687E+03  0.47000000000E+01 0.  1.
          6    1    1    2  502    0  0.21799701423E+03  0.15862068916E+03  0.43972565434E+03  0.54371488147E+03  0.17200000000E+03 0. -1.
         -6    1    1    2    0  502 -0.21799701423E+03 -0.15862068916E+03 -0.16338498056E+03  0.35911261899E+03  0.17200000000E+03 0.  1.
</event>
<event>
 4    1 -0.3291270E-004  0.2329062E+03  0.7818608E-02  0.1124611E+00
          5   -1    0    0  501    0  0.00000000000E+00  0.00000000000E+00  0.21808803247E+03  0.21813867128E+03  0.47000000000E+01 0. -1.
         -5   -1    0    0    0  501 -0.00000000000E+00 -0.00000000000E+00 -0.27032581189E+03  0.27036666691E+03  0.47000000000E+01 0.  1.
          6    1    1    2  502    0  0.10625255995E+03 -0.11563604255E+03  0.43066392383E+02  0.23685441728E+03  0.17200000000E+03 0.  1.
         -6    1    1    2    0  502 -0.10625255995E+03  0.11563604255E+03 -0.95304171804E+02  0.25165092091E+03  0.17200000000E+03 0.  1.
</event>
<event>
 4    1 -0.3291270E-004  0.1878724E+03  0.7818608E-02  0.1160394E+00
          5   -1    0    0  501    0  0.00000000000E+00  0.00000000000E+00  0.23225874873E+03  0.23230629858E+03  0.47000000000E+01 0. -1.
         -5   -1    0    0    0  501 -0.00000000000E+00 -0.00000000000E+00 -0.16235814227E+03  0.16242615665E+03  0.47000000000E+01 0.  1.
          6    1    1    2  502    0  0.54376132453E+02  0.52490613551E+02  0.85097429570E+02  0.20624645648E+03  0.17200000000E+03 0. -1.
         -6    1    1    2    0  502 -0.54376132453E+02 -0.52490613551E+02 -0.15196823113E+02  0.18848599875E+03  0.17200000000E+03 0.  1.
</event>
<event>
 4    1 -0.3291270E-004  0.1780928E+03  0.7818608E-02  0.1169662E+00
          5   -1    0    0  501    0  0.00000000000E+00  0.00000000000E+00  0.11695098224E+03  0.11704538542E+03  0.47000000000E+01 0. -1.
         -5   -1    0    0    0  501 -0.00000000000E+00 -0.00000000000E+00 -0.33384790460E+03  0.33388098689E+03  0.47000000000E+01 0.  1.
          6    1    1    2  502    0  0.33174411922E+02  0.32132519865E+02 -0.10624137698E+02  0.17840939645E+03  0.17200000000E+03 0. -1.
         -6    1    1    2    0  502 -0.33174411922E+02 -0.32132519865E+02 -0.20627278466E+03  0.27251697585E+03  0.17200000000E+03 0.  1.
</event>
<event>
 4    1 -0.3291270E-004  0.2744029E+03  0.7818608E-02  0.1098786E+00
          5   -1    0    0  501    0  0.00000000000E+00  0.00000000000E+00  0.10586704422E+04  0.10586808750E+04  0.47000000000E+01 0. -1.
         -5   -1    0    0    0  501 -0.00000000000E+00 -0.00000000000E+00 -0.81884834919E+02  0.82019608568E+02  0.47000000000E+01 0.  1.
          6    1    1    2  502    0 -0.14850422880E+03 -0.15381629582E+03  0.28098419431E+03  0.39274556176E+03  0.17200000000E+03 0. -1.
         -6    1    1    2    0  502  0.14850422880E+03  0.15381629582E+03  0.69580141293E+03  0.74795492182E+03  0.17200000000E+03 0.  1.
</event>
<event>
 4    1 -0.3291270E-004  0.2135321E+03  0.7818608E-02  0.1138799E+00
          5   -1    0    0  501    0  0.00000000000E+00  0.00000000000E+00  0.13020120863E+03  0.13028601126E+03  0.47000000000E+01 0. -1.
         -5   -1    0    0    0  501 -0.00000000000E+00 -0.00000000000E+00 -0.39065822597E+03  0.39068649774E+03  0.47000000000E+01 0.  1.
          6    1    1    2  502    0 -0.11494081273E+03 -0.52920465171E+02 -0.21427025934E+03  0.30250241338E+03  0.17200000000E+03 0. -1.
         -6    1    1    2    0  502  0.11494081273E+03  0.52920465171E+02 -0.46186757995E+02  0.21847009562E+03  0.17200000000E+03 0.  1.
</event>
<event>
 4    1 -0.3291270E-004  0.1892031E+03  0.7818608E-02  0.1159182E+00
          5   -1    0    0  501    0  0.00000000000E+00  0.00000000000E+00  0.27295161917E+03  0.27299208122E+03  0.47000000000E+01 0. -1.
         -5   -1    0    0    0  501 -0.00000000000E+00 -0.00000000000E+00 -0.17685928279E+03  0.17692172255E+03  0.47000000000E+01 0.  1.
          6    1    1    2  502    0  0.36385258938E+02  0.69928085107E+02  0.16248730595E+03  0.24939917552E+03  0.17200000000E+03 0. -1.
         -6    1    1    2    0  502 -0.36385258938E+02 -0.69928085107E+02 -0.66394969574E+02  0.20051462824E+03  0.17200000000E+03 0.  1.
</event>
<event>
 4    1 -0.3291270E-004  0.3370764E+03  0.7818608E-02  0.1068048E+00
          5   -1    0    0  501    0  0.00000000000E+00  0.00000000000E+00  0.76575721192E+02  0.76719821924E+02  0.47000000000E+01 0. -1.
         -5   -1    0    0    0  501 -0.00000000000E+00 -0.00000000000E+00 -0.16015016470E+04  0.16015085436E+04  0.47000000000E+01 0.  1.
          6    1    1    2  502    0  0.28942997077E+03  0.16333530667E+02 -0.53347296648E+03  0.63104191475E+03  0.17200000000E+03 0. -1.
         -6    1    1    2    0  502 -0.28942997077E+03 -0.16333530667E+02 -0.99145295929E+03  0.10471864508E+04  0.17200000000E+03 0.  1.
</event>
<event>
 4    1 -0.3291270E-004  0.2234395E+03  0.7818608E-02  0.1131344E+00
          5   -1    0    0  501    0  0.00000000000E+00  0.00000000000E+00  0.48797434862E+02  0.49023256207E+02  0.47000000000E+01 0. -1.
         -5   -1    0    0    0  501 -0.00000000000E+00 -0.00000000000E+00 -0.13468180071E+04  0.13468262079E+04  0.47000000000E+01 0.  1.
          6    1    1    2  502    0 -0.95842653538E+01  0.14230018862E+03 -0.30551191513E+03  0.37850063687E+03  0.17200000000E+03 0. -1.
         -6    1    1    2    0  502  0.95842653538E+01 -0.14230018862E+03 -0.99250865714E+03  0.10173488273E+04  0.17200000000E+03 0.  1.
</event>
<event>
 4    1 -0.3291270E-004  0.2119768E+03  0.7818608E-02  0.1140010E+00
          5   -1    0    0  501    0  0.00000000000E+00  0.00000000000E+00  0.77733396931E+03  0.77734817800E+03  0.47000000000E+01 0. -1.
         -5   -1    0    0    0  501 -0.00000000000E+00 -0.00000000000E+00 -0.15035368629E+03  0.15042712848E+03  0.47000000000E+01 0.  1.
          6    1    1    2  502    0  0.51237332371E+02  0.11280460468E+03  0.67747808471E+03  0.70986667645E+03  0.17200000000E+03 0. -1.
         -6    1    1    2    0  502 -0.51237332371E+02 -0.11280460468E+03 -0.50497801698E+02  0.21790863003E+03  0.17200000000E+03 0.  1.
</event>
<event>
 4    1 -0.3291270E-004  0.2040865E+03  0.7818608E-02  0.1146336E+00
         -5   -1    0    0    0  501 -0.00000000000E+00  0.00000000000E+00  0.26859275837E+03  0.26863387696E+03  0.47000000000E+01 0.  1.
          5   -1    0    0  501    0  0.00000000000E+00 -0.00000000000E+00 -0.15925579841E+03  0.15932513714E+03  0.47000000000E+01 0. -1.
          6    1    1    2  502    0 -0.24170638934E+02  0.10715913981E+03  0.19634194935E+02  0.20502878491E+03  0.17200000000E+03 0. -1.
         -6    1    1    2    0  502  0.24170638934E+02 -0.10715913981E+03  0.89702765029E+02  0.22293022919E+03  0.17200000000E+03 0.  1.
</event>
<event>
 4    1 -0.3291270E-004  0.1764482E+03  0.7818608E-02  0.1171285E+00
         -5   -1    0    0    0  501 -0.00000000000E+00  0.00000000000E+00  0.17445206998E+02  0.18067242379E+02  0.47000000000E+01 0.  1.
          5   -1    0    0  501    0  0.00000000000E+00 -0.00000000000E+00 -0.27402640975E+04  0.27402681281E+04  0.47000000000E+01 0. -1.
          6    1    1    2  502    0 -0.19032927185E+02  0.34463393174E+02 -0.21892271761E+04  0.21963263888E+04  0.17200000000E+03 0. -1.
         -6    1    1    2    0  502  0.19032927185E+02 -0.34463393174E+02 -0.53359171439E+03  0.56200898164E+03  0.17200000000E+03 0.  1.
</event>
<event>
 4    1 -0.3291270E-004  0.1843708E+03  0.7818608E-02  0.1163639E+00
         -5   -1    0    0    0  501 -0.00000000000E+00  0.00000000000E+00  0.13655429163E+03  0.13663515127E+03  0.47000000000E+01 0.  1.
          5   -1    0    0  501    0  0.00000000000E+00 -0.00000000000E+00 -0.33094876012E+03  0.33098213218E+03  0.47000000000E+01 0. -1.
          6    1    1    2  502    0 -0.40449426723E+02 -0.52654065791E+02 -0.21369639698E+03  0.28223882945E+03  0.17200000000E+03 0. -1.
         -6    1    1    2    0  502  0.40449426723E+02  0.52654065791E+02  0.19301928488E+02  0.18537845401E+03  0.17200000000E+03 0.  1.
</event>
<event>
 4    1 -0.3291270E-004  0.2941205E+03  0.7818608E-02  0.1088217E+00
         -5   -1    0    0    0  501 -0.00000000000E+00  0.00000000000E+00  0.28358541307E+03  0.28362435810E+03  0.47000000000E+01 0.  1.
          5   -1    0    0  501    0  0.00000000000E+00 -0.00000000000E+00 -0.31200184023E+03  0.31203723866E+03  0.47000000000E+01 0. -1.
          6    1    1    2  502    0  0.46090210558E+02 -0.23409097671E+03  0.30501601382E+02  0.29569788733E+03  0.17200000000E+03 0. -1.
         -6    1    1    2    0  502 -0.46090210558E+02  0.23409097671E+03 -0.58918028542E+02  0.29996370943E+03  0.17200000000E+03 0.  1.
</event>
<event>
 4    1 -0.3291270E-004  0.3722358E+03  0.7818608E-02  0.1053841E+00
         -5   -1    0    0    0  501 -0.00000000000E+00  0.00000000000E+00  0.50110088457E+03  0.50112292556E+03  0.47000000000E+01 0.  1.
          5   -1    0    0  501    0  0.00000000000E+00 -0.00000000000E+00 -0.31878933824E+03  0.31882398306E+03  0.47000000000E+01 0. -1.
          6    1    1    2  502    0 -0.25457939536E+03  0.21015429657E+03 -0.58217695806E+02  0.37676092820E+03  0.17200000000E+03 0. -1.
         -6    1    1    2    0  502  0.25457939536E+03 -0.21015429657E+03  0.24052924214E+03  0.44318598041E+03  0.17200000000E+03 0.  1.
</event>
<event>
 4    1 -0.3291270E-004  0.1906894E+03  0.7818608E-02  0.1157841E+00
          5   -1    0    0  501    0  0.00000000000E+00  0.00000000000E+00  0.39416548068E+03  0.39419350091E+03  0.47000000000E+01 0. -1.
         -5   -1    0    0    0  501 -0.00000000000E+00 -0.00000000000E+00 -0.14037579232E+03  0.14045445194E+03  0.47000000000E+01 0.  1.
          6    1    1    2  502    0 -0.78345515345E+02 -0.25306772274E+02  0.28349319772E+03  0.34165896103E+03  0.17200000000E+03 0. -1.
         -6    1    1    2    0  502  0.78345515345E+02  0.25306772274E+02 -0.29703509357E+02  0.19298899183E+03  0.17200000000E+03 0.  1.
</event>
<event>
 4    1 -0.3291270E-004  0.2196635E+03  0.7818608E-02  0.1134134E+00
         -5   -1    0    0    0  501 -0.00000000000E+00  0.00000000000E+00  0.12800691813E+03  0.12809317347E+03  0.47000000000E+01 0.  1.
          5   -1    0    0  501    0  0.00000000000E+00 -0.00000000000E+00 -0.43332072301E+03  0.43334621146E+03  0.47000000000E+01 0. -1.
          6    1    1    2  502    0  0.10395823803E+03 -0.88660790180E+02 -0.25409912074E+03  0.33588452499E+03  0.17200000000E+03 0. -1.
         -6    1    1    2    0  502 -0.10395823803E+03  0.88660790180E+02 -0.51214684135E+02  0.22555485994E+03  0.17200000000E+03 0.  1.
</event>
<event>
 4    1 -0.3291270E-004  0.3329516E+03  0.7818608E-02  0.1069838E+00
         -5   -1    0    0    0  501 -0.00000000000E+00  0.00000000000E+00  0.47989044618E+03  0.47991346130E+03  0.47000000000E+01 0.  1.
          5   -1    0    0  501    0  0.00000000000E+00 -0.00000000000E+00 -0.24600977246E+03  0.24605466496E+03  0.47000000000E+01 0. -1.
          6    1    1    2  502    0  0.66173101640E+02  0.27729749219E+03  0.27149456976E+02  0.33405668916E+03  0.17200000000E+03 0. -1.
         -6    1    1    2    0  502 -0.66173101640E+02 -0.27729749219E+03  0.20673121674E+03  0.39191143710E+03  0.17200000000E+03 0.  1.
</event>
<event>
 4    1 -0.3291270E-004  0.3096542E+03  0.7818608E-02  0.1080512E+00
          5   -1    0    0  501    0  0.00000000000E+00  0.00000000000E+00  0.21545104064E+03  0.21550229909E+03  0.47000000000E+01 0. -1.
         -5   -1    0    0    0  501 -0.00000000000E+00 -0.00000000000E+00 -0.50989009482E+03  0.50991175589E+03  0.47000000000E+01 0.  1.
          6    1    1    2  502    0  0.25409007503E+03  0.41712990515E+02 -0.17767305454E+02  0.31016353259E+03  0.17200000000E+03 0. -1.
         -6    1    1    2    0  502 -0.25409007503E+03 -0.41712990515E+02 -0.27667174873E+03  0.41525052239E+03  0.17200000000E+03 0.  1.
</event>
<event>
 4    1 -0.3291270E-004  0.1732044E+03  0.7818608E-02  0.1174547E+00
         -5   -1    0    0    0  501 -0.00000000000E+00  0.00000000000E+00  0.10067085599E+04  0.10067195312E+04  0.47000000000E+01 0.  1.
          5   -1    0    0  501    0  0.00000000000E+00 -0.00000000000E+00 -0.32222168759E+02  0.32563141119E+02  0.47000000000E+01 0. -1.
          6    1    1    2  502    0  0.78269761565E+01  0.18828354123E+02  0.33993667711E+03  0.38151895486E+03  0.17200000000E+03 0. -1.
         -6    1    1    2    0  502 -0.78269761565E+01 -0.18828354123E+02  0.63454971400E+03  0.65776371746E+03  0.17200000000E+03 0.  1.
</event>
<event>
 4    1 -0.3291270E-004  0.1938826E+03  0.7818608E-02  0.1155005E+00
          5   -1    0    0  501    0  0.00000000000E+00  0.00000000000E+00  0.24779508416E+03  0.24783965327E+03  0.47000000000E+01 0. -1.
         -5   -1    0    0    0  501 -0.00000000000E+00 -0.00000000000E+00 -0.26369283096E+03  0.26373471349E+03  0.47000000000E+01 0.  1.
          6    1    1    2  502    0  0.64627674578E+02  0.61884912647E+02  0.15878524812E+03  0.25060573369E+03  0.17200000000E+03 0. -1.
         -6    1    1    2    0  502 -0.64627674578E+02 -0.61884912647E+02 -0.17468299492E+03  0.26096863307E+03  0.17200000000E+03 0.  1.
</event>
<event>
 4    1 -0.3291270E-004  0.1850289E+03  0.7818608E-02  0.1163023E+00
          5   -1    0    0  501    0  0.00000000000E+00  0.00000000000E+00  0.15645015565E+03  0.15652073730E+03  0.47000000000E+01 0. -1.
         -5   -1    0    0    0  501 -0.00000000000E+00 -0.00000000000E+00 -0.39058223310E+03  0.39061051038E+03  0.47000000000E+01 0.  1.
          6    1    1    2  502    0 -0.34551979691E+01 -0.68115671592E+02  0.64394118300E+02  0.19591397495E+03  0.17200000000E+03 0. -1.
         -6    1    1    2    0  502  0.34551979691E+01  0.68115671592E+02 -0.29852619575E+03  0.35121727272E+03  0.17200000000E+03 0.  1.
</event>
<event>
 4    1 -0.3291270E-004  0.3294080E+03  0.7818608E-02  0.1071399E+00
         -5   -1    0    0    0  501 -0.00000000000E+00  0.00000000000E+00  0.38585130190E+03  0.38587992585E+03  0.47000000000E+01 0.  1.
          5   -1    0    0  501    0  0.00000000000E+00 -0.00000000000E+00 -0.51248014722E+03  0.51250169882E+03  0.47000000000E+01 0. -1.
          6    1    1    2  502    0  0.22389078346E+03  0.16970140378E+03 -0.36508125384E+03  0.49172550398E+03  0.17200000000E+03 0. -1.
         -6    1    1    2    0  502 -0.22389078346E+03 -0.16970140378E+03  0.23845240852E+03  0.40665612069E+03  0.17200000000E+03 0.  1.
</event>
<event>
 4    1 -0.3291270E-004  0.2292372E+03  0.7818608E-02  0.1127178E+00
         -5   -1    0    0    0  501 -0.00000000000E+00  0.00000000000E+00  0.11113554557E+03  0.11123488432E+03  0.47000000000E+01 0.  1.
          5   -1    0    0  501    0  0.00000000000E+00 -0.00000000000E+00 -0.55447783841E+03  0.55449775769E+03  0.47000000000E+01 0. -1.
          6    1    1    2  502    0  0.10956462287E+03  0.10469620512E+03 -0.34963072085E+03  0.41808054597E+03  0.17200000000E+03 0. -1.
         -6    1    1    2    0  502 -0.10956462287E+03 -0.10469620512E+03 -0.93711571985E+02  0.24765209605E+03  0.17200000000E+03 0.  1.
</event>
<event>
 4    1 -0.3291270E-004  0.2020898E+03  0.7818608E-02  0.1147988E+00
         -5   -1    0    0    0  501 -0.00000000000E+00  0.00000000000E+00  0.93504403875E+02  0.93622452136E+02  0.47000000000E+01 0.  1.
          5   -1    0    0  501    0  0.00000000000E+00 -0.00000000000E+00 -0.61130776303E+03  0.61132583058E+03  0.47000000000E+01 0. -1.
          6    1    1    2  502    0 -0.51787744440E+02 -0.92597547598E+02 -0.70366473847E+02  0.21398999261E+03  0.17200000000E+03 0.  1.
         -6    1    1    2    0  502  0.51787744440E+02  0.92597547598E+02 -0.44743688530E+03  0.49095829011E+03  0.17200000000E+03 0. -1.
</event>
<event>
 4    1 -0.3291270E-004  0.2014244E+03  0.7818608E-02  0.1148543E+00
         -5   -1    0    0    0  501 -0.00000000000E+00  0.00000000000E+00  0.21225851339E+04  0.21225903375E+04  0.47000000000E+01 0.  1.
          5   -1    0    0  501    0  0.00000000000E+00 -0.00000000000E+00 -0.30424287297E+02  0.30785179186E+02  0.47000000000E+01 0. -1.
          6    1    1    2  502    0 -0.87658215196E+02 -0.57478854757E+02  0.38626106283E+03  0.43562528633E+03  0.17200000000E+03 0. -1.
         -6    1    1    2    0  502  0.87658215196E+02  0.57478854757E+02  0.17058997838E+04  0.17177502304E+04  0.17200000000E+03 0.  1.
</event>
<event>
 4    1 -0.3291270E-004  0.2702442E+03  0.7818608E-02  0.1101140E+00
         -5   -1    0    0    0  501 -0.00000000000E+00  0.00000000000E+00  0.16385084496E+03  0.16391823996E+03  0.47000000000E+01 0.  1.
          5   -1    0    0  501    0  0.00000000000E+00 -0.00000000000E+00 -0.53494893021E+03  0.53496957664E+03  0.47000000000E+01 0. -1.
          6    1    1    2  502    0  0.20157117288E+03 -0.53075327474E+02 -0.32838893311E+03  0.42528957136E+03  0.17200000000E+03 0. -1.
         -6    1    1    2    0  502 -0.20157117288E+03  0.53075327474E+02 -0.42709152137E+02  0.27359824524E+03  0.17200000000E+03 0.  1.
</event>
<event>
 4    1 -0.3291270E-004  0.2127781E+03  0.7818608E-02  0.1139385E+00
         -5   -1    0    0    0  501 -0.00000000000E+00  0.00000000000E+00  0.32063323448E+03  0.32066768009E+03  0.47000000000E+01 0.  1.
          5   -1    0    0  501    0  0.00000000000E+00 -0.00000000000E+00 -0.15386581368E+03  0.15393758027E+03  0.47000000000E+01 0. -1.
          6    1    1    2  502    0  0.58126669160E+02  0.11095856695E+03  0.15165247063E+03  0.26129099697E+03  0.17200000000E+03 0.  1.
         -6    1    1    2    0  502 -0.58126669160E+02 -0.11095856695E+03  0.15114950165E+02  0.21331426339E+03  0.17200000000E+03 0. -1.
</event>
<event>
 4    1 -0.3291270E-004  0.2265451E+03  0.7818608E-02  0.1129095E+00
          5   -1    0    0  501    0  0.00000000000E+00  0.00000000000E+00  0.31410159011E+03  0.31413675192E+03  0.47000000000E+01 0. -1.
         -5   -1    0    0    0  501 -0.00000000000E+00 -0.00000000000E+00 -0.22769306763E+03  0.22774157075E+03  0.47000000000E+01 0.  1.
          6    1    1    2  502    0 -0.13424702228E+03 -0.60962367669E+02  0.18723995462E+03  0.29390725385E+03  0.17200000000E+03 0. -1.
         -6    1    1    2    0  502  0.13424702228E+03  0.60962367669E+02 -0.10083143214E+03  0.24797106881E+03  0.17200000000E+03 0.  1.
</event>
<event>
 4    1 -0.3291270E-004  0.2421300E+03  0.7818608E-02  0.1118382E+00
          5   -1    0    0  501    0  0.00000000000E+00  0.00000000000E+00  0.61064565059E+03  0.61066373773E+03  0.47000000000E+01 0. -1.
         -5   -1    0    0    0  501 -0.00000000000E+00 -0.00000000000E+00 -0.30115237048E+03  0.30118904404E+03  0.47000000000E+01 0.  1.
          6    1    1    2  502    0 -0.16918558990E+03  0.20473852451E+02  0.53105602996E+03  0.58365010873E+03  0.17200000000E+03 0. -1.
         -6    1    1    2    0  502  0.16918558990E+03 -0.20473852451E+02 -0.22156274986E+03  0.32820267304E+03  0.17200000000E+03 0.  1.
</event>
<event>
 4    1 -0.3291270E-004  0.1945938E+03  0.7818608E-02  0.1154382E+00
         -5   -1    0    0    0  501 -0.00000000000E+00  0.00000000000E+00  0.19318581245E+03  0.19324297693E+03  0.47000000000E+01 0.  1.
          5   -1    0    0  501    0  0.00000000000E+00 -0.00000000000E+00 -0.20822190224E+03  0.20827493986E+03  0.47000000000E+01 0. -1.
          6    1    1    2  502    0  0.42242804455E+02  0.80611877523E+02  0.41310764565E+02  0.19893041144E+03  0.17200000000E+03 0. -1.
         -6    1    1    2    0  502 -0.42242804455E+02 -0.80611877523E+02 -0.56346854357E+02  0.20258750535E+03  0.17200000000E+03 0.  1.
</event>
<event>
 4    1 -0.3291270E-004  0.1839997E+03  0.7818608E-02  0.1163987E+00
          5   -1    0    0  501    0  0.00000000000E+00  0.00000000000E+00  0.33926201204E+03  0.33929456644E+03  0.47000000000E+01 0. -1.
         -5   -1    0    0    0  501 -0.00000000000E+00 -0.00000000000E+00 -0.99879067393E+02  0.99989589975E+02  0.47000000000E+01 0.  1.
          6    1    1    2  502    0  0.51811246721E+01  0.65153961616E+02  0.11039873089E+03  0.21457810361E+03  0.17200000000E+03 0.  1.
         -6    1    1    2    0  502 -0.51811246721E+01 -0.65153961616E+02  0.12898421376E+03  0.22470605280E+03  0.17200000000E+03 0. -1.
</event>
<event>
 4    1 -0.3291270E-004  0.2100233E+03  0.7818608E-02  0.1141548E+00
         -5   -1    0    0    0  501 -0.00000000000E+00  0.00000000000E+00  0.23999285407E+03  0.24003887186E+03  0.47000000000E+01 0.  1.
          5   -1    0    0  501    0  0.00000000000E+00 -0.00000000000E+00 -0.21011758289E+03  0.21017014212E+03  0.47000000000E+01 0. -1.
          6    1    1    2  502    0 -0.10291149412E+03 -0.62729717526E+02 -0.64856791566E+02  0.21980945497E+03  0.17200000000E+03 0. -1.
         -6    1    1    2    0  502  0.10291149412E+03  0.62729717526E+02  0.94732062740E+02  0.23039955901E+03  0.17200000000E+03 0.  1.
</event>
<event>
 4    1 -0.3291270E-004  0.1902972E+03  0.7818608E-02  0.1158194E+00
          5   -1    0    0  501    0  0.00000000000E+00  0.00000000000E+00  0.78958449114E+03  0.78959847938E+03  0.47000000000E+01 0. -1.
         -5   -1    0    0    0  501 -0.00000000000E+00 -0.00000000000E+00 -0.46014949507E+02  0.46254357396E+02  0.47000000000E+01 0.  1.
          6    1    1    2  502    0  0.45914399848E+02  0.67237446066E+02  0.33890271634E+03  0.38867474501E+03  0.17200000000E+03 0. -1.
         -6    1    1    2    0  502 -0.45914399848E+02 -0.67237446066E+02  0.40466682529E+03  0.44717809176E+03  0.17200000000E+03 0.  1.
</event>
<event>
 4    1 -0.3291270E-004  0.1830397E+03  0.7818608E-02  0.1164893E+00
         -5   -1    0    0    0  501 -0.00000000000E+00  0.00000000000E+00  0.40443289111E+02  0.40715471680E+02  0.47000000000E+01 0.  1.
          5   -1    0    0  501    0  0.00000000000E+00 -0.00000000000E+00 -0.83100700020E+03  0.83102029120E+03  0.47000000000E+01 0. -1.
          6    1    1    2  502    0  0.21441858346E+02  0.58819945131E+02 -0.43123546117E+03  0.46847365156E+03  0.17200000000E+03 0. -1.
         -6    1    1    2    0  502 -0.21441858346E+02 -0.58819945131E+02 -0.35932824992E+03  0.40326211132E+03  0.17200000000E+03 0. -1.
</event>
<event>
 4    1 -0.3291270E-004  0.2044176E+03  0.7818608E-02  0.1146065E+00
         -5   -1    0    0    0  501 -0.00000000000E+00  0.00000000000E+00  0.19307055805E+03  0.19312775664E+03  0.47000000000E+01 0.  1.
          5   -1    0    0  501    0  0.00000000000E+00 -0.00000000000E+00 -0.28891312321E+03  0.28895135016E+03  0.47000000000E+01 0. -1.
          6    1    1    2  502    0 -0.10573841172E+03  0.31967677725E+02 -0.16872653153E+03  0.26505694968E+03  0.17200000000E+03 0. -1.
         -6    1    1    2    0  502  0.10573841172E+03 -0.31967677725E+02  0.72883966368E+02  0.21702215713E+03  0.17200000000E+03 0.  1.
</event>
<event>
 4    1 -0.3291270E-004  0.2042478E+03  0.7818608E-02  0.1146204E+00
          5   -1    0    0  501    0  0.00000000000E+00  0.00000000000E+00  0.72323278414E+03  0.72324805569E+03  0.47000000000E+01 0. -1.
         -5   -1    0    0    0  501 -0.00000000000E+00 -0.00000000000E+00 -0.58243339531E+02  0.58432667231E+02  0.47000000000E+01 0.  1.
          6    1    1    2  502    0  0.44565572825E+01  0.11006038018E+03  0.29054033385E+03  0.35514903038E+03  0.17200000000E+03 0. -1.
         -6    1    1    2    0  502 -0.44565572825E+01 -0.11006038018E+03  0.37444911076E+03  0.42653169254E+03  0.17200000000E+03 0.  1.
</event>
<event>
 4    1 -0.3291270E-004  0.3141506E+03  0.7818608E-02  0.1078373E+00
         -5   -1    0    0    0  501 -0.00000000000E+00  0.00000000000E+00  0.61496943083E+03  0.61498739081E+03  0.47000000000E+01 0.  1.
          5   -1    0    0  501    0  0.00000000000E+00 -0.00000000000E+00 -0.21465464800E+03  0.21470609658E+03  0.47000000000E+01 0. -1.
          6    1    1    2  502    0 -0.22279467704E+03  0.13953180927E+03 -0.83175507838E+01  0.31426068091E+03  0.17200000000E+03 0. -1.
         -6    1    1    2    0  502  0.22279467704E+03 -0.13953180927E+03  0.40863233361E+03  0.51543280647E+03  0.17200000000E+03 0.  1.
</event>
<event>
 4    1 -0.3291270E-004  0.2769003E+03  0.7818608E-02  0.1097394E+00
          5   -1    0    0  501    0  0.00000000000E+00  0.00000000000E+00  0.21634671087E+04  0.21634722140E+04  0.47000000000E+01 0. -1.
         -5   -1    0    0    0  501 -0.00000000000E+00 -0.00000000000E+00 -0.35784188726E+02  0.36091524806E+02  0.47000000000E+01 0.  1.
          6    1    1    2  502    0  0.16160365472E+03 -0.14482421571E+03  0.11939127604E+04  0.12256024944E+04  0.17200000000E+03 0. -1.
         -6    1    1    2    0  502 -0.16160365472E+03  0.14482421571E+03  0.93377015958E+03  0.97396124441E+03  0.17200000000E+03 0.  1.
</event>
<event>
 4    1 -0.3291270E-004  0.2251584E+03  0.7818608E-02  0.1130095E+00
          5   -1    0    0  501    0  0.00000000000E+00  0.00000000000E+00  0.39444296248E+03  0.39447096300E+03  0.47000000000E+01 0. -1.
         -5   -1    0    0    0  501 -0.00000000000E+00 -0.00000000000E+00 -0.13146169595E+03  0.13154568599E+03  0.47000000000E+01 0.  1.
          6    1    1    2  502    0 -0.14528341684E+03 -0.22454679644E+01  0.91704582738E+02  0.24311734580E+03  0.17200000000E+03 0.  1.
         -6    1    1    2    0  502  0.14528341684E+03  0.22454679644E+01  0.17127668379E+03  0.28289930319E+03  0.17200000000E+03 0.  1.
</event>
<event>
 4    1 -0.3291270E-004  0.1793755E+03  0.7818608E-02  0.1168409E+00
         -5   -1    0    0    0  501 -0.00000000000E+00  0.00000000000E+00  0.33983235008E+02  0.34306708697E+02  0.47000000000E+01 0.  1.
          5   -1    0    0  501    0  0.00000000000E+00 -0.00000000000E+00 -0.97771219451E+03  0.97772349123E+03  0.47000000000E+01 0. -1.
          6    1    1    2  502    0 -0.41979481347E+02  0.28797319769E+02 -0.56856656408E+03  0.59619082538E+03  0.17200000000E+03 0.  1.
         -6    1    1    2    0  502  0.41979481347E+02 -0.28797319769E+02 -0.37516239543E+03  0.41583937454E+03  0.17200000000E+03 0.  1.
</event>
<event>
 4    1 -0.3291270E-004  0.2793638E+03  0.7818608E-02  0.1096037E+00
          5   -1    0    0  501    0  0.00000000000E+00  0.00000000000E+00  0.92612535692E+03  0.92613728288E+03  0.47000000000E+01 0. -1.
         -5   -1    0    0    0  501 -0.00000000000E+00 -0.00000000000E+00 -0.10806724178E+03  0.10816939838E+03  0.47000000000E+01 0.  1.
          6    1    1    2  502    0 -0.42644377924E+02  0.21596664107E+03  0.65196544419E+03  0.70929759159E+03  0.17200000000E+03 0. -1.
         -6    1    1    2    0  502  0.42644377924E+02 -0.21596664107E+03  0.16609267095E+03  0.32500908966E+03  0.17200000000E+03 0.  1.
</event>
<event>
 4    1 -0.3291270E-004  0.1776820E+03  0.7818608E-02  0.1170065E+00
         -5   -1    0    0    0  501 -0.00000000000E+00  0.00000000000E+00  0.22541800339E+03  0.22546699593E+03  0.47000000000E+01 0.  1.
          5   -1    0    0  501    0  0.00000000000E+00 -0.00000000000E+00 -0.14490063356E+03  0.14497683817E+03  0.47000000000E+01 0. -1.
          6    1    1    2  502    0 -0.30927003988E+02  0.32100329067E+02  0.74475606926E+02  0.19265909459E+03  0.17200000000E+03 0. -1.
         -6    1    1    2    0  502  0.30927003988E+02 -0.32100329067E+02  0.60417629031E+01  0.17778473951E+03  0.17200000000E+03 0. -1.
</event>
<event>
 4    1 -0.3291270E-004  0.1985411E+03  0.7818608E-02  0.1150976E+00
          5   -1    0    0  501    0  0.00000000000E+00  0.00000000000E+00  0.81044404708E+02  0.81180573628E+02  0.47000000000E+01 0. -1.
         -5   -1    0    0    0  501 -0.00000000000E+00 -0.00000000000E+00 -0.55987678473E+03  0.55989651194E+03  0.47000000000E+01 0.  1.
          6    1    1    2  502    0 -0.99155442015E+02 -0.16576796187E+01 -0.12285958548E+03  0.23348025040E+03  0.17200000000E+03 0. -1.
         -6    1    1    2    0  502  0.99155442015E+02  0.16576796187E+01 -0.35597279454E+03  0.40759683517E+03  0.17200000000E+03 0. -1.
</event>
<event>
 4    1 -0.3291270E-004  0.2664842E+03  0.7818608E-02  0.1103309E+00
         -5   -1    0    0    0  501 -0.00000000000E+00  0.00000000000E+00  0.21438156553E+04  0.21438208073E+04  0.47000000000E+01 0.  1.
          5   -1    0    0  501    0  0.00000000000E+00 -0.00000000000E+00 -0.34553701330E+02  0.34871883740E+02  0.47000000000E+01 0. -1.
          6    1    1    2  502    0  0.19643205803E+03 -0.53331515229E+02  0.82128492426E+03  0.86343658178E+03  0.17200000000E+03 0. -1.
         -6    1    1    2    0  502 -0.19643205803E+03  0.53331515229E+02  0.12879770297E+04  0.13152561093E+04  0.17200000000E+03 0.  1.
</event>
<event>
 4    1 -0.3291270E-004  0.2252842E+03  0.7818608E-02  0.1130004E+00
          5   -1    0    0  501    0  0.00000000000E+00  0.00000000000E+00  0.39095800828E+03  0.39098625838E+03  0.47000000000E+01 0. -1.
         -5   -1    0    0    0  501 -0.00000000000E+00 -0.00000000000E+00 -0.19981599786E+03  0.19987126607E+03  0.47000000000E+01 0.  1.
          6    1    1    2  502    0 -0.12858715996E+03  0.68075624364E+02  0.27047955626E+03  0.35201156045E+03  0.17200000000E+03 0. -1.
         -6    1    1    2    0  502  0.12858715996E+03 -0.68075624364E+02 -0.79337545840E+02  0.23884596400E+03  0.17200000000E+03 0.  1.
</event>
<event>
 4    1 -0.3291270E-004  0.1860944E+03  0.7818608E-02  0.1162032E+00
         -5   -1    0    0    0  501 -0.00000000000E+00  0.00000000000E+00  0.42037154965E+02  0.42299082703E+02  0.47000000000E+01 0.  1.
          5   -1    0    0  501    0  0.00000000000E+00 -0.00000000000E+00 -0.82339334989E+03  0.82340676378E+03  0.47000000000E+01 0. -1.
          6    1    1    2  502    0 -0.69504074481E+02  0.14707794872E+02 -0.36731992293E+03  0.41177064172E+03  0.17200000000E+03 0.  1.
         -6    1    1    2    0  502  0.69504074481E+02 -0.14707794872E+02 -0.41403627200E+03  0.45393520477E+03  0.17200000000E+03 0.  1.
</event>
<event>
 4    1 -0.3291270E-004  0.1825702E+03  0.7818608E-02  0.1165338E+00
         -5   -1    0    0    0  501 -0.00000000000E+00  0.00000000000E+00  0.42494657897E+02  0.42753782871E+02  0.47000000000E+01 0.  1.
          5   -1    0    0  501    0  0.00000000000E+00 -0.00000000000E+00 -0.92028840289E+03  0.92030040449E+03  0.47000000000E+01 0. -1.
          6    1    1    2  502    0 -0.37332416736E+02  0.48519904382E+02 -0.62571293401E+03  0.65180408579E+03  0.17200000000E+03 0. -1.
         -6    1    1    2    0  502  0.37332416736E+02 -0.48519904382E+02 -0.25208081098E+03  0.31125010157E+03  0.17200000000E+03 0.  1.
</event>
<event>
 4    1 -0.3291270E-004  0.1997645E+03  0.7818608E-02  0.1149938E+00
          5   -1    0    0  501    0  0.00000000000E+00  0.00000000000E+00  0.71236860518E+02  0.71391738293E+02  0.47000000000E+01 0. -1.
         -5   -1    0    0    0  501 -0.00000000000E+00 -0.00000000000E+00 -0.57079167709E+03  0.57081102708E+03  0.47000000000E+01 0.  1.
          6    1    1    2  502    0  0.96752183416E+02 -0.30997871880E+02 -0.29510831076E+03  0.35636325307E+03  0.17200000000E+03 0.  1.
         -6    1    1    2    0  502 -0.96752183416E+02  0.30997871880E+02 -0.20444650581E+03  0.28583951231E+03  0.17200000000E+03 0.  1.
</event>
<event>
 4    1 -0.3291270E-004  0.1938453E+03  0.7818608E-02  0.1155038E+00
         -5   -1    0    0    0  501 -0.00000000000E+00  0.00000000000E+00  0.85397790151E+03  0.85399083501E+03  0.47000000000E+01 0.  1.
          5   -1    0    0  501    0  0.00000000000E+00 -0.00000000000E+00 -0.43875732220E+02  0.44126747873E+02  0.47000000000E+01 0. -1.
          6    1    1    2  502    0  0.60472638275E+02 -0.65841170077E+02  0.39722464217E+03  0.44199933937E+03  0.17200000000E+03 0.  1.
         -6    1    1    2    0  502 -0.60472638275E+02  0.65841170077E+02  0.41287752712E+03  0.45611824351E+03  0.17200000000E+03 0. -1.
</event>
<event>
 4    1 -0.3291270E-004  0.2229327E+03  0.7818608E-02  0.1131715E+00
         -5   -1    0    0    0  501 -0.00000000000E+00  0.00000000000E+00  0.46788768605E+03  0.46791129155E+03  0.47000000000E+01 0.  1.
          5   -1    0    0  501    0  0.00000000000E+00 -0.00000000000E+00 -0.20782921981E+03  0.20788235761E+03  0.47000000000E+01 0. -1.
          6    1    1    2  502    0 -0.58448821522E+02 -0.12922352941E+03 -0.10626769508E+03  0.24696519655E+03  0.17200000000E+03 0. -1.
         -6    1    1    2    0  502  0.58448821522E+02  0.12922352941E+03  0.36632616133E+03  0.42882845260E+03  0.17200000000E+03 0.  1.
</event>
<event>
 4    1 -0.3291270E-004  0.4697276E+03  0.7818608E-02  0.1021997E+00
         -5   -1    0    0    0  501 -0.00000000000E+00  0.00000000000E+00  0.49571183838E+03  0.49573411897E+03  0.47000000000E+01 0.  1.
          5   -1    0    0  501    0  0.00000000000E+00 -0.00000000000E+00 -0.46304485868E+03  0.46306871105E+03  0.47000000000E+01 0. -1.
          6    1    1    2  502    0  0.40889203216E+03  0.15449063993E+03 -0.78140011740E+02  0.47618264692E+03  0.17200000000E+03 0. -1.
         -6    1    1    2    0  502 -0.40889203216E+03 -0.15449063993E+03  0.11080699144E+03  0.48262018311E+03  0.17200000000E+03 0.  1.
</event>
<event>
 4    1 -0.3291270E-004  0.2101886E+03  0.7818608E-02  0.1141417E+00
          5   -1    0    0  501    0  0.00000000000E+00  0.00000000000E+00  0.73731564134E+03  0.73733062121E+03  0.47000000000E+01 0. -1.
         -5   -1    0    0    0  501 -0.00000000000E+00 -0.00000000000E+00 -0.11674388998E+03  0.11683846048E+03  0.47000000000E+01 0.  1.
          6    1    1    2  502    0  0.11950532908E+03 -0.17711748786E+02  0.60833671412E+03  0.64362472565E+03  0.17200000000E+03 0. -1.
         -6    1    1    2    0  502 -0.11950532908E+03  0.17711748786E+02  0.12235037251E+02  0.21054435604E+03  0.17200000000E+03 0.  1.
</event>
<event>
 4    1 -0.3291270E-004  0.2312959E+03  0.7818608E-02  0.1125731E+00
          5   -1    0    0  501    0  0.00000000000E+00  0.00000000000E+00  0.36478827636E+03  0.36481855294E+03  0.47000000000E+01 0. -1.
         -5   -1    0    0    0  501 -0.00000000000E+00 -0.00000000000E+00 -0.74364677463E+03  0.74366162697E+03  0.47000000000E+01 0.  1.
          6    1    1    2  502    0  0.13928666698E+03 -0.67179112911E+02  0.30716752484E+03  0.38451228476E+03  0.17200000000E+03 0. -1.
         -6    1    1    2    0  502 -0.13928666698E+03  0.67179112911E+02 -0.68602602312E+03  0.72396789515E+03  0.17200000000E+03 0.  1.
</event>
<event>
 4    1 -0.3291270E-004  0.1744867E+03  0.7818608E-02  0.1173248E+00
          5   -1    0    0  501    0  0.00000000000E+00  0.00000000000E+00  0.91544192407E+02  0.91664765114E+02  0.47000000000E+01 0. -1.
         -5   -1    0    0    0  501 -0.00000000000E+00 -0.00000000000E+00 -0.33838237252E+03  0.33841501154E+03  0.47000000000E+01 0.  1.
          6    1    1    2  502    0  0.21345925159E+02  0.20148034201E+02 -0.94410932956E+02  0.19839106851E+03  0.17200000000E+03 0. -1.
         -6    1    1    2    0  502 -0.21345925159E+02 -0.20148034201E+02 -0.15242724716E+03  0.23168870814E+03  0.17200000000E+03 0.  1.
</event>
<event>
 4    1 -0.3291270E-004  0.1747254E+03  0.7818608E-02  0.1173008E+00
         -5   -1    0    0    0  501 -0.00000000000E+00  0.00000000000E+00  0.63164310827E+03  0.63166059416E+03  0.47000000000E+01 0.  1.
          5   -1    0    0  501    0  0.00000000000E+00 -0.00000000000E+00 -0.52077207296E+02  0.52288866117E+02  0.47000000000E+01 0. -1.
          6    1    1    2  502    0  0.12384326865E+02 -0.28134969263E+02  0.19668639557E+03  0.26308646155E+03  0.17200000000E+03 0. -1.
         -6    1    1    2    0  502 -0.12384326865E+02  0.28134969263E+02  0.38287950540E+03  0.42086299873E+03  0.17200000000E+03 0.  1.
</event>
<event>
 4    1 -0.3291270E-004  0.2380192E+03  0.7818608E-02  0.1121119E+00
         -5   -1    0    0    0  501 -0.00000000000E+00  0.00000000000E+00  0.71596528135E+03  0.71598070791E+03  0.47000000000E+01 0.  1.
          5   -1    0    0  501    0  0.00000000000E+00 -0.00000000000E+00 -0.80309468505E+02  0.80446881428E+02  0.47000000000E+01 0. -1.
          6    1    1    2  502    0 -0.20431761980E+02  0.16325348490E+03  0.36780131444E+03  0.43809926288E+03  0.17200000000E+03 0.  1.
         -6    1    1    2    0  502  0.20431761980E+02 -0.16325348490E+03  0.26785449840E+03  0.35832832646E+03  0.17200000000E+03 0. -1.
</event>
<event>
 4    1 -0.3291270E-004  0.2077249E+03  0.7818608E-02  0.1143380E+00
         -5   -1    0    0    0  501 -0.00000000000E+00  0.00000000000E+00  0.22006293198E+02  0.22502598524E+02  0.47000000000E+01 0.  1.
          5   -1    0    0  501    0  0.00000000000E+00 -0.00000000000E+00 -0.21020960616E+04  0.21021013158E+04  0.47000000000E+01 0. -1.
          6    1    1    2  502    0 -0.90851801780E+02 -0.72880738172E+02 -0.13364308887E+04  0.13524781596E+04  0.17200000000E+03 0.  1.
         -6    1    1    2    0  502  0.90851801780E+02  0.72880738172E+02 -0.74365887969E+03  0.77212575480E+03  0.17200000000E+03 0. -1.
</event>
<event>
 4    1 -0.3291270E-004  0.1754136E+03  0.7818608E-02  0.1172317E+00
          5   -1    0    0  501    0  0.00000000000E+00  0.00000000000E+00  0.33224597601E+02  0.33555385346E+02  0.47000000000E+01 0. -1.
         -5   -1    0    0    0  501 -0.00000000000E+00 -0.00000000000E+00 -0.94831859743E+03  0.94833024429E+03  0.47000000000E+01 0.  1.
          6    1    1    2  502    0 -0.31959702737E+02  0.12826374123E+02 -0.37453341265E+03  0.41357613043E+03  0.17200000000E+03 0. -1.
         -6    1    1    2    0  502  0.31959702737E+02 -0.12826374123E+02 -0.54056058718E+03  0.56830949921E+03  0.17200000000E+03 0. -1.
</event>
<event>
 4    1 -0.3291270E-004  0.2008869E+03  0.7818608E-02  0.1148993E+00
          5   -1    0    0  501    0  0.00000000000E+00  0.00000000000E+00  0.39310454292E+02  0.39590425821E+02  0.47000000000E+01 0. -1.
         -5   -1    0    0    0  501 -0.00000000000E+00 -0.00000000000E+00 -0.10461517751E+04  0.10461623328E+04  0.47000000000E+01 0.  1.
          6    1    1    2  502    0 -0.27196621965E+01  0.10375048476E+03 -0.58476388320E+03  0.61830765703E+03  0.17200000000E+03 0. -1.
         -6    1    1    2    0  502  0.27196621965E+01 -0.10375048476E+03 -0.42207743760E+03  0.46744510156E+03  0.17200000000E+03 0.  1.
</event>
<event>
 4    1 -0.3291270E-004  0.2013305E+03  0.7818608E-02  0.1148621E+00
         -5   -1    0    0    0  501 -0.00000000000E+00  0.00000000000E+00  0.82894299769E+02  0.83027434828E+02  0.47000000000E+01 0.  1.
          5   -1    0    0  501    0  0.00000000000E+00 -0.00000000000E+00 -0.60093138374E+03  0.60094976326E+03  0.47000000000E+01 0. -1.
          6    1    1    2  502    0  0.26664768588E+02 -0.10118767516E+03 -0.11107700177E+03  0.22993924374E+03  0.17200000000E+03 0. -1.
         -6    1    1    2    0  502 -0.26664768588E+02  0.10118767516E+03 -0.40696008220E+03  0.45403795435E+03  0.17200000000E+03 0.  1.
</event>
<event>
 4    1 -0.3291270E-004  0.1736576E+03  0.7818608E-02  0.1174086E+00
          5   -1    0    0  501    0  0.00000000000E+00  0.00000000000E+00  0.16488225158E+03  0.16494922518E+03  0.47000000000E+01 0. -1.
         -5   -1    0    0    0  501 -0.00000000000E+00 -0.00000000000E+00 -0.23975683341E+03  0.23980289649E+03  0.47000000000E+01 0.  1.
          6    1    1    2  502    0  0.18485640936E+02  0.15206432987E+02  0.61206271013E+02  0.18412811338E+03  0.17200000000E+03 0. -1.
         -6    1    1    2    0  502 -0.18485640936E+02 -0.15206432987E+02 -0.13608085284E+03  0.22062400829E+03  0.17200000000E+03 0.  1.
</event>
<event>
 4    1 -0.3291270E-004  0.2221025E+03  0.7818608E-02  0.1132325E+00
          5   -1    0    0  501    0  0.00000000000E+00  0.00000000000E+00  0.79215798185E+02  0.79355104953E+02  0.47000000000E+01 0. -1.
         -5   -1    0    0    0  501 -0.00000000000E+00 -0.00000000000E+00 -0.14867284109E+04  0.14867358399E+04  0.47000000000E+01 0.  1.
          6    1    1    2  502    0  0.20369717603E+02  0.13903454907E+03 -0.10660859218E+03  0.24636339654E+03  0.17200000000E+03 0. -1.
         -6    1    1    2    0  502 -0.20369717603E+02 -0.13903454907E+03 -0.13009040205E+04  0.13197275483E+04  0.17200000000E+03 0.  1.
</event>
<event>
 4    1 -0.3291270E-004  0.1727311E+03  0.7818608E-02  0.1175029E+00
          5   -1    0    0  501    0  0.00000000000E+00  0.00000000000E+00  0.34269776675E+03  0.34272999480E+03  0.47000000000E+01 0. -1.
         -5   -1    0    0    0  501 -0.00000000000E+00 -0.00000000000E+00 -0.86966715123E+02  0.87093625135E+02  0.47000000000E+01 0.  1.
          6    1    1    2  502    0 -0.10302879810E+02  0.12078834308E+02  0.12636951947E+03  0.21402173493E+03  0.17200000000E+03 0. -1.
         -6    1    1    2    0  502  0.10302879810E+02 -0.12078834308E+02  0.12936153216E+03  0.21580188501E+03  0.17200000000E+03 0.  1.
</event>
<event>
 4    1 -0.3291270E-004  0.3670332E+03  0.7818608E-02  0.1055833E+00
          5   -1    0    0  501    0  0.00000000000E+00  0.00000000000E+00  0.42790359154E+03  0.42792940265E+03  0.47000000000E+01 0. -1.
         -5   -1    0    0    0  501 -0.00000000000E+00 -0.00000000000E+00 -0.40971960075E+03  0.40974655732E+03  0.47000000000E+01 0.  1.
          6    1    1    2  502    0  0.27370354332E+03  0.17382679539E+03  0.21070637761E+03  0.42321455786E+03  0.17200000000E+03 0. -1.
         -6    1    1    2    0  502 -0.27370354332E+03 -0.17382679539E+03 -0.19252238681E+03  0.41446140212E+03  0.17200000000E+03 0.  1.
</event>
<event>
 4    1 -0.3291270E-004  0.2337406E+03  0.7818608E-02  0.1124034E+00
          5   -1    0    0  501    0  0.00000000000E+00  0.00000000000E+00  0.31534656944E+03  0.31538159245E+03  0.47000000000E+01 0. -1.
         -5   -1    0    0    0  501 -0.00000000000E+00 -0.00000000000E+00 -0.18329270664E+03  0.18335295554E+03  0.47000000000E+01 0.  1.
          6    1    1    2  502    0  0.15411305302E+03  0.36052955049E+02  0.12459589731E+03  0.26487503904E+03  0.17200000000E+03 0. -1.
         -6    1    1    2    0  502 -0.15411305302E+03 -0.36052955049E+02  0.74579654995E+01  0.23385950896E+03  0.17200000000E+03 0.  1.
</event>
<event>
 4    1 -0.3291270E-004  0.2847910E+03  0.7818608E-02  0.1093101E+00
         -5   -1    0    0    0  501 -0.00000000000E+00  0.00000000000E+00  0.35833122080E+03  0.35836204291E+03  0.47000000000E+01 0.  1.
          5   -1    0    0  501    0  0.00000000000E+00 -0.00000000000E+00 -0.23427908586E+03  0.23432622575E+03  0.47000000000E+01 0. -1.
          6    1    1    2  502    0  0.15349751364E+03  0.16721371602E+03  0.11678041127E+03  0.30780444762E+03  0.17200000000E+03 0.  1.
         -6    1    1    2    0  502 -0.15349751364E+03 -0.16721371602E+03  0.72717236687E+01  0.28488382103E+03  0.17200000000E+03 0. -1.
</event>
<event>
 4    1 -0.3291270E-004  0.3651035E+03  0.7818608E-02  0.1056581E+00
          5   -1    0    0  501    0  0.00000000000E+00  0.00000000000E+00  0.97748185255E+03  0.97749315192E+03  0.47000000000E+01 0. -1.
         -5   -1    0    0    0  501 -0.00000000000E+00 -0.00000000000E+00 -0.13858243380E+03  0.13866211075E+03  0.47000000000E+01 0.  1.
          6    1    1    2  502    0 -0.62045569564E+02 -0.31601723390E+03  0.49075162533E+03  0.61166796760E+03  0.17200000000E+03 0. -1.
         -6    1    1    2    0  502  0.62045569564E+02  0.31601723390E+03  0.34814779342E+03  0.50448729507E+03  0.17200000000E+03 0.  1.
</event>
<event>
 4    1 -0.3291270E-004  0.1859921E+03  0.7818608E-02  0.1162127E+00
          5   -1    0    0  501    0  0.00000000000E+00  0.00000000000E+00  0.22682282357E+02  0.23164108723E+02  0.47000000000E+01 0. -1.
         -5   -1    0    0    0  501 -0.00000000000E+00 -0.00000000000E+00 -0.16377745543E+04  0.16377812982E+04  0.47000000000E+01 0.  1.
          6    1    1    2  502    0  0.20097905634E+02  0.67861119686E+02 -0.57434946073E+03  0.60371380671E+03  0.17200000000E+03 0. -1.
         -6    1    1    2    0  502 -0.20097905634E+02 -0.67861119686E+02 -0.10407428112E+04  0.10572316002E+04  0.17200000000E+03 0.  1.
</event>
<event>
 4    1 -0.3291270E-004  0.2073520E+03  0.7818608E-02  0.1143680E+00
         -5   -1    0    0    0  501 -0.00000000000E+00  0.00000000000E+00  0.14076971342E+03  0.14084815305E+03  0.47000000000E+01 0.  1.
          5   -1    0    0  501    0  0.00000000000E+00 -0.00000000000E+00 -0.72305873615E+03  0.72307401137E+03  0.47000000000E+01 0. -1.
          6    1    1    2  502    0  0.11320334471E+03 -0.24410343495E+02 -0.61947992996E+03  0.65326123851E+03  0.17200000000E+03 0. -1.
         -6    1    1    2    0  502 -0.11320334471E+03  0.24410343495E+02  0.37190907228E+02  0.21066092590E+03  0.17200000000E+03 0.  1.
</event>
<event>
 4    1 -0.3291270E-004  0.3869339E+03  0.7818608E-02  0.1048400E+00
          5   -1    0    0  501    0  0.00000000000E+00  0.00000000000E+00  0.88818441277E+03  0.88819684816E+03  0.47000000000E+01 0. -1.
         -5   -1    0    0    0  501 -0.00000000000E+00 -0.00000000000E+00 -0.22071695579E+03  0.22076699158E+03  0.47000000000E+01 0.  1.
          6    1    1    2  502    0 -0.18445451982E+03 -0.29344570322E+03  0.60333621962E+03  0.71675131288E+03  0.17200000000E+03 0.  1.
         -6    1    1    2    0  502  0.18445451982E+03  0.29344570322E+03  0.64131237359E+02  0.39221252686E+03  0.17200000000E+03 0.  1.
</event>
<event>
 4    1 -0.3291270E-004  0.2020400E+03  0.7818608E-02  0.1148029E+00
          5   -1    0    0  501    0  0.00000000000E+00  0.00000000000E+00  0.37520024774E+03  0.37522968420E+03  0.47000000000E+01 0. -1.
         -5   -1    0    0    0  501 -0.00000000000E+00 -0.00000000000E+00 -0.11889591328E+03  0.11898877339E+03  0.47000000000E+01 0.  1.
          6    1    1    2  502    0  0.76960748730E+02  0.72891672630E+02  0.55866947711E+02  0.20962172748E+03  0.17200000000E+03 0.  1.
         -6    1    1    2    0  502 -0.76960748730E+02 -0.72891672630E+02  0.20043738675E+03  0.28459673012E+03  0.17200000000E+03 0. -1.
</event>
<event>
 4    1 -0.3291270E-004  0.2914382E+03  0.7818608E-02  0.1089601E+00
          5   -1    0    0  501    0  0.00000000000E+00  0.00000000000E+00  0.49482752948E+03  0.49484984989E+03  0.47000000000E+01 0. -1.
         -5   -1    0    0    0  501 -0.00000000000E+00 -0.00000000000E+00 -0.17199224256E+03  0.17205644859E+03  0.47000000000E+01 0.  1.
          6    1    1    2  502    0  0.69067538309E+02  0.22490425701E+03  0.14529216103E+03  0.32564714297E+03  0.17200000000E+03 0.  1.
         -6    1    1    2    0  502 -0.69067538309E+02 -0.22490425701E+03  0.17754312589E+03  0.34125915551E+03  0.17200000000E+03 0.  1.
</event>
<event>
 4    1 -0.3291270E-004  0.2422410E+03  0.7818608E-02  0.1118309E+00
         -5   -1    0    0    0  501 -0.00000000000E+00  0.00000000000E+00  0.16843937340E+03  0.16850493319E+03  0.47000000000E+01 0.  1.
          5   -1    0    0  501    0  0.00000000000E+00 -0.00000000000E+00 -0.35525261068E+03  0.35528369987E+03  0.47000000000E+01 0. -1.
          6    1    1    2  502    0  0.16569908141E+03 -0.40503250281E+02 -0.56588511421E+02  0.24876285593E+03  0.17200000000E+03 0. -1.
         -6    1    1    2    0  502 -0.16569908141E+03  0.40503250281E+02 -0.13022472586E+03  0.27502577713E+03  0.17200000000E+03 0. -1.
</event>
<event>
 4    1 -0.3291270E-004  0.1840887E+03  0.7818608E-02  0.1163904E+00
         -5   -1    0    0    0  501 -0.00000000000E+00  0.00000000000E+00  0.19951545276E+02  0.20497662279E+02  0.47000000000E+01 0.  1.
          5   -1    0    0  501    0  0.00000000000E+00 -0.00000000000E+00 -0.26629521803E+04  0.26629563280E+04  0.47000000000E+01 0. -1.
          6    1    1    2  502    0 -0.44454274501E+01  0.65459080626E+02 -0.21386300605E+04  0.21465384200E+04  0.17200000000E+03 0. -1.
         -6    1    1    2    0  502  0.44454274501E+01 -0.65459080626E+02 -0.50437057459E+03  0.53691557025E+03  0.17200000000E+03 0.  1.
</event>
<event>
 4    1 -0.3291270E-004  0.2201490E+03  0.7818608E-02  0.1133772E+00
          5   -1    0    0  501    0  0.00000000000E+00  0.00000000000E+00  0.56178902789E+02  0.56375164022E+02  0.47000000000E+01 0. -1.
         -5   -1    0    0    0  501 -0.00000000000E+00 -0.00000000000E+00 -0.92528752422E+03  0.92529946098E+03  0.47000000000E+01 0.  1.
          6    1    1    2  502    0  0.27671796626E+01 -0.13738246829E+03 -0.56392430433E+03  0.60537279497E+03  0.17200000000E+03 0.  1.
         -6    1    1    2    0  502 -0.27671796626E+01  0.13738246829E+03 -0.30518431711E+03  0.37630183003E+03  0.17200000000E+03 0.  1.
</event>
<event>
 4    1 -0.3291270E-004  0.1844821E+03  0.7818608E-02  0.1163534E+00
          5   -1    0    0  501    0  0.00000000000E+00  0.00000000000E+00  0.24781951997E+03  0.24786408468E+03  0.47000000000E+01 0. -1.
         -5   -1    0    0    0  501 -0.00000000000E+00 -0.00000000000E+00 -0.13810231854E+03  0.13818227233E+03  0.47000000000E+01 0.  1.
          6    1    1    2  502    0 -0.62876697350E+02 -0.22274982498E+02  0.70146002965E+02  0.19736797016E+03  0.17200000000E+03 0.  1.
         -6    1    1    2    0  502  0.62876697350E+02  0.22274982498E+02  0.39571198465E+02  0.18867838685E+03  0.17200000000E+03 0.  1.
</event>
<event>
 4    1 -0.3291270E-004  0.2431832E+03  0.7818608E-02  0.1117690E+00
         -5   -1    0    0    0  501 -0.00000000000E+00  0.00000000000E+00  0.41937650063E+03  0.41940283652E+03  0.47000000000E+01 0.  1.
          5   -1    0    0  501    0  0.00000000000E+00 -0.00000000000E+00 -0.19855273074E+03  0.19860835049E+03  0.47000000000E+01 0. -1.
          6    1    1    2  502    0  0.15501749982E+03 -0.74321220625E+02 -0.55994229774E+02  0.24954643426E+03  0.17200000000E+03 0. -1.
         -6    1    1    2    0  502 -0.15501749982E+03  0.74321220625E+02  0.27681799966E+03  0.36846475275E+03  0.17200000000E+03 0.  1.
</event>
<event>
 4    1 -0.3291270E-004  0.3155079E+03  0.7818608E-02  0.1077735E+00
         -5   -1    0    0    0  501 -0.00000000000E+00  0.00000000000E+00  0.70785839886E+03  0.70787400209E+03  0.47000000000E+01 0.  1.
          5   -1    0    0  501    0  0.00000000000E+00 -0.00000000000E+00 -0.15428152241E+03  0.15435309572E+03  0.47000000000E+01 0. -1.
          6    1    1    2  502    0 -0.22735022737E+03 -0.13517798777E+03  0.40526201714E+03  0.51359762149E+03  0.17200000000E+03 0.  1.
         -6    1    1    2    0  502  0.22735022737E+03  0.13517798777E+03  0.14831485931E+03  0.34862947631E+03  0.17200000000E+03 0.  1.
</event>
<event>
 4    1 -0.3291270E-004  0.5902666E+03  0.7818608E-02  0.9925808E-01
         -5   -1    0    0    0  501 -0.00000000000E+00  0.00000000000E+00  0.73605744479E+03  0.73607245026E+03  0.47000000000E+01 0.  1.
          5   -1    0    0  501    0  0.00000000000E+00 -0.00000000000E+00 -0.65872445910E+03  0.65874122614E+03  0.47000000000E+01 0. -1.
          6    1    1    2  502    0 -0.51751042398E+03 -0.22586205904E+03 -0.33131631304E+03  0.67689379368E+03  0.17200000000E+03 0. -1.
         -6    1    1    2    0  502  0.51751042398E+03  0.22586205904E+03  0.40864929874E+03  0.71791988271E+03  0.17200000000E+03 0.  1.
</event>
<event>
 4    1 -0.3291270E-004  0.3397760E+03  0.7818608E-02  0.1066891E+00
         -5   -1    0    0    0  501 -0.00000000000E+00  0.00000000000E+00  0.10551950406E+04  0.10552055078E+04  0.47000000000E+01 0.  1.
          5   -1    0    0  501    0  0.00000000000E+00 -0.00000000000E+00 -0.19812381845E+03  0.19817955857E+03  0.47000000000E+01 0. -1.
          6    1    1    2  502    0 -0.29302496339E+03 -0.35133849461E+00  0.91267708956E+01  0.33989858863E+03  0.17200000000E+03 0. -1.
         -6    1    1    2    0  502  0.29302496339E+03  0.35133849461E+00  0.84794445128E+03  0.91348647776E+03  0.17200000000E+03 0.  1.
</event>
<event>
 4    1 -0.3291270E-004  0.3129807E+03  0.7818608E-02  0.1078926E+00
         -5   -1    0    0    0  501 -0.00000000000E+00  0.00000000000E+00  0.43316980257E+03  0.43319529991E+03  0.47000000000E+01 0.  1.
          5   -1    0    0  501    0  0.00000000000E+00 -0.00000000000E+00 -0.33994510303E+03  0.33997759202E+03  0.47000000000E+01 0. -1.
          6    1    1    2  502    0  0.66306256431E+02  0.25293556362E+03 -0.17709960963E+03  0.35961255640E+03  0.17200000000E+03 0. -1.
         -6    1    1    2    0  502 -0.66306256431E+02 -0.25293556362E+03  0.27032430918E+03  0.41356033552E+03  0.17200000000E+03 0.  1.
</event>
<event>
 4    1 -0.3291270E-004  0.1872364E+03  0.7818608E-02  0.1160978E+00
         -5   -1    0    0    0  501 -0.00000000000E+00  0.00000000000E+00  0.36948938903E+03  0.36951928042E+03  0.47000000000E+01 0.  1.
          5   -1    0    0  501    0  0.00000000000E+00 -0.00000000000E+00 -0.11096735375E+03  0.11106684292E+03  0.47000000000E+01 0. -1.
          6    1    1    2  502    0  0.36565959076E+02  0.64314985430E+02  0.37566818725E+02  0.19096793601E+03  0.17200000000E+03 0. -1.
         -6    1    1    2    0  502 -0.36565959076E+02 -0.64314985430E+02  0.22095521656E+03  0.28961818734E+03  0.17200000000E+03 0.  1.
</event>
<event>
 4    1 -0.3291270E-004  0.3091652E+03  0.7818608E-02  0.1080747E+00
         -5   -1    0    0    0  501 -0.00000000000E+00  0.00000000000E+00  0.54272911438E+03  0.54274946485E+03  0.47000000000E+01 0.  1.
          5   -1    0    0  501    0  0.00000000000E+00 -0.00000000000E+00 -0.19993435405E+03  0.19998958955E+03  0.47000000000E+01 0. -1.
          6    1    1    2  502    0  0.16696581406E+03  0.19524738795E+03  0.43094662557E+02  0.31215424955E+03  0.17200000000E+03 0.  1.
         -6    1    1    2    0  502 -0.16696581406E+03 -0.19524738795E+03  0.29970009777E+03  0.43058480486E+03  0.17200000000E+03 0. -1.
</event>
<event>
 4    1 -0.3291270E-004  0.2058597E+03  0.7818608E-02  0.1144887E+00
         -5   -1    0    0    0  501 -0.00000000000E+00  0.00000000000E+00  0.15488017914E+03  0.15495147593E+03  0.47000000000E+01 0.  1.
          5   -1    0    0  501    0  0.00000000000E+00 -0.00000000000E+00 -0.29563654166E+03  0.29567389936E+03  0.47000000000E+01 0. -1.
          6    1    1    2  502    0  0.11231947624E+03 -0.13362795963E+02 -0.86869088701E+01  0.20604293592E+03  0.17200000000E+03 0.  1.
         -6    1    1    2    0  502 -0.11231947624E+03  0.13362795963E+02 -0.13206945364E+03  0.24458243936E+03  0.17200000000E+03 0. -1.
</event>
<event>
 4    1 -0.3291270E-004  0.4075007E+03  0.7818608E-02  0.1041213E+00
          5   -1    0    0  501    0  0.00000000000E+00  0.00000000000E+00  0.77231733832E+03  0.77233163930E+03  0.47000000000E+01 0. -1.
         -5   -1    0    0    0  501 -0.00000000000E+00 -0.00000000000E+00 -0.45033897427E+03  0.45036349957E+03  0.47000000000E+01 0.  1.
          6    1    1    2  502    0  0.12067923840E+03  0.34915522260E+03  0.60293455395E+03  0.72772723214E+03  0.17200000000E+03 0. -1.
         -6    1    1    2    0  502 -0.12067923840E+03 -0.34915522260E+03 -0.28095618991E+03  0.49496790673E+03  0.17200000000E+03 0.  1.
</event>
<event>
 4    1 -0.3291270E-004  0.2288558E+03  0.7818608E-02  0.1127448E+00
         -5   -1    0    0    0  501 -0.00000000000E+00  0.00000000000E+00  0.10074148364E+04  0.10074258001E+04  0.47000000000E+01 0.  1.
          5   -1    0    0  501    0  0.00000000000E+00 -0.00000000000E+00 -0.70275020472E+02  0.70432013334E+02  0.47000000000E+01 0. -1.
          6    1    1    2  502    0  0.59502107180E+02 -0.13874601648E+03  0.19316482825E+03  0.29947889529E+03  0.17200000000E+03 0. -1.
         -6    1    1    2    0  502 -0.59502107180E+02  0.13874601648E+03  0.74397498768E+03  0.77837891810E+03  0.17200000000E+03 0.  1.
</event>
<event>
 4    1 -0.3291270E-004  0.2095336E+03  0.7818608E-02  0.1141936E+00
          5   -1    0    0  501    0  0.00000000000E+00  0.00000000000E+00  0.18291974274E+04  0.18292034656E+04  0.47000000000E+01 0. -1.
         -5   -1    0    0    0  501 -0.00000000000E+00 -0.00000000000E+00 -0.32560888101E+02  0.32898350018E+02  0.47000000000E+01 0.  1.
          6    1    1    2  502    0  0.78601013082E+02  0.90234172442E+02  0.41740924277E+03  0.46704903499E+03  0.17200000000E+03 0.  1.
         -6    1    1    2    0  502 -0.78601013082E+02 -0.90234172442E+02  0.13792272966E+04  0.13950527806E+04  0.17200000000E+03 0. -1.
</event>
<event>
 4    1 -0.3291270E-004  0.1865591E+03  0.7818608E-02  0.1161602E+00
         -5   -1    0    0    0  501 -0.00000000000E+00  0.00000000000E+00  0.85524671881E+02  0.85653718544E+02  0.47000000000E+01 0.  1.
          5   -1    0    0  501    0  0.00000000000E+00 -0.00000000000E+00 -0.44249270299E+03  0.44251766315E+03  0.47000000000E+01 0. -1.
          6    1    1    2  502    0 -0.47028046010E+02 -0.54851149284E+02 -0.25378801589E+03  0.31498038463E+03  0.17200000000E+03 0. -1.
         -6    1    1    2    0  502  0.47028046010E+02  0.54851149284E+02 -0.10318001521E+03  0.21319099706E+03  0.17200000000E+03 0.  1.
</event>
<event>
 4    1 -0.3291270E-004  0.2988194E+03  0.7818608E-02  0.1085832E+00
         -5   -1    0    0    0  501 -0.00000000000E+00  0.00000000000E+00  0.55201747772E+03  0.55203748578E+03  0.47000000000E+01 0.  1.
          5   -1    0    0  501    0  0.00000000000E+00 -0.00000000000E+00 -0.13828515075E+04  0.13828594946E+04  0.47000000000E+01 0. -1.
          6    1    1    2  502    0  0.37807684142E+02  0.24141172141E+03 -0.13245253183E+04  0.13578145525E+04  0.17200000000E+03 0. -1.
         -6    1    1    2    0  502 -0.37807684142E+02 -0.24141172141E+03  0.49369128851E+03  0.57708242788E+03  0.17200000000E+03 0.  1.
</event>
<event>
 4    1 -0.3291270E-004  0.2072973E+03  0.7818608E-02  0.1143724E+00
          5   -1    0    0  501    0  0.00000000000E+00  0.00000000000E+00  0.56323936490E+02  0.56519694105E+02  0.47000000000E+01 0. -1.
         -5   -1    0    0    0  501 -0.00000000000E+00 -0.00000000000E+00 -0.82284016246E+03  0.82285358537E+03  0.47000000000E+01 0.  1.
          6    1    1    2  502    0 -0.54083982479E+02 -0.10228932155E+03 -0.26314681759E+03  0.33499019400E+03  0.17200000000E+03 0. -1.
         -6    1    1    2    0  502  0.54083982479E+02  0.10228932155E+03 -0.50336940838E+03  0.54438308548E+03  0.17200000000E+03 0.  1.
</event>
<event>
 4    1 -0.3291270E-004  0.2025610E+03  0.7818608E-02  0.1147596E+00
          5   -1    0    0  501    0  0.00000000000E+00  0.00000000000E+00  0.24198030578E+03  0.24202594569E+03  0.47000000000E+01 0. -1.
         -5   -1    0    0    0  501 -0.00000000000E+00 -0.00000000000E+00 -0.17024726151E+03  0.17031212538E+03  0.47000000000E+01 0.  1.
          6    1    1    2  502    0  0.44001271793E+02 -0.97523629310E+02  0.49801013331E+02  0.20859317132E+03  0.17200000000E+03 0.  1.
         -6    1    1    2    0  502 -0.44001271793E+02  0.97523629310E+02  0.21932030942E+02  0.20374489975E+03  0.17200000000E+03 0.  1.
</event>
<event>
 4    1 -0.3291270E-004  0.2212048E+03  0.7818608E-02  0.1132988E+00
         -5   -1    0    0    0  501 -0.00000000000E+00  0.00000000000E+00  0.17021718668E+03  0.17028206201E+03  0.47000000000E+01 0.  1.
          5   -1    0    0  501    0  0.00000000000E+00 -0.00000000000E+00 -0.30860985421E+03  0.30864564166E+03  0.47000000000E+01 0. -1.
          6    1    1    2  502    0  0.11450400405E+03 -0.78970961629E+02 -0.13207181864E+03  0.25763257753E+03  0.17200000000E+03 0. -1.
         -6    1    1    2    0  502 -0.11450400405E+03  0.78970961629E+02 -0.63208488926E+01  0.22129512614E+03  0.17200000000E+03 0.  1.
</event>
<event>
 4    1 -0.3291270E-004  0.1914374E+03  0.7818608E-02  0.1157171E+00
          5   -1    0    0  501    0  0.00000000000E+00  0.00000000000E+00  0.18497389676E+03  0.18503359825E+03  0.47000000000E+01 0. -1.
         -5   -1    0    0    0  501 -0.00000000000E+00 -0.00000000000E+00 -0.21337586670E+03  0.21342762354E+03  0.47000000000E+01 0.  1.
          6    1    1    2  502    0 -0.83245475803E+02 -0.11595827907E+02  0.39253795744E+02  0.19542040054E+03  0.17200000000E+03 0. -1.
         -6    1    1    2    0  502  0.83245475803E+02  0.11595827907E+02 -0.67655765686E+02  0.20304082126E+03  0.17200000000E+03 0.  1.
</event>
<event>
 4    1 -0.3291270E-004  0.2141665E+03  0.7818608E-02  0.1138308E+00
         -5   -1    0    0    0  501 -0.00000000000E+00  0.00000000000E+00  0.31128106506E+03  0.31131654544E+03  0.47000000000E+01 0.  1.
          5   -1    0    0  501    0  0.00000000000E+00 -0.00000000000E+00 -0.17036731893E+03  0.17043213711E+03  0.47000000000E+01 0. -1.
          6    1    1    2  502    0 -0.11222868460E+03 -0.60728928607E+02 -0.18208960437E+02  0.21493916967E+03  0.17200000000E+03 0. -1.
         -6    1    1    2    0  502  0.11222868460E+03  0.60728928607E+02  0.15912270657E+03  0.26680951288E+03  0.17200000000E+03 0.  1.
</event>
<event>
 4    1 -0.3291270E-004  0.3087572E+03  0.7818608E-02  0.1080943E+00
         -5   -1    0    0    0  501 -0.00000000000E+00  0.00000000000E+00  0.12969963861E+03  0.12978476897E+03  0.47000000000E+01 0.  1.
          5   -1    0    0  501    0  0.00000000000E+00 -0.00000000000E+00 -0.11502697791E+04  0.11502793811E+04  0.47000000000E+01 0. -1.
          6    1    1    2  502    0  0.23542127178E+03 -0.10160630047E+03 -0.89497954306E+03  0.94674146312E+03  0.17200000000E+03 0. -1.
         -6    1    1    2    0  502 -0.23542127178E+03  0.10160630047E+03 -0.12559059742E+03  0.33332268699E+03  0.17200000000E+03 0.  1.
</event>
<event>
 4    1 -0.3291270E-004  0.1799597E+03  0.7818608E-02  0.1167842E+00
          5   -1    0    0  501    0  0.00000000000E+00  0.00000000000E+00  0.28170536932E+03  0.28174457422E+03  0.47000000000E+01 0. -1.
         -5   -1    0    0    0  501 -0.00000000000E+00 -0.00000000000E+00 -0.14671009796E+03  0.14678536317E+03  0.47000000000E+01 0.  1.
          6    1    1    2  502    0  0.45421298327E+02 -0.27173221256E+02  0.16727780417E+03  0.24569766394E+03  0.17200000000E+03 0. -1.
         -6    1    1    2    0  502 -0.45421298327E+02  0.27173221256E+02 -0.32282532806E+02  0.18283227346E+03  0.17200000000E+03 0.  1.
</event>
<event>
 4    1 -0.3291270E-004  0.3992521E+03  0.7818608E-02  0.1044039E+00
          5   -1    0    0  501    0  0.00000000000E+00  0.00000000000E+00  0.59389841591E+03  0.59391701307E+03  0.47000000000E+01 0. -1.
         -5   -1    0    0    0  501 -0.00000000000E+00 -0.00000000000E+00 -0.27712614798E+03  0.27716600061E+03  0.47000000000E+01 0.  1.
          6    1    1    2  502    0 -0.34198912736E+03  0.11340925952E+03  0.23585677949E+03  0.46371396767E+03  0.17200000000E+03 0. -1.
         -6    1    1    2    0  502  0.34198912736E+03 -0.11340925952E+03  0.80915488444E+02  0.40736904601E+03  0.17200000000E+03 0.  1.
</event>
<event>
 4    1 -0.3291270E-004  0.2333806E+03  0.7818608E-02  0.1124283E+00
         -5   -1    0    0    0  501 -0.00000000000E+00  0.00000000000E+00  0.31255472316E+03  0.31259005897E+03  0.47000000000E+01 0.  1.
          5   -1    0    0  501    0  0.00000000000E+00 -0.00000000000E+00 -0.21146549295E+03  0.21151771724E+03  0.47000000000E+01 0. -1.
          6    1    1    2  502    0 -0.12167164778E+03 -0.10039177692E+03 -0.59460719482E+02  0.24083620141E+03  0.17200000000E+03 0. -1.
         -6    1    1    2    0  502  0.12167164778E+03  0.10039177692E+03  0.16054994969E+03  0.28327157480E+03  0.17200000000E+03 0.  1.
</event>
<event>
 4    1 -0.3291270E-004  0.1742707E+03  0.7818608E-02  0.1173466E+00
         -5   -1    0    0    0  501 -0.00000000000E+00  0.00000000000E+00  0.31085036790E+03  0.31088589743E+03  0.47000000000E+01 0.  1.
          5   -1    0    0  501    0  0.00000000000E+00 -0.00000000000E+00 -0.11973062863E+03  0.11982284186E+03  0.47000000000E+01 0. -1.
          6    1    1    2  502    0  0.21481681749E+02  0.18023035532E+02  0.30330096634E+01  0.17429713597E+03  0.17200000000E+03 0. -1.
         -6    1    1    2    0  502 -0.21481681749E+02 -0.18023035532E+02  0.18808672961E+03  0.25641160332E+03  0.17200000000E+03 0.  1.
</event>
<event>
 4    1 -0.3291270E-004  0.3108734E+03  0.7818608E-02  0.1079928E+00
         -5   -1    0    0    0  501 -0.00000000000E+00  0.00000000000E+00  0.28098031805E+04  0.28098071114E+04  0.47000000000E+01 0.  1.
          5   -1    0    0  501    0  0.00000000000E+00 -0.00000000000E+00 -0.42079880584E+02  0.42341544020E+02  0.47000000000E+01 0. -1.
          6    1    1    2  502    0 -0.30427998204E+02  0.25716224394E+03  0.19976428889E+04  0.20216872643E+04  0.17200000000E+03 0. -1.
         -6    1    1    2    0  502  0.30427998204E+02 -0.25716224394E+03  0.77008041097E+03  0.83046139112E+03  0.17200000000E+03 0.  1.
</event>
<event>
 4    1 -0.3291270E-004  0.3081644E+03  0.7818608E-02  0.1081229E+00
         -5   -1    0    0    0  501 -0.00000000000E+00  0.00000000000E+00  0.16694416760E+03  0.16701031434E+03  0.47000000000E+01 0.  1.
          5   -1    0    0  501    0  0.00000000000E+00 -0.00000000000E+00 -0.67351931491E+03  0.67353571365E+03  0.47000000000E+01 0. -1.
          6    1    1    2  502    0 -0.21736646285E+03  0.13465919293E+03 -0.41910919638E+03  0.52020937698E+03  0.17200000000E+03 0. -1.
         -6    1    1    2    0  502  0.21736646285E+03 -0.13465919293E+03 -0.87465950930E+02  0.32033665101E+03  0.17200000000E+03 0.  1.
</event>
<event>
 4    1 -0.3291270E-004  0.1723733E+03  0.7818608E-02  0.1175395E+00
          5   -1    0    0  501    0  0.00000000000E+00  0.00000000000E+00  0.62059746043E+03  0.62061525754E+03  0.47000000000E+01 0. -1.
         -5   -1    0    0    0  501 -0.00000000000E+00 -0.00000000000E+00 -0.14591975660E+03  0.14599542926E+03  0.47000000000E+01 0.  1.
          6    1    1    2  502    0  0.10787575467E+02 -0.34893427800E+01  0.55156099647E+03  0.57786856648E+03  0.17200000000E+03 0. -1.
         -6    1    1    2    0  502 -0.10787575467E+02  0.34893427800E+01 -0.76883292639E+02  0.18874212032E+03  0.17200000000E+03 0.  1.
</event>
<event>
 4    1 -0.3291270E-004  0.2472168E+03  0.7818608E-02  0.1115076E+00
         -5   -1    0    0    0  501 -0.00000000000E+00  0.00000000000E+00  0.26224570789E+03  0.26228782150E+03  0.47000000000E+01 0.  1.
          5   -1    0    0  501    0  0.00000000000E+00 -0.00000000000E+00 -0.37958783922E+03  0.37961693545E+03  0.47000000000E+01 0. -1.
          6    1    1    2  502    0 -0.84821233603E+02 -0.15600479489E+03 -0.25812374045E+03  0.35741293077E+03  0.17200000000E+03 0. -1.
         -6    1    1    2    0  502  0.84821233603E+02  0.15600479489E+03  0.14078160912E+03  0.28449182618E+03  0.17200000000E+03 0.  1.
</event>
<event>
 4    1 -0.3291270E-004  0.2141690E+03  0.7818608E-02  0.1138306E+00
          5   -1    0    0  501    0  0.00000000000E+00  0.00000000000E+00  0.74156822318E+03  0.74158311715E+03  0.47000000000E+01 0. -1.
         -5   -1    0    0    0  501 -0.00000000000E+00 -0.00000000000E+00 -0.73174542193E+02  0.73325327310E+02  0.47000000000E+01 0.  1.
          6    1    1    2  502    0  0.11502415368E+03  0.55261222118E+02  0.17338540362E+03  0.27555554211E+03  0.17200000000E+03 0. -1.
         -6    1    1    2    0  502 -0.11502415368E+03 -0.55261222118E+02  0.49500827737E+03  0.53935290235E+03  0.17200000000E+03 0. -1.
</event>
<event>
 4    1 -0.3291270E-004  0.1866149E+03  0.7818608E-02  0.1161550E+00
          5   -1    0    0  501    0  0.00000000000E+00  0.00000000000E+00  0.10174032423E+03  0.10184882707E+03  0.47000000000E+01 0. -1.
         -5   -1    0    0    0  501 -0.00000000000E+00 -0.00000000000E+00 -0.46521957936E+03  0.46524332023E+03  0.47000000000E+01 0.  1.
          6    1    1    2  502    0  0.65111072917E+02 -0.31648872440E+02 -0.35826678583E+02  0.19002277190E+03  0.17200000000E+03 0. -1.
         -6    1    1    2    0  502 -0.65111072917E+02  0.31648872440E+02 -0.32765257654E+03  0.37706937539E+03  0.17200000000E+03 0.  1.
</event>
<event>
 4    1 -0.3291270E-004  0.1958423E+03  0.7818608E-02  0.1153295E+00
         -5   -1    0    0    0  501 -0.00000000000E+00  0.00000000000E+00  0.54836231473E+03  0.54838245615E+03  0.47000000000E+01 0.  1.
          5   -1    0    0  501    0  0.00000000000E+00 -0.00000000000E+00 -0.69912409384E+02  0.70070214685E+02  0.47000000000E+01 0. -1.
          6    1    1    2  502    0 -0.91712874935E+02 -0.18946319809E+02  0.22947930457E+03  0.30168686695E+03  0.17200000000E+03 0. -1.
         -6    1    1    2    0  502  0.91712874935E+02  0.18946319809E+02  0.24897060078E+03  0.31676580389E+03  0.17200000000E+03 0. -1.
</event>
<event>
 4    1 -0.3291270E-004  0.1996529E+03  0.7818608E-02  0.1150032E+00
          5   -1    0    0  501    0  0.00000000000E+00  0.00000000000E+00  0.42546351657E+02  0.42805163699E+02  0.47000000000E+01 0. -1.
         -5   -1    0    0    0  501 -0.00000000000E+00 -0.00000000000E+00 -0.17779303811E+04  0.17779365933E+04  0.47000000000E+01 0.  1.
          6    1    1    2  502    0  0.17093035059E+02  0.99925445642E+02 -0.24044734813E+03  0.31253190838E+03  0.17200000000E+03 0. -1.
         -6    1    1    2    0  502 -0.17093035059E+02 -0.99925445642E+02 -0.14949366813E+04  0.15082098486E+04  0.17200000000E+03 0.  1.
</event>
<event>
 4    1 -0.3291270E-004  0.4589823E+03  0.7818608E-02  0.1025077E+00
          5   -1    0    0  501    0  0.00000000000E+00  0.00000000000E+00  0.13058061134E+03  0.13066516773E+03  0.47000000000E+01 0. -1.
         -5   -1    0    0    0  501 -0.00000000000E+00 -0.00000000000E+00 -0.17548441126E+04  0.17548504066E+04  0.47000000000E+01 0.  1.
          6    1    1    2  502    0 -0.40322037000E+03 -0.13599299145E+03 -0.54380713420E+03  0.71161152304E+03  0.17200000000E+03 0. -1.
         -6    1    1    2    0  502  0.40322037000E+03  0.13599299145E+03 -0.10804563671E+04  0.11739040513E+04  0.17200000000E+03 0.  1.
</event>
<event>
 4    1 -0.3291270E-004  0.2958533E+03  0.7818608E-02  0.1087332E+00
         -5   -1    0    0    0  501 -0.00000000000E+00  0.00000000000E+00  0.10276717923E+04  0.10276825399E+04  0.47000000000E+01 0.  1.
          5   -1    0    0  501    0  0.00000000000E+00 -0.00000000000E+00 -0.10533788501E+03  0.10544268594E+03  0.47000000000E+01 0. -1.
          6    1    1    2  502    0 -0.11720110088E+03  0.21025954497E+03  0.21295964803E+03  0.36452844332E+03  0.17200000000E+03 0. -1.
         -6    1    1    2    0  502  0.11720110088E+03 -0.21025954497E+03  0.70937425928E+03  0.76859678247E+03  0.17200000000E+03 0.  1.
</event>
<event>
 4    1 -0.3291270E-004  0.2578281E+03  0.7818608E-02  0.1108455E+00
          5   -1    0    0  501    0  0.00000000000E+00  0.00000000000E+00  0.26434861087E+03  0.26439038951E+03  0.47000000000E+01 0. -1.
         -5   -1    0    0    0  501 -0.00000000000E+00 -0.00000000000E+00 -0.25956387530E+03  0.25960642396E+03  0.47000000000E+01 0.  1.
          6    1    1    2  502    0 -0.55244131163E+02  0.18395485937E+03 -0.44108360044E+02  0.26157379788E+03  0.17200000000E+03 0. -1.
         -6    1    1    2    0  502  0.55244131163E+02 -0.18395485937E+03  0.48893095614E+02  0.26242301559E+03  0.17200000000E+03 0. -1.
</event>
<event>
 4    1 -0.3291270E-004  0.2778269E+03  0.7818608E-02  0.1096882E+00
         -5   -1    0    0    0  501 -0.00000000000E+00  0.00000000000E+00  0.10215018672E+03  0.10225825467E+03  0.47000000000E+01 0.  1.
          5   -1    0    0  501    0  0.00000000000E+00 -0.00000000000E+00 -0.90549736885E+03  0.90550956648E+03  0.47000000000E+01 0. -1.
          6    1    1    2  502    0  0.20021221743E+03 -0.86711192858E+02 -0.60700519496E+03  0.66756503030E+03  0.17200000000E+03 0. -1.
         -6    1    1    2    0  502 -0.20021221743E+03  0.86711192858E+02 -0.19634198716E+03  0.34020279085E+03  0.17200000000E+03 0.  1.
</event>
<event>
 4    1 -0.3291270E-004  0.2336641E+03  0.7818608E-02  0.1124087E+00
          5   -1    0    0  501    0  0.00000000000E+00  0.00000000000E+00  0.17204233468E+03  0.17210652202E+03  0.47000000000E+01 0. -1.
         -5   -1    0    0    0  501 -0.00000000000E+00 -0.00000000000E+00 -0.48870498188E+03  0.48872758190E+03  0.47000000000E+01 0.  1.
          6    1    1    2  502    0 -0.80402247150E+02  0.13619982554E+03  0.37379609690E+02  0.23663505456E+03  0.17200000000E+03 0. -1.
         -6    1    1    2    0  502  0.80402247150E+02 -0.13619982554E+03 -0.35404225688E+03  0.42419904937E+03  0.17200000000E+03 0.  1.
</event>
<event>
 4    1 -0.3291270E-004  0.2224664E+03  0.7818608E-02  0.1132058E+00
          5   -1    0    0  501    0  0.00000000000E+00  0.00000000000E+00  0.88335639517E+02  0.88460585624E+02  0.47000000000E+01 0. -1.
         -5   -1    0    0    0  501 -0.00000000000E+00 -0.00000000000E+00 -0.65139808686E+03  0.65141504248E+03  0.47000000000E+01 0.  1.
          6    1    1    2  502    0  0.12064750247E+03 -0.73153773347E+02 -0.14277299875E+03  0.26433959896E+03  0.17200000000E+03 0. -1.
         -6    1    1    2    0  502 -0.12064750247E+03  0.73153773347E+02 -0.42028944860E+03  0.47553602914E+03  0.17200000000E+03 0.  1.
</event>
<event>
 4    1 -0.3291270E-004  0.2647041E+03  0.7818608E-02  0.1104349E+00
          5   -1    0    0  501    0  0.00000000000E+00  0.00000000000E+00  0.10884115181E+04  0.10884216659E+04  0.47000000000E+01 0. -1.
         -5   -1    0    0    0  501 -0.00000000000E+00 -0.00000000000E+00 -0.64593519732E+02  0.64764286388E+02  0.47000000000E+01 0.  1.
          6    1    1    2  502    0  0.18761799681E+03  0.72689351363E+02  0.47181865660E+03  0.54100009172E+03  0.17200000000E+03 0.  1.
         -6    1    1    2    0  502 -0.18761799681E+03 -0.72689351363E+02  0.55199934177E+03  0.61218586053E+03  0.17200000000E+03 0. -1.
</event>
<event>
 4    1 -0.3291270E-004  0.3704190E+03  0.7818608E-02  0.1054533E+00
          5   -1    0    0  501    0  0.00000000000E+00  0.00000000000E+00  0.67494765416E+03  0.67496401819E+03  0.47000000000E+01 0. -1.
         -5   -1    0    0    0  501 -0.00000000000E+00 -0.00000000000E+00 -0.29228552842E+03  0.29232331437E+03  0.47000000000E+01 0.  1.
          6    1    1    2  502    0 -0.25941100837E+03  0.20082875191E+03  0.45824498473E+03  0.58923571250E+03  0.17200000000E+03 0. -1.
         -6    1    1    2    0  502  0.25941100837E+03 -0.20082875191E+03 -0.75582858986E+02  0.37805162006E+03  0.17200000000E+03 0.  1.
</event>
<event>
 4    1 -0.3291270E-004  0.2455441E+03  0.7818608E-02  0.1116154E+00
         -5   -1    0    0    0  501 -0.00000000000E+00  0.00000000000E+00  0.44659815445E+03  0.44662288518E+03  0.47000000000E+01 0.  1.
          5   -1    0    0  501    0  0.00000000000E+00 -0.00000000000E+00 -0.13869834762E+03  0.13877795803E+03  0.47000000000E+01 0. -1.
          6    1    1    2  502    0 -0.13328443274E+03 -0.11376807433E+03  0.10574264445E+03  0.26734513574E+03  0.17200000000E+03 0. -1.
         -6    1    1    2    0  502  0.13328443274E+03  0.11376807433E+03  0.20215716238E+03  0.31805570746E+03  0.17200000000E+03 0.  1.
</event>
<event>
 4    1 -0.3291270E-004  0.1813330E+03  0.7818608E-02  0.1166519E+00
         -5   -1    0    0    0  501 -0.00000000000E+00  0.00000000000E+00  0.44059345888E+03  0.44061852663E+03  0.47000000000E+01 0.  1.
          5   -1    0    0  501    0  0.00000000000E+00 -0.00000000000E+00 -0.83494388291E+02  0.83626568004E+02  0.47000000000E+01 0. -1.
          6    1    1    2  502    0 -0.26504971957E+02 -0.50942685265E+02  0.92741811985E+02  0.20367305765E+03  0.17200000000E+03 0. -1.
         -6    1    1    2    0  502  0.26504971957E+02  0.50942685265E+02  0.26435725860E+03  0.32057203698E+03  0.17200000000E+03 0.  1.
</event>
<event>
 4    1 -0.3291270E-004  0.4151220E+03  0.7818608E-02  0.1038666E+00
          5   -1    0    0  501    0  0.00000000000E+00  0.00000000000E+00  0.12220596840E+04  0.12220687220E+04  0.47000000000E+01 0. -1.
         -5   -1    0    0    0  501 -0.00000000000E+00 -0.00000000000E+00 -0.14800765978E+03  0.14808226550E+03  0.47000000000E+01 0.  1.
          6    1    1    2  502    0 -0.73190851424E+02  0.37065531384E+03  0.68643015489E+03  0.80219238338E+03  0.17200000000E+03 0.  1.
         -6    1    1    2    0  502  0.73190851424E+02 -0.37065531384E+03  0.38762186937E+03  0.56795860415E+03  0.17200000000E+03 0.  1.
</event>
<event>
 4    1 -0.3291270E-004  0.1764920E+03  0.7818608E-02  0.1171242E+00
          5   -1    0    0  501    0  0.00000000000E+00  0.00000000000E+00  0.81522182472E+02  0.81657554672E+02  0.47000000000E+01 0. -1.
         -5   -1    0    0    0  501 -0.00000000000E+00 -0.00000000000E+00 -0.39051256170E+03  0.39054084402E+03  0.47000000000E+01 0.  1.
          6    1    1    2  502    0 -0.34687419587E+02 -0.19031347877E+02 -0.19009458494E+03  0.25939421833E+03  0.17200000000E+03 0. -1.
         -6    1    1    2    0  502  0.34687419587E+02  0.19031347877E+02 -0.11889579429E+03  0.21280418036E+03  0.17200000000E+03 0. -1.
</event>
<event>
 4    1 -0.3291270E-004  0.2907462E+03  0.7818608E-02  0.1089960E+00
          5   -1    0    0  501    0  0.00000000000E+00  0.00000000000E+00  0.26937703610E+03  0.26941803499E+03  0.47000000000E+01 0. -1.
         -5   -1    0    0    0  501 -0.00000000000E+00 -0.00000000000E+00 -0.56922177383E+03  0.56924117718E+03  0.47000000000E+01 0.  1.
          6    1    1    2  502    0  0.66286918503E+02 -0.22484523730E+03  0.13099518748E+03  0.31889351741E+03  0.17200000000E+03 0. -1.
         -6    1    1    2    0  502 -0.66286918503E+02  0.22484523730E+03 -0.43083992521E+03  0.51976569477E+03  0.17200000000E+03 0. -1.
</event>
<event>
 4    1 -0.3291270E-004  0.2154647E+03  0.7818608E-02  0.1137310E+00
          5   -1    0    0  501    0  0.00000000000E+00  0.00000000000E+00  0.68729412310E+03  0.68731019318E+03  0.47000000000E+01 0. -1.
         -5   -1    0    0    0  501 -0.00000000000E+00 -0.00000000000E+00 -0.13370704412E+03  0.13378962459E+03  0.47000000000E+01 0.  1.
          6    1    1    2  502    0  0.42313355394E+02  0.12268088876E+03  0.56565034796E+03  0.60529772563E+03  0.17200000000E+03 0. -1.
         -6    1    1    2    0  502 -0.42313355394E+02 -0.12268088876E+03 -0.12063268971E+02  0.21580209214E+03  0.17200000000E+03 0.  1.
</event>
<event>
 4    1 -0.3291270E-004  0.2210084E+03  0.7818608E-02  0.1133133E+00
          5   -1    0    0  501    0  0.00000000000E+00  0.00000000000E+00  0.16430239240E+03  0.16436960226E+03  0.47000000000E+01 0. -1.
         -5   -1    0    0    0  501 -0.00000000000E+00 -0.00000000000E+00 -0.30663147228E+03  0.30666749060E+03  0.47000000000E+01 0.  1.
          6    1    1    2  502    0 -0.13771632787E+03  0.17173623501E+02 -0.29732648088E+02  0.22299944096E+03  0.17200000000E+03 0. -1.
         -6    1    1    2    0  502  0.13771632787E+03 -0.17173623501E+02 -0.11259643180E+03  0.24803765190E+03  0.17200000000E+03 0. -1.
</event>
<event>
 4    1 -0.3291270E-004  0.2008615E+03  0.7818608E-02  0.1149014E+00
         -5   -1    0    0    0  501 -0.00000000000E+00  0.00000000000E+00  0.36739182235E+03  0.36742188439E+03  0.47000000000E+01 0.  1.
          5   -1    0    0  501    0  0.00000000000E+00 -0.00000000000E+00 -0.20755140620E+03  0.20760461511E+03  0.47000000000E+01 0. -1.
          6    1    1    2  502    0  0.42517550343E+02 -0.94623464036E+02 -0.11741224040E+03  0.23266064607E+03  0.17200000000E+03 0. -1.
         -6    1    1    2    0  502 -0.42517550343E+02  0.94623464036E+02  0.27725265655E+03  0.34236585343E+03  0.17200000000E+03 0.  1.
</event>
<event>
 4    1 -0.3291270E-004  0.2132597E+03  0.7818608E-02  0.1139010E+00
         -5   -1    0    0    0  501 -0.00000000000E+00  0.00000000000E+00  0.40543360715E+03  0.40546084868E+03  0.47000000000E+01 0.  1.
          5   -1    0    0  501    0  0.00000000000E+00 -0.00000000000E+00 -0.14004827797E+03  0.14012712143E+03  0.47000000000E+01 0. -1.
          6    1    1    2  502    0 -0.12586253366E+03  0.73706764309E+01  0.10869192075E+02  0.21353651581E+03  0.17200000000E+03 0. -1.
         -6    1    1    2    0  502  0.12586253366E+03 -0.73706764309E+01  0.25451613711E+03  0.33205145430E+03  0.17200000000E+03 0.  1.
</event>
<event>
 4    1 -0.3291270E-004  0.4226207E+03  0.7818608E-02  0.1036217E+00
          5   -1    0    0  501    0  0.00000000000E+00  0.00000000000E+00  0.38041696363E+03  0.38044599646E+03  0.47000000000E+01 0. -1.
         -5   -1    0    0    0  501 -0.00000000000E+00 -0.00000000000E+00 -0.55453884721E+03  0.55455876430E+03  0.47000000000E+01 0.  1.
          6    1    1    2  502    0  0.38601306840E+03 -0.42617455870E+01  0.96060767589E+02  0.43340041823E+03  0.17200000000E+03 0. -1.
         -6    1    1    2    0  502 -0.38601306840E+03  0.42617455870E+01 -0.27018265117E+03  0.50160434253E+03  0.17200000000E+03 0.  1.
</event>
<event>
 4    1 -0.3291270E-004  0.4241172E+03  0.7818608E-02  0.1035735E+00
          5   -1    0    0  501    0  0.00000000000E+00  0.00000000000E+00  0.32401081547E+03  0.32404490204E+03  0.47000000000E+01 0. -1.
         -5   -1    0    0    0  501 -0.00000000000E+00 -0.00000000000E+00 -0.75798091955E+03  0.75799549101E+03  0.47000000000E+01 0.  1.
          6    1    1    2  502    0 -0.17639504674E+02 -0.38727285363E+03  0.62921091360E+02  0.42875923200E+03  0.17200000000E+03 0. -1.
         -6    1    1    2    0  502  0.17639504674E+02  0.38727285363E+03 -0.49689119544E+03  0.65328116106E+03  0.17200000000E+03 0.  1.
</event>
<event>
 4    1 -0.3291270E-004  0.2572977E+03  0.7818608E-02  0.1108778E+00
         -5   -1    0    0    0  501 -0.00000000000E+00  0.00000000000E+00  0.12261586869E+04  0.12261676947E+04  0.47000000000E+01 0.  1.
          5   -1    0    0  501    0  0.00000000000E+00 -0.00000000000E+00 -0.93595081923E+02  0.93713015959E+02  0.47000000000E+01 0. -1.
          6    1    1    2  502    0  0.65414986753E+02 -0.17983039087E+03  0.13678346838E+03  0.29139630608E+03  0.17200000000E+03 0. -1.
         -6    1    1    2    0  502 -0.65414986753E+02  0.17983039087E+03  0.99578013661E+03  0.10284844046E+04  0.17200000000E+03 0.  1.
</event>
<event>
 4    1 -0.3291270E-004  0.1982465E+03  0.7818608E-02  0.1151227E+00
         -5   -1    0    0    0  501 -0.00000000000E+00  0.00000000000E+00  0.11857637001E+03  0.11866948017E+03  0.47000000000E+01 0.  1.
          5   -1    0    0  501    0  0.00000000000E+00 -0.00000000000E+00 -0.35715946460E+03  0.35719038782E+03  0.47000000000E+01 0. -1.
          6    1    1    2  502    0  0.59334406918E+01 -0.98399536850E+02 -0.18341806590E+03  0.27008121273E+03  0.17200000000E+03 0. -1.
         -6    1    1    2    0  502 -0.59334406918E+01  0.98399536850E+02 -0.55165028690E+02  0.20577865526E+03  0.17200000000E+03 0.  1.
</event>
<event>
 4    1 -0.3291270E-004  0.2466082E+03  0.7818608E-02  0.1115467E+00
          5   -1    0    0  501    0  0.00000000000E+00  0.00000000000E+00  0.79505883327E+03  0.79507272520E+03  0.47000000000E+01 0. -1.
         -5   -1    0    0    0  501 -0.00000000000E+00 -0.00000000000E+00 -0.82931213668E+02  0.83064289562E+02  0.47000000000E+01 0.  1.
          6    1    1    2  502    0 -0.13353781721E+03 -0.11575508366E+03  0.47911878316E+03  0.53886027539E+03  0.17200000000E+03 0. -1.
         -6    1    1    2    0  502  0.13353781721E+03  0.11575508366E+03  0.23300883644E+03  0.33927673937E+03  0.17200000000E+03 0.  1.
</event>
<event>
 4    1 -0.3291270E-004  0.1961136E+03  0.7818608E-02  0.1153060E+00
         -5   -1    0    0    0  501 -0.00000000000E+00  0.00000000000E+00  0.12019487111E+03  0.12028672845E+03  0.47000000000E+01 0.  1.
          5   -1    0    0  501    0  0.00000000000E+00 -0.00000000000E+00 -0.34395922553E+03  0.34399133540E+03  0.47000000000E+01 0. -1.
          6    1    1    2  502    0  0.74794737228E+02  0.57291127839E+02 -0.17345310193E+03  0.26181387399E+03  0.17200000000E+03 0.  1.
         -6    1    1    2    0  502 -0.74794737228E+02 -0.57291127839E+02 -0.50311252491E+02  0.20246418985E+03  0.17200000000E+03 0. -1.
</event>
<event>
 4    1 -0.3291270E-004  0.6783818E+03  0.7818608E-02  0.9754933E-01
          5   -1    0    0  501    0  0.00000000000E+00  0.00000000000E+00  0.79967796283E+03  0.79969177452E+03  0.47000000000E+01 0. -1.
         -5   -1    0    0    0  501 -0.00000000000E+00 -0.00000000000E+00 -0.93704984398E+03  0.93706163090E+03  0.47000000000E+01 0.  1.
          6    1    1    2  502    0  0.59876709880E+03 -0.26850669000E+03  0.47073867620E+03  0.82570986578E+03  0.17200000000E+03 0. -1.
         -6    1    1    2    0  502 -0.59876709880E+03  0.26850669000E+03 -0.60811055734E+03  0.91104353965E+03  0.17200000000E+03 0.  1.
</event>
<event>
 4    1 -0.3291270E-004  0.2219914E+03  0.7818608E-02  0.1132407E+00
          5   -1    0    0  501    0  0.00000000000E+00  0.00000000000E+00  0.92489524252E+02  0.92608866186E+02  0.47000000000E+01 0. -1.
         -5   -1    0    0    0  501 -0.00000000000E+00 -0.00000000000E+00 -0.83850112305E+03  0.83851429526E+03  0.47000000000E+01 0.  1.
          6    1    1    2  502    0  0.13553158281E+03  0.36433402200E+02 -0.91711615555E+02  0.24018997307E+03  0.17200000000E+03 0. -1.
         -6    1    1    2    0  502 -0.13553158281E+03 -0.36433402200E+02 -0.65429998325E+03  0.69093318838E+03  0.17200000000E+03 0.  1.
</event>
<event>
 4    1 -0.3291270E-004  0.1733281E+03  0.7818608E-02  0.1174421E+00
         -5   -1    0    0    0  501 -0.00000000000E+00  0.00000000000E+00  0.64512522867E+02  0.64683503358E+02  0.47000000000E+01 0.  1.
          5   -1    0    0  501    0  0.00000000000E+00 -0.00000000000E+00 -0.46511569536E+03  0.46513944154E+03  0.47000000000E+01 0. -1.
          6    1    1    2  502    0 -0.20575107572E+02 -0.59409590550E+01 -0.20616657270E+03  0.26934603347E+03  0.17200000000E+03 0. -1.
         -6    1    1    2    0  502  0.20575107572E+02  0.59409590550E+01 -0.19443659980E+03  0.26047691143E+03  0.17200000000E+03 0. -1.
</event>
<event>
 4    1 -0.3291270E-004  0.1948420E+03  0.7818608E-02  0.1154165E+00
          5   -1    0    0  501    0  0.00000000000E+00  0.00000000000E+00  0.40877881697E+02  0.41147189601E+02  0.47000000000E+01 0. -1.
         -5   -1    0    0    0  501 -0.00000000000E+00 -0.00000000000E+00 -0.92551735560E+03  0.92552928939E+03  0.47000000000E+01 0.  1.
          6    1    1    2  502    0 -0.90497111419E+02  0.13772396997E+02 -0.44824074896E+03  0.48875676479E+03  0.17200000000E+03 0. -1.
         -6    1    1    2    0  502  0.90497111419E+02 -0.13772396997E+02 -0.43639872494E+03  0.47791971420E+03  0.17200000000E+03 0.  1.
</event>
<event>
 4    1 -0.3291270E-004  0.2407690E+03  0.7818608E-02  0.1119282E+00
          5   -1    0    0  501    0  0.00000000000E+00  0.00000000000E+00  0.78882921025E+03  0.78884321189E+03  0.47000000000E+01 0. -1.
         -5   -1    0    0    0  501 -0.00000000000E+00 -0.00000000000E+00 -0.90336839547E+02  0.90459021547E+02  0.47000000000E+01 0.  1.
          6    1    1    2  502    0  0.16685587769E+03 -0.23341398814E+02  0.53946377617E+03  0.59075449268E+03  0.17200000000E+03 0. -1.
         -6    1    1    2    0  502 -0.16685587769E+03  0.23341398814E+02  0.15902859454E+03  0.28854774076E+03  0.17200000000E+03 0.  1.
</event>
<event>
 4    1 -0.3291270E-004  0.1804675E+03  0.7818608E-02  0.1167351E+00
         -5   -1    0    0    0  501 -0.00000000000E+00  0.00000000000E+00  0.13579601936E+04  0.13579683271E+04  0.47000000000E+01 0.  1.
          5   -1    0    0  501    0  0.00000000000E+00 -0.00000000000E+00 -0.33000542120E+02  0.33333553370E+02  0.47000000000E+01 0. -1.
          6    1    1    2  502    0  0.51454350818E+02 -0.18356969044E+02  0.10286524031E+04  0.10443631049E+04  0.17200000000E+03 0.  1.
         -6    1    1    2    0  502 -0.51454350818E+02  0.18356969044E+02  0.29630724837E+03  0.34693877553E+03  0.17200000000E+03 0. -1.
</event>
<event>
 4    1 -0.3291270E-004  0.2979366E+03  0.7818608E-02  0.1086277E+00
          5   -1    0    0  501    0  0.00000000000E+00  0.00000000000E+00  0.33957246639E+03  0.33960499103E+03  0.47000000000E+01 0. -1.
         -5   -1    0    0    0  501 -0.00000000000E+00 -0.00000000000E+00 -0.27029426132E+03  0.27033512110E+03  0.47000000000E+01 0.  1.
          6    1    1    2  502    0  0.78801625724E+02 -0.23015759694E+03  0.90140379525E+02  0.31127400095E+03  0.17200000000E+03 0.  1.
         -6    1    1    2    0  502 -0.78801625724E+02  0.23015759694E+03 -0.20862174448E+02  0.29866611118E+03  0.17200000000E+03 0.  1.
</event>
<event>
 4    1 -0.3291270E-004  0.7848551E+03  0.7818608E-02  0.9582201E-01
          5   -1    0    0  501    0  0.00000000000E+00  0.00000000000E+00  0.15901960154E+04  0.15902029611E+04  0.47000000000E+01 0. -1.
         -5   -1    0    0    0  501 -0.00000000000E+00 -0.00000000000E+00 -0.52260765902E+03  0.52262879300E+03  0.47000000000E+01 0.  1.
          6    1    1    2  502    0  0.51022915465E+03 -0.57103390447E+03  0.10712153171E+04  0.13279682849E+04  0.17200000000E+03 0. -1.
         -6    1    1    2    0  502 -0.51022915465E+03  0.57103390447E+03 -0.36269606868E+01  0.78486346912E+03  0.17200000000E+03 0.  1.
</event>
<event>
 4    1 -0.3291270E-004  0.2027105E+03  0.7818608E-02  0.1147472E+00
          5   -1    0    0  501    0  0.00000000000E+00  0.00000000000E+00  0.12727634260E+03  0.12736309272E+03  0.47000000000E+01 0. -1.
         -5   -1    0    0    0  501 -0.00000000000E+00 -0.00000000000E+00 -0.34256577691E+03  0.34259801737E+03  0.47000000000E+01 0.  1.
          6    1    1    2  502    0 -0.10024455517E+03 -0.38191112418E+02 -0.16430808212E+03  0.26093807265E+03  0.17200000000E+03 0.  1.
         -6    1    1    2    0  502  0.10024455517E+03  0.38191112418E+02 -0.50981352183E+02  0.20902303744E+03  0.17200000000E+03 0. -1.
</event>
<event>
 4    1 -0.3291270E-004  0.3692986E+03  0.7818608E-02  0.1054961E+00
          5   -1    0    0  501    0  0.00000000000E+00  0.00000000000E+00  0.32776630346E+03  0.32779999952E+03  0.47000000000E+01 0. -1.
         -5   -1    0    0    0  501 -0.00000000000E+00 -0.00000000000E+00 -0.47582855992E+03  0.47585177150E+03  0.47000000000E+01 0.  1.
          6    1    1    2  502    0 -0.33908919850E+02  0.32503482673E+03  0.68414344919E+02  0.37558218278E+03  0.17200000000E+03 0. -1.
         -6    1    1    2    0  502  0.33908919850E+02 -0.32503482673E+03 -0.21647660138E+03  0.42806958824E+03  0.17200000000E+03 0.  1.
</event>
<event>
 4    1 -0.3291270E-004  0.2430573E+03  0.7818608E-02  0.1117773E+00
          5   -1    0    0  501    0  0.00000000000E+00  0.00000000000E+00  0.13043387200E+03  0.13051852346E+03  0.47000000000E+01 0. -1.
         -5   -1    0    0    0  501 -0.00000000000E+00 -0.00000000000E+00 -0.50672452599E+03  0.50674632237E+03  0.47000000000E+01 0.  1.
          6    1    1    2  502    0 -0.14775383463E+03 -0.87530919436E+02 -0.29219143296E+03  0.38006932394E+03  0.17200000000E+03 0. -1.
         -6    1    1    2    0  502  0.14775383463E+03  0.87530919436E+02 -0.84099221027E+02  0.25719552189E+03  0.17200000000E+03 0. -1.
</event>
<event>
 4    1 -0.3291270E-004  0.1846006E+03  0.7818608E-02  0.1163423E+00
          5   -1    0    0  501    0  0.00000000000E+00  0.00000000000E+00  0.74777672358E+03  0.74779149388E+03  0.47000000000E+01 0. -1.
         -5   -1    0    0    0  501 -0.00000000000E+00 -0.00000000000E+00 -0.64548467948E+02  0.64719353477E+02  0.47000000000E+01 0.  1.
          6    1    1    2  502    0  0.14772291774E+02 -0.65384792107E+02  0.56230292040E+03  0.59182933852E+03  0.17200000000E+03 0. -1.
         -6    1    1    2    0  502 -0.14772291774E+02  0.65384792107E+02  0.12092533523E+03  0.22068150884E+03  0.17200000000E+03 0. -1.
</event>
<event>
 4    1 -0.3291270E-004  0.2004336E+03  0.7818608E-02  0.1149374E+00
         -5   -1    0    0    0  501 -0.00000000000E+00  0.00000000000E+00  0.16984820019E+03  0.16991321641E+03  0.47000000000E+01 0.  1.
          5   -1    0    0  501    0  0.00000000000E+00 -0.00000000000E+00 -0.26469516103E+03  0.26473688499E+03  0.47000000000E+01 0. -1.
          6    1    1    2  502    0 -0.47758141745E+02  0.91152524714E+02 -0.11847232915E+03  0.23282894073E+03  0.17200000000E+03 0. -1.
         -6    1    1    2    0  502  0.47758141745E+02 -0.91152524714E+02  0.23625368316E+02  0.20182116067E+03  0.17200000000E+03 0.  1.
</event>
<event>
 4    1 -0.3291270E-004  0.2281736E+03  0.7818608E-02  0.1127932E+00
         -5   -1    0    0    0  501 -0.00000000000E+00  0.00000000000E+00  0.41390450665E+02  0.41656444955E+02  0.47000000000E+01 0.  1.
          5   -1    0    0  501    0  0.00000000000E+00 -0.00000000000E+00 -0.12556661621E+04  0.12556749582E+04  0.47000000000E+01 0. -1.
          6    1    1    2  502    0  0.97616626059E+02 -0.11379882825E+03 -0.63372890768E+03  0.67355438342E+03  0.17200000000E+03 0. -1.
         -6    1    1    2    0  502 -0.97616626059E+02  0.11379882825E+03 -0.58054680371E+03  0.62377701969E+03  0.17200000000E+03 0.  1.
</event>
<event>
 4    1 -0.3291270E-004  0.2656801E+03  0.7818608E-02  0.1103778E+00
         -5   -1    0    0    0  501 -0.00000000000E+00  0.00000000000E+00  0.41132114448E+03  0.41134799610E+03  0.47000000000E+01 0.  1.
          5   -1    0    0  501    0  0.00000000000E+00 -0.00000000000E+00 -0.20936728234E+03  0.20942002988E+03  0.47000000000E+01 0. -1.
          6    1    1    2  502    0 -0.64072722398E+02  0.19208486909E+03 -0.30921879865E+02  0.26747350026E+03  0.17200000000E+03 0. -1.
         -6    1    1    2    0  502  0.64072722398E+02 -0.19208486909E+03  0.23287574201E+03  0.35329452572E+03  0.17200000000E+03 0.  1.
</event>
<event>
 4    1 -0.3291270E-004  0.1783895E+03  0.7818608E-02  0.1169371E+00
         -5   -1    0    0    0  501 -0.00000000000E+00  0.00000000000E+00  0.34945827021E+03  0.34948987484E+03  0.47000000000E+01 0.  1.
          5   -1    0    0  501    0  0.00000000000E+00 -0.00000000000E+00 -0.91622760033E+02  0.91743229484E+02  0.47000000000E+01 0. -1.
          6    1    1    2  502    0  0.32465088103E+02  0.34421425071E+02  0.11026748573E+03  0.20971822729E+03  0.17200000000E+03 0.  1.
         -6    1    1    2    0  502 -0.32465088103E+02 -0.34421425071E+02  0.14756802445E+03  0.23151487704E+03  0.17200000000E+03 0.  1.
</event>
<event>
 4    1 -0.3291270E-004  0.2153473E+03  0.7818608E-02  0.1137400E+00
         -5   -1    0    0    0  501 -0.00000000000E+00  0.00000000000E+00  0.39670538667E+03  0.39673322751E+03  0.47000000000E+01 0.  1.
          5   -1    0    0  501    0  0.00000000000E+00 -0.00000000000E+00 -0.13950510635E+03  0.13958425662E+03  0.47000000000E+01 0. -1.
          6    1    1    2  502    0  0.24585547557E+02 -0.12722427420E+03  0.20508841789E+02  0.21632169953E+03  0.17200000000E+03 0. -1.
         -6    1    1    2    0  502 -0.24585547557E+02  0.12722427420E+03  0.23669143853E+03  0.31999578461E+03  0.17200000000E+03 0.  1.
</event>
<event>
 4    1 -0.3291270E-004  0.3738514E+03  0.7818608E-02  0.1053230E+00
         -5   -1    0    0    0  501 -0.00000000000E+00  0.00000000000E+00  0.23284575978E+03  0.23289318978E+03  0.47000000000E+01 0.  1.
          5   -1    0    0  501    0  0.00000000000E+00 -0.00000000000E+00 -0.94515557840E+03  0.94516726423E+03  0.47000000000E+01 0. -1.
          6    1    1    2  502    0 -0.25868778848E+03  0.20799404229E+03 -0.71203025830E+03  0.80420891705E+03  0.17200000000E+03 0. -1.
         -6    1    1    2    0  502  0.25868778848E+03 -0.20799404229E+03 -0.27956032227E+00  0.37385153696E+03  0.17200000000E+03 0.  1.
</event>
<event>
 4    1 -0.3291270E-004  0.3805935E+03  0.7818608E-02  0.1050715E+00
          5   -1    0    0  501    0  0.00000000000E+00  0.00000000000E+00  0.55608279583E+03  0.55610265762E+03  0.47000000000E+01 0. -1.
         -5   -1    0    0    0  501 -0.00000000000E+00 -0.00000000000E+00 -0.32946548066E+03  0.32949900296E+03  0.47000000000E+01 0.  1.
          6    1    1    2  502    0  0.26685966673E+03  0.20988880484E+03  0.31597022536E+03  0.49466006048E+03  0.17200000000E+03 0. -1.
         -6    1    1    2    0  502 -0.26685966673E+03 -0.20988880484E+03 -0.89352910199E+02  0.39094160010E+03  0.17200000000E+03 0.  1.
</event>
<event>
 4    1 -0.3291270E-004  0.1800745E+03  0.7818608E-02  0.1167731E+00
          5   -1    0    0  501    0  0.00000000000E+00  0.00000000000E+00  0.70671020249E+03  0.70672583107E+03  0.47000000000E+01 0. -1.
         -5   -1    0    0    0  501 -0.00000000000E+00 -0.00000000000E+00 -0.58195613370E+02  0.58385095834E+02  0.47000000000E+01 0.  1.
          6    1    1    2  502    0  0.17430356974E+02  0.50388579360E+02  0.50083621249E+03  0.53222526999E+03  0.17200000000E+03 0. -1.
         -6    1    1    2    0  502 -0.17430356974E+02 -0.50388579360E+02  0.14767837664E+03  0.23288565692E+03  0.17200000000E+03 0.  1.
</event>
<event>
 4    1 -0.3291270E-004  0.2885933E+03  0.7818608E-02  0.1091086E+00
          5   -1    0    0  501    0  0.00000000000E+00  0.00000000000E+00  0.26162163073E+03  0.26166384478E+03  0.47000000000E+01 0. -1.
         -5   -1    0    0    0  501 -0.00000000000E+00 -0.00000000000E+00 -0.38864905852E+03  0.38867747644E+03  0.47000000000E+01 0.  1.
          6    1    1    2  502    0  0.11347906793E+03  0.20205090031E+03 -0.20188410528E+03  0.35219775289E+03  0.17200000000E+03 0.  1.
         -6    1    1    2    0  502 -0.11347906793E+03 -0.20205090031E+03  0.74856677490E+02  0.29814356833E+03  0.17200000000E+03 0. -1.
</event>
<event>
 4    1 -0.3291270E-004  0.1971100E+03  0.7818608E-02  0.1152200E+00
          5   -1    0    0  501    0  0.00000000000E+00  0.00000000000E+00  0.13002565101E+03  0.13011056806E+03  0.47000000000E+01 0. -1.
         -5   -1    0    0    0  501 -0.00000000000E+00 -0.00000000000E+00 -0.36956102770E+03  0.36959091330E+03  0.47000000000E+01 0.  1.
          6    1    1    2  502    0  0.71730674408E+02 -0.64211097321E+02 -0.10305367984E+02  0.19737921694E+03  0.17200000000E+03 0. -1.
         -6    1    1    2    0  502 -0.71730674408E+02  0.64211097321E+02 -0.22923000871E+03  0.30232226442E+03  0.17200000000E+03 0.  1.
</event>
<event>
 4    1 -0.3291270E-004  0.1735783E+03  0.7818608E-02  0.1174167E+00
         -5   -1    0    0    0  501 -0.00000000000E+00  0.00000000000E+00  0.31473930700E+03  0.31477439758E+03  0.47000000000E+01 0.  1.
          5   -1    0    0  501    0  0.00000000000E+00 -0.00000000000E+00 -0.17236533436E+03  0.17242940147E+03  0.47000000000E+01 0. -1.
          6    1    1    2  502    0 -0.78906624615E+01  0.21981145884E+02 -0.91291533116E+02  0.19612133323E+03  0.17200000000E+03 0. -1.
         -6    1    1    2    0  502  0.78906624615E+01 -0.21981145884E+02  0.23366550576E+03  0.29108246582E+03  0.17200000000E+03 0.  1.
</event>
<event>
 4    1 -0.3291270E-004  0.2347335E+03  0.7818608E-02  0.1123352E+00
         -5   -1    0    0    0  501 -0.00000000000E+00  0.00000000000E+00  0.14906693642E+03  0.14914101225E+03  0.47000000000E+01 0.  1.
          5   -1    0    0  501    0  0.00000000000E+00 -0.00000000000E+00 -0.89111303386E+03  0.89112542838E+03  0.47000000000E+01 0. -1.
          6    1    1    2  502    0 -0.12554364773E+03  0.98765408487E+02 -0.76896507827E+03  0.80399446826E+03  0.17200000000E+03 0. -1.
         -6    1    1    2    0  502  0.12554364773E+03 -0.98765408487E+02  0.26918980833E+02  0.23627197237E+03  0.17200000000E+03 0.  1.
</event>
<event>
 4    1 -0.3291270E-004  0.2148172E+03  0.7818608E-02  0.1137807E+00
         -5   -1    0    0    0  501 -0.00000000000E+00  0.00000000000E+00  0.23744917090E+04  0.23744963606E+04  0.47000000000E+01 0.  1.
          5   -1    0    0  501    0  0.00000000000E+00 -0.00000000000E+00 -0.55584016418E+02  0.55782370702E+02  0.47000000000E+01 0. -1.
          6    1    1    2  502    0 -0.88814931771E+02  0.93136062329E+02  0.17901240988E+03  0.27962807638E+03  0.17200000000E+03 0. -1.
         -6    1    1    2    0  502  0.88814931771E+02 -0.93136062329E+02  0.21398952827E+04  0.21506506549E+04  0.17200000000E+03 0.  1.
</event>
<event>
 4    1 -0.3291270E-004  0.2010334E+03  0.7818608E-02  0.1148870E+00
         -5   -1    0    0    0  501 -0.00000000000E+00  0.00000000000E+00  0.40452669113E+03  0.40455399372E+03  0.47000000000E+01 0.  1.
          5   -1    0    0  501    0  0.00000000000E+00 -0.00000000000E+00 -0.15444430132E+03  0.15451579922E+03  0.47000000000E+01 0. -1.
          6    1    1    2  502    0 -0.18429253717E+01  0.10405300923E+03 -0.41138790283E+02  0.20519947653E+03  0.17200000000E+03 0. -1.
         -6    1    1    2    0  502  0.18429253717E+01 -0.10405300923E+03  0.29122118009E+03  0.35387031641E+03  0.17200000000E+03 0.  1.
</event>
<event>
 4    1 -0.3291270E-004  0.1817021E+03  0.7818608E-02  0.1166166E+00
          5   -1    0    0  501    0  0.00000000000E+00  0.00000000000E+00  0.18422217696E+04  0.18422277651E+04  0.47000000000E+01 0. -1.
         -5   -1    0    0    0  501 -0.00000000000E+00 -0.00000000000E+00 -0.30425744493E+02  0.30786619300E+02  0.47000000000E+01 0.  1.
          6    1    1    2  502    0 -0.50291975886E+02  0.30039478089E+02  0.15088800153E+04  0.15197810874E+04  0.17200000000E+03 0. -1.
         -6    1    1    2    0  502  0.50291975886E+02 -0.30039478089E+02  0.30291600981E+03  0.35323329696E+03  0.17200000000E+03 0.  1.
</event>
<event>
 4    1 -0.3291270E-004  0.2167094E+03  0.7818608E-02  0.1136360E+00
          5   -1    0    0  501    0  0.00000000000E+00  0.00000000000E+00  0.48409036920E+03  0.48411318465E+03  0.47000000000E+01 0. -1.
         -5   -1    0    0    0  501 -0.00000000000E+00 -0.00000000000E+00 -0.10903826779E+03  0.10913951550E+03  0.47000000000E+01 0.  1.
          6    1    1    2  502    0  0.67936829574E+02  0.11297591735E+03  0.28631033366E+03  0.35907739817E+03  0.17200000000E+03 0. -1.
         -6    1    1    2    0  502 -0.67936829574E+02 -0.11297591735E+03  0.88741767756E+02  0.23417530198E+03  0.17200000000E+03 0.  1.
</event>
<event>
 4    1 -0.3291270E-004  0.1829274E+03  0.7818608E-02  0.1165000E+00
         -5   -1    0    0    0  501 -0.00000000000E+00  0.00000000000E+00  0.21259297662E+02  0.21772637348E+02  0.47000000000E+01 0.  1.
          5   -1    0    0  501    0  0.00000000000E+00 -0.00000000000E+00 -0.15627051318E+04  0.15627121996E+04  0.47000000000E+01 0. -1.
          6    1    1    2  502    0 -0.61610974660E+02 -0.90848589352E+01 -0.82734210331E+03  0.84732367060E+03  0.17200000000E+03 0. -1.
         -6    1    1    2    0  502  0.61610974660E+02  0.90848589352E+01 -0.71410373079E+03  0.73716116636E+03  0.17200000000E+03 0.  1.
</event>
<event>
 4    1 -0.3291270E-004  0.2029855E+03  0.7818608E-02  0.1147244E+00
          5   -1    0    0  501    0  0.00000000000E+00  0.00000000000E+00  0.33652244191E+03  0.33655526130E+03  0.47000000000E+01 0. -1.
         -5   -1    0    0    0  501 -0.00000000000E+00 -0.00000000000E+00 -0.14603917261E+03  0.14611478343E+03  0.47000000000E+01 0.  1.
          6    1    1    2  502    0 -0.99019124780E+02  0.42594788439E+02  0.19239367699E+03  0.27967557995E+03  0.17200000000E+03 0.  1.
         -6    1    1    2    0  502  0.99019124780E+02 -0.42594788439E+02 -0.19104076935E+01  0.20299446478E+03  0.17200000000E+03 0.  1.
</event>
<event>
 4    1 -0.3291270E-004  0.2190928E+03  0.7818608E-02  0.1134561E+00
          5   -1    0    0  501    0  0.00000000000E+00  0.00000000000E+00  0.23406261786E+03  0.23410980133E+03  0.47000000000E+01 0. -1.
         -5   -1    0    0    0  501 -0.00000000000E+00 -0.00000000000E+00 -0.22095536481E+03  0.22100534663E+03  0.47000000000E+01 0.  1.
          6    1    1    2  502    0 -0.43223567348E+02  0.12864439932E+03 -0.54609630951E+02  0.22579608066E+03  0.17200000000E+03 0. -1.
         -6    1    1    2    0  502  0.43223567348E+02 -0.12864439932E+03  0.67716883997E+02  0.22931906730E+03  0.17200000000E+03 0.  1.
</event>
<event>
 4    1 -0.3291270E-004  0.2050852E+03  0.7818608E-02  0.1145518E+00
         -5   -1    0    0    0  501 -0.00000000000E+00  0.00000000000E+00  0.12020280655E+03  0.12029465783E+03  0.47000000000E+01 0.  1.
          5   -1    0    0  501    0  0.00000000000E+00 -0.00000000000E+00 -0.35044796363E+03  0.35047947902E+03  0.47000000000E+01 0. -1.
          6    1    1    2  502    0 -0.21834668224E+02 -0.10954072689E+03 -0.12623451859E+03  0.24082167110E+03  0.17200000000E+03 0.  1.
         -6    1    1    2    0  502  0.21834668224E+02  0.10954072689E+03 -0.10401063849E+03  0.22995246575E+03  0.17200000000E+03 0.  1.
</event>
<event>
 4    1 -0.3291270E-004  0.2392944E+03  0.7818608E-02  0.1120264E+00
         -5   -1    0    0    0  501 -0.00000000000E+00  0.00000000000E+00  0.14730731050E+03  0.14738227074E+03  0.47000000000E+01 0.  1.
          5   -1    0    0  501    0  0.00000000000E+00 -0.00000000000E+00 -0.80261524534E+03  0.80262900648E+03  0.47000000000E+01 0. -1.
          6    1    1    2  502    0  0.10865594309E+02 -0.16601127265E+03 -0.66881634503E+03  0.71033591150E+03  0.17200000000E+03 0. -1.
         -6    1    1    2    0  502 -0.10865594309E+02  0.16601127265E+03  0.13508410197E+02  0.23967536572E+03  0.17200000000E+03 0.  1.
</event>
<event>
 4    1 -0.3291270E-004  0.2898563E+03  0.7818608E-02  0.1090424E+00
         -5   -1    0    0    0  501 -0.00000000000E+00  0.00000000000E+00  0.65762537583E+02  0.65930276424E+02  0.47000000000E+01 0.  1.
          5   -1    0    0  501    0  0.00000000000E+00 -0.00000000000E+00 -0.17322502220E+04  0.17322565981E+04  0.47000000000E+01 0. -1.
          6    1    1    2  502    0  0.21350433079E+03 -0.94066814922E+02 -0.12947581579E+04  0.13268064487E+04  0.17200000000E+03 0. -1.
         -6    1    1    2    0  502 -0.21350433079E+03  0.94066814922E+02 -0.37172952655E+03  0.47138042582E+03  0.17200000000E+03 0.  1.
</event>
<event>
 4    1 -0.3291270E-004  0.1959598E+03  0.7818608E-02  0.1153193E+00
          5   -1    0    0  501    0  0.00000000000E+00  0.00000000000E+00  0.36907388342E+03  0.36910380846E+03  0.47000000000E+01 0. -1.
         -5   -1    0    0    0  501 -0.00000000000E+00 -0.00000000000E+00 -0.16858990569E+03  0.16865540698E+03  0.47000000000E+01 0.  1.
          6    1    1    2  502    0 -0.93808098385E+02  0.40352263600E+01  0.26666667380E+03  0.33092500251E+03  0.17200000000E+03 0. -1.
         -6    1    1    2    0  502  0.93808098385E+02 -0.40352263600E+01 -0.66182696077E+02  0.20683421292E+03  0.17200000000E+03 0.  1.
</event>
<event>
 4    1 -0.3291270E-004  0.2740359E+03  0.7818608E-02  0.1098992E+00
          5   -1    0    0  501    0  0.00000000000E+00  0.00000000000E+00  0.25134872997E+03  0.25139266906E+03  0.47000000000E+01 0. -1.
         -5   -1    0    0    0  501 -0.00000000000E+00 -0.00000000000E+00 -0.49798135927E+03  0.49800353832E+03  0.47000000000E+01 0.  1.
          6    1    1    2  502    0  0.14896634993E+03 -0.15271125607E+03  0.11370935986E+03  0.29669094975E+03  0.17200000000E+03 0. -1.
         -6    1    1    2    0  502 -0.14896634993E+03  0.15271125607E+03 -0.36034198915E+03  0.45270525763E+03  0.17200000000E+03 0.  1.
</event>
<event>
 4    1 -0.3291270E-004  0.2237926E+03  0.7818608E-02  0.1131087E+00
          5   -1    0    0  501    0  0.00000000000E+00  0.00000000000E+00  0.20486715589E+04  0.20486769502E+04  0.47000000000E+01 0. -1.
         -5   -1    0    0    0  501 -0.00000000000E+00 -0.00000000000E+00 -0.32415507631E+02  0.32754467405E+02  0.47000000000E+01 0.  1.
          6    1    1    2  502    0 -0.83940557095E+02  0.11598746213E+03  0.15283641972E+04  0.15446618490E+04  0.17200000000E+03 0. -1.
         -6    1    1    2    0  502  0.83940557095E+02 -0.11598746213E+03  0.48789185406E+03  0.53676956858E+03  0.17200000000E+03 0.  1.
</event>
<event>
 4    1 -0.3291270E-004  0.2640614E+03  0.7818608E-02  0.1104727E+00
          5   -1    0    0  501    0  0.00000000000E+00  0.00000000000E+00  0.15586612811E+03  0.15593697410E+03  0.47000000000E+01 0. -1.
         -5   -1    0    0    0  501 -0.00000000000E+00 -0.00000000000E+00 -0.44731190772E+03  0.44733659898E+03  0.47000000000E+01 0.  1.
          6    1    1    2  502    0 -0.10117029241E+03 -0.17294209935E+03 -0.14046507294E+03  0.29909669759E+03  0.17200000000E+03 0. -1.
         -6    1    1    2    0  502  0.10117029241E+03  0.17294209935E+03 -0.15098070667E+03  0.30417687549E+03  0.17200000000E+03 0.  1.
</event>
<event>
 4    1 -0.3291270E-004  0.2472340E+03  0.7818608E-02  0.1115065E+00
         -5   -1    0    0    0  501 -0.00000000000E+00  0.00000000000E+00  0.18602685710E+03  0.18608622077E+03  0.47000000000E+01 0.  1.
          5   -1    0    0  501    0  0.00000000000E+00 -0.00000000000E+00 -0.40701204364E+03  0.40703917953E+03  0.47000000000E+01 0. -1.
          6    1    1    2  502    0 -0.15608985250E+03  0.84714963341E+02 -0.24076969509E+03  0.34510101875E+03  0.17200000000E+03 0. -1.
         -6    1    1    2    0  502  0.15608985250E+03 -0.84714963341E+02  0.19784508539E+02  0.24802438156E+03  0.17200000000E+03 0.  1.
</event>
<event>
 4    1 -0.3291270E-004  0.2046183E+03  0.7818608E-02  0.1145900E+00
         -5   -1    0    0    0  501 -0.00000000000E+00  0.00000000000E+00  0.91146742534E+02  0.91267840308E+02  0.47000000000E+01 0.  1.
          5   -1    0    0  501    0  0.00000000000E+00 -0.00000000000E+00 -0.99439994338E+03  0.99441105052E+03  0.47000000000E+01 0. -1.
          6    1    1    2  502    0 -0.86675455257E+01 -0.11049670183E+03 -0.84994806488E+03  0.87423129689E+03  0.17200000000E+03 0. -1.
         -6    1    1    2    0  502  0.86675455257E+01  0.11049670183E+03 -0.53305135961E+02  0.21144759394E+03  0.17200000000E+03 0.  1.
</event>
<event>
 4    1 -0.3291270E-004  0.1749434E+03  0.7818608E-02  0.1172789E+00
          5   -1    0    0  501    0  0.00000000000E+00  0.00000000000E+00  0.19444228402E+03  0.19449907922E+03  0.47000000000E+01 0. -1.
         -5   -1    0    0    0  501 -0.00000000000E+00 -0.00000000000E+00 -0.16803014923E+03  0.16809586863E+03  0.47000000000E+01 0.  1.
          6    1    1    2  502    0  0.31525402154E+02 -0.52299455458E+01  0.59035257839E+02  0.18463576300E+03  0.17200000000E+03 0. -1.
         -6    1    1    2    0  502 -0.31525402154E+02  0.52299455458E+01 -0.32623123043E+02  0.17795918484E+03  0.17200000000E+03 0.  1.
</event>
<event>
 4    1 -0.3291270E-004  0.1806169E+03  0.7818608E-02  0.1167207E+00
         -5   -1    0    0    0  501 -0.00000000000E+00  0.00000000000E+00  0.17855734153E+03  0.17861918770E+03  0.47000000000E+01 0.  1.
          5   -1    0    0  501    0  0.00000000000E+00 -0.00000000000E+00 -0.18433099054E+03  0.18439090020E+03  0.47000000000E+01 0. -1.
          6    1    1    2  502    0 -0.20038869751E+02 -0.51350797269E+02  0.14815316957E+02  0.18122349268E+03  0.17200000000E+03 0.  1.
         -6    1    1    2    0  502  0.20038869751E+02  0.51350797269E+02 -0.20588965972E+02  0.18178659522E+03  0.17200000000E+03 0.  1.
</event>
<event>
 4    1 -0.3291270E-004  0.3689245E+03  0.7818608E-02  0.1055105E+00
         -5   -1    0    0    0  501 -0.00000000000E+00  0.00000000000E+00  0.13217600149E+03  0.13225953792E+03  0.47000000000E+01 0.  1.
          5   -1    0    0  501    0  0.00000000000E+00 -0.00000000000E+00 -0.13545417428E+04  0.13545498968E+04  0.47000000000E+01 0. -1.
          6    1    1    2  502    0 -0.54685892594E+02  0.32176187534E+03 -0.97544039529E+03  0.10428754557E+04  0.17200000000E+03 0. -1.
         -6    1    1    2    0  502  0.54685892594E+02 -0.32176187534E+03 -0.24692534602E+03  0.44393397907E+03  0.17200000000E+03 0.  1.
</event>
<event>
 4    1 -0.3291270E-004  0.2341537E+03  0.7818608E-02  0.1123750E+00
         -5   -1    0    0    0  501 -0.00000000000E+00  0.00000000000E+00  0.50257969592E+03  0.50260167205E+03  0.47000000000E+01 0.  1.
          5   -1    0    0  501    0  0.00000000000E+00 -0.00000000000E+00 -0.10961592022E+03  0.10971663486E+03  0.47000000000E+01 0. -1.
          6    1    1    2  502    0  0.15242646750E+03  0.44834655222E+02  0.21907898186E+03  0.32066115230E+03  0.17200000000E+03 0. -1.
         -6    1    1    2    0  502 -0.15242646750E+03 -0.44834655222E+02  0.17388479384E+03  0.29165715461E+03  0.17200000000E+03 0. -1.
</event>
<event>
 4    1 -0.3291270E-004  0.2153599E+03  0.7818608E-02  0.1137390E+00
          5   -1    0    0  501    0  0.00000000000E+00  0.00000000000E+00  0.23526988449E+03  0.23531682589E+03  0.47000000000E+01 0. -1.
         -5   -1    0    0    0  501 -0.00000000000E+00 -0.00000000000E+00 -0.21140336765E+03  0.21145560729E+03  0.47000000000E+01 0.  1.
          6    1    1    2  502    0  0.20983006145E+02  0.12788902333E+03  0.70146493751E+02  0.22649595895E+03  0.17200000000E+03 0. -1.
         -6    1    1    2    0  502 -0.20983006145E+02 -0.12788902333E+03 -0.46279976906E+02  0.22027647423E+03  0.17200000000E+03 0.  1.
</event>
<event>
 4    1 -0.3291270E-004  0.5360832E+03  0.7818608E-02  0.1004767E+00
         -5   -1    0    0    0  501 -0.00000000000E+00  0.00000000000E+00  0.40895758907E+03  0.40898459587E+03  0.47000000000E+01 0.  1.
          5   -1    0    0  501    0  0.00000000000E+00 -0.00000000000E+00 -0.72693966722E+03  0.72695486089E+03  0.47000000000E+01 0. -1.
          6    1    1    2  502    0 -0.47890696805E+03 -0.16866917546E+03 -0.55211251294E+02  0.53891878522E+03  0.17200000000E+03 0.  1.
         -6    1    1    2    0  502  0.47890696805E+03  0.16866917546E+03 -0.26277082685E+03  0.59702067154E+03  0.17200000000E+03 0. -1.
</event>
<event>
 4    1 -0.3291270E-004  0.2505450E+03  0.7818608E-02  0.1112961E+00
         -5   -1    0    0    0  501 -0.00000000000E+00  0.00000000000E+00  0.35184353703E+03  0.35187492742E+03  0.47000000000E+01 0.  1.
          5   -1    0    0  501    0  0.00000000000E+00 -0.00000000000E+00 -0.18569025234E+03  0.18574972359E+03  0.47000000000E+01 0. -1.
          6    1    1    2  502    0 -0.12570181534E+03 -0.13186306335E+03  0.29611224642E+02  0.25228879975E+03  0.17200000000E+03 0. -1.
         -6    1    1    2    0  502  0.12570181534E+03  0.13186306335E+03  0.13654206004E+03  0.28533585126E+03  0.17200000000E+03 0.  1.
</event>
<event>
 4    1 -0.3291270E-004  0.2632812E+03  0.7818608E-02  0.1105188E+00
          5   -1    0    0  501    0  0.00000000000E+00  0.00000000000E+00  0.57947164345E+02  0.58137456563E+02  0.47000000000E+01 0. -1.
         -5   -1    0    0    0  501 -0.00000000000E+00 -0.00000000000E+00 -0.15657400889E+04  0.15657471430E+04  0.47000000000E+01 0.  1.
          6    1    1    2  502    0  0.13982939089E+03 -0.14205890098E+03 -0.35832429064E+03  0.44464962293E+03  0.17200000000E+03 0. -1.
         -6    1    1    2    0  502 -0.13982939089E+03  0.14205890098E+03 -0.11494686339E+04  0.11792349767E+04  0.17200000000E+03 0.  1.
</event>
<event>
 4    1 -0.3291270E-004  0.1996964E+03  0.7818608E-02  0.1149995E+00
          5   -1    0    0  501    0  0.00000000000E+00  0.00000000000E+00  0.30883448956E+04  0.30883484720E+04  0.47000000000E+01 0. -1.
         -5   -1    0    0    0  501 -0.00000000000E+00 -0.00000000000E+00 -0.12677287611E+02  0.13520488939E+02  0.47000000000E+01 0.  1.
          6    1    1    2  502    0 -0.11989680065E+02 -0.10075169702E+03  0.17245202452E+04  0.17360439894E+04  0.17200000000E+03 0. -1.
         -6    1    1    2    0  502  0.11989680065E+02  0.10075169702E+03  0.13511473628E+04  0.13658249715E+04  0.17200000000E+03 0.  1.
</event>
<event>
 4    1 -0.3291270E-004  0.2779169E+03  0.7818608E-02  0.1096832E+00
          5   -1    0    0  501    0  0.00000000000E+00  0.00000000000E+00  0.22705228186E+03  0.22710092183E+03  0.47000000000E+01 0. -1.
         -5   -1    0    0    0  501 -0.00000000000E+00 -0.00000000000E+00 -0.35016576622E+03  0.35019730700E+03  0.47000000000E+01 0.  1.
          6    1    1    2  502    0  0.16478294121E+03 -0.14317953568E+03 -0.12562337265E+02  0.27820066403E+03  0.17200000000E+03 0. -1.
         -6    1    1    2    0  502 -0.16478294121E+03  0.14317953568E+03 -0.11055114709E+03  0.29909756481E+03  0.17200000000E+03 0.  1.
</event>
<event>
 4    1 -0.3291270E-004  0.2619225E+03  0.7818608E-02  0.1105994E+00
          5   -1    0    0  501    0  0.00000000000E+00  0.00000000000E+00  0.98075183562E+02  0.98187736662E+02  0.47000000000E+01 0. -1.
         -5   -1    0    0    0  501 -0.00000000000E+00 -0.00000000000E+00 -0.14269579127E+04  0.14269656530E+04  0.47000000000E+01 0.  1.
          6    1    1    2  502    0 -0.32036240736E+02 -0.19491817662E+03 -0.11978931883E+03  0.28801544612E+03  0.17200000000E+03 0. -1.
         -6    1    1    2    0  502  0.32036240736E+02  0.19491817662E+03 -0.12090934104E+04  0.12371379435E+04  0.17200000000E+03 0.  1.
</event>
<event>
 4    1 -0.3291270E-004  0.4408412E+03  0.7818608E-02  0.1030489E+00
          5   -1    0    0  501    0  0.00000000000E+00  0.00000000000E+00  0.19316832759E+03  0.19322549724E+03  0.47000000000E+01 0. -1.
         -5   -1    0    0    0  501 -0.00000000000E+00 -0.00000000000E+00 -0.18028290300E+04  0.18028351564E+04  0.47000000000E+01 0.  1.
          6    1    1    2  502    0  0.38554741887E+03 -0.12692569166E+03 -0.14127131496E+03  0.46292388989E+03  0.17200000000E+03 0. -1.
         -6    1    1    2    0  502 -0.38554741887E+03  0.12692569166E+03 -0.14683893874E+04  0.15331367638E+04  0.17200000000E+03 0.  1.
</event>
<event>
 4    1 -0.3291270E-004  0.1895506E+03  0.7818608E-02  0.1158867E+00
         -5   -1    0    0    0  501 -0.00000000000E+00  0.00000000000E+00  0.22902791705E+03  0.22907613753E+03  0.47000000000E+01 0.  1.
          5   -1    0    0  501    0  0.00000000000E+00 -0.00000000000E+00 -0.55892786648E+03  0.55894762718E+03  0.47000000000E+01 0. -1.
          6    1    1    2  502    0  0.49804387305E+02  0.62168798401E+02 -0.49913665405E+03  0.53391650649E+03  0.17200000000E+03 0. -1.
         -6    1    1    2    0  502 -0.49804387305E+02 -0.62168798401E+02  0.16923670462E+03  0.25410725822E+03  0.17200000000E+03 0.  1.
</event>
<event>
 4    1 -0.3291270E-004  0.1725278E+03  0.7818608E-02  0.1175237E+00
         -5   -1    0    0    0  501 -0.00000000000E+00  0.00000000000E+00  0.81276140653E+02  0.81411921973E+02  0.47000000000E+01 0.  1.
          5   -1    0    0  501    0  0.00000000000E+00 -0.00000000000E+00 -0.37151693623E+03  0.37154666450E+03  0.47000000000E+01 0. -1.
          6    1    1    2  502    0 -0.13416205521E+02  0.13572078616E+01 -0.17327147515E+03  0.24451756723E+03  0.17200000000E+03 0.  1.
         -6    1    1    2    0  502  0.13416205521E+02 -0.13572078616E+01 -0.11696932042E+03  0.20844101925E+03  0.17200000000E+03 0.  1.
</event>
<event>
 4    1 -0.3291270E-004  0.2550955E+03  0.7818608E-02  0.1110126E+00
          5   -1    0    0  501    0  0.00000000000E+00  0.00000000000E+00  0.44957082587E+03  0.44959539307E+03  0.47000000000E+01 0. -1.
         -5   -1    0    0    0  501 -0.00000000000E+00 -0.00000000000E+00 -0.15282542058E+03  0.15289767550E+03  0.47000000000E+01 0.  1.
          6    1    1    2  502    0 -0.18724597146E+03 -0.20703691284E+02  0.21789943497E+03  0.33549047739E+03  0.17200000000E+03 0. -1.
         -6    1    1    2    0  502  0.18724597146E+03  0.20703691284E+02  0.78845970323E+02  0.26700259118E+03  0.17200000000E+03 0.  1.
</event>
<event>
 4    1 -0.3291270E-004  0.2350600E+03  0.7818608E-02  0.1123128E+00
          5   -1    0    0  501    0  0.00000000000E+00  0.00000000000E+00  0.28599936500E+02  0.28983553402E+02  0.47000000000E+01 0. -1.
         -5   -1    0    0    0  501 -0.00000000000E+00 -0.00000000000E+00 -0.19777384844E+04  0.19777440690E+04  0.47000000000E+01 0.  1.
          6    1    1    2  502    0 -0.70419635295E+02 -0.14391065275E+03 -0.80119618756E+03  0.83496618612E+03  0.17200000000E+03 0. -1.
         -6    1    1    2    0  502  0.70419635295E+02  0.14391065275E+03 -0.11479423603E+04  0.11717614363E+04  0.17200000000E+03 0.  1.
</event>
<event>
 4    1 -0.3291270E-004  0.1752881E+03  0.7818608E-02  0.1172443E+00
          5   -1    0    0  501    0  0.00000000000E+00  0.00000000000E+00  0.22989108968E+03  0.22993912915E+03  0.47000000000E+01 0. -1.
         -5   -1    0    0    0  501 -0.00000000000E+00 -0.00000000000E+00 -0.16831040895E+03  0.16837601896E+03  0.47000000000E+01 0.  1.
          6    1    1    2  502    0  0.26158015936E+02 -0.21393738745E+02  0.12126358785E+03  0.21314500133E+03  0.17200000000E+03 0. -1.
         -6    1    1    2    0  502 -0.26158015936E+02  0.21393738745E+02 -0.59682907112E+02  0.18517014677E+03  0.17200000000E+03 0.  1.
</event>
<event>
 4    1 -0.3291270E-004  0.3858299E+03  0.7818608E-02  0.1048800E+00
         -5   -1    0    0    0  501 -0.00000000000E+00  0.00000000000E+00  0.15900520500E+03  0.15907465297E+03  0.47000000000E+01 0.  1.
          5   -1    0    0  501    0  0.00000000000E+00 -0.00000000000E+00 -0.96558970601E+03  0.96560114454E+03  0.47000000000E+01 0. -1.
          6    1    1    2  502    0 -0.27535868294E+03 -0.20846653350E+03 -0.50181856588E+03  0.63299808287E+03  0.17200000000E+03 0. -1.
         -6    1    1    2    0  502  0.27535868294E+03  0.20846653350E+03 -0.30476593513E+03  0.49167771464E+03  0.17200000000E+03 0.  1.
</event>
<event>
 4    1 -0.3291270E-004  0.5309289E+03  0.7818608E-02  0.1006007E+00
         -5   -1    0    0    0  501 -0.00000000000E+00  0.00000000000E+00  0.14246767309E+04  0.14246844835E+04  0.47000000000E+01 0.  1.
          5   -1    0    0  501    0  0.00000000000E+00 -0.00000000000E+00 -0.21570673168E+03  0.21575792939E+03  0.47000000000E+01 0. -1.
          6    1    1    2  502    0 -0.16588803968E+03  0.47411247146E+03  0.36834697840E+03  0.64619267544E+03  0.17200000000E+03 0. -1.
         -6    1    1    2    0  502  0.16588803968E+03 -0.47411247146E+03  0.84062302079E+03  0.99424973743E+03  0.17200000000E+03 0.  1.
</event>
<event>
 4    1 -0.3291270E-004  0.2702415E+03  0.7818608E-02  0.1101141E+00
         -5   -1    0    0    0  501 -0.00000000000E+00  0.00000000000E+00  0.24998884012E+04  0.24998928194E+04  0.47000000000E+01 0.  1.
          5   -1    0    0  501    0  0.00000000000E+00 -0.00000000000E+00 -0.37851524021E+02  0.38142205898E+02  0.47000000000E+01 0. -1.
          6    1    1    2  502    0 -0.11805046293E+03  0.17178632765E+03  0.62076653422E+03  0.67703880551E+03  0.17200000000E+03 0. -1.
         -6    1    1    2    0  502  0.11805046293E+03 -0.17178632765E+03  0.18412703430E+04  0.18609962198E+04  0.17200000000E+03 0.  1.
</event>
<event>
 4    1 -0.3291270E-004  0.2509344E+03  0.7818608E-02  0.1112716E+00
          5   -1    0    0  501    0  0.00000000000E+00  0.00000000000E+00  0.32637202190E+03  0.32640586189E+03  0.47000000000E+01 0. -1.
         -5   -1    0    0    0  501 -0.00000000000E+00 -0.00000000000E+00 -0.23736091447E+03  0.23740744243E+03  0.47000000000E+01 0.  1.
          6    1    1    2  502    0 -0.17867406271E+03 -0.38205573424E+02 -0.77534363228E+02  0.26263979898E+03  0.17200000000E+03 0. -1.
         -6    1    1    2    0  502  0.17867406271E+03  0.38205573424E+02  0.16654547065E+03  0.30117350534E+03  0.17200000000E+03 0.  1.
</event>
<event>
 4    1 -0.3291270E-004  0.1775944E+03  0.7818608E-02  0.1170152E+00
          5   -1    0    0  501    0  0.00000000000E+00  0.00000000000E+00  0.42988527066E+03  0.42991096279E+03  0.47000000000E+01 0. -1.
         -5   -1    0    0    0  501 -0.00000000000E+00 -0.00000000000E+00 -0.82034422638E+02  0.82168950934E+02  0.47000000000E+01 0.  1.
          6    1    1    2  502    0 -0.52315183098E+01  0.43913753117E+02  0.25755442051E+03  0.31284831152E+03  0.17200000000E+03 0. -1.
         -6    1    1    2    0  502  0.52315183098E+01 -0.43913753117E+02  0.90296427511E+02  0.19923160221E+03  0.17200000000E+03 0.  1.
</event>
<event>
 4    1 -0.3291270E-004  0.2335640E+03  0.7818608E-02  0.1124156E+00
          5   -1    0    0  501    0  0.00000000000E+00  0.00000000000E+00  0.18019433990E+03  0.18025562441E+03  0.47000000000E+01 0. -1.
         -5   -1    0    0    0  501 -0.00000000000E+00 -0.00000000000E+00 -0.30818839497E+03  0.30822423136E+03  0.47000000000E+01 0.  1.
          6    1    1    2  502    0 -0.14652693977E+03  0.59143874385E+02 -0.96852713429E+02  0.25284894711E+03  0.17200000000E+03 0. -1.
         -6    1    1    2    0  502  0.14652693977E+03 -0.59143874385E+02 -0.31141341645E+02  0.23563090866E+03  0.17200000000E+03 0. -1.
</event>
<event>
 4    1 -0.3291270E-004  0.2089264E+03  0.7818608E-02  0.1142419E+00
          5   -1    0    0  501    0  0.00000000000E+00  0.00000000000E+00  0.78553041467E+02  0.78693521485E+02  0.47000000000E+01 0. -1.
         -5   -1    0    0    0  501 -0.00000000000E+00 -0.00000000000E+00 -0.57227813232E+03  0.57229743205E+03  0.47000000000E+01 0.  1.
          6    1    1    2  502    0 -0.50295217318E+02 -0.10740876296E+03 -0.19036511132E+03  0.28264664664E+03  0.17200000000E+03 0. -1.
         -6    1    1    2    0  502  0.50295217318E+02  0.10740876296E+03 -0.30335997953E+03  0.36834430690E+03  0.17200000000E+03 0.  1.
</event>
<event>
 4    1 -0.3291270E-004  0.2093823E+03  0.7818608E-02  0.1142056E+00
          5   -1    0    0  501    0  0.00000000000E+00  0.00000000000E+00  0.11585569071E+04  0.11585664405E+04  0.47000000000E+01 0. -1.
         -5   -1    0    0    0  501 -0.00000000000E+00 -0.00000000000E+00 -0.12415315060E+03  0.12424208145E+03  0.47000000000E+01 0.  1.
          6    1    1    2  502    0 -0.11711008343E+03 -0.23284749018E+02  0.10520502957E+04  0.10726839124E+04  0.17200000000E+03 0. -1.
         -6    1    1    2    0  502  0.11711008343E+03  0.23284749018E+02 -0.17646539234E+02  0.21012460952E+03  0.17200000000E+03 0.  1.
</event>
<event>
 4    1 -0.3291270E-004  0.2077320E+03  0.7818608E-02  0.1143375E+00
          5   -1    0    0  501    0  0.00000000000E+00  0.00000000000E+00  0.96612870128E+02  0.96727124812E+02  0.47000000000E+01 0. -1.
         -5   -1    0    0    0  501 -0.00000000000E+00 -0.00000000000E+00 -0.64584659718E+03  0.64586369854E+03  0.47000000000E+01 0.  1.
          6    1    1    2  502    0  0.11648083052E+03  0.89679589647E+00 -0.68235390985E+02  0.21865190762E+03  0.17200000000E+03 0. -1.
         -6    1    1    2    0  502 -0.11648083052E+03 -0.89679589647E+00 -0.48099833607E+03  0.52393891574E+03  0.17200000000E+03 0.  1.
</event>
<event>
 4    1 -0.3291270E-004  0.1967936E+03  0.7818608E-02  0.1152473E+00
         -5   -1    0    0    0  501 -0.00000000000E+00  0.00000000000E+00  0.27381879308E+03  0.27385912701E+03  0.47000000000E+01 0.  1.
          5   -1    0    0  501    0  0.00000000000E+00 -0.00000000000E+00 -0.14143571964E+03  0.14151379011E+03  0.47000000000E+01 0. -1.
          6    1    1    2  502    0 -0.31167328362E+02  0.90400814285E+02  0.60955003396E+02  0.20601752843E+03  0.17200000000E+03 0. -1.
         -6    1    1    2    0  502  0.31167328362E+02 -0.90400814285E+02  0.71428070048E+02  0.20935538869E+03  0.17200000000E+03 0. -1.
</event>
<event>
 4    1 -0.3291270E-004  0.3254155E+03  0.7818608E-02  0.1073184E+00
          5   -1    0    0  501    0  0.00000000000E+00  0.00000000000E+00  0.51525265974E+02  0.51739182769E+02  0.47000000000E+01 0. -1.
         -5   -1    0    0    0  501 -0.00000000000E+00 -0.00000000000E+00 -0.23001398521E+04  0.23001446540E+04  0.47000000000E+01 0.  1.
          6    1    1    2  502    0 -0.22990272527E+03  0.15315342464E+03 -0.73710328939E+03  0.80573971840E+03  0.17200000000E+03 0. -1.
         -6    1    1    2    0  502  0.22990272527E+03 -0.15315342464E+03 -0.15115112967E+04  0.15461441183E+04  0.17200000000E+03 0.  1.
</event>
<event>
 4    1 -0.3291270E-004  0.1749309E+03  0.7818608E-02  0.1172801E+00
          5   -1    0    0  501    0  0.00000000000E+00  0.00000000000E+00  0.97531753486E+02  0.97644932987E+02  0.47000000000E+01 0. -1.
         -5   -1    0    0    0  501 -0.00000000000E+00 -0.00000000000E+00 -0.31361855071E+03  0.31365376667E+03  0.47000000000E+01 0.  1.
          6    1    1    2  502    0  0.21449087989E+02 -0.23595946365E+02 -0.11295245306E+03  0.20822845318E+03  0.17200000000E+03 0.  1.
         -6    1    1    2    0  502 -0.21449087989E+02  0.23595946365E+02 -0.10313434416E+03  0.20307024648E+03  0.17200000000E+03 0. -1.
</event>
<event>
 4    1 -0.3291270E-004  0.2248073E+03  0.7818608E-02  0.1130349E+00
         -5   -1    0    0    0  501 -0.00000000000E+00  0.00000000000E+00  0.99841855461E+02  0.99952419190E+02  0.47000000000E+01 0.  1.
          5   -1    0    0  501    0  0.00000000000E+00 -0.00000000000E+00 -0.69329388364E+03  0.69330981465E+03  0.47000000000E+01 0. -1.
          6    1    1    2  502    0 -0.13106460939E+03  0.61452440589E+02 -0.50297967867E+03  0.55093274675E+03  0.17200000000E+03 0. -1.
         -6    1    1    2    0  502  0.13106460939E+03 -0.61452440589E+02 -0.90472349511E+02  0.24232948709E+03  0.17200000000E+03 0.  1.
</event>
<event>
 4    1 -0.3291270E-004  0.1998168E+03  0.7818608E-02  0.1149894E+00
          5   -1    0    0  501    0  0.00000000000E+00  0.00000000000E+00  0.10113208233E+03  0.10124123704E+03  0.47000000000E+01 0. -1.
         -5   -1    0    0    0  501 -0.00000000000E+00 -0.00000000000E+00 -0.53186007909E+03  0.53188084543E+03  0.47000000000E+01 0.  1.
          6    1    1    2  502    0 -0.89331996178E+01  0.10130627916E+03 -0.54486825159E+02  0.20711247758E+03  0.17200000000E+03 0. -1.
         -6    1    1    2    0  502  0.89331996178E+01 -0.10130627916E+03 -0.37624117160E+03  0.42600960489E+03  0.17200000000E+03 0.  1.
</event>
<event>
 4    1 -0.3291270E-004  0.1880842E+03  0.7818608E-02  0.1160201E+00
         -5   -1    0    0    0  501 -0.00000000000E+00  0.00000000000E+00  0.27566524254E+03  0.27570530634E+03  0.47000000000E+01 0.  1.
          5   -1    0    0  501    0  0.00000000000E+00 -0.00000000000E+00 -0.22061793562E+03  0.22066799387E+03  0.47000000000E+01 0. -1.
          6    1    1    2  502    0  0.60278807827E+02  0.46455773899E+02 -0.13303926690E+03  0.23038038141E+03  0.17200000000E+03 0. -1.
         -6    1    1    2    0  502 -0.60278807827E+02 -0.46455773899E+02  0.18808657381E+03  0.26599291880E+03  0.17200000000E+03 0.  1.
</event>
<event>
 4    1 -0.3291270E-004  0.3327522E+03  0.7818608E-02  0.1069926E+00
          5   -1    0    0  501    0  0.00000000000E+00  0.00000000000E+00  0.48273429737E+03  0.48275717691E+03  0.47000000000E+01 0. -1.
         -5   -1    0    0    0  501 -0.00000000000E+00 -0.00000000000E+00 -0.30067845549E+03  0.30071518684E+03  0.47000000000E+01 0.  1.
          6    1    1    2  502    0  0.20631807498E+03 -0.19639982888E+03  0.28185057694E+03  0.43607773226E+03  0.17200000000E+03 0. -1.
         -6    1    1    2    0  502 -0.20631807498E+03  0.19639982888E+03 -0.99794735064E+02  0.34739463150E+03  0.17200000000E+03 0.  1.
</event>
<event>
 4    1 -0.3291270E-004  0.2634130E+03  0.7818608E-02  0.1105110E+00
          5   -1    0    0  501    0  0.00000000000E+00  0.00000000000E+00  0.77401094940E+03  0.77402521909E+03  0.47000000000E+01 0. -1.
         -5   -1    0    0    0  501 -0.00000000000E+00 -0.00000000000E+00 -0.10973227917E+03  0.10983288712E+03  0.47000000000E+01 0.  1.
          6    1    1    2  502    0 -0.87384762563E+02 -0.17934971701E+03  0.52147007733E+03  0.58422380923E+03  0.17200000000E+03 0. -1.
         -6    1    1    2    0  502  0.87384762563E+02  0.17934971701E+03  0.14280859289E+03  0.29963429698E+03  0.17200000000E+03 0.  1.
</event>
<event>
 4    1 -0.3291270E-004  0.2064838E+03  0.7818608E-02  0.1144381E+00
          5   -1    0    0  501    0  0.00000000000E+00  0.00000000000E+00  0.77295574070E+02  0.77438335279E+02  0.47000000000E+01 0. -1.
         -5   -1    0    0    0  501 -0.00000000000E+00 -0.00000000000E+00 -0.60978554813E+03  0.60980366079E+03  0.47000000000E+01 0.  1.
          6    1    1    2  502    0  0.79074818775E+02 -0.82454522955E+02 -0.37298524903E+03  0.42632566345E+03  0.17200000000E+03 0.  1.
         -6    1    1    2    0  502 -0.79074818775E+02  0.82454522955E+02 -0.15950472503E+03  0.26091633262E+03  0.17200000000E+03 0. -1.
</event>
<event>
 4    1 -0.3291270E-004  0.1724135E+03  0.7818608E-02  0.1175354E+00
         -5   -1    0    0    0  501 -0.00000000000E+00  0.00000000000E+00  0.55311279141E+03  0.55313275985E+03  0.47000000000E+01 0.  1.
          5   -1    0    0  501    0  0.00000000000E+00 -0.00000000000E+00 -0.60698006027E+02  0.60879700522E+02  0.47000000000E+01 0. -1.
          6    1    1    2  502    0  0.11851719721E+02  0.13967761161E+01  0.14155509161E+03  0.22307904026E+03  0.17200000000E+03 0. -1.
         -6    1    1    2    0  502 -0.11851719721E+02 -0.13967761161E+01  0.35085969377E+03  0.39093342011E+03  0.17200000000E+03 0.  1.
</event>
<event>
 4    1 -0.3291270E-004  0.1878343E+03  0.7818608E-02  0.1160429E+00
         -5   -1    0    0    0  501 -0.00000000000E+00  0.00000000000E+00  0.14510706997E+04  0.14510783113E+04  0.47000000000E+01 0.  1.
          5   -1    0    0  501    0  0.00000000000E+00 -0.00000000000E+00 -0.25325324700E+02  0.25757757495E+02  0.47000000000E+01 0. -1.
          6    1    1    2  502    0 -0.75377345108E+02 -0.39994032221E+01  0.55052861518E+03  0.58169020579E+03  0.17200000000E+03 0. -1.
         -6    1    1    2    0  502  0.75377345108E+02  0.39994032221E+01  0.87521675978E+03  0.89514586296E+03  0.17200000000E+03 0. -1.
</event>
<event>
 4    1 -0.3291270E-004  0.2262947E+03  0.7818608E-02  0.1129275E+00
          5   -1    0    0  501    0  0.00000000000E+00  0.00000000000E+00  0.90773786831E+02  0.90895381487E+02  0.47000000000E+01 0. -1.
         -5   -1    0    0    0  501 -0.00000000000E+00 -0.00000000000E+00 -0.12101402211E+04  0.12101493481E+04  0.47000000000E+01 0.  1.
          6    1    1    2  502    0  0.41987651331E+02  0.14093374089E+03 -0.84231126638E+02  0.24146255379E+03  0.17200000000E+03 0. -1.
         -6    1    1    2    0  502 -0.41987651331E+02 -0.14093374089E+03 -0.10351353077E+04  0.10595821758E+04  0.17200000000E+03 0.  1.
</event>
<event>
 4    1 -0.3291270E-004  0.1786583E+03  0.7818608E-02  0.1169108E+00
         -5   -1    0    0    0  501 -0.00000000000E+00  0.00000000000E+00  0.48802868853E+03  0.48805131987E+03  0.47000000000E+01 0.  1.
          5   -1    0    0  501    0  0.00000000000E+00 -0.00000000000E+00 -0.10450791150E+03  0.10461354390E+03  0.47000000000E+01 0. -1.
          6    1    1    2  502    0 -0.32973628528E+02 -0.35320418555E+02  0.10381119872E+02  0.17895965969E+03  0.17200000000E+03 0. -1.
         -6    1    1    2    0  502  0.32973628528E+02  0.35320418555E+02  0.37313965716E+03  0.41370520409E+03  0.17200000000E+03 0.  1.
</event>
<event>
 4    1 -0.3291270E-004  0.2455938E+03  0.7818608E-02  0.1116121E+00
         -5   -1    0    0    0  501 -0.00000000000E+00  0.00000000000E+00  0.44429314667E+03  0.44431800569E+03  0.47000000000E+01 0.  1.
          5   -1    0    0  501    0  0.00000000000E+00 -0.00000000000E+00 -0.14879636486E+03  0.14887057532E+03  0.47000000000E+01 0. -1.
          6    1    1    2  502    0 -0.13585975522E+03 -0.11079013210E+03  0.23574807623E+03  0.34043131746E+03  0.17200000000E+03 0. -1.
         -6    1    1    2    0  502  0.13585975522E+03  0.11079013210E+03  0.59748705576E+02  0.25275726355E+03  0.17200000000E+03 0. -1.
</event>
<event>
 4    1 -0.3291270E-004  0.1907498E+03  0.7818608E-02  0.1157787E+00
         -5   -1    0    0    0  501 -0.00000000000E+00  0.00000000000E+00  0.18294360536E+03  0.18300396920E+03  0.47000000000E+01 0.  1.
          5   -1    0    0  501    0  0.00000000000E+00 -0.00000000000E+00 -0.19912527559E+03  0.19918073546E+03  0.47000000000E+01 0. -1.
          6    1    1    2  502    0  0.68302445151E+02  0.46219715751E+02 -0.30301727646E-03  0.19074979984E+03  0.17200000000E+03 0.  1.
         -6    1    1    2    0  502 -0.68302445151E+02 -0.46219715751E+02 -0.16181367208E+02  0.19143490482E+03  0.17200000000E+03 0.  1.
</event>
<event>
 4    1 -0.3291270E-004  0.2086404E+03  0.7818608E-02  0.1142647E+00
         -5   -1    0    0    0  501 -0.00000000000E+00  0.00000000000E+00  0.60590345264E+03  0.60592168135E+03  0.47000000000E+01 0.  1.
          5   -1    0    0  501    0  0.00000000000E+00 -0.00000000000E+00 -0.71843266666E+02  0.71996839968E+02  0.47000000000E+01 0. -1.
          6    1    1    2  502    0  0.61927037991E+02  0.10055776493E+03  0.27933986374E+03  0.34865682497E+03  0.17200000000E+03 0.  1.
         -6    1    1    2    0  502 -0.61927037991E+02 -0.10055776493E+03  0.25472032224E+03  0.32926169635E+03  0.17200000000E+03 0.  1.
</event>
<event>
 4    1 -0.3291270E-004  0.2092899E+03  0.7818608E-02  0.1142130E+00
          5   -1    0    0  501    0  0.00000000000E+00  0.00000000000E+00  0.58008936956E+03  0.58010840942E+03  0.47000000000E+01 0. -1.
         -5   -1    0    0    0  501 -0.00000000000E+00 -0.00000000000E+00 -0.12519601663E+03  0.12528420722E+03  0.47000000000E+01 0.  1.
          6    1    1    2  502    0 -0.75422640485E+02 -0.92356214767E+02  0.44972479541E+03  0.49603894677E+03  0.17200000000E+03 0. -1.
         -6    1    1    2    0  502  0.75422640485E+02  0.92356214767E+02  0.51685575270E+01  0.20935366988E+03  0.17200000000E+03 0.  1.
</event>
<event>
 4    1 -0.3291270E-004  0.2167702E+03  0.7818608E-02  0.1136314E+00
         -5   -1    0    0    0  501 -0.00000000000E+00  0.00000000000E+00  0.83765361646E+03  0.83766680200E+03  0.47000000000E+01 0.  1.
          5   -1    0    0  501    0  0.00000000000E+00 -0.00000000000E+00 -0.59131442710E+02  0.59317935879E+02  0.47000000000E+01 0. -1.
          6    1    1    2  502    0  0.26644612518E+02 -0.12921068069E+03  0.28597208567E+03  0.35884449162E+03  0.17200000000E+03 0.  1.
         -6    1    1    2    0  502 -0.26644612518E+02  0.12921068069E+03  0.49255008808E+03  0.53814024626E+03  0.17200000000E+03 0.  1.
</event>
<event>
 4    1 -0.3291270E-004  0.4444386E+03  0.7818608E-02  0.1029394E+00
         -5   -1    0    0    0  501 -0.00000000000E+00  0.00000000000E+00  0.21327386981E+04  0.21327438769E+04  0.47000000000E+01 0.  1.
          5   -1    0    0  501    0  0.00000000000E+00 -0.00000000000E+00 -0.35952757106E+03  0.35955829062E+03  0.47000000000E+01 0. -1.
          6    1    1    2  502    0  0.37196580656E+03  0.17199746573E+03 -0.18711855843E+03  0.48222302349E+03  0.17200000000E+03 0. -1.
         -6    1    1    2    0  502 -0.37196580656E+03 -0.17199746573E+03  0.19603296855E+04  0.20100791440E+04  0.17200000000E+03 0.  1.
</event>
<event>
 4    1 -0.3291270E-004  0.2518904E+03  0.7818608E-02  0.1112116E+00
         -5   -1    0    0    0  501 -0.00000000000E+00  0.00000000000E+00  0.19052986340E+03  0.19058782450E+03  0.47000000000E+01 0.  1.
          5   -1    0    0  501    0  0.00000000000E+00 -0.00000000000E+00 -0.33372029003E+03  0.33375338497E+03  0.47000000000E+01 0. -1.
          6    1    1    2  502    0 -0.11753705009E+03  0.14159739323E+03 -0.58496883048E+02  0.25859362954E+03  0.17200000000E+03 0. -1.
         -6    1    1    2    0  502  0.11753705009E+03 -0.14159739323E+03 -0.84693543585E+02  0.26574757993E+03  0.17200000000E+03 0.  1.
</event>
<event>
 4    1 -0.3291270E-004  0.2412420E+03  0.7818608E-02  0.1118968E+00
         -5   -1    0    0    0  501 -0.00000000000E+00  0.00000000000E+00  0.13033894777E+04  0.13033979517E+04  0.47000000000E+01 0.  1.
          5   -1    0    0  501    0  0.00000000000E+00 -0.00000000000E+00 -0.49432280277E+02  0.49655214564E+02  0.47000000000E+01 0. -1.
          6    1    1    2  502    0 -0.15367783180E+03  0.70688213690E+02  0.41420878796E+03  0.47933977465E+03  0.17200000000E+03 0. -1.
         -6    1    1    2    0  502  0.15367783180E+03 -0.70688213690E+02  0.83974840946E+03  0.87371339164E+03  0.17200000000E+03 0.  1.
</event>
<event>
 4    1 -0.3291270E-004  0.1738309E+03  0.7818608E-02  0.1173911E+00
         -5   -1    0    0    0  501 -0.00000000000E+00  0.00000000000E+00  0.93053405222E+02  0.93172024897E+02  0.47000000000E+01 0.  1.
          5   -1    0    0  501    0  0.00000000000E+00 -0.00000000000E+00 -0.38763095917E+03  0.38765945172E+03  0.47000000000E+01 0. -1.
          6    1    1    2  502    0 -0.16495162598E+02  0.19002258852E+02 -0.50197644770E+02  0.18093363361E+03  0.17200000000E+03 0. -1.
         -6    1    1    2    0  502  0.16495162598E+02 -0.19002258852E+02 -0.24437990918E+03  0.29989784301E+03  0.17200000000E+03 0. -1.
</event>
<event>
 4    1 -0.3291270E-004  0.2168178E+03  0.7818608E-02  0.1136278E+00
          5   -1    0    0  501    0  0.00000000000E+00  0.00000000000E+00  0.41011392037E+03  0.41014085102E+03  0.47000000000E+01 0. -1.
         -5   -1    0    0    0  501 -0.00000000000E+00 -0.00000000000E+00 -0.16941335408E+03  0.16947853711E+03  0.47000000000E+01 0.  1.
          6    1    1    2  502    0 -0.12712887395E+03  0.35555860865E+02  0.28522392490E+03  0.35827734672E+03  0.17200000000E+03 0. -1.
         -6    1    1    2    0  502  0.12712887395E+03 -0.35555860865E+02 -0.44523358619E+02  0.22134204141E+03  0.17200000000E+03 0.  1.
</event>
<event>
 4    1 -0.3291270E-004  0.1773674E+03  0.7818608E-02  0.1170376E+00
          5   -1    0    0  501    0  0.00000000000E+00  0.00000000000E+00  0.84908457985E+02  0.85038439763E+02  0.47000000000E+01 0. -1.
         -5   -1    0    0    0  501 -0.00000000000E+00 -0.00000000000E+00 -0.54278417122E+03  0.54280451963E+03  0.47000000000E+01 0.  1.
          6    1    1    2  502    0  0.75807524451E+01  0.42634657732E+02 -0.51886855277E+02  0.18480104869E+03  0.17200000000E+03 0. -1.
         -6    1    1    2    0  502 -0.75807524451E+01 -0.42634657732E+02 -0.40598885796E+03  0.44304191070E+03  0.17200000000E+03 0.  1.
</event>
<event>
 4    1 -0.3291270E-004  0.3068636E+03  0.7818608E-02  0.1081859E+00
          5   -1    0    0  501    0  0.00000000000E+00  0.00000000000E+00  0.70835530455E+03  0.70837089683E+03  0.47000000000E+01 0. -1.
         -5   -1    0    0    0  501 -0.00000000000E+00 -0.00000000000E+00 -0.21292788681E+03  0.21297975252E+03  0.47000000000E+01 0.  1.
          6    1    1    2  502    0 -0.17109626149E+02  0.25355182796E+03  0.53012266662E+03  0.61253188524E+03  0.17200000000E+03 0. -1.
         -6    1    1    2    0  502  0.17109626149E+02 -0.25355182796E+03 -0.34695248886E+02  0.30881876411E+03  0.17200000000E+03 0.  1.
</event>
<event>
 4    1 -0.3291270E-004  0.3303478E+03  0.7818608E-02  0.1070983E+00
          5   -1    0    0  501    0  0.00000000000E+00  0.00000000000E+00  0.18878362585E+04  0.18878421091E+04  0.47000000000E+01 0. -1.
         -5   -1    0    0    0  501 -0.00000000000E+00 -0.00000000000E+00 -0.60825258805E+02  0.61006574307E+02  0.47000000000E+01 0.  1.
          6    1    1    2  502    0  0.26136572736E+03 -0.10598870485E+03  0.69316240363E+03  0.76785660563E+03  0.17200000000E+03 0.  1.
         -6    1    1    2    0  502 -0.26136572736E+03  0.10598870485E+03  0.11338485960E+04  0.11809920778E+04  0.17200000000E+03 0.  1.
</event>
<event>
 4    1 -0.3291270E-004  0.2747860E+03  0.7818608E-02  0.1098571E+00
          5   -1    0    0  501    0  0.00000000000E+00  0.00000000000E+00  0.10220933889E+04  0.10221041951E+04  0.47000000000E+01 0. -1.
         -5   -1    0    0    0  501 -0.00000000000E+00 -0.00000000000E+00 -0.22015122320E+03  0.22020138754E+03  0.47000000000E+01 0.  1.
          6    1    1    2  502    0  0.19818260409E+03  0.81529028573E+02  0.90731191879E+03  0.94800962287E+03  0.17200000000E+03 0. -1.
         -6    1    1    2    0  502 -0.19818260409E+03 -0.81529028573E+02 -0.10536975310E+03  0.29429595976E+03  0.17200000000E+03 0.  1.
</event>
<event>
 4    1 -0.3291270E-004  0.2050350E+03  0.7818608E-02  0.1145559E+00
         -5   -1    0    0    0  501 -0.00000000000E+00  0.00000000000E+00  0.22354949738E+03  0.22359889932E+03  0.47000000000E+01 0.  1.
          5   -1    0    0  501    0  0.00000000000E+00 -0.00000000000E+00 -0.19421197872E+03  0.19426884125E+03  0.47000000000E+01 0. -1.
          6    1    1    2  502    0 -0.19137817614E+02 -0.10995047156E+03 -0.22824660503E+02  0.20630154480E+03  0.17200000000E+03 0. -1.
         -6    1    1    2    0  502  0.19137817614E+02  0.10995047156E+03  0.52162179161E+02  0.21156619577E+03  0.17200000000E+03 0.  1.
</event>
<event>
 4    1 -0.3291270E-004  0.3164043E+03  0.7818608E-02  0.1077316E+00
          5   -1    0    0  501    0  0.00000000000E+00  0.00000000000E+00  0.39583383409E+03  0.39586173623E+03  0.47000000000E+01 0. -1.
         -5   -1    0    0    0  501 -0.00000000000E+00 -0.00000000000E+00 -0.36554951961E+03  0.36557973315E+03  0.47000000000E+01 0.  1.
          6    1    1    2  502    0  0.26679651270E+02  0.26422688753E+03  0.22651390195E+03  0.38912748511E+03  0.17200000000E+03 0. -1.
         -6    1    1    2    0  502 -0.26679651270E+02 -0.26422688753E+03 -0.19622958747E+03  0.37231398427E+03  0.17200000000E+03 0. -1.
</event>
<event>
 4    1 -0.3291270E-004  0.1987866E+03  0.7818608E-02  0.1150767E+00
          5   -1    0    0  501    0  0.00000000000E+00  0.00000000000E+00  0.24605126304E+03  0.24609614797E+03  0.47000000000E+01 0. -1.
         -5   -1    0    0    0  501 -0.00000000000E+00 -0.00000000000E+00 -0.17755612554E+03  0.17761832033E+03  0.47000000000E+01 0.  1.
          6    1    1    2  502    0  0.24547138754E+01 -0.99629815566E+02  0.99875435986E+02  0.22246624122E+03  0.17200000000E+03 0. -1.
         -6    1    1    2    0  502 -0.24547138754E+01  0.99629815566E+02 -0.31380298486E+02  0.20124822708E+03  0.17200000000E+03 0.  1.
</event>
<event>
 4    1 -0.3291270E-004  0.2060616E+03  0.7818608E-02  0.1144723E+00
          5   -1    0    0  501    0  0.00000000000E+00  0.00000000000E+00  0.38234929006E+02  0.38522717922E+02  0.47000000000E+01 0. -1.
         -5   -1    0    0    0  501 -0.00000000000E+00 -0.00000000000E+00 -0.25053817408E+04  0.25053861493E+04  0.47000000000E+01 0.  1.
          6    1    1    2  502    0 -0.84412409923E+02  0.75841507211E+02 -0.28304674405E+03  0.35010976633E+03  0.17200000000E+03 0. -1.
         -6    1    1    2    0  502  0.84412409923E+02 -0.75841507211E+02 -0.21841000678E+04  0.21937991009E+04  0.17200000000E+03 0.  1.
</event>
<event>
 4    1 -0.3291270E-004  0.2150126E+03  0.7818608E-02  0.1137657E+00
         -5   -1    0    0    0  501 -0.00000000000E+00  0.00000000000E+00  0.12033803594E+03  0.12042978408E+03  0.47000000000E+01 0.  1.
          5   -1    0    0  501    0  0.00000000000E+00 -0.00000000000E+00 -0.42008276931E+03  0.42010906093E+03  0.47000000000E+01 0. -1.
          6    1    1    2  502    0 -0.12902004635E+03 -0.50430972710E+00 -0.70584686148E+02  0.22630206496E+03  0.17200000000E+03 0. -1.
         -6    1    1    2    0  502  0.12902004635E+03  0.50430972710E+00 -0.22916004722E+03  0.31423678004E+03  0.17200000000E+03 0.  1.
</event>
<event>
 4    1 -0.3291270E-004  0.2086401E+03  0.7818608E-02  0.1142647E+00
          5   -1    0    0  501    0  0.00000000000E+00  0.00000000000E+00  0.19505102726E+03  0.19510764525E+03  0.47000000000E+01 0. -1.
         -5   -1    0    0    0  501 -0.00000000000E+00 -0.00000000000E+00 -0.32448417649E+03  0.32451821334E+03  0.47000000000E+01 0.  1.
          6    1    1    2  502    0 -0.11599778440E+03 -0.22162823623E+02  0.80516140180E+02  0.22363703979E+03  0.17200000000E+03 0. -1.
         -6    1    1    2    0  502  0.11599778440E+03  0.22162823623E+02 -0.20994928940E+03  0.29598881880E+03  0.17200000000E+03 0.  1.
</event>
<event>
 4    1 -0.3291270E-004  0.2387562E+03  0.7818608E-02  0.1120624E+00
         -5   -1    0    0    0  501 -0.00000000000E+00  0.00000000000E+00  0.29534305131E+03  0.29538044613E+03  0.47000000000E+01 0.  1.
          5   -1    0    0  501    0  0.00000000000E+00 -0.00000000000E+00 -0.24008811257E+03  0.24013411211E+03  0.47000000000E+01 0. -1.
          6    1    1    2  502    0  0.32405032676E+02  0.16238980101E+03  0.14626982085E+03  0.27999891805E+03  0.17200000000E+03 0. -1.
         -6    1    1    2    0  502 -0.32405032676E+02 -0.16238980101E+03 -0.91014882116E+02  0.25551564019E+03  0.17200000000E+03 0.  1.
</event>
<event>
 4    1 -0.3291270E-004  0.1784200E+03  0.7818608E-02  0.1169341E+00
          5   -1    0    0  501    0  0.00000000000E+00  0.00000000000E+00  0.19932709116E+02  0.20479328424E+02  0.47000000000E+01 0. -1.
         -5   -1    0    0    0  501 -0.00000000000E+00 -0.00000000000E+00 -0.15864193848E+04  0.15864263470E+04  0.47000000000E+01 0.  1.
          6    1    1    2  502    0  0.11841565012E+02 -0.45928909077E+02 -0.85167957645E+03  0.87016767827E+03  0.17200000000E+03 0. -1.
         -6    1    1    2    0  502 -0.11841565012E+02  0.45928909077E+02 -0.71480709922E+03  0.73673799715E+03  0.17200000000E+03 0.  1.
</event>
<event>
 4    1 -0.3291270E-004  0.2987168E+03  0.7818608E-02  0.1085884E+00
          5   -1    0    0  501    0  0.00000000000E+00  0.00000000000E+00  0.47569567590E+03  0.47571889396E+03  0.47000000000E+01 0. -1.
         -5   -1    0    0    0  501 -0.00000000000E+00 -0.00000000000E+00 -0.19437294816E+03  0.19442976360E+03  0.47000000000E+01 0.  1.
          6    1    1    2  502    0 -0.19109817483E+03 -0.15208286334E+03  0.20354481097E+03  0.36147226701E+03  0.17200000000E+03 0. -1.
         -6    1    1    2    0  502  0.19109817483E+03  0.15208286334E+03  0.77777916774E+02  0.30867639055E+03  0.17200000000E+03 0.  1.
</event>
<event>
 4    1 -0.3291270E-004  0.3213268E+03  0.7818608E-02  0.1075040E+00
         -5   -1    0    0    0  501 -0.00000000000E+00  0.00000000000E+00  0.84525227630E+03  0.84526534331E+03  0.47000000000E+01 0.  1.
          5   -1    0    0  501    0  0.00000000000E+00 -0.00000000000E+00 -0.12513228834E+03  0.12522052382E+03  0.47000000000E+01 0. -1.
          6    1    1    2  502    0 -0.25875734203E+03  0.81924206663E+02  0.43563128046E+03  0.54131834461E+03  0.17200000000E+03 0. -1.
         -6    1    1    2    0  502  0.25875734203E+03 -0.81924206663E+02  0.28448870750E+03  0.42916752252E+03  0.17200000000E+03 0. -1.
</event>
<event>
 4    1 -0.3291270E-004  0.2727753E+03  0.7818608E-02  0.1099702E+00
         -5   -1    0    0    0  501 -0.00000000000E+00  0.00000000000E+00  0.22458121737E+03  0.22463039241E+03  0.47000000000E+01 0.  1.
          5   -1    0    0  501    0  0.00000000000E+00 -0.00000000000E+00 -0.40576355210E+03  0.40579077147E+03  0.47000000000E+01 0. -1.
          6    1    1    2  502    0  0.16289981661E+03 -0.13522578612E+03 -0.22569181081E+03  0.35403835519E+03  0.17200000000E+03 0. -1.
         -6    1    1    2    0  502 -0.16289981661E+03  0.13522578612E+03  0.44509476075E+02  0.27638280870E+03  0.17200000000E+03 0.  1.
</event>
<event>
 4    1 -0.3291270E-004  0.2292123E+03  0.7818608E-02  0.1127195E+00
          5   -1    0    0  501    0  0.00000000000E+00  0.00000000000E+00  0.69004903322E+03  0.69006503915E+03  0.47000000000E+01 0. -1.
         -5   -1    0    0    0  501 -0.00000000000E+00 -0.00000000000E+00 -0.18282606654E+03  0.18288646918E+03  0.47000000000E+01 0.  1.
          6    1    1    2  502    0  0.22149662364E+02  0.14987881949E+03  0.58707011084E+03  0.63022978596E+03  0.17200000000E+03 0. -1.
         -6    1    1    2    0  502 -0.22149662364E+02 -0.14987881949E+03 -0.79847144156E+02  0.24272172236E+03  0.17200000000E+03 0.  1.
</event>
<event>
 4    1 -0.3291270E-004  0.1767893E+03  0.7818608E-02  0.1170947E+00
          5   -1    0    0  501    0  0.00000000000E+00  0.00000000000E+00  0.10741753881E+03  0.10752031271E+03  0.47000000000E+01 0. -1.
         -5   -1    0    0    0  501 -0.00000000000E+00 -0.00000000000E+00 -0.29271211107E+03  0.29274984195E+03  0.47000000000E+01 0.  1.
          6    1    1    2  502    0  0.36629899772E+02  0.18130753591E+02 -0.76064629006E+02  0.19245857105E+03  0.17200000000E+03 0. -1.
         -6    1    1    2    0  502 -0.36629899772E+02 -0.18130753591E+02 -0.10922994325E+03  0.20781158362E+03  0.17200000000E+03 0.  1.
</event>
<event>
 4    1 -0.3291270E-004  0.1863996E+03  0.7818608E-02  0.1161749E+00
         -5   -1    0    0    0  501 -0.00000000000E+00  0.00000000000E+00  0.46313109372E+03  0.46315494165E+03  0.47000000000E+01 0.  1.
          5   -1    0    0  501    0  0.00000000000E+00 -0.00000000000E+00 -0.75029578943E+02  0.75176643423E+02  0.47000000000E+01 0. -1.
          6    1    1    2  502    0 -0.69621825152E+02 -0.17708917646E+02  0.20422597268E+03  0.27650145066E+03  0.17200000000E+03 0. -1.
         -6    1    1    2    0  502  0.69621825152E+02  0.17708917646E+02  0.18387554210E+03  0.26183013441E+03  0.17200000000E+03 0. -1.
</event>
<event>
 4    1 -0.3291270E-004  0.2401783E+03  0.7818608E-02  0.1119674E+00
         -5   -1    0    0    0  501 -0.00000000000E+00  0.00000000000E+00  0.60079326130E+03  0.60081164505E+03  0.47000000000E+01 0.  1.
          5   -1    0    0  501    0  0.00000000000E+00 -0.00000000000E+00 -0.14636036671E+03  0.14643581169E+03  0.47000000000E+01 0. -1.
          6    1    1    2  502    0 -0.13241304608E+03 -0.10280278625E+03  0.80045572487E+01  0.24031167381E+03  0.17200000000E+03 0. -1.
         -6    1    1    2    0  502  0.13241304608E+03  0.10280278625E+03  0.44642833734E+03  0.50693578293E+03  0.17200000000E+03 0.  1.
</event>
<event>
 4    1 -0.3291270E-004  0.1763882E+03  0.7818608E-02  0.1171345E+00
          5   -1    0    0  501    0  0.00000000000E+00  0.00000000000E+00  0.17991423647E+02  0.18595196284E+02  0.47000000000E+01 0. -1.
         -5   -1    0    0    0  501 -0.00000000000E+00 -0.00000000000E+00 -0.21815530130E+04  0.21815580759E+04  0.47000000000E+01 0.  1.
          6    1    1    2  502    0  0.39025008522E+02 -0.24202605068E+01 -0.56509611870E+03  0.59198516225E+03  0.17200000000E+03 0. -1.
         -6    1    1    2    0  502 -0.39025008522E+02  0.24202605068E+01 -0.15984654706E+04  0.16081681099E+04  0.17200000000E+03 0.  1.
</event>
<event>
 4    1 -0.3291270E-004  0.1899093E+03  0.7818608E-02  0.1158543E+00
          5   -1    0    0  501    0  0.00000000000E+00  0.00000000000E+00  0.38251999461E+03  0.38254886783E+03  0.47000000000E+01 0. -1.
         -5   -1    0    0    0  501 -0.00000000000E+00 -0.00000000000E+00 -0.95435477345E+02  0.95551139899E+02  0.47000000000E+01 0.  1.
          6    1    1    2  502    0  0.49468470723E+02 -0.63517062943E+02  0.11628778085E+03  0.22268451867E+03  0.17200000000E+03 0. -1.
         -6    1    1    2    0  502 -0.49468470723E+02  0.63517062943E+02  0.17079673641E+03  0.25541548906E+03  0.17200000000E+03 0.  1.
</event>
<event>
 4    1 -0.3291270E-004  0.1821795E+03  0.7818608E-02  0.1165710E+00
          5   -1    0    0  501    0  0.00000000000E+00  0.00000000000E+00  0.76784198802E+03  0.76785637235E+03  0.47000000000E+01 0. -1.
         -5   -1    0    0    0  501 -0.00000000000E+00 -0.00000000000E+00 -0.43348184588E+02  0.43602237409E+02  0.47000000000E+01 0.  1.
          6    1    1    2  502    0 -0.54256952870E+02  0.25720871969E+02  0.33052960176E+03  0.37741117873E+03  0.17200000000E+03 0.  1.
         -6    1    1    2    0  502  0.54256952870E+02 -0.25720871969E+02  0.39396420166E+03  0.43404743103E+03  0.17200000000E+03 0. -1.
</event>
<event>
 4    1 -0.3291270E-004  0.2948664E+03  0.7818608E-02  0.1087835E+00
          5   -1    0    0  501    0  0.00000000000E+00  0.00000000000E+00  0.20102182369E+04  0.20102237313E+04  0.47000000000E+01 0. -1.
         -5   -1    0    0    0  501 -0.00000000000E+00 -0.00000000000E+00 -0.43500956652E+02  0.43754122431E+02  0.47000000000E+01 0.  1.
          6    1    1    2  502    0  0.93416149039E+02 -0.22053490146E+03  0.10793207598E+04  0.11188742209E+04  0.17200000000E+03 0.  1.
         -6    1    1    2    0  502 -0.93416149039E+02  0.22053490146E+03  0.88739652040E+03  0.93510363280E+03  0.17200000000E+03 0.  1.
</event>
<event>
 4    1 -0.3291270E-004  0.4414681E+03  0.7818608E-02  0.1030297E+00
         -5   -1    0    0    0  501 -0.00000000000E+00  0.00000000000E+00  0.53556195904E+03  0.53558258184E+03  0.47000000000E+01 0.  1.
          5   -1    0    0  501    0  0.00000000000E+00 -0.00000000000E+00 -0.37583154283E+03  0.37586092984E+03  0.47000000000E+01 0. -1.
          6    1    1    2  502    0  0.36715745969E+03  0.17465815105E+03 -0.14545077294E+01  0.44147048093E+03  0.17200000000E+03 0. -1.
         -6    1    1    2    0  502 -0.36715745969E+03 -0.17465815105E+03  0.16118492395E+03  0.46997303076E+03  0.17200000000E+03 0.  1.
</event>
<event>
 4    1 -0.3291270E-004  0.1897797E+03  0.7818608E-02  0.1158660E+00
         -5   -1    0    0    0  501 -0.00000000000E+00  0.00000000000E+00  0.41734472835E+03  0.41737119244E+03  0.47000000000E+01 0.  1.
          5   -1    0    0  501    0  0.00000000000E+00 -0.00000000000E+00 -0.91265391045E+02  0.91386331596E+02  0.47000000000E+01 0. -1.
          6    1    1    2  502    0 -0.62281411962E+02  0.50530678759E+02  0.10319320317E+03  0.21602120487E+03  0.17200000000E+03 0. -1.
         -6    1    1    2    0  502  0.62281411962E+02 -0.50530678759E+02  0.22288613413E+03  0.29273631917E+03  0.17200000000E+03 0.  1.
</event>
<event>
 4    1 -0.3291270E-004  0.1873352E+03  0.7818608E-02  0.1160887E+00
         -5   -1    0    0    0  501 -0.00000000000E+00  0.00000000000E+00  0.42501821308E+03  0.42504419940E+03  0.47000000000E+01 0.  1.
          5   -1    0    0  501    0  0.00000000000E+00 -0.00000000000E+00 -0.82485921293E+02  0.82619714425E+02  0.47000000000E+01 0. -1.
          6    1    1    2  502    0 -0.56457328011E+02 -0.48198051347E+02  0.16852687578E+03  0.25198370959E+03  0.17200000000E+03 0.  1.
         -6    1    1    2    0  502  0.56457328011E+02  0.48198051347E+02  0.17400541600E+03  0.25568020424E+03  0.17200000000E+03 0. -1.
</event>
<event>
 4    1 -0.3291270E-004  0.1838255E+03  0.7818608E-02  0.1164151E+00
         -5   -1    0    0    0  501 -0.00000000000E+00  0.00000000000E+00  0.17402583421E+03  0.17408929023E+03  0.47000000000E+01 0.  1.
          5   -1    0    0  501    0  0.00000000000E+00 -0.00000000000E+00 -0.22935273937E+03  0.22940089158E+03  0.47000000000E+01 0. -1.
          6    1    1    2  502    0  0.32515852366E+02 -0.56129631341E+02 -0.10679456387E+03  0.21259561388E+03  0.17200000000E+03 0. -1.
         -6    1    1    2    0  502 -0.32515852366E+02  0.56129631341E+02  0.51467658712E+02  0.19089456792E+03  0.17200000000E+03 0.  1.
</event>
<event>
 4    1 -0.3291270E-004  0.3465510E+03  0.7818608E-02  0.1064040E+00
         -5   -1    0    0    0  501 -0.00000000000E+00  0.00000000000E+00  0.17062322212E+04  0.17062386945E+04  0.47000000000E+01 0.  1.
          5   -1    0    0  501    0  0.00000000000E+00 -0.00000000000E+00 -0.32810193946E+03  0.32813560105E+03  0.47000000000E+01 0. -1.
          6    1    1    2  502    0  0.26063971318E+03  0.15026825178E+03 -0.21244387370E+03  0.40648494074E+03  0.17200000000E+03 0. -1.
         -6    1    1    2    0  502 -0.26063971318E+03 -0.15026825178E+03  0.15905741554E+04  0.16278893548E+04  0.17200000000E+03 0.  1.
</event>
<event>
 4    1 -0.3291270E-004  0.1877941E+03  0.7818608E-02  0.1160466E+00
          5   -1    0    0  501    0  0.00000000000E+00  0.00000000000E+00  0.15041561412E+03  0.15048902608E+03  0.47000000000E+01 0. -1.
         -5   -1    0    0    0  501 -0.00000000000E+00 -0.00000000000E+00 -0.23926122914E+03  0.23930738762E+03  0.47000000000E+01 0.  1.
          6    1    1    2  502    0  0.75001318587E+02 -0.75775011787E+01 -0.72461181563E+02  0.20128894442E+03  0.17200000000E+03 0.  1.
         -6    1    1    2    0  502 -0.75001318587E+02  0.75775011787E+01 -0.16384433451E+02  0.18850746928E+03  0.17200000000E+03 0. -1.
</event>
<event>
 4    1 -0.3291270E-004  0.2513850E+03  0.7818608E-02  0.1112433E+00
         -5   -1    0    0    0  501 -0.00000000000E+00  0.00000000000E+00  0.16101685259E+03  0.16108543329E+03  0.47000000000E+01 0.  1.
          5   -1    0    0  501    0  0.00000000000E+00 -0.00000000000E+00 -0.41740370048E+03  0.41743016083E+03  0.47000000000E+01 0. -1.
          6    1    1    2  502    0 -0.10500179636E+03  0.15028325670E+03 -0.19911610913E+03  0.32068935031E+03  0.17200000000E+03 0. -1.
         -6    1    1    2    0  502  0.10500179636E+03 -0.15028325670E+03 -0.57270738754E+02  0.25782624382E+03  0.17200000000E+03 0.  1.
</event>
<event>
 4    1 -0.3291270E-004  0.4574338E+03  0.7818608E-02  0.1025528E+00
         -5   -1    0    0    0  501 -0.00000000000E+00  0.00000000000E+00  0.10923043499E+04  0.10923144615E+04  0.47000000000E+01 0.  1.
          5   -1    0    0  501    0  0.00000000000E+00 -0.00000000000E+00 -0.22506187861E+03  0.22511094865E+03  0.47000000000E+01 0. -1.
          6    1    1    2  502    0 -0.15820710188E+03 -0.39323300581E+03  0.17937559222E+03  0.49134640228E+03  0.17200000000E+03 0. -1.
         -6    1    1    2    0  502  0.15820710188E+03  0.39323300581E+03  0.68786687909E+03  0.82607900790E+03  0.17200000000E+03 0.  1.
</event>
<event>
 4    1 -0.3291270E-004  0.1769921E+03  0.7818608E-02  0.1170746E+00
          5   -1    0    0  501    0  0.00000000000E+00  0.00000000000E+00  0.33440099373E+03  0.33443402131E+03  0.47000000000E+01 0. -1.
         -5   -1    0    0    0  501 -0.00000000000E+00 -0.00000000000E+00 -0.17036246832E+03  0.17042728835E+03  0.47000000000E+01 0.  1.
          6    1    1    2  502    0  0.41595944437E+02 -0.34588518601E+01  0.25142273898E+03  0.30747289300E+03  0.17200000000E+03 0. -1.
         -6    1    1    2    0  502 -0.41595944437E+02  0.34588518601E+01 -0.87384213574E+02  0.19738841666E+03  0.17200000000E+03 0.  1.
</event>
<event>
 4    1 -0.3291270E-004  0.2434336E+03  0.7818608E-02  0.1117526E+00
          5   -1    0    0  501    0  0.00000000000E+00  0.00000000000E+00  0.33389347968E+03  0.33392655745E+03  0.47000000000E+01 0. -1.
         -5   -1    0    0    0  501 -0.00000000000E+00 -0.00000000000E+00 -0.17837398788E+03  0.17843589760E+03  0.47000000000E+01 0.  1.
          6    1    1    2  502    0  0.17220974339E+03  0.44390091131E+01  0.58916842620E+02  0.25046176328E+03  0.17200000000E+03 0. -1.
         -6    1    1    2    0  502 -0.17220974339E+03 -0.44390091131E+01  0.96602649178E+02  0.26190069177E+03  0.17200000000E+03 0.  1.
</event>
<event>
 4    1 -0.3291270E-004  0.3628370E+03  0.7818608E-02  0.1057466E+00
          5   -1    0    0  501    0  0.00000000000E+00  0.00000000000E+00  0.12682713634E+03  0.12691419350E+03  0.47000000000E+01 0. -1.
         -5   -1    0    0    0  501 -0.00000000000E+00 -0.00000000000E+00 -0.14389097803E+04  0.14389174562E+04  0.47000000000E+01 0.  1.
          6    1    1    2  502    0 -0.31931582507E+03 -0.10202277041E+02 -0.24258242623E+03  0.43645952402E+03  0.17200000000E+03 0. -1.
         -6    1    1    2    0  502  0.31931582507E+03  0.10202277041E+02 -0.10695002177E+04  0.11293721257E+04  0.17200000000E+03 0.  1.
</event>
<event>
 4    1 -0.3291270E-004  0.2012068E+03  0.7818608E-02  0.1148725E+00
         -5   -1    0    0    0  501 -0.00000000000E+00  0.00000000000E+00  0.17346223241E+03  0.17352589453E+03  0.47000000000E+01 0.  1.
          5   -1    0    0  501    0  0.00000000000E+00 -0.00000000000E+00 -0.29073950132E+03  0.29077748817E+03  0.47000000000E+01 0. -1.
          6    1    1    2  502    0 -0.80685214964E+02  0.66257558073E+02 -0.16184381425E+03  0.25822003820E+03  0.17200000000E+03 0. -1.
         -6    1    1    2    0  502  0.80685214964E+02 -0.66257558073E+02  0.44566545340E+02  0.20608334450E+03  0.17200000000E+03 0.  1.
</event>
<event>
 4    1 -0.3291270E-004  0.2102867E+03  0.7818608E-02  0.1141339E+00
         -5   -1    0    0    0  501 -0.00000000000E+00  0.00000000000E+00  0.95632900908E+02  0.95748324978E+02  0.47000000000E+01 0.  1.
          5   -1    0    0  501    0  0.00000000000E+00 -0.00000000000E+00 -0.51215141640E+03  0.51217298183E+03  0.47000000000E+01 0. -1.
          6    1    1    2  502    0 -0.59049976842E+02  0.10559173542E+03 -0.30337110361E+03  0.36912672737E+03  0.17200000000E+03 0. -1.
         -6    1    1    2    0  502  0.59049976842E+02 -0.10559173542E+03 -0.11314741188E+03  0.23879457944E+03  0.17200000000E+03 0.  1.
</event>
<event>
 4    1 -0.3291270E-004  0.1899196E+03  0.7818608E-02  0.1158534E+00
         -5   -1    0    0    0  501 -0.00000000000E+00  0.00000000000E+00  0.47661605922E+03  0.47663923245E+03  0.47000000000E+01 0.  1.
          5   -1    0    0  501    0  0.00000000000E+00 -0.00000000000E+00 -0.75665815749E+02  0.75811646025E+02  0.47000000000E+01 0. -1.
          6    1    1    2  502    0 -0.71298753344E+02 -0.37442680241E+02  0.20975462548E+03  0.28296019056E+03  0.17200000000E+03 0.  1.
         -6    1    1    2    0  502  0.71298753344E+02  0.37442680241E+02  0.19119561800E+03  0.26949068792E+03  0.17200000000E+03 0. -1.
</event>
<event>
 4    1 -0.3291270E-004  0.5879791E+03  0.7818608E-02  0.9930664E-01
          5   -1    0    0  501    0  0.00000000000E+00  0.00000000000E+00  0.21186676954E+03  0.21191889495E+03  0.47000000000E+01 0. -1.
         -5   -1    0    0    0  501 -0.00000000000E+00 -0.00000000000E+00 -0.22736890151E+04  0.22736938729E+04  0.47000000000E+01 0.  1.
          6    1    1    2  502    0 -0.27378438039E+03  0.49109835024E+03 -0.37043583612E+03  0.69494041848E+03  0.17200000000E+03 0. -1.
         -6    1    1    2    0  502  0.27378438039E+03 -0.49109835024E+03 -0.16913864095E+04  0.17906723493E+04  0.17200000000E+03 0.  1.
</event>
<event>
 4    1 -0.3291270E-004  0.2005692E+03  0.7818608E-02  0.1149260E+00
         -5   -1    0    0    0  501 -0.00000000000E+00  0.00000000000E+00  0.12705708663E+04  0.12705795592E+04  0.47000000000E+01 0.  1.
          5   -1    0    0  501    0  0.00000000000E+00 -0.00000000000E+00 -0.45775538787E+03  0.45777951584E+03  0.47000000000E+01 0. -1.
          6    1    1    2  502    0 -0.10207882425E+03  0.14964452158E+02 -0.42735167144E+03  0.47207782438E+03  0.17200000000E+03 0. -1.
         -6    1    1    2    0  502  0.10207882425E+03 -0.14964452158E+02  0.12401671499E+04  0.12562812507E+04  0.17200000000E+03 0.  1.
</event>
<event>
 4    1 -0.3291270E-004  0.1872257E+03  0.7818608E-02  0.1160988E+00
          5   -1    0    0  501    0  0.00000000000E+00  0.00000000000E+00  0.47766977788E+03  0.47769289999E+03  0.47000000000E+01 0. -1.
         -5   -1    0    0    0  501 -0.00000000000E+00 -0.00000000000E+00 -0.75068133701E+02  0.75215122796E+02  0.47000000000E+01 0.  1.
          6    1    1    2  502    0 -0.38987429893E+02  0.62844702505E+02  0.15873178201E+03  0.24545723648E+03  0.17200000000E+03 0.  1.
         -6    1    1    2    0  502  0.38987429893E+02 -0.62844702505E+02  0.24386986217E+03  0.30745078630E+03  0.17200000000E+03 0. -1.
</event>
<event>
 4    1 -0.3291270E-004  0.1767560E+03  0.7818608E-02  0.1170980E+00
         -5   -1    0    0    0  501 -0.00000000000E+00  0.00000000000E+00  0.27258516350E+03  0.27262567994E+03  0.47000000000E+01 0.  1.
          5   -1    0    0  501    0  0.00000000000E+00 -0.00000000000E+00 -0.11557273990E+03  0.11566826793E+03  0.47000000000E+01 0. -1.
          6    1    1    2  502    0  0.12222027074E+02 -0.38849631843E+02  0.59978382321E+02  0.18665497097E+03  0.17200000000E+03 0. -1.
         -6    1    1    2    0  502 -0.12222027074E+02  0.38849631843E+02  0.97034041288E+02  0.20163897691E+03  0.17200000000E+03 0. -1.
</event>
<event>
 4    1 -0.3291270E-004  0.1923962E+03  0.7818608E-02  0.1156318E+00
          5   -1    0    0  501    0  0.00000000000E+00  0.00000000000E+00  0.34421742138E+02  0.34741133140E+02  0.47000000000E+01 0. -1.
         -5   -1    0    0    0  501 -0.00000000000E+00 -0.00000000000E+00 -0.11817122207E+04  0.11817215672E+04  0.47000000000E+01 0.  1.
          6    1    1    2  502    0 -0.57358777137E+02 -0.64360330314E+02 -0.38673260746E+03  0.43194720870E+03  0.17200000000E+03 0. -1.
         -6    1    1    2    0  502  0.57358777137E+02  0.64360330314E+02 -0.76055787106E+03  0.78451549167E+03  0.17200000000E+03 0.  1.
</event>
<event>
 4    1 -0.3291270E-004  0.2116684E+03  0.7818608E-02  0.1140252E+00
         -5   -1    0    0    0  501 -0.00000000000E+00  0.00000000000E+00  0.98712620843E+03  0.98713739742E+03  0.47000000000E+01 0.  1.
          5   -1    0    0  501    0  0.00000000000E+00 -0.00000000000E+00 -0.50333266061E+02  0.50552227175E+02  0.47000000000E+01 0. -1.
          6    1    1    2  502    0  0.15211955388E+02 -0.12242598276E+03  0.30398286226E+03  0.37041747446E+03  0.17200000000E+03 0. -1.
         -6    1    1    2    0  502 -0.15211955388E+02  0.12242598276E+03  0.63281008012E+03  0.66727215013E+03  0.17200000000E+03 0.  1.
</event>
<event>
 4    1 -0.3291270E-004  0.1941656E+03  0.7818608E-02  0.1154757E+00
         -5   -1    0    0    0  501 -0.00000000000E+00  0.00000000000E+00  0.53982115739E+02  0.54186334252E+02  0.47000000000E+01 0.  1.
          5   -1    0    0  501    0  0.00000000000E+00 -0.00000000000E+00 -0.69690890096E+03  0.69692474934E+03  0.47000000000E+01 0. -1.
          6    1    1    2  502    0 -0.20671920072E+02 -0.87686736228E+02 -0.32479109802E+03  0.37840394995E+03  0.17200000000E+03 0.  1.
         -6    1    1    2    0  502  0.20671920072E+02  0.87686736228E+02 -0.31813568721E+03  0.37270713364E+03  0.17200000000E+03 0. -1.
</event>
<event>
 4    1 -0.3291270E-004  0.2155316E+03  0.7818608E-02  0.1137259E+00
         -5   -1    0    0    0  501 -0.00000000000E+00  0.00000000000E+00  0.96153118855E+02  0.96267919192E+02  0.47000000000E+01 0.  1.
          5   -1    0    0  501    0  0.00000000000E+00 -0.00000000000E+00 -0.61310458019E+03  0.61312259479E+03  0.47000000000E+01 0. -1.
          6    1    1    2  502    0 -0.10792522527E+03 -0.72263551595E+02 -0.42203337599E+03  0.47388400014E+03  0.17200000000E+03 0. -1.
         -6    1    1    2    0  502  0.10792522527E+03  0.72263551595E+02 -0.94918085339E+02  0.23550651384E+03  0.17200000000E+03 0.  1.
</event>
<event>
 4    1 -0.3291270E-004  0.2109888E+03  0.7818608E-02  0.1140785E+00
          5   -1    0    0  501    0  0.00000000000E+00  0.00000000000E+00  0.93777664845E+02  0.93895369555E+02  0.47000000000E+01 0. -1.
         -5   -1    0    0    0  501 -0.00000000000E+00 -0.00000000000E+00 -0.69113225741E+03  0.69114823825E+03  0.47000000000E+01 0.  1.
          6    1    1    2  502    0 -0.10094853234E+03 -0.68859676914E+02 -0.78825977819E+02  0.22523275975E+03  0.17200000000E+03 0. -1.
         -6    1    1    2    0  502  0.10094853234E+03  0.68859676914E+02 -0.51852861475E+03  0.55981084805E+03  0.17200000000E+03 0.  1.
</event>
<event>
 4    1 -0.3291270E-004  0.1841330E+03  0.7818608E-02  0.1163862E+00
         -5   -1    0    0    0  501 -0.00000000000E+00  0.00000000000E+00  0.25398822607E+03  0.25403170862E+03  0.47000000000E+01 0.  1.
          5   -1    0    0  501    0  0.00000000000E+00 -0.00000000000E+00 -0.16520231465E+03  0.16526915855E+03  0.47000000000E+01 0. -1.
          6    1    1    2  502    0  0.33264608272E+02 -0.56695910349E+02 -0.47567831265E+02  0.19017796661E+03  0.17200000000E+03 0. -1.
         -6    1    1    2    0  502 -0.33264608272E+02  0.56695910349E+02  0.13635374268E+03  0.22912290055E+03  0.17200000000E+03 0.  1.
</event>
<event>
 4    1 -0.3291270E-004  0.2034414E+03  0.7818608E-02  0.1146868E+00
          5   -1    0    0  501    0  0.00000000000E+00  0.00000000000E+00  0.86419108637E+02  0.86546821649E+02  0.47000000000E+01 0. -1.
         -5   -1    0    0    0  501 -0.00000000000E+00 -0.00000000000E+00 -0.12030510794E+04  0.12030602602E+04  0.47000000000E+01 0.  1.
          6    1    1    2  502    0 -0.93205151649E+02  0.55831772408E+02 -0.57919945119E+02  0.21152566546E+03  0.17200000000E+03 0. -1.
         -6    1    1    2    0  502  0.93205151649E+02 -0.55831772408E+02 -0.10587120256E+04  0.10780814164E+04  0.17200000000E+03 0.  1.
</event>
<event>
 4    1 -0.3291270E-004  0.2151542E+03  0.7818608E-02  0.1137548E+00
         -5   -1    0    0    0  501 -0.00000000000E+00  0.00000000000E+00  0.25026927284E+02  0.25464427920E+02  0.47000000000E+01 0.  1.
          5   -1    0    0  501    0  0.00000000000E+00 -0.00000000000E+00 -0.19645150626E+04  0.19645206848E+04  0.47000000000E+01 0. -1.
          6    1    1    2  502    0  0.84869975060E+02 -0.97490614838E+02 -0.12269679230E+04  0.12456892136E+04  0.17200000000E+03 0.  1.
         -6    1    1    2    0  502 -0.84869975060E+02  0.97490614838E+02 -0.71252021226E+03  0.74429589917E+03  0.17200000000E+03 0.  1.
</event>
<event>
 4    1 -0.3291270E-004  0.2244549E+03  0.7818608E-02  0.1130605E+00
          5   -1    0    0  501    0  0.00000000000E+00  0.00000000000E+00  0.45491974129E+03  0.45494401965E+03  0.47000000000E+01 0. -1.
         -5   -1    0    0    0  501 -0.00000000000E+00 -0.00000000000E+00 -0.11235616533E+03  0.11245442583E+03  0.47000000000E+01 0.  1.
          6    1    1    2  502    0  0.64143841900E+02 -0.12915706615E+03  0.20604130957E+03  0.30468508569E+03  0.17200000000E+03 0. -1.
         -6    1    1    2    0  502 -0.64143841900E+02  0.12915706615E+03  0.13652226639E+03  0.26271335979E+03  0.17200000000E+03 0.  1.
</event>
<event>
 4    1 -0.3291270E-004  0.5464727E+03  0.7818608E-02  0.1002314E+00
         -5   -1    0    0    0  501 -0.00000000000E+00  0.00000000000E+00  0.54087821356E+03  0.54089863367E+03  0.47000000000E+01 0.  1.
          5   -1    0    0  501    0  0.00000000000E+00 -0.00000000000E+00 -0.66734545500E+03  0.66736200544E+03  0.47000000000E+01 0. -1.
          6    1    1    2  502    0  0.39401173781E+03  0.33734730036E+03 -0.31429748619E+03  0.63040888352E+03  0.17200000000E+03 0. -1.
         -6    1    1    2    0  502 -0.39401173781E+03 -0.33734730036E+03  0.18783024475E+03  0.57785175559E+03  0.17200000000E+03 0.  1.
</event>
<event>
 4    1 -0.3291270E-004  0.2580261E+03  0.7818608E-02  0.1108335E+00
         -5   -1    0    0    0  501 -0.00000000000E+00  0.00000000000E+00  0.48224853947E+03  0.48227144206E+03  0.47000000000E+01 0.  1.
          5   -1    0    0  501    0  0.00000000000E+00 -0.00000000000E+00 -0.15469336247E+03  0.15476474531E+03  0.47000000000E+01 0. -1.
          6    1    1    2  502    0  0.11108879690E+03  0.15701198316E+03  0.59146801385E+02  0.26471839333E+03  0.17200000000E+03 0.  1.
         -6    1    1    2    0  502 -0.11108879690E+03 -0.15701198316E+03  0.26840837562E+03  0.37231779404E+03  0.17200000000E+03 0.  1.
</event>
<event>
 4    1 -0.3291270E-004  0.2607942E+03  0.7818608E-02  0.1106667E+00
         -5   -1    0    0    0  501 -0.00000000000E+00  0.00000000000E+00  0.10193692775E+03  0.10204522154E+03  0.47000000000E+01 0.  1.
          5   -1    0    0  501    0  0.00000000000E+00 -0.00000000000E+00 -0.67752276565E+03  0.67753906749E+03  0.47000000000E+01 0. -1.
          6    1    1    2  502    0 -0.83191622594E+02 -0.17750712820E+03 -0.33695783548E+03  0.42609178532E+03  0.17200000000E+03 0.  1.
         -6    1    1    2    0  502  0.83191622594E+02  0.17750712820E+03 -0.23862800243E+03  0.35349250371E+03  0.17200000000E+03 0. -1.
</event>
<event>
 4    1 -0.3291270E-004  0.2071820E+03  0.7818608E-02  0.1143817E+00
          5   -1    0    0  501    0  0.00000000000E+00  0.00000000000E+00  0.30744777733E+02  0.31101951030E+02  0.47000000000E+01 0. -1.
         -5   -1    0    0    0  501 -0.00000000000E+00 -0.00000000000E+00 -0.14538420971E+04  0.14538496942E+04  0.47000000000E+01 0.  1.
          6    1    1    2  502    0 -0.11238026628E+03  0.26665730944E+02 -0.86986160416E+03  0.89419438370E+03  0.17200000000E+03 0. -1.
         -6    1    1    2    0  502  0.11238026628E+03 -0.26665730944E+02 -0.55323571521E+03  0.59075726152E+03  0.17200000000E+03 0. -1.
</event>
<event>
 4    1 -0.3291270E-004  0.2130790E+03  0.7818608E-02  0.1139151E+00
          5   -1    0    0  501    0  0.00000000000E+00  0.00000000000E+00  0.20205691310E+04  0.20205745973E+04  0.47000000000E+01 0. -1.
         -5   -1    0    0    0  501 -0.00000000000E+00 -0.00000000000E+00 -0.30269798261E+02  0.30632510292E+02  0.47000000000E+01 0.  1.
          6    1    1    2  502    0 -0.11515366932E+03 -0.50579371377E+02  0.15203378372E+04  0.15351969840E+04  0.17200000000E+03 0. -1.
         -6    1    1    2    0  502  0.11515366932E+03  0.50579371377E+02  0.46996149556E+03  0.51601012362E+03  0.17200000000E+03 0.  1.
</event>
<event>
 4    1 -0.3291270E-004  0.1819972E+03  0.7818608E-02  0.1165884E+00
         -5   -1    0    0    0  501 -0.00000000000E+00  0.00000000000E+00  0.24540159373E+03  0.24544659746E+03  0.47000000000E+01 0.  1.
          5   -1    0    0  501    0  0.00000000000E+00 -0.00000000000E+00 -0.13566385366E+03  0.13574524371E+03  0.47000000000E+01 0. -1.
          6    1    1    2  502    0 -0.36383601257E+02 -0.47065890596E+02  0.40353009530E+02  0.18641708579E+03  0.17200000000E+03 0. -1.
         -6    1    1    2    0  502  0.36383601257E+02  0.47065890596E+02  0.69384730543E+02  0.19477475537E+03  0.17200000000E+03 0.  1.
</event>
<event>
 4    1 -0.3291270E-004  0.4164558E+03  0.7818608E-02  0.1038226E+00
         -5   -1    0    0    0  501 -0.00000000000E+00  0.00000000000E+00  0.26112356880E+03  0.26116586336E+03  0.47000000000E+01 0.  1.
          5   -1    0    0  501    0  0.00000000000E+00 -0.00000000000E+00 -0.66412400451E+03  0.66414063523E+03  0.47000000000E+01 0. -1.
          6    1    1    2  502    0  0.36849190845E+02 -0.37748325782E+03 -0.20505135241E+03  0.46419988144E+03  0.17200000000E+03 0.  1.
         -6    1    1    2    0  502 -0.36849190845E+02  0.37748325782E+03 -0.19794908330E+03  0.46110661715E+03  0.17200000000E+03 0.  1.
</event>
<event>
 4    1 -0.3291270E-004  0.3661959E+03  0.7818608E-02  0.1056157E+00
         -5   -1    0    0    0  501 -0.00000000000E+00  0.00000000000E+00  0.12257027477E+03  0.12266035324E+03  0.47000000000E+01 0.  1.
          5   -1    0    0  501    0  0.00000000000E+00 -0.00000000000E+00 -0.11075753832E+04  0.11075853554E+04  0.47000000000E+01 0. -1.
          6    1    1    2  502    0  0.49178913964E+02  0.31952606246E+03 -0.42332234443E+03  0.55973321990E+03  0.17200000000E+03 0. -1.
         -6    1    1    2    0  502 -0.49178913964E+02 -0.31952606246E+03 -0.56168276405E+03  0.67051248877E+03  0.17200000000E+03 0. -1.
</event>
<event>
 4    1 -0.3291270E-004  0.1897041E+03  0.7818608E-02  0.1158728E+00
         -5   -1    0    0    0  501 -0.00000000000E+00  0.00000000000E+00  0.32414948250E+03  0.32418355449E+03  0.47000000000E+01 0.  1.
          5   -1    0    0  501    0  0.00000000000E+00 -0.00000000000E+00 -0.22462984870E+03  0.22467901310E+03  0.47000000000E+01 0. -1.
          6    1    1    2  502    0  0.22267615646E+02 -0.76862171742E+02 -0.14543625858E+03  0.23903837654E+03  0.17200000000E+03 0. -1.
         -6    1    1    2    0  502 -0.22267615646E+02  0.76862171742E+02  0.24495589237E+03  0.30982419105E+03  0.17200000000E+03 0.  1.
</event>
<event>
 4    1 -0.3291270E-004  0.1823706E+03  0.7818608E-02  0.1165528E+00
          5   -1    0    0  501    0  0.00000000000E+00  0.00000000000E+00  0.26967568095E+03  0.26971663445E+03  0.47000000000E+01 0. -1.
         -5   -1    0    0    0  501 -0.00000000000E+00 -0.00000000000E+00 -0.17950773493E+03  0.17956925377E+03  0.47000000000E+01 0.  1.
          6    1    1    2  502    0 -0.21257883759E+02  0.56772581106E+02  0.17082032856E+03  0.24987718631E+03  0.17200000000E+03 0. -1.
         -6    1    1    2    0  502  0.21257883759E+02 -0.56772581106E+02 -0.80652382546E+02  0.19940870191E+03  0.17200000000E+03 0.  1.
</event>
<event>
 4    1 -0.3291270E-004  0.4274413E+03  0.7818608E-02  0.1034671E+00
          5   -1    0    0  501    0  0.00000000000E+00  0.00000000000E+00  0.20208294594E+04  0.20208349249E+04  0.47000000000E+01 0. -1.
         -5   -1    0    0    0  501 -0.00000000000E+00 -0.00000000000E+00 -0.95852285918E+02  0.95967446125E+02  0.47000000000E+01 0.  1.
          6    1    1    2  502    0 -0.37834408573E+03 -0.99888969469E+02  0.12160288870E+04  0.12889655959E+04  0.17200000000E+03 0. -1.
         -6    1    1    2    0  502  0.37834408573E+03  0.99888969469E+02  0.70894828642E+03  0.82783677512E+03  0.17200000000E+03 0.  1.
</event>
<event>
 4    1 -0.3291270E-004  0.1812326E+03  0.7818608E-02  0.1166615E+00
          5   -1    0    0  501    0  0.00000000000E+00  0.00000000000E+00  0.57678965920E+02  0.57870140051E+02  0.47000000000E+01 0. -1.
         -5   -1    0    0    0  501 -0.00000000000E+00 -0.00000000000E+00 -0.63843763055E+03  0.63845493036E+03  0.47000000000E+01 0.  1.
          6    1    1    2  502    0  0.41798777559E+02  0.38911742001E+02 -0.17500560033E+03  0.25193693976E+03  0.17200000000E+03 0. -1.
         -6    1    1    2    0  502 -0.41798777559E+02 -0.38911742001E+02 -0.40575306430E+03  0.44438813065E+03  0.17200000000E+03 0.  1.
</event>
<event>
 4    1 -0.3291270E-004  0.1845368E+03  0.7818608E-02  0.1163483E+00
         -5   -1    0    0    0  501 -0.00000000000E+00  0.00000000000E+00  0.34758720330E+02  0.35075042965E+02  0.47000000000E+01 0.  1.
          5   -1    0    0  501    0  0.00000000000E+00 -0.00000000000E+00 -0.10717928942E+04  0.10718031993E+04  0.47000000000E+01 0. -1.
          6    1    1    2  502    0  0.54813545429E+02 -0.38279088350E+02 -0.68484271076E+03  0.70926959039E+03  0.17200000000E+03 0. -1.
         -6    1    1    2    0  502 -0.54813545429E+02  0.38279088350E+02 -0.35219146307E+03  0.39760865185E+03  0.17200000000E+03 0.  1.
</event>
<event>
 4    1 -0.3291270E-004  0.2538831E+03  0.7818608E-02  0.1110875E+00
         -5   -1    0    0    0  501 -0.00000000000E+00  0.00000000000E+00  0.97605257519E+03  0.97606389111E+03  0.47000000000E+01 0.  1.
          5   -1    0    0  501    0  0.00000000000E+00 -0.00000000000E+00 -0.16833210221E+03  0.16839770377E+03  0.47000000000E+01 0. -1.
          6    1    1    2  502    0 -0.14866213317E+03  0.11301414002E+03 -0.42258484216E+02  0.25737599960E+03  0.17200000000E+03 0. -1.
         -6    1    1    2    0  502  0.14866213317E+03 -0.11301414002E+03  0.84997895719E+03  0.88708559528E+03  0.17200000000E+03 0.  1.
</event>
<event>
 4    1 -0.3291270E-004  0.2033667E+03  0.7818608E-02  0.1146929E+00
          5   -1    0    0  501    0  0.00000000000E+00  0.00000000000E+00  0.17019128518E+02  0.17656181227E+02  0.47000000000E+01 0. -1.
         -5   -1    0    0    0  501 -0.00000000000E+00 -0.00000000000E+00 -0.23858266670E+04  0.23858312965E+04  0.47000000000E+01 0.  1.
          6    1    1    2  502    0 -0.50555281735E+02  0.96011355357E+02 -0.11595422319E+04  0.11772409288E+04  0.17200000000E+03 0. -1.
         -6    1    1    2    0  502  0.50555281735E+02 -0.96011355357E+02 -0.12092653066E+04  0.12262465488E+04  0.17200000000E+03 0. -1.
</event>
<event>
 4    1 -0.3291270E-004  0.1869585E+03  0.7818608E-02  0.1161233E+00
          5   -1    0    0  501    0  0.00000000000E+00  0.00000000000E+00  0.22822506430E+03  0.22827345438E+03  0.47000000000E+01 0. -1.
         -5   -1    0    0    0  501 -0.00000000000E+00 -0.00000000000E+00 -0.20696691300E+03  0.20702027214E+03  0.47000000000E+01 0.  1.
          6    1    1    2  502    0  0.36421071421E+02  0.63584598004E+02 -0.10042540910E+03  0.21222336898E+03  0.17200000000E+03 0.  1.
         -6    1    1    2    0  502 -0.36421071421E+02 -0.63584598004E+02  0.12168356040E+03  0.22307035755E+03  0.17200000000E+03 0. -1.
</event>
<event>
 4    1 -0.3291270E-004  0.2059423E+03  0.7818608E-02  0.1144820E+00
          5   -1    0    0  501    0  0.00000000000E+00  0.00000000000E+00  0.15279786249E+03  0.15287013045E+03  0.47000000000E+01 0. -1.
         -5   -1    0    0    0  501 -0.00000000000E+00 -0.00000000000E+00 -0.31768802646E+03  0.31772279137E+03  0.47000000000E+01 0.  1.
          6    1    1    2  502    0  0.27945003742E+02 -0.10976029516E+03  0.13188965191E+01  0.20594655888E+03  0.17200000000E+03 0.  1.
         -6    1    1    2    0  502 -0.27945003742E+02  0.10976029516E+03 -0.16620906048E+03  0.26464636293E+03  0.17200000000E+03 0.  1.
</event>
<event>
 4    1 -0.3291270E-004  0.3768641E+03  0.7818608E-02  0.1052099E+00
          5   -1    0    0  501    0  0.00000000000E+00  0.00000000000E+00  0.26190819346E+03  0.26195036134E+03  0.47000000000E+01 0. -1.
         -5   -1    0    0    0  501 -0.00000000000E+00 -0.00000000000E+00 -0.67456943387E+03  0.67458580708E+03  0.47000000000E+01 0.  1.
          6    1    1    2  502    0 -0.21617168165E+03  0.25634425188E+03  0.11072937937E+01  0.37686575530E+03  0.17200000000E+03 0. -1.
         -6    1    1    2    0  502  0.21617168165E+03 -0.25634425188E+03 -0.41376853420E+03  0.55967041312E+03  0.17200000000E+03 0.  1.
</event>
<event>
 4    1 -0.3291270E-004  0.1923634E+03  0.7818608E-02  0.1156347E+00
          5   -1    0    0  501    0  0.00000000000E+00  0.00000000000E+00  0.65355956427E+03  0.65357646381E+03  0.47000000000E+01 0. -1.
         -5   -1    0    0    0  501 -0.00000000000E+00 -0.00000000000E+00 -0.64600535289E+02  0.64771283449E+02  0.47000000000E+01 0.  1.
          6    1    1    2  502    0  0.43055988243E+02  0.74604605979E+02  0.42144336011E+03  0.46326900515E+03  0.17200000000E+03 0.  1.
         -6    1    1    2    0  502 -0.43055988243E+02 -0.74604605979E+02  0.16751566887E+03  0.25507874211E+03  0.17200000000E+03 0.  1.
</event>
<event>
 4    1 -0.3291270E-004  0.1767195E+03  0.7818608E-02  0.1171016E+00
          5   -1    0    0  501    0  0.00000000000E+00  0.00000000000E+00  0.30535143696E+03  0.30538760626E+03  0.47000000000E+01 0. -1.
         -5   -1    0    0    0  501 -0.00000000000E+00 -0.00000000000E+00 -0.16689477394E+03  0.16696094025E+03  0.47000000000E+01 0.  1.
          6    1    1    2  502    0  0.40526719327E+02 -0.18344069074E+01  0.21624182405E+03  0.27926744618E+03  0.17200000000E+03 0. -1.
         -6    1    1    2    0  502 -0.40526719327E+02  0.18344069074E+01 -0.77785161029E+02  0.19308110033E+03  0.17200000000E+03 0.  1.
</event>
<event>
 4    1 -0.3291270E-004  0.1900081E+03  0.7818608E-02  0.1158454E+00
         -5   -1    0    0    0  501 -0.00000000000E+00  0.00000000000E+00  0.10448284218E+04  0.10448389929E+04  0.47000000000E+01 0.  1.
          5   -1    0    0  501    0  0.00000000000E+00 -0.00000000000E+00 -0.44940740040E+02  0.45185839765E+02  0.47000000000E+01 0. -1.
          6    1    1    2  502    0 -0.51590975952E+02 -0.62108498829E+02  0.23664388043E+03  0.30348545364E+03  0.17200000000E+03 0. -1.
         -6    1    1    2    0  502  0.51590975952E+02  0.62108498829E+02  0.76324380137E+03  0.78653937903E+03  0.17200000000E+03 0.  1.
</event>
<event>
 4    1 -0.3291270E-004  0.1817093E+03  0.7818608E-02  0.1166159E+00
         -5   -1    0    0    0  501 -0.00000000000E+00  0.00000000000E+00  0.52176670009E+03  0.52178786813E+03  0.47000000000E+01 0.  1.
          5   -1    0    0  501    0  0.00000000000E+00 -0.00000000000E+00 -0.67305966194E+02  0.67469867981E+02  0.47000000000E+01 0. -1.
          6    1    1    2  502    0 -0.54873572512E+02  0.20571057124E+02  0.30014619836E+03  0.35086467155E+03  0.17200000000E+03 0.  1.
         -6    1    1    2    0  502  0.54873572512E+02 -0.20571057124E+02  0.15431453553E+03  0.23839306456E+03  0.17200000000E+03 0. -1.
</event>
<event>
 4    1 -0.3291270E-004  0.1968559E+03  0.7818608E-02  0.1152419E+00
         -5   -1    0    0    0  501 -0.00000000000E+00  0.00000000000E+00  0.10765622647E+04  0.10765725242E+04  0.47000000000E+01 0.  1.
          5   -1    0    0  501    0  0.00000000000E+00 -0.00000000000E+00 -0.37920172697E+02  0.38210332338E+02  0.47000000000E+01 0. -1.
          6    1    1    2  502    0 -0.63745909986E+02 -0.71447111398E+02  0.38906213584E+03  0.43602932965E+03  0.17200000000E+03 0. -1.
         -6    1    1    2    0  502  0.63745909986E+02  0.71447111398E+02  0.64957995619E+03  0.67875352688E+03  0.17200000000E+03 0.  1.
</event>
<event>
 4    1 -0.3291270E-004  0.1834268E+03  0.7818608E-02  0.1164527E+00
         -5   -1    0    0    0  501 -0.00000000000E+00  0.00000000000E+00  0.44027151092E+02  0.44277308333E+02  0.47000000000E+01 0.  1.
          5   -1    0    0  501    0  0.00000000000E+00 -0.00000000000E+00 -0.78147240999E+03  0.78148654344E+03  0.47000000000E+01 0. -1.
          6    1    1    2  502    0  0.67190002846E+01  0.63373807372E+02 -0.43426342268E+03  0.47141288135E+03  0.17200000000E+03 0. -1.
         -6    1    1    2    0  502 -0.67190002846E+01 -0.63373807372E+02 -0.30318183622E+03  0.35435097042E+03  0.17200000000E+03 0.  1.
</event>
<event>
 4    1 -0.3291270E-004  0.2374874E+03  0.7818608E-02  0.1121478E+00
         -5   -1    0    0    0  501 -0.00000000000E+00  0.00000000000E+00  0.18315621111E+03  0.18321650490E+03  0.47000000000E+01 0.  1.
          5   -1    0    0  501    0  0.00000000000E+00 -0.00000000000E+00 -0.38983683616E+03  0.38986516750E+03  0.47000000000E+01 0. -1.
          6    1    1    2  502    0 -0.27812761099E+02 -0.16137755392E+03  0.28085642522E+02  0.23914235908E+03  0.17200000000E+03 0.  1.
         -6    1    1    2    0  502  0.27812761099E+02  0.16137755392E+03 -0.23476626758E+03  0.33393931332E+03  0.17200000000E+03 0. -1.
</event>
<event>
 4    1 -0.3291270E-004  0.2297991E+03  0.7818608E-02  0.1126781E+00
          5   -1    0    0  501    0  0.00000000000E+00  0.00000000000E+00  0.57802834131E+03  0.57804744905E+03  0.47000000000E+01 0. -1.
         -5   -1    0    0    0  501 -0.00000000000E+00 -0.00000000000E+00 -0.19449743005E+03  0.19455420914E+03  0.47000000000E+01 0.  1.
          6    1    1    2  502    0 -0.13500434192E+03 -0.70692602441E+02  0.47310503075E+03  0.52596196297E+03  0.17200000000E+03 0. -1.
         -6    1    1    2    0  502  0.13500434192E+03  0.70692602441E+02 -0.89574119486E+02  0.24663969522E+03  0.17200000000E+03 0.  1.
</event>
<event>
 4    1 -0.3291270E-004  0.2236949E+03  0.7818608E-02  0.1131158E+00
         -5   -1    0    0    0  501 -0.00000000000E+00  0.00000000000E+00  0.23856880631E+03  0.23861509873E+03  0.47000000000E+01 0.  1.
          5   -1    0    0  501    0  0.00000000000E+00 -0.00000000000E+00 -0.24386267040E+03  0.24390795808E+03  0.47000000000E+01 0. -1.
          6    1    1    2  502    0  0.87380796459E+02  0.11322554712E+03  0.87695046740E+02  0.24027036715E+03  0.17200000000E+03 0.  1.
         -6    1    1    2    0  502 -0.87380796459E+02 -0.11322554712E+03 -0.92988910834E+02  0.24225268966E+03  0.17200000000E+03 0. -1.
</event>
<event>
 4    1 -0.3291270E-004  0.3486125E+03  0.7818608E-02  0.1063186E+00
         -5   -1    0    0    0  501 -0.00000000000E+00  0.00000000000E+00  0.83164999355E+02  0.83297701755E+02  0.47000000000E+01 0.  1.
          5   -1    0    0  501    0  0.00000000000E+00 -0.00000000000E+00 -0.19646071516E+04  0.19646127736E+04  0.47000000000E+01 0. -1.
          6    1    1    2  502    0  0.24856577081E+03  0.17367131351E+03 -0.14596363760E+04  0.15006895141E+04  0.17200000000E+03 0. -1.
         -6    1    1    2    0  502 -0.24856577081E+03 -0.17367131351E+03 -0.42180577625E+03  0.54722096125E+03  0.17200000000E+03 0.  1.
</event>
<event>
 4    1 -0.3291270E-004  0.2476787E+03  0.7818608E-02  0.1114781E+00
          5   -1    0    0  501    0  0.00000000000E+00  0.00000000000E+00  0.23354120189E+03  0.23358849068E+03  0.47000000000E+01 0. -1.
         -5   -1    0    0    0  501 -0.00000000000E+00 -0.00000000000E+00 -0.35224775604E+03  0.35227911042E+03  0.47000000000E+01 0.  1.
          6    1    1    2  502    0  0.74539116356E+02  0.16187858554E+03  0.88427711655E+02  0.26299090576E+03  0.17200000000E+03 0. -1.
         -6    1    1    2    0  502 -0.74539116356E+02 -0.16187858554E+03 -0.20713426581E+03  0.32287669534E+03  0.17200000000E+03 0.  1.
</event>
<event>
 4    1 -0.3291270E-004  0.1946729E+03  0.7818608E-02  0.1154313E+00
         -5   -1    0    0    0  501 -0.00000000000E+00  0.00000000000E+00  0.23344309548E+02  0.23812744241E+02  0.47000000000E+01 0.  1.
          5   -1    0    0  501    0  0.00000000000E+00 -0.00000000000E+00 -0.16297494741E+04  0.16297562512E+04  0.47000000000E+01 0. -1.
          6    1    1    2  502    0 -0.67442107916E+02 -0.61360410190E+02 -0.90126005871E+03  0.92204513517E+03  0.17200000000E+03 0. -1.
         -6    1    1    2    0  502  0.67442107916E+02  0.61360410190E+02 -0.70514510583E+03  0.73152386027E+03  0.17200000000E+03 0.  1.
</event>
<event>
 4    1 -0.3291270E-004  0.1953191E+03  0.7818608E-02  0.1153749E+00
         -5   -1    0    0    0  501 -0.00000000000E+00  0.00000000000E+00  0.41921952815E+03  0.41924587390E+03  0.47000000000E+01 0.  1.
          5   -1    0    0  501    0  0.00000000000E+00 -0.00000000000E+00 -0.11038651342E+03  0.11048652563E+03  0.47000000000E+01 0. -1.
          6    1    1    2  502    0 -0.78528412979E+02 -0.48977847373E+02  0.43233432837E+02  0.20004667179E+03  0.17200000000E+03 0. -1.
         -6    1    1    2    0  502  0.78528412979E+02  0.48977847373E+02  0.26559958189E+03  0.32968572774E+03  0.17200000000E+03 0.  1.
</event>
<event>
 4    1 -0.3291270E-004  0.3035072E+03  0.7818608E-02  0.1083500E+00
         -5   -1    0    0    0  501 -0.00000000000E+00  0.00000000000E+00  0.13741014439E+03  0.13749050069E+03  0.47000000000E+01 0.  1.
          5   -1    0    0  501    0  0.00000000000E+00 -0.00000000000E+00 -0.14286023048E+04  0.14286100362E+04  0.47000000000E+01 0. -1.
          6    1    1    2  502    0 -0.18828299398E+03 -0.16456650095E+03 -0.12161549908E+04  0.12534550573E+04  0.17200000000E+03 0. -1.
         -6    1    1    2    0  502  0.18828299398E+03  0.16456650095E+03 -0.75037169688E+02  0.31264547956E+03  0.17200000000E+03 0.  1.
</event>
<event>
 4    1 -0.3291270E-004  0.3867592E+03  0.7818608E-02  0.1048463E+00
         -5   -1    0    0    0  501 -0.00000000000E+00  0.00000000000E+00  0.52679081226E+03  0.52681177842E+03  0.47000000000E+01 0.  1.
          5   -1    0    0  501    0  0.00000000000E+00 -0.00000000000E+00 -0.28394743698E+03  0.28398633236E+03  0.47000000000E+01 0. -1.
          6    1    1    2  502    0  0.19658146512E+03 -0.28522691488E+03  0.12639361333E+03  0.40688820442E+03  0.17200000000E+03 0.  1.
         -6    1    1    2    0  502 -0.19658146512E+03  0.28522691488E+03  0.11644976195E+03  0.40390990636E+03  0.17200000000E+03 0.  1.
</event>
<event>
 4    1 -0.3291270E-004  0.2027918E+03  0.7818608E-02  0.1147405E+00
         -5   -1    0    0    0  501 -0.00000000000E+00  0.00000000000E+00  0.66353384578E+02  0.66519633530E+02  0.47000000000E+01 0.  1.
          5   -1    0    0  501    0  0.00000000000E+00 -0.00000000000E+00 -0.62976352214E+03  0.62978106023E+03  0.47000000000E+01 0. -1.
          6    1    1    2  502    0 -0.70691367505E+02 -0.80890272995E+02 -0.23583746993E+03  0.31103668261E+03  0.17200000000E+03 0.  1.
         -6    1    1    2    0  502  0.70691367505E+02  0.80890272995E+02 -0.32757266764E+03  0.38526401115E+03  0.17200000000E+03 0.  1.
</event>
<event>
 4    1 -0.3291270E-004  0.1803782E+03  0.7818608E-02  0.1167438E+00
         -5   -1    0    0    0  501 -0.00000000000E+00  0.00000000000E+00  0.51624964768E+03  0.51627104192E+03  0.47000000000E+01 0.  1.
          5   -1    0    0  501    0  0.00000000000E+00 -0.00000000000E+00 -0.66968457503E+02  0.67133183302E+02  0.47000000000E+01 0. -1.
          6    1    1    2  502    0 -0.10708433957E+02 -0.53269261752E+02  0.29631313448E+03  0.34689733131E+03  0.17200000000E+03 0.  1.
         -6    1    1    2    0  502  0.10708433957E+02  0.53269261752E+02  0.15296805570E+03  0.23650689391E+03  0.17200000000E+03 0. -1.
</event>
<event>
 4    1 -0.3291270E-004  0.2470615E+03  0.7818608E-02  0.1115176E+00
          5   -1    0    0  501    0  0.00000000000E+00  0.00000000000E+00  0.64536708900E+03  0.64538420307E+03  0.47000000000E+01 0. -1.
         -5   -1    0    0    0  501 -0.00000000000E+00 -0.00000000000E+00 -0.25454987529E+03  0.25459326191E+03  0.47000000000E+01 0.  1.
          6    1    1    2  502    0  0.12122335015E+03 -0.12946148842E+03  0.55215073210E+03  0.60490479298E+03  0.17200000000E+03 0. -1.
         -6    1    1    2    0  502 -0.12122335015E+03  0.12946148842E+03 -0.16133351839E+03  0.29507267200E+03  0.17200000000E+03 0.  1.
</event>
<event>
 4    1 -0.3291270E-004  0.1946032E+03  0.7818608E-02  0.1154374E+00
         -5   -1    0    0    0  501 -0.00000000000E+00  0.00000000000E+00  0.69132598374E+02  0.69292179630E+02  0.47000000000E+01 0.  1.
          5   -1    0    0  501    0  0.00000000000E+00 -0.00000000000E+00 -0.58293436979E+03  0.58295331672E+03  0.47000000000E+01 0. -1.
          6    1    1    2  502    0 -0.15073008890E+02  0.89773132635E+02 -0.33786715037E+03  0.38990334987E+03  0.17200000000E+03 0. -1.
         -6    1    1    2    0  502  0.15073008890E+02 -0.89773132635E+02 -0.17593462104E+03  0.26234214648E+03  0.17200000000E+03 0.  1.
</event>
<event>
 4    1 -0.3291270E-004  0.1837205E+03  0.7818608E-02  0.1164250E+00
          5   -1    0    0  501    0  0.00000000000E+00  0.00000000000E+00  0.51109024214E+02  0.51324675899E+02  0.47000000000E+01 0. -1.
         -5   -1    0    0    0  501 -0.00000000000E+00 -0.00000000000E+00 -0.85268608623E+03  0.85269903932E+03  0.47000000000E+01 0.  1.
          6    1    1    2  502    0  0.64097544644E+02 -0.77925095615E+01 -0.18527821832E+03  0.26092381382E+03  0.17200000000E+03 0. -1.
         -6    1    1    2    0  502 -0.64097544644E+02  0.77925095615E+01 -0.61629884370E+03  0.64309990140E+03  0.17200000000E+03 0.  1.
</event>
<event>
 4    1 -0.3291270E-004  0.1988537E+03  0.7818608E-02  0.1150710E+00
         -5   -1    0    0    0  501 -0.00000000000E+00  0.00000000000E+00  0.14673709224E+03  0.14681234362E+03  0.47000000000E+01 0.  1.
          5   -1    0    0  501    0  0.00000000000E+00 -0.00000000000E+00 -0.29894013073E+03  0.29897707565E+03  0.47000000000E+01 0. -1.
          6    1    1    2  502    0  0.42571792725E+02  0.90257676982E+02 -0.14625495696E+03  0.24684675048E+03  0.17200000000E+03 0.  1.
         -6    1    1    2    0  502 -0.42571792725E+02 -0.90257676982E+02 -0.59480815375E+01  0.19894266879E+03  0.17200000000E+03 0.  1.
</event>
<event>
 4    1 -0.3291270E-004  0.3691345E+03  0.7818608E-02  0.1055024E+00
         -5   -1    0    0    0  501 -0.00000000000E+00  0.00000000000E+00  0.12660792032E+03  0.12669512812E+03  0.47000000000E+01 0.  1.
          5   -1    0    0  501    0  0.00000000000E+00 -0.00000000000E+00 -0.15310982796E+04  0.15311054933E+04  0.47000000000E+01 0. -1.
          6    1    1    2  502    0  0.41888001342E+01 -0.32658652793E+03 -0.11542539215E+04  0.12118425729E+04  0.17200000000E+03 0. -1.
         -6    1    1    2    0  502 -0.41888001342E+01  0.32658652793E+03 -0.25023643779E+03  0.44595804855E+03  0.17200000000E+03 0.  1.
</event>
<event>
 4    1 -0.3291270E-004  0.3535716E+03  0.7818608E-02  0.1061159E+00
         -5   -1    0    0    0  501 -0.00000000000E+00  0.00000000000E+00  0.10645421837E+04  0.10645525590E+04  0.47000000000E+01 0.  1.
          5   -1    0    0  501    0  0.00000000000E+00 -0.00000000000E+00 -0.12576942203E+03  0.12585721083E+03  0.47000000000E+01 0. -1.
          6    1    1    2  502    0  0.26990041075E+03 -0.15027523867E+03  0.31568177015E+03  0.47399141246E+03  0.17200000000E+03 0. -1.
         -6    1    1    2    0  502 -0.26990041075E+03  0.15027523867E+03  0.62309099157E+03  0.71641835742E+03  0.17200000000E+03 0.  1.
</event>
<event>
 4    1 -0.3291270E-004  0.2826603E+03  0.7818608E-02  0.1094245E+00
         -5   -1    0    0    0  501 -0.00000000000E+00  0.00000000000E+00  0.86725322854E+03  0.86726596406E+03  0.47000000000E+01 0.  1.
          5   -1    0    0  501    0  0.00000000000E+00 -0.00000000000E+00 -0.16599693325E+03  0.16606345729E+03  0.47000000000E+01 0. -1.
          6    1    1    2  502    0 -0.96001114333E+02  0.20272297800E+03  0.59039959360E+01  0.28272190741E+03  0.17200000000E+03 0. -1.
         -6    1    1    2    0  502  0.96001114333E+02 -0.20272297800E+03  0.69535229935E+03  0.75060751394E+03  0.17200000000E+03 0.  1.
</event>
<event>
 4    1 -0.3291270E-004  0.2183612E+03  0.7818608E-02  0.1135111E+00
         -5   -1    0    0    0  501 -0.00000000000E+00  0.00000000000E+00  0.22656314780E+03  0.22661189276E+03  0.47000000000E+01 0.  1.
          5   -1    0    0  501    0  0.00000000000E+00 -0.00000000000E+00 -0.30110766096E+03  0.30114433996E+03  0.47000000000E+01 0. -1.
          6    1    1    2  502    0 -0.98258780038E+02  0.91884956400E+02 -0.18211481038E+03  0.28433683762E+03  0.17200000000E+03 0. -1.
         -6    1    1    2    0  502  0.98258780038E+02 -0.91884956400E+02  0.10757029722E+03  0.24341939510E+03  0.17200000000E+03 0.  1.
</event>
<event>
 4    1 -0.3291270E-004  0.6231505E+03  0.7818608E-02  0.9858507E-01
          5   -1    0    0  501    0  0.00000000000E+00  0.00000000000E+00  0.58216220541E+03  0.58218117747E+03  0.47000000000E+01 0. -1.
         -5   -1    0    0    0  501 -0.00000000000E+00 -0.00000000000E+00 -0.85449185378E+03  0.85450477949E+03  0.47000000000E+01 0.  1.
          6    1    1    2  502    0 -0.41168056649E+03  0.43503066354E+03  0.20032820435E+03  0.65455936057E+03  0.17200000000E+03 0. -1.
         -6    1    1    2    0  502  0.41168056649E+03 -0.43503066354E+03 -0.47265785272E+03  0.78212659639E+03  0.17200000000E+03 0.  1.
</event>
<event>
 4    1 -0.3291270E-004  0.2281198E+03  0.7818608E-02  0.1127970E+00
         -5   -1    0    0    0  501 -0.00000000000E+00  0.00000000000E+00  0.61560416477E+03  0.61562210623E+03  0.47000000000E+01 0.  1.
          5   -1    0    0  501    0  0.00000000000E+00 -0.00000000000E+00 -0.14202824702E+03  0.14210599196E+03  0.47000000000E+01 0. -1.
          6    1    1    2  502    0 -0.19343887322E+02  0.14859489855E+03  0.47791489578E+03  0.52956706606E+03  0.17200000000E+03 0.  1.
         -6    1    1    2    0  502  0.19343887322E+02 -0.14859489855E+03 -0.43389780253E+01  0.22816103213E+03  0.17200000000E+03 0. -1.
</event>
<event>
 4    1 -0.3291270E-004  0.2444595E+03  0.7818608E-02  0.1116857E+00
         -5   -1    0    0    0  501 -0.00000000000E+00  0.00000000000E+00  0.78689610037E+02  0.78829846681E+02  0.47000000000E+01 0.  1.
          5   -1    0    0  501    0  0.00000000000E+00 -0.00000000000E+00 -0.84878650451E+03  0.84879951710E+03  0.47000000000E+01 0. -1.
          6    1    1    2  502    0  0.13757155109E+03  0.10606839875E+03 -0.53620431804E+03  0.58930086337E+03  0.17200000000E+03 0. -1.
         -6    1    1    2    0  502 -0.13757155109E+03 -0.10606839875E+03 -0.23389257643E+03  0.33832850041E+03  0.17200000000E+03 0.  1.
</event>
<event>
 4    1 -0.3291270E-004  0.2308092E+03  0.7818608E-02  0.1126071E+00
         -5   -1    0    0    0  501 -0.00000000000E+00  0.00000000000E+00  0.29438923941E+03  0.29442675538E+03  0.47000000000E+01 0.  1.
          5   -1    0    0  501    0  0.00000000000E+00 -0.00000000000E+00 -0.19213527022E+03  0.19219274716E+03  0.47000000000E+01 0. -1.
          6    1    1    2  502    0 -0.96235285013E+02 -0.12011521305E+03 -0.77441046925E+01  0.23093909510E+03  0.17200000000E+03 0. -1.
         -6    1    1    2    0  502  0.96235285013E+02  0.12011521305E+03  0.10999807389E+03  0.25568040744E+03  0.17200000000E+03 0.  1.
</event>
<event>
 4    1 -0.3291270E-004  0.1921942E+03  0.7818608E-02  0.1156497E+00
         -5   -1    0    0    0  501 -0.00000000000E+00  0.00000000000E+00  0.32373867964E+03  0.32377279487E+03  0.47000000000E+01 0.  1.
          5   -1    0    0  501    0  0.00000000000E+00 -0.00000000000E+00 -0.14261400248E+03  0.14269142828E+03  0.47000000000E+01 0. -1.
          6    1    1    2  502    0 -0.85511289771E+02 -0.65127591213E+01 -0.13843493953E+02  0.19269208348E+03  0.17200000000E+03 0. -1.
         -6    1    1    2    0  502  0.85511289771E+02  0.65127591213E+01  0.19496817112E+03  0.27377213967E+03  0.17200000000E+03 0.  1.
</event>
<event>
 4    1 -0.3291270E-004  0.2115616E+03  0.7818608E-02  0.1140335E+00
          5   -1    0    0  501    0  0.00000000000E+00  0.00000000000E+00  0.15834296854E+04  0.15834366607E+04  0.47000000000E+01 0. -1.
         -5   -1    0    0    0  501 -0.00000000000E+00 -0.00000000000E+00 -0.12020902496E+03  0.12030087149E+03  0.47000000000E+01 0.  1.
          6    1    1    2  502    0  0.65205144150E+02  0.10451123570E+03  0.14766706637E+04  0.14917488254E+04  0.17200000000E+03 0. -1.
         -6    1    1    2    0  502 -0.65205144150E+02 -0.10451123570E+03 -0.13450003271E+02  0.21198870677E+03  0.17200000000E+03 0.  1.
</event>
<event>
 4    1 -0.3291270E-004  0.2707771E+03  0.7818608E-02  0.1100836E+00
          5   -1    0    0  501    0  0.00000000000E+00  0.00000000000E+00  0.33564079990E+03  0.33567370549E+03  0.47000000000E+01 0. -1.
         -5   -1    0    0    0  501 -0.00000000000E+00 -0.00000000000E+00 -0.27256554524E+03  0.27260606459E+03  0.47000000000E+01 0.  1.
          6    1    1    2  502    0  0.61141485485E+02 -0.19999488715E+03  0.16712481388E+03  0.31819952789E+03  0.17200000000E+03 0. -1.
         -6    1    1    2    0  502 -0.61141485485E+02  0.19999488715E+03 -0.10404955922E+03  0.29008024219E+03  0.17200000000E+03 0.  1.
</event>
<event>
 4    1 -0.3291270E-004  0.3179067E+03  0.7818608E-02  0.1076617E+00
          5   -1    0    0  501    0  0.00000000000E+00  0.00000000000E+00  0.36613179964E+03  0.36616196513E+03  0.47000000000E+01 0. -1.
         -5   -1    0    0    0  501 -0.00000000000E+00 -0.00000000000E+00 -0.32498831264E+03  0.32502229670E+03  0.47000000000E+01 0.  1.
          6    1    1    2  502    0  0.26227610309E+03  0.51883515425E+02  0.15477266112E+03  0.35358058495E+03  0.17200000000E+03 0. -1.
         -6    1    1    2    0  502 -0.26227610309E+03 -0.51883515425E+02 -0.11362917412E+03  0.33760367687E+03  0.17200000000E+03 0.  1.
</event>
<event>
 4    1 -0.3291270E-004  0.3112800E+03  0.7818608E-02  0.1079734E+00
         -5   -1    0    0    0  501 -0.00000000000E+00  0.00000000000E+00  0.65460279418E+03  0.65461966679E+03  0.47000000000E+01 0.  1.
          5   -1    0    0  501    0  0.00000000000E+00 -0.00000000000E+00 -0.34961618947E+03  0.34964777983E+03  0.47000000000E+01 0. -1.
          6    1    1    2  502    0  0.14218941604E+03 -0.21701009823E+03 -0.22881849265E+03  0.38633290741E+03  0.17200000000E+03 0. -1.
         -6    1    1    2    0  502 -0.14218941604E+03  0.21701009823E+03  0.53380509737E+03  0.61793453921E+03  0.17200000000E+03 0.  1.
</event>
<event>
 4    1 -0.3291270E-004  0.2766791E+03  0.7818608E-02  0.1097517E+00
          5   -1    0    0  501    0  0.00000000000E+00  0.00000000000E+00  0.39756291466E+03  0.39759069546E+03  0.47000000000E+01 0. -1.
         -5   -1    0    0    0  501 -0.00000000000E+00 -0.00000000000E+00 -0.47415140655E+03  0.47417470022E+03  0.47000000000E+01 0.  1.
          6    1    1    2  502    0 -0.19203163474E+03  0.10045490628E+03  0.29763273851E+03  0.40637000870E+03  0.17200000000E+03 0. -1.
         -6    1    1    2    0  502  0.19203163474E+03 -0.10045490628E+03 -0.37422123040E+03  0.46539538698E+03  0.17200000000E+03 0. -1.
</event>
<event>
 4    1 -0.3291270E-004  0.4954203E+03  0.7818608E-02  0.1014981E+00
         -5   -1    0    0    0  501 -0.00000000000E+00  0.00000000000E+00  0.56577057959E+03  0.56579010130E+03  0.47000000000E+01 0.  1.
          5   -1    0    0  501    0  0.00000000000E+00 -0.00000000000E+00 -0.50270441196E+03  0.50272638264E+03  0.47000000000E+01 0. -1.
          6    1    1    2  502    0  0.23239375466E+03  0.40230636844E+03 -0.16628649407E+03  0.52258250009E+03  0.17200000000E+03 0. -1.
         -6    1    1    2    0  502 -0.23239375466E+03 -0.40230636844E+03  0.22935266169E+03  0.54593398385E+03  0.17200000000E+03 0.  1.
</event>
<event>
 4    1 -0.3291270E-004  0.1791446E+03  0.7818608E-02  0.1168633E+00
         -5   -1    0    0    0  501 -0.00000000000E+00  0.00000000000E+00  0.28364676002E+02  0.28751432046E+02  0.47000000000E+01 0.  1.
          5   -1    0    0  501    0  0.00000000000E+00 -0.00000000000E+00 -0.11496878466E+04  0.11496974535E+04  0.47000000000E+01 0. -1.
          6    1    1    2  502    0 -0.39860664970E+01  0.49929083946E+02 -0.47154909433E+03  0.50443171046E+03  0.17200000000E+03 0. -1.
         -6    1    1    2    0  502  0.39860664970E+01 -0.49929083946E+02 -0.64977407629E+03  0.67401717513E+03  0.17200000000E+03 0. -1.
</event>
<event>
 4    1 -0.3291270E-004  0.1960841E+03  0.7818608E-02  0.1153086E+00
         -5   -1    0    0    0  501 -0.00000000000E+00  0.00000000000E+00  0.40350383930E+03  0.40353121110E+03  0.47000000000E+01 0.  1.
          5   -1    0    0  501    0  0.00000000000E+00 -0.00000000000E+00 -0.12462064068E+03  0.12470923817E+03  0.47000000000E+01 0. -1.
          6    1    1    2  502    0 -0.79488025599E+01  0.93817866034E+02  0.11175171398E+02  0.19640229099E+03  0.17200000000E+03 0. -1.
         -6    1    1    2    0  502  0.79488025599E+01 -0.93817866034E+02  0.26770802722E+03  0.33183815828E+03  0.17200000000E+03 0.  1.
</event>
<event>
 4    1 -0.3291270E-004  0.3510776E+03  0.7818608E-02  0.1062174E+00
          5   -1    0    0  501    0  0.00000000000E+00  0.00000000000E+00  0.21184196007E+03  0.21189409158E+03  0.47000000000E+01 0. -1.
         -5   -1    0    0    0  501 -0.00000000000E+00 -0.00000000000E+00 -0.60563958688E+03  0.60565782352E+03  0.47000000000E+01 0.  1.
          6    1    1    2  502    0  0.50877818618E+02 -0.30179949872E+03 -0.27817483510E+03  0.44792491417E+03  0.17200000000E+03 0. -1.
         -6    1    1    2    0  502 -0.50877818618E+02  0.30179949872E+03 -0.11562279171E+03  0.36962700093E+03  0.17200000000E+03 0.  1.
</event>
<event>
 4    1 -0.3291270E-004  0.2321660E+03  0.7818608E-02  0.1125124E+00
          5   -1    0    0  501    0  0.00000000000E+00  0.00000000000E+00  0.11503251854E+04  0.11503347870E+04  0.47000000000E+01 0. -1.
         -5   -1    0    0    0  501 -0.00000000000E+00 -0.00000000000E+00 -0.48686599012E+02  0.48912932066E+02  0.47000000000E+01 0.  1.
          6    1    1    2  502    0 -0.14735798001E+03  0.51016283459E+02  0.67074322533E+03  0.70978694675E+03  0.17200000000E+03 0. -1.
         -6    1    1    2    0  502  0.14735798001E+03 -0.51016283459E+02  0.43089536107E+03  0.48946077232E+03  0.17200000000E+03 0.  1.
</event>
<event>
 4    1 -0.3291270E-004  0.3065679E+03  0.7818608E-02  0.1082003E+00
          5   -1    0    0  501    0  0.00000000000E+00  0.00000000000E+00  0.41300196984E+03  0.41302871218E+03  0.47000000000E+01 0. -1.
         -5   -1    0    0    0  501 -0.00000000000E+00 -0.00000000000E+00 -0.34509486696E+03  0.34512687117E+03  0.47000000000E+01 0.  1.
          6    1    1    2  502    0  0.25298711962E+03 -0.19934731447E+02  0.25521359177E+03  0.39889579296E+03  0.17200000000E+03 0. -1.
         -6    1    1    2    0  502 -0.25298711962E+03  0.19934731447E+02 -0.18730648889E+03  0.35925979039E+03  0.17200000000E+03 0.  1.
</event>
<event>
 4    1 -0.3291270E-004  0.1867817E+03  0.7818608E-02  0.1161396E+00
         -5   -1    0    0    0  501 -0.00000000000E+00  0.00000000000E+00  0.36339303611E+02  0.36641983938E+02  0.47000000000E+01 0.  1.
          5   -1    0    0  501    0  0.00000000000E+00 -0.00000000000E+00 -0.99650874048E+03  0.99651982412E+03  0.47000000000E+01 0. -1.
          6    1    1    2  502    0 -0.54810947573E+02  0.47949476730E+02 -0.58453512578E+03  0.61365194170E+03  0.17200000000E+03 0. -1.
         -6    1    1    2    0  502  0.54810947573E+02 -0.47949476730E+02 -0.37563431110E+03  0.41950986635E+03  0.17200000000E+03 0. -1.
</event>
<event>
 4    1 -0.3291270E-004  0.2752672E+03  0.7818608E-02  0.1098302E+00
          5   -1    0    0  501    0  0.00000000000E+00  0.00000000000E+00  0.11418831364E+03  0.11428499889E+03  0.47000000000E+01 0. -1.
         -5   -1    0    0    0  501 -0.00000000000E+00 -0.00000000000E+00 -0.10496117086E+04  0.10496222315E+04  0.47000000000E+01 0.  1.
          6    1    1    2  502    0  0.17895875450E+03 -0.11900329295E+03 -0.82080124382E+03  0.86572899998E+03  0.17200000000E+03 0. -1.
         -6    1    1    2    0  502 -0.17895875450E+03  0.11900329295E+03 -0.11462215112E+03  0.29817823038E+03  0.17200000000E+03 0.  1.
</event>
<event>
 4    1 -0.3291270E-004  0.2877962E+03  0.7818608E-02  0.1091505E+00
          5   -1    0    0  501    0  0.00000000000E+00  0.00000000000E+00  0.11376253983E+03  0.11385958663E+03  0.47000000000E+01 0. -1.
         -5   -1    0    0    0  501 -0.00000000000E+00 -0.00000000000E+00 -0.12242506560E+04  0.12242596778E+04  0.47000000000E+01 0.  1.
          6    1    1    2  502    0 -0.10389781364E+03  0.20602885715E+03 -0.12914213687E+03  0.31544308072E+03  0.17200000000E+03 0. -1.
         -6    1    1    2    0  502  0.10389781364E+03 -0.20602885715E+03 -0.98134597931E+03  0.10226761837E+04  0.17200000000E+03 0.  1.
</event>
<event>
 4    1 -0.3291270E-004  0.2607515E+03  0.7818608E-02  0.1106693E+00
          5   -1    0    0  501    0  0.00000000000E+00  0.00000000000E+00  0.52901384278E+03  0.52903472084E+03  0.47000000000E+01 0. -1.
         -5   -1    0    0    0  501 -0.00000000000E+00 -0.00000000000E+00 -0.12887007895E+03  0.12895575694E+03  0.47000000000E+01 0.  1.
          6    1    1    2  502    0 -0.19596665391E+03 -0.21039155644E+01  0.18148310275E+03  0.31769084420E+03  0.17200000000E+03 0.  1.
         -6    1    1    2    0  502  0.19596665391E+03  0.21039155644E+01  0.21866066108E+03  0.34029963358E+03  0.17200000000E+03 0.  1.
</event>
<event>
 4    1 -0.3291270E-004  0.3517560E+03  0.7818608E-02  0.1061897E+00
          5   -1    0    0  501    0  0.00000000000E+00  0.00000000000E+00  0.42866720996E+03  0.42869297510E+03  0.47000000000E+01 0. -1.
         -5   -1    0    0    0  501 -0.00000000000E+00 -0.00000000000E+00 -0.52071488287E+03  0.52073609367E+03  0.47000000000E+01 0.  1.
          6    1    1    2  502    0  0.17680057178E+03  0.25077841190E+03  0.27091084076E+03  0.44398754227E+03  0.17200000000E+03 0. -1.
         -6    1    1    2    0  502 -0.17680057178E+03 -0.25077841190E+03 -0.36295851367E+03  0.50544152649E+03  0.17200000000E+03 0.  1.
</event>
<event>
 4    1 -0.3291270E-004  0.1992239E+03  0.7818608E-02  0.1150395E+00
         -5   -1    0    0    0  501 -0.00000000000E+00  0.00000000000E+00  0.95018716896E+03  0.95019879292E+03  0.47000000000E+01 0.  1.
          5   -1    0    0  501    0  0.00000000000E+00 -0.00000000000E+00 -0.13776310638E+03  0.13784325692E+03  0.47000000000E+01 0. -1.
          6    1    1    2  502    0 -0.10010718855E+03  0.92030430246E+01 -0.47942128566E+02  0.20491118293E+03  0.17200000000E+03 0. -1.
         -6    1    1    2    0  502  0.10010718855E+03 -0.92030430246E+01  0.86036619115E+03  0.88313086690E+03  0.17200000000E+03 0.  1.
</event>
<event>
 4    1 -0.3291270E-004  0.1888635E+03  0.7818608E-02  0.1159490E+00
         -5   -1    0    0    0  501 -0.00000000000E+00  0.00000000000E+00  0.23777926612E+03  0.23782571223E+03  0.47000000000E+01 0.  1.
          5   -1    0    0  501    0  0.00000000000E+00 -0.00000000000E+00 -0.14997251949E+03  0.15004614825E+03  0.47000000000E+01 0. -1.
          6    1    1    2  502    0 -0.15891011821E+01  0.77992962499E+02  0.47773652014E+02  0.19481208707E+03  0.17200000000E+03 0. -1.
         -6    1    1    2    0  502  0.15891011821E+01 -0.77992962499E+02  0.40033094611E+02  0.19305977340E+03  0.17200000000E+03 0. -1.
</event>
<event>
 4    1 -0.3291270E-004  0.2207425E+03  0.7818608E-02  0.1133331E+00
          5   -1    0    0  501    0  0.00000000000E+00  0.00000000000E+00  0.36517498502E+03  0.36520522954E+03  0.47000000000E+01 0. -1.
         -5   -1    0    0    0  501 -0.00000000000E+00 -0.00000000000E+00 -0.16103519700E+03  0.16110376989E+03  0.47000000000E+01 0.  1.
          6    1    1    2  502    0  0.61302692170E+02  0.12403723857E+03  0.21113030432E+03  0.30545582663E+03  0.17200000000E+03 0.  1.
         -6    1    1    2    0  502 -0.61302692170E+02 -0.12403723857E+03 -0.69905163030E+01  0.22085317280E+03  0.17200000000E+03 0.  1.
</event>
<event>
 4    1 -0.3291270E-004  0.2720085E+03  0.7818608E-02  0.1100136E+00
         -5   -1    0    0    0  501 -0.00000000000E+00  0.00000000000E+00  0.44596772363E+03  0.44599248931E+03  0.47000000000E+01 0.  1.
          5   -1    0    0  501    0  0.00000000000E+00 -0.00000000000E+00 -0.25201083877E+03  0.25205466244E+03  0.47000000000E+01 0. -1.
          6    1    1    2  502    0  0.12483490875E+03  0.16976705492E+03 -0.10707722182E+03  0.29232539885E+03  0.17200000000E+03 0. -1.
         -6    1    1    2    0  502 -0.12483490875E+03 -0.16976705492E+03  0.30103410669E+03  0.40572175289E+03  0.17200000000E+03 0.  1.
</event>
<event>
 4    1 -0.3291270E-004  0.2019498E+03  0.7818608E-02  0.1148104E+00
         -5   -1    0    0    0  501 -0.00000000000E+00  0.00000000000E+00  0.17121776456E+03  0.17128226090E+03  0.47000000000E+01 0.  1.
          5   -1    0    0  501    0  0.00000000000E+00 -0.00000000000E+00 -0.29843533017E+03  0.29847233756E+03  0.47000000000E+01 0. -1.
          6    1    1    2  502    0 -0.96608641826E+02  0.43202741959E+02 -0.16922954435E+03  0.26348120477E+03  0.17200000000E+03 0. -1.
         -6    1    1    2    0  502  0.96608641826E+02 -0.43202741959E+02  0.42011978742E+02  0.20627339369E+03  0.17200000000E+03 0.  1.
</event>
<event>
 4    1 -0.3291270E-004  0.1921690E+03  0.7818608E-02  0.1156519E+00
          5   -1    0    0  501    0  0.00000000000E+00  0.00000000000E+00  0.10123316309E+04  0.10123425413E+04  0.47000000000E+01 0. -1.
         -5   -1    0    0    0  501 -0.00000000000E+00 -0.00000000000E+00 -0.52532523605E+02  0.52742355240E+02  0.47000000000E+01 0.  1.
          6    1    1    2  502    0  0.62521292357E+02  0.58617637839E+02  0.77502695024E+03  0.79849590673E+03  0.17200000000E+03 0. -1.
         -6    1    1    2    0  502 -0.62521292357E+02 -0.58617637839E+02  0.18477215705E+03  0.26658898980E+03  0.17200000000E+03 0.  1.
</event>
<event>
 4    1 -0.3291270E-004  0.2419853E+03  0.7818608E-02  0.1118477E+00
         -5   -1    0    0    0  501 -0.00000000000E+00  0.00000000000E+00  0.12749791928E+04  0.12749878557E+04  0.47000000000E+01 0.  1.
          5   -1    0    0  501    0  0.00000000000E+00 -0.00000000000E+00 -0.47957891953E+02  0.48187647801E+02  0.47000000000E+01 0. -1.
          6    1    1    2  502    0  0.16448568886E+03  0.43787415789E+02  0.47348453997E+03  0.53173723700E+03  0.17200000000E+03 0. -1.
         -6    1    1    2    0  502 -0.16448568886E+03 -0.43787415789E+02  0.75353676087E+03  0.79143826645E+03  0.17200000000E+03 0. -1.
</event>
<event>
 4    1 -0.3291270E-004  0.2598075E+03  0.7818608E-02  0.1107259E+00
          5   -1    0    0  501    0  0.00000000000E+00  0.00000000000E+00  0.42654811816E+03  0.42657401128E+03  0.47000000000E+01 0. -1.
         -5   -1    0    0    0  501 -0.00000000000E+00 -0.00000000000E+00 -0.30416829094E+03  0.30420460090E+03  0.47000000000E+01 0.  1.
          6    1    1    2  502    0  0.18112646183E+03 -0.71478324807E+02  0.31429419081E+03  0.40777540935E+03  0.17200000000E+03 0. -1.
         -6    1    1    2    0  502 -0.18112646183E+03  0.71478324807E+02 -0.19191436359E+03  0.32300320284E+03  0.17200000000E+03 0.  1.
</event>
<event>
 4    1 -0.3291270E-004  0.2633280E+03  0.7818608E-02  0.1105160E+00
          5   -1    0    0  501    0  0.00000000000E+00  0.00000000000E+00  0.10680720065E+04  0.10680823475E+04  0.47000000000E+01 0. -1.
         -5   -1    0    0    0  501 -0.00000000000E+00 -0.00000000000E+00 -0.77360959185E+02  0.77503599955E+02  0.47000000000E+01 0.  1.
          6    1    1    2  502    0  0.15300485558E+03 -0.12785604184E+03  0.72567011782E+03  0.77197070745E+03  0.17200000000E+03 0. -1.
         -6    1    1    2    0  502 -0.15300485558E+03  0.12785604184E+03  0.26504092951E+03  0.37361524003E+03  0.17200000000E+03 0. -1.
</event>
<event>
 4    1 -0.3291270E-004  0.2113606E+03  0.7818608E-02  0.1140493E+00
         -5   -1    0    0    0  501 -0.00000000000E+00  0.00000000000E+00  0.14419489244E+03  0.14427146983E+03  0.47000000000E+01 0.  1.
          5   -1    0    0  501    0  0.00000000000E+00 -0.00000000000E+00 -0.85793025963E+03  0.85794313354E+03  0.47000000000E+01 0. -1.
          6    1    1    2  502    0  0.20589061305E+02  0.12110076457E+03 -0.75744498127E+03  0.78638171665E+03  0.17200000000E+03 0. -1.
         -6    1    1    2    0  502 -0.20589061305E+02 -0.12110076457E+03  0.43709614085E+02  0.21583288671E+03  0.17200000000E+03 0.  1.
</event>
<event>
 4    1 -0.3291270E-004  0.2605583E+03  0.7818608E-02  0.1106808E+00
          5   -1    0    0  501    0  0.00000000000E+00  0.00000000000E+00  0.30193826397E+02  0.30557440215E+02  0.47000000000E+01 0. -1.
         -5   -1    0    0    0  501 -0.00000000000E+00 -0.00000000000E+00 -0.24990358572E+04  0.24990402769E+04  0.47000000000E+01 0.  1.
          6    1    1    2  502    0  0.68801567289E+02  0.18322923634E+03 -0.82307559496E+03  0.86333310126E+03  0.17200000000E+03 0. -1.
         -6    1    1    2    0  502 -0.68801567289E+02 -0.18322923634E+03 -0.16457664358E+04  0.16662646158E+04  0.17200000000E+03 0.  1.
</event>
<event>
 4    1 -0.3291270E-004  0.1890010E+03  0.7818608E-02  0.1159365E+00
         -5   -1    0    0    0  501 -0.00000000000E+00  0.00000000000E+00  0.26649626596E+03  0.26653770798E+03  0.47000000000E+01 0.  1.
          5   -1    0    0  501    0  0.00000000000E+00 -0.00000000000E+00 -0.14326869034E+03  0.14334576252E+03  0.47000000000E+01 0. -1.
          6    1    1    2  502    0 -0.35735669976E+02 -0.69716164461E+02  0.93620233179E+01  0.18923273812E+03  0.17200000000E+03 0. -1.
         -6    1    1    2    0  502  0.35735669976E+02  0.69716164461E+02  0.11386555230E+03  0.22065073237E+03  0.17200000000E+03 0. -1.
</event>
<event>
 4    1 -0.3291270E-004  0.2321111E+03  0.7818608E-02  0.1125163E+00
          5   -1    0    0  501    0  0.00000000000E+00  0.00000000000E+00  0.11177264902E+04  0.11177363718E+04  0.47000000000E+01 0. -1.
         -5   -1    0    0    0  501 -0.00000000000E+00 -0.00000000000E+00 -0.10784001967E+03  0.10794239132E+03  0.47000000000E+01 0.  1.
          6    1    1    2  502    0  0.34238770104E+02  0.15205017469E+03  0.96079324275E+03  0.98843270095E+03  0.17200000000E+03 0. -1.
         -6    1    1    2    0  502 -0.34238770104E+02 -0.15205017469E+03  0.49093227756E+02  0.23724606217E+03  0.17200000000E+03 0.  1.
</event>
<event>
 4    1 -0.3291270E-004  0.2119467E+03  0.7818608E-02  0.1140034E+00
         -5   -1    0    0    0  501 -0.00000000000E+00  0.00000000000E+00  0.15736125600E+03  0.15743142917E+03  0.47000000000E+01 0.  1.
          5   -1    0    0  501    0  0.00000000000E+00 -0.00000000000E+00 -0.34387112379E+03  0.34390324188E+03  0.47000000000E+01 0. -1.
          6    1    1    2  502    0  0.11272680394E+03  0.51284215968E+02 -0.19667973899E+03  0.28914412127E+03  0.17200000000E+03 0. -1.
         -6    1    1    2    0  502 -0.11272680394E+03 -0.51284215968E+02  0.10169871202E+02  0.21219054978E+03  0.17200000000E+03 0.  1.
</event>
<event>
 4    1 -0.3291270E-004  0.1733510E+03  0.7818608E-02  0.1174398E+00
         -5   -1    0    0    0  501 -0.00000000000E+00  0.00000000000E+00  0.76623483468E+03  0.76624924919E+03  0.47000000000E+01 0.  1.
          5   -1    0    0  501    0  0.00000000000E+00 -0.00000000000E+00 -0.69915888339E+02  0.70073685804E+02  0.47000000000E+01 0. -1.
          6    1    1    2  502    0  0.20215626549E+02 -0.76100314722E+01  0.70840990417E+02  0.18726726905E+03  0.17200000000E+03 0. -1.
         -6    1    1    2    0  502 -0.20215626549E+02  0.76100314722E+01  0.62547795593E+03  0.64905566594E+03  0.17200000000E+03 0.  1.
</event>
<event>
 4    1 -0.3291270E-004  0.4184888E+03  0.7818608E-02  0.1037559E+00
          5   -1    0    0  501    0  0.00000000000E+00  0.00000000000E+00  0.85864891496E+03  0.85866177810E+03  0.47000000000E+01 0. -1.
         -5   -1    0    0    0  501 -0.00000000000E+00 -0.00000000000E+00 -0.21059357598E+03  0.21064601644E+03  0.47000000000E+01 0.  1.
          6    1    1    2  502    0 -0.18793986034E+03  0.33200522351E+03  0.22887917164E+03  0.47698903001E+03  0.17200000000E+03 0. -1.
         -6    1    1    2    0  502  0.18793986034E+03 -0.33200522351E+03  0.41917616735E+03  0.59231876453E+03  0.17200000000E+03 0.  1.
</event>
<event>
 4    1 -0.3291270E-004  0.2342998E+03  0.7818608E-02  0.1123649E+00
          5   -1    0    0  501    0  0.00000000000E+00  0.00000000000E+00  0.15759104066E+03  0.15766111156E+03  0.47000000000E+01 0. -1.
         -5   -1    0    0    0  501 -0.00000000000E+00 -0.00000000000E+00 -0.45627334066E+03  0.45629754700E+03  0.47000000000E+01 0.  1.
          6    1    1    2  502    0  0.13951704064E+03 -0.76468303855E+02 -0.29873804875E+03  0.37965883092E+03  0.17200000000E+03 0. -1.
         -6    1    1    2    0  502 -0.13951704064E+03  0.76468303855E+02  0.55748745501E-01  0.23429982764E+03  0.17200000000E+03 0.  1.
</event>
<event>
 4    1 -0.3291270E-004  0.2088925E+03  0.7818608E-02  0.1142446E+00
         -5   -1    0    0    0  501 -0.00000000000E+00  0.00000000000E+00  0.54289865711E+03  0.54291900122E+03  0.47000000000E+01 0.  1.
          5   -1    0    0  501    0  0.00000000000E+00 -0.00000000000E+00 -0.81227216472E+02  0.81363079439E+02  0.47000000000E+01 0. -1.
          6    1    1    2  502    0  0.53528409978E+02  0.10576766530E+03  0.19725961717E+03  0.28731071380E+03  0.17200000000E+03 0. -1.
         -6    1    1    2    0  502 -0.53528409978E+02 -0.10576766530E+03  0.26441182347E+03  0.33697136687E+03  0.17200000000E+03 0.  1.
</event>
<event>
 4    1 -0.3291270E-004  0.1843030E+03  0.7818608E-02  0.1163702E+00
         -5   -1    0    0    0  501 -0.00000000000E+00  0.00000000000E+00  0.49341525846E+03  0.49343764275E+03  0.47000000000E+01 0.  1.
          5   -1    0    0  501    0  0.00000000000E+00 -0.00000000000E+00 -0.11013195259E+03  0.11023219575E+03  0.47000000000E+01 0. -1.
          6    1    1    2  502    0 -0.58481058045E+02 -0.31041331302E+02  0.67223355743E+01  0.18442556275E+03  0.17200000000E+03 0.  1.
         -6    1    1    2    0  502  0.58481058045E+02  0.31041331302E+02  0.37656097030E+03  0.41924427575E+03  0.17200000000E+03 0.  1.
</event>
<event>
 4    1 -0.3291270E-004  0.1803763E+03  0.7818608E-02  0.1167439E+00
         -5   -1    0    0    0  501 -0.00000000000E+00  0.00000000000E+00  0.17695339666E+03  0.17701580322E+03  0.47000000000E+01 0.  1.
          5   -1    0    0  501    0  0.00000000000E+00 -0.00000000000E+00 -0.25443142197E+03  0.25447482879E+03  0.47000000000E+01 0. -1.
          6    1    1    2  502    0 -0.52342610698E+02  0.14555749757E+02 -0.15243369050E+03  0.23616021838E+03  0.17200000000E+03 0.  1.
         -6    1    1    2    0  502  0.52342610698E+02 -0.14555749757E+02  0.74955665190E+02  0.19533041363E+03  0.17200000000E+03 0.  1.
</event>
<event>
 4    1 -0.3291270E-004  0.2177804E+03  0.7818608E-02  0.1135549E+00
         -5   -1    0    0    0  501 -0.00000000000E+00  0.00000000000E+00  0.33552304615E+03  0.33555596329E+03  0.47000000000E+01 0.  1.
          5   -1    0    0  501    0  0.00000000000E+00 -0.00000000000E+00 -0.15497979653E+03  0.15505104751E+03  0.47000000000E+01 0. -1.
          6    1    1    2  502    0  0.13035554744E+03 -0.29184210870E+02  0.17356995999E+02  0.21847094137E+03  0.17200000000E+03 0. -1.
         -6    1    1    2    0  502 -0.13035554744E+03  0.29184210870E+02  0.16318625362E+03  0.27213606943E+03  0.17200000000E+03 0.  1.
</event>
<event>
 4    1 -0.3291270E-004  0.2331135E+03  0.7818608E-02  0.1124467E+00
          5   -1    0    0  501    0  0.00000000000E+00  0.00000000000E+00  0.27835794566E+03  0.27839762196E+03  0.47000000000E+01 0. -1.
         -5   -1    0    0    0  501 -0.00000000000E+00 -0.00000000000E+00 -0.23017749655E+03  0.23022547626E+03  0.47000000000E+01 0.  1.
          6    1    1    2  502    0  0.38338101741E+02  0.15260440817E+03  0.12328906559E+03  0.26370837896E+03  0.17200000000E+03 0. -1.
         -6    1    1    2    0  502 -0.38338101741E+02 -0.15260440817E+03 -0.75108616480E+02  0.24491471926E+03  0.17200000000E+03 0.  1.
</event>
<event>
 4    1 -0.3291270E-004  0.2190558E+03  0.7818608E-02  0.1134589E+00
          5   -1    0    0  501    0  0.00000000000E+00  0.00000000000E+00  0.31348372285E+03  0.31351895396E+03  0.47000000000E+01 0. -1.
         -5   -1    0    0    0  501 -0.00000000000E+00 -0.00000000000E+00 -0.15389034704E+03  0.15396210220E+03  0.47000000000E+01 0.  1.
          6    1    1    2  502    0  0.12924850274E+03  0.41186023157E+02  0.97652113633E+02  0.23983619256E+03  0.17200000000E+03 0.  1.
         -6    1    1    2    0  502 -0.12924850274E+03 -0.41186023157E+02  0.61941262176E+02  0.22764486360E+03  0.17200000000E+03 0.  1.
</event>
<event>
 4    1 -0.3291270E-004  0.1956917E+03  0.7818608E-02  0.1153426E+00
         -5   -1    0    0    0  501 -0.00000000000E+00  0.00000000000E+00  0.11979180845E+03  0.11988397463E+03  0.47000000000E+01 0.  1.
          5   -1    0    0  501    0  0.00000000000E+00 -0.00000000000E+00 -0.41088093089E+03  0.41090781128E+03  0.47000000000E+01 0. -1.
          6    1    1    2  502    0  0.91596424048E+02  0.17925519814E+02 -0.27072021375E+03  0.33404290636E+03  0.17200000000E+03 0. -1.
         -6    1    1    2    0  502 -0.91596424048E+02 -0.17925519814E+02 -0.20368908689E+02  0.19674887954E+03  0.17200000000E+03 0.  1.
</event>
<event>
 4    1 -0.3291270E-004  0.2151265E+03  0.7818608E-02  0.1137569E+00
          5   -1    0    0  501    0  0.00000000000E+00  0.00000000000E+00  0.74606712798E+02  0.74754609186E+02  0.47000000000E+01 0. -1.
         -5   -1    0    0    0  501 -0.00000000000E+00 -0.00000000000E+00 -0.76012885683E+03  0.76014338712E+03  0.47000000000E+01 0.  1.
          6    1    1    2  502    0 -0.36761252179E+02  0.12387098966E+03 -0.52227059285E+03  0.56484155646E+03  0.17200000000E+03 0. -1.
         -6    1    1    2    0  502  0.36761252179E+02 -0.12387098966E+03 -0.16325155118E+03  0.27005643985E+03  0.17200000000E+03 0. -1.
</event>
<event>
 4    1 -0.3291270E-004  0.1906934E+03  0.7818608E-02  0.1157837E+00
          5   -1    0    0  501    0  0.00000000000E+00  0.00000000000E+00  0.94496796734E+03  0.94497965550E+03  0.47000000000E+01 0. -1.
         -5   -1    0    0    0  501 -0.00000000000E+00 -0.00000000000E+00 -0.40451724582E+02  0.40723850771E+02  0.47000000000E+01 0.  1.
          6    1    1    2  502    0 -0.82325124446E+02  0.16013918489E+01  0.56482710690E+03  0.59614901766E+03  0.17200000000E+03 0. -1.
         -6    1    1    2    0  502  0.82325124446E+02 -0.16013918489E+01  0.33968913586E+03  0.38955448861E+03  0.17200000000E+03 0.  1.
</event>
<event>
 4    1 -0.3291270E-004  0.5844841E+03  0.7818608E-02  0.9938130E-01
         -5   -1    0    0    0  501 -0.00000000000E+00  0.00000000000E+00  0.61010153291E+03  0.61011963619E+03  0.47000000000E+01 0.  1.
          5   -1    0    0  501    0  0.00000000000E+00 -0.00000000000E+00 -0.61065617479E+03  0.61067426163E+03  0.47000000000E+01 0. -1.
          6    1    1    2  502    0  0.42012116265E+03  0.36815198756E+03 -0.17623949719E+03  0.61047689360E+03  0.17200000000E+03 0. -1.
         -6    1    1    2    0  502 -0.42012116265E+03 -0.36815198756E+03  0.17568485531E+03  0.61031700421E+03  0.17200000000E+03 0.  1.
</event>
<event>
 4    1 -0.3291270E-004  0.2008063E+03  0.7818608E-02  0.1149061E+00
          5   -1    0    0  501    0  0.00000000000E+00  0.00000000000E+00  0.15984400426E+03  0.15991308795E+03  0.47000000000E+01 0. -1.
         -5   -1    0    0    0  501 -0.00000000000E+00 -0.00000000000E+00 -0.25396483760E+03  0.25400832415E+03  0.47000000000E+01 0.  1.
          6    1    1    2  502    0 -0.33130933063E+01 -0.10357696133E+03 -0.29426184425E+02  0.20295089021E+03  0.17200000000E+03 0. -1.
         -6    1    1    2    0  502  0.33130933063E+01  0.10357696133E+03 -0.64694648916E+02  0.21097052188E+03  0.17200000000E+03 0. -1.
</event>
<event>
 4    1 -0.3291270E-004  0.2350153E+03  0.7818608E-02  0.1123159E+00
         -5   -1    0    0    0  501 -0.00000000000E+00  0.00000000000E+00  0.15235210647E+03  0.15242458576E+03  0.47000000000E+01 0.  1.
          5   -1    0    0  501    0  0.00000000000E+00 -0.00000000000E+00 -0.36533462535E+03  0.36536485665E+03  0.47000000000E+01 0. -1.
          6    1    1    2  502    0 -0.16000188391E+03 -0.68994091389E+01 -0.12986467065E+03  0.26850891491E+03  0.17200000000E+03 0. -1.
         -6    1    1    2    0  502  0.16000188391E+03  0.68994091389E+01 -0.83117848229E+02  0.24928052751E+03  0.17200000000E+03 0. -1.
</event>
<event>
 4    1 -0.3291270E-004  0.1984787E+03  0.7818608E-02  0.1151029E+00
         -5   -1    0    0    0  501 -0.00000000000E+00  0.00000000000E+00  0.38743980325E+03  0.38746830985E+03  0.47000000000E+01 0.  1.
          5   -1    0    0  501    0  0.00000000000E+00 -0.00000000000E+00 -0.10312236439E+03  0.10322941460E+03  0.47000000000E+01 0. -1.
          6    1    1    2  502    0 -0.95229151405E+02  0.27225097001E+02  0.11227650471E+03  0.22803466994E+03  0.17200000000E+03 0.  1.
         -6    1    1    2    0  502  0.95229151405E+02 -0.27225097001E+02  0.17204093414E+03  0.26266305451E+03  0.17200000000E+03 0. -1.
</event>
<event>
 4    1 -0.3291270E-004  0.2202060E+03  0.7818608E-02  0.1133730E+00
          5   -1    0    0  501    0  0.00000000000E+00  0.00000000000E+00  0.83120555807E+03  0.83121884590E+03  0.47000000000E+01 0. -1.
         -5   -1    0    0    0  501 -0.00000000000E+00 -0.00000000000E+00 -0.64020467140E+02  0.64192758259E+02  0.47000000000E+01 0.  1.
          6    1    1    2  502    0 -0.13674323129E+03 -0.14421685734E+02  0.24914372848E+03  0.33251059196E+03  0.17200000000E+03 0.  1.
         -6    1    1    2    0  502  0.13674323129E+03  0.14421685734E+02  0.51804136245E+03  0.56290101220E+03  0.17200000000E+03 0. -1.
</event>
<event>
 4    1 -0.3291270E-004  0.2497528E+03  0.7818608E-02  0.1113461E+00
          5   -1    0    0  501    0  0.00000000000E+00  0.00000000000E+00  0.29777492379E+03  0.29781201326E+03  0.47000000000E+01 0. -1.
         -5   -1    0    0    0  501 -0.00000000000E+00 -0.00000000000E+00 -0.21588763892E+03  0.21593879373E+03  0.47000000000E+01 0.  1.
          6    1    1    2  502    0  0.17656253126E+03  0.40225926405E+02  0.85468972479E+02  0.26397234298E+03  0.17200000000E+03 0. -1.
         -6    1    1    2    0  502 -0.17656253126E+03 -0.40225926405E+02 -0.35816876063E+01  0.24977846401E+03  0.17200000000E+03 0.  1.
</event>
<event>
 4    1 -0.3291270E-004  0.2093104E+03  0.7818608E-02  0.1142113E+00
         -5   -1    0    0    0  501 -0.00000000000E+00  0.00000000000E+00  0.43355274645E+03  0.43357822126E+03  0.47000000000E+01 0.  1.
          5   -1    0    0  501    0  0.00000000000E+00 -0.00000000000E+00 -0.10097102299E+03  0.10108035162E+03  0.47000000000E+01 0. -1.
          6    1    1    2  502    0  0.27433569290E+02 -0.11607868729E+03  0.16782044357E+03  0.26828075527E+03  0.17200000000E+03 0.  1.
         -6    1    1    2    0  502 -0.27433569290E+02  0.11607868729E+03  0.16476127989E+03  0.26637781761E+03  0.17200000000E+03 0.  1.
</event>
<event>
 4    1 -0.3291270E-004  0.2520468E+03  0.7818608E-02  0.1112018E+00
          5   -1    0    0  501    0  0.00000000000E+00  0.00000000000E+00  0.88227156683E+03  0.88228408556E+03  0.47000000000E+01 0. -1.
         -5   -1    0    0    0  501 -0.00000000000E+00 -0.00000000000E+00 -0.73261146443E+02  0.73411753678E+02  0.47000000000E+01 0.  1.
          6    1    1    2  502    0 -0.18189588316E+03  0.29282375564E+02  0.33979958048E+03  0.42307366347E+03  0.17200000000E+03 0. -1.
         -6    1    1    2    0  502  0.18189588316E+03 -0.29282375564E+02  0.46921083991E+03  0.53262217577E+03  0.17200000000E+03 0.  1.
</event>
<event>
 4    1 -0.3291270E-004  0.2570990E+03  0.7818608E-02  0.1108899E+00
         -5   -1    0    0    0  501 -0.00000000000E+00  0.00000000000E+00  0.86488901100E+03  0.86490178133E+03  0.47000000000E+01 0.  1.
          5   -1    0    0  501    0  0.00000000000E+00 -0.00000000000E+00 -0.10993850627E+03  0.11003892566E+03  0.47000000000E+01 0. -1.
          6    1    1    2  502    0  0.14003834711E+03  0.13001984483E+03  0.64679273854E+03  0.69601777660E+03  0.17200000000E+03 0.  1.
         -6    1    1    2    0  502 -0.14003834711E+03 -0.13001984483E+03  0.10815776619E+03  0.27892293039E+03  0.17200000000E+03 0. -1.
</event>
<event>
 4    1 -0.3291270E-004  0.2252373E+03  0.7818608E-02  0.1130038E+00
          5   -1    0    0  501    0  0.00000000000E+00  0.00000000000E+00  0.92318513760E+03  0.92319710154E+03  0.47000000000E+01 0. -1.
         -5   -1    0    0    0  501 -0.00000000000E+00 -0.00000000000E+00 -0.55728586607E+02  0.55926428147E+02  0.47000000000E+01 0.  1.
          6    1    1    2  502    0  0.89300730405E+02 -0.11477474282E+03  0.49542160350E+03  0.54421909858E+03  0.17200000000E+03 0.  1.
         -6    1    1    2    0  502 -0.89300730405E+02  0.11477474282E+03  0.37203494749E+03  0.43490443111E+03  0.17200000000E+03 0. -1.
</event>
<event>
 4    1 -0.3291270E-004  0.2733781E+03  0.7818608E-02  0.1099362E+00
          5   -1    0    0  501    0  0.00000000000E+00  0.00000000000E+00  0.68209236895E+03  0.68210856158E+03  0.47000000000E+01 0. -1.
         -5   -1    0    0    0  501 -0.00000000000E+00 -0.00000000000E+00 -0.13281261612E+03  0.13289575238E+03  0.47000000000E+01 0.  1.
          6    1    1    2  502    0 -0.90333634062E+02 -0.19233155489E+03  0.44529791658E+03  0.52251873360E+03  0.17200000000E+03 0. -1.
         -6    1    1    2    0  502  0.90333634062E+02  0.19233155489E+03  0.10398183625E+03  0.29248558036E+03  0.17200000000E+03 0.  1.
</event>
<event>
 4    1 -0.3291270E-004  0.2417743E+03  0.7818608E-02  0.1118616E+00
         -5   -1    0    0    0  501 -0.00000000000E+00  0.00000000000E+00  0.32085414230E+02  0.32427824570E+02  0.47000000000E+01 0.  1.
          5   -1    0    0  501    0  0.00000000000E+00 -0.00000000000E+00 -0.19802042678E+04  0.19802098455E+04  0.47000000000E+01 0. -1.
          6    1    1    2  502    0 -0.14021811161E+03 -0.95967055173E+02 -0.12674692718E+04  0.12903228857E+04  0.17200000000E+03 0. -1.
         -6    1    1    2    0  502  0.14021811161E+03  0.95967055173E+02 -0.68064958181E+03  0.72231478437E+03  0.17200000000E+03 0.  1.
</event>
<event>
 4    1 -0.3291270E-004  0.2240671E+03  0.7818608E-02  0.1130887E+00
          5   -1    0    0  501    0  0.00000000000E+00  0.00000000000E+00  0.10989565680E+04  0.10989666184E+04  0.47000000000E+01 0. -1.
         -5   -1    0    0    0  501 -0.00000000000E+00 -0.00000000000E+00 -0.54975789587E+02  0.55176330439E+02  0.47000000000E+01 0.  1.
          6    1    1    2  502    0  0.10335556614E+03 -0.99697964958E+02  0.76038597178E+03  0.79271235852E+03  0.17200000000E+03 0. -1.
         -6    1    1    2    0  502 -0.10335556614E+03  0.99697964958E+02  0.28359480664E+03  0.36143059032E+03  0.17200000000E+03 0.  1.
</event>
<event>
 4    1 -0.3291270E-004  0.2756736E+03  0.7818608E-02  0.1098076E+00
         -5   -1    0    0    0  501 -0.00000000000E+00  0.00000000000E+00  0.73980380268E+03  0.73981873216E+03  0.47000000000E+01 0.  1.
          5   -1    0    0  501    0  0.00000000000E+00 -0.00000000000E+00 -0.10271363681E+03  0.10282111255E+03  0.47000000000E+01 0. -1.
          6    1    1    2  502    0  0.41640308623E+02 -0.21137173813E+03  0.32863149321E+03  0.42894590022E+03  0.17200000000E+03 0. -1.
         -6    1    1    2    0  502 -0.41640308623E+02  0.21137173813E+03  0.30845867265E+03  0.41369394450E+03  0.17200000000E+03 0.  1.
</event>
<event>
 4    1 -0.3291270E-004  0.2709649E+03  0.7818608E-02  0.1100729E+00
          5   -1    0    0  501    0  0.00000000000E+00  0.00000000000E+00  0.19088757044E+04  0.19088814906E+04  0.47000000000E+01 0. -1.
         -5   -1    0    0    0  501 -0.00000000000E+00 -0.00000000000E+00 -0.59594684595E+02  0.59779732619E+02  0.47000000000E+01 0.  1.
          6    1    1    2  502    0  0.13119918420E+03 -0.16317091968E+03  0.15116567087E+04  0.15357499731E+04  0.17200000000E+03 0. -1.
         -6    1    1    2    0  502 -0.13119918420E+03  0.16317091968E+03  0.33762431119E+03  0.43291125011E+03  0.17200000000E+03 0.  1.
</event>
<event>
 4    1 -0.3291270E-004  0.1895280E+03  0.7818608E-02  0.1158888E+00
          5   -1    0    0  501    0  0.00000000000E+00  0.00000000000E+00  0.22583204007E+03  0.22588094281E+03  0.47000000000E+01 0. -1.
         -5   -1    0    0    0  501 -0.00000000000E+00 -0.00000000000E+00 -0.23571979911E+03  0.23576665094E+03  0.47000000000E+01 0.  1.
          6    1    1    2  502    0 -0.66806451977E+02  0.43286819147E+02 -0.13663400165E+03  0.23364439036E+03  0.17200000000E+03 0.  1.
         -6    1    1    2    0  502  0.66806451977E+02 -0.43286819147E+02  0.12674624261E+03  0.22800320339E+03  0.17200000000E+03 0. -1.
</event>
<event>
 4    1 -0.3291270E-004  0.2091786E+03  0.7818608E-02  0.1142218E+00
          5   -1    0    0  501    0  0.00000000000E+00  0.00000000000E+00  0.16256433350E+03  0.16263226164E+03  0.47000000000E+01 0. -1.
         -5   -1    0    0    0  501 -0.00000000000E+00 -0.00000000000E+00 -0.36129699058E+03  0.36132755971E+03  0.47000000000E+01 0.  1.
          6    1    1    2  502    0 -0.58004109671E+02 -0.10395770576E+03  0.33016955033E+02  0.21176827110E+03  0.17200000000E+03 0. -1.
         -6    1    1    2    0  502  0.58004109671E+02  0.10395770576E+03 -0.23174961212E+03  0.31219155024E+03  0.17200000000E+03 0.  1.
</event>
<event>
 4    1 -0.3291270E-004  0.1934813E+03  0.7818608E-02  0.1155358E+00
          5   -1    0    0  501    0  0.00000000000E+00  0.00000000000E+00  0.19700864161E+03  0.19706469717E+03  0.47000000000E+01 0. -1.
         -5   -1    0    0    0  501 -0.00000000000E+00 -0.00000000000E+00 -0.32173684669E+03  0.32177117416E+03  0.47000000000E+01 0.  1.
          6    1    1    2  502    0  0.62686190077E+02  0.62621662040E+02  0.10366746415E+03  0.21950392731E+03  0.17200000000E+03 0. -1.
         -6    1    1    2    0  502 -0.62686190077E+02 -0.62621662040E+02 -0.22839566923E+03  0.29933194401E+03  0.17200000000E+03 0.  1.
</event>
<event>
 4    1 -0.3291270E-004  0.1999294E+03  0.7818608E-02  0.1149799E+00
         -5   -1    0    0    0  501 -0.00000000000E+00  0.00000000000E+00  0.95299951402E+03  0.95301110367E+03  0.47000000000E+01 0.  1.
          5   -1    0    0  501    0  0.00000000000E+00 -0.00000000000E+00 -0.41980116025E+02  0.42242397440E+02  0.47000000000E+01 0. -1.
          6    1    1    2  502    0  0.73540383027E+02 -0.70566103772E+02  0.42298057480E+03  0.46785075569E+03  0.17200000000E+03 0. -1.
         -6    1    1    2    0  502 -0.73540383027E+02  0.70566103772E+02  0.48803882319E+03  0.52740274542E+03  0.17200000000E+03 0.  1.
</event>
<event>
 4    1 -0.3291270E-004  0.2875410E+03  0.7818608E-02  0.1091640E+00
         -5   -1    0    0    0  501 -0.00000000000E+00  0.00000000000E+00  0.73987668325E+03  0.73989161126E+03  0.47000000000E+01 0.  1.
          5   -1    0    0  501    0  0.00000000000E+00 -0.00000000000E+00 -0.15518221766E+03  0.15525337574E+03  0.47000000000E+01 0. -1.
          6    1    1    2  502    0 -0.17085017399E+03 -0.15461582343E+03  0.55458121540E+02  0.29284029445E+03  0.17200000000E+03 0. -1.
         -6    1    1    2    0  502  0.17085017399E+03  0.15461582343E+03  0.52923634405E+03  0.60230469255E+03  0.17200000000E+03 0.  1.
</event>
<event>
 4    1 -0.3291270E-004  0.1859318E+03  0.7818608E-02  0.1162183E+00
         -5   -1    0    0    0  501 -0.00000000000E+00  0.00000000000E+00  0.14302067774E+03  0.14309788350E+03  0.47000000000E+01 0.  1.
          5   -1    0    0  501    0  0.00000000000E+00 -0.00000000000E+00 -0.26023344145E+03  0.26027588065E+03  0.47000000000E+01 0. -1.
          6    1    1    2  502    0  0.69300081744E+02  0.13569528347E+02 -0.11263141880E+03  0.21738553294E+03  0.17200000000E+03 0. -1.
         -6    1    1    2    0  502 -0.69300081744E+02 -0.13569528347E+02 -0.45813449060E+01  0.18598823121E+03  0.17200000000E+03 0.  1.
</event>
<event>
 4    1 -0.3291270E-004  0.1725019E+03  0.7818608E-02  0.1175264E+00
         -5   -1    0    0    0  501 -0.00000000000E+00  0.00000000000E+00  0.29628625503E+04  0.29628662782E+04  0.47000000000E+01 0.  1.
          5   -1    0    0  501    0  0.00000000000E+00 -0.00000000000E+00 -0.12315831608E+02  0.13182173880E+02  0.47000000000E+01 0. -1.
          6    1    1    2  502    0  0.12854131364E+02 -0.27729913688E+01  0.78939369587E+03  0.80802185939E+03  0.17200000000E+03 0. -1.
         -6    1    1    2    0  502 -0.12854131364E+02  0.27729913688E+01  0.21611530229E+04  0.21680265926E+04  0.17200000000E+03 0.  1.
</event>
<event>
 4    1 -0.3291270E-004  0.1783068E+03  0.7818608E-02  0.1169452E+00
          5   -1    0    0  501    0  0.00000000000E+00  0.00000000000E+00  0.19791337532E+02  0.20341756102E+02  0.47000000000E+01 0. -1.
         -5   -1    0    0    0  501 -0.00000000000E+00 -0.00000000000E+00 -0.18341509959E+04  0.18341570178E+04  0.47000000000E+01 0.  1.
          6    1    1    2  502    0  0.42017560985E+02  0.21067458935E+02 -0.56468569678E+03  0.59216826106E+03  0.17200000000E+03 0. -1.
         -6    1    1    2    0  502 -0.42017560985E+02 -0.21067458935E+02 -0.12496739616E+04  0.12623305128E+04  0.17200000000E+03 0.  1.
</event>
<event>
 4    1 -0.3291270E-004  0.3149025E+03  0.7818608E-02  0.1078020E+00
         -5   -1    0    0    0  501 -0.00000000000E+00  0.00000000000E+00  0.78635649850E+03  0.78637054416E+03  0.47000000000E+01 0.  1.
          5   -1    0    0  501    0  0.00000000000E+00 -0.00000000000E+00 -0.21227684187E+03  0.21232886661E+03  0.47000000000E+01 0. -1.
          6    1    1    2  502    0 -0.21700359742E+03 -0.14996345014E+03 -0.31159020370E+02  0.31644032963E+03  0.17200000000E+03 0. -1.
         -6    1    1    2    0  502  0.21700359742E+03  0.14996345014E+03  0.60523867699E+03  0.68225908114E+03  0.17200000000E+03 0.  1.
</event>
<event>
 4    1 -0.3291270E-004  0.2097966E+03  0.7818608E-02  0.1141727E+00
          5   -1    0    0  501    0  0.00000000000E+00  0.00000000000E+00  0.14646929255E+03  0.14654468145E+03  0.47000000000E+01 0. -1.
         -5   -1    0    0    0  501 -0.00000000000E+00 -0.00000000000E+00 -0.33055959261E+03  0.33059300396E+03  0.47000000000E+01 0.  1.
          6    1    1    2  502    0  0.55054666051E+02 -0.10676881680E+03 -0.19915780483E+02  0.21073973239E+03  0.17200000000E+03 0. -1.
         -6    1    1    2    0  502 -0.55054666051E+02  0.10676881680E+03 -0.16417451957E+03  0.26639795302E+03  0.17200000000E+03 0.  1.
</event>
<event>
 4    1 -0.3291270E-004  0.1820221E+03  0.7818608E-02  0.1165860E+00
         -5   -1    0    0    0  501 -0.00000000000E+00  0.00000000000E+00  0.55609762166E+02  0.55808024944E+02  0.47000000000E+01 0.  1.
          5   -1    0    0  501    0  0.00000000000E+00 -0.00000000000E+00 -0.94351416021E+03  0.94352586637E+03  0.47000000000E+01 0. -1.
          6    1    1    2  502    0 -0.49808164238E+02  0.32668069640E+02 -0.74780374181E+03  0.76963789684E+03  0.17200000000E+03 0. -1.
         -6    1    1    2    0  502  0.49808164238E+02 -0.32668069640E+02 -0.14010065624E+03  0.22969599447E+03  0.17200000000E+03 0.  1.
</event>
