<event>
 4    1  0.1244074E+000  0.1751701E+03  0.7818608E-02  0.1172561E+00
         21   -1    0    0  501  502  0.00000000000E+00  0.00000000000E+00  0.16479057239E+03  0.16479057239E+03  0.00000000000E+00 0. -1.
         21   -1    0    0  502  503 -0.00000000000E+00 -0.00000000000E+00 -0.30040477627E+03  0.30040477627E+03  0.00000000000E+00 0. -1.
          6    1    1    2  501    0  0.19640009163E+02  0.26736182979E+02  0.75605644227E+02  0.19078985004E+03  0.17200000000E+03 0. -1.
         -6    1    1    2    0  503 -0.19640009163E+02 -0.26736182979E+02 -0.21121984810E+03  0.27440549862E+03  0.17200000000E+03 0. -1.
</event>
<event>
 4    1  0.1244074E+000  0.1865133E+03  0.7818608E-02  0.1161644E+00
         21   -1    0    0  501  502  0.00000000000E+00  0.00000000000E+00  0.48635579419E+03  0.48635579419E+03  0.00000000000E+00 0. -1.
         21   -1    0    0  502  503 -0.00000000000E+00 -0.00000000000E+00 -0.10904904004E+03  0.10904904004E+03  0.00000000000E+00 0. -1.
          6    1    1    2  501    0 -0.53050371791E+02  0.48876125953E+02  0.14023373851E+02  0.18703976222E+03  0.17200000000E+03 0.  1.
         -6    1    1    2    0  503  0.53050371791E+02 -0.48876125953E+02  0.36328338030E+03  0.40836507201E+03  0.17200000000E+03 0.  1.
</event>
<event>
 4    1  0.1244074E+000  0.2110637E+03  0.7818608E-02  0.1140726E+00
         21   -1    0    0  501  502  0.00000000000E+00  0.00000000000E+00  0.53630916809E+02  0.53630916809E+02  0.00000000000E+00 0.  1.
         21   -1    0    0  502  503 -0.00000000000E+00 -0.00000000000E+00 -0.88449411198E+03  0.88449411198E+03  0.00000000000E+00 0. -1.
          6    1    1    2  501    0  0.77333195497E+02 -0.94781136790E+02 -0.29968718491E+03  0.36655190057E+03  0.17200000000E+03 0. -1.
         -6    1    1    2    0  503 -0.77333195497E+02  0.94781136790E+02 -0.53117601027E+03  0.57157312822E+03  0.17200000000E+03 0. -1.
</event>
<event>
 4    1  0.1244074E+000  0.1757042E+03  0.7818608E-02  0.1172027E+00
         21   -1    0    0  501  502  0.00000000000E+00  0.00000000000E+00  0.16465601947E+03  0.16465601947E+03  0.00000000000E+00 0.  1.
         21   -1    0    0  502  503 -0.00000000000E+00 -0.00000000000E+00 -0.31720932666E+03  0.31720932666E+03  0.00000000000E+00 0.  1.
          6    1    1    2  501    0  0.32008035566E+02  0.16230900745E+02  0.77793662661E+02  0.19215569320E+03  0.17200000000E+03 0.  1.
         -6    1    1    2    0  503 -0.32008035566E+02 -0.16230900745E+02 -0.23034696985E+03  0.28970965292E+03  0.17200000000E+03 0.  1.
</event>
<event>
 4    1  0.1244074E+000  0.1782642E+03  0.7818608E-02  0.1169494E+00
         21   -1    0    0  503  502  0.00000000000E+00  0.00000000000E+00  0.71132283648E+03  0.71132283648E+03  0.00000000000E+00 0. -1.
         21   -1    0    0  501  503 -0.00000000000E+00 -0.00000000000E+00 -0.44696541067E+02  0.44696541067E+02  0.00000000000E+00 0. -1.
          6    1    1    2  501    0 -0.39950742186E+02 -0.24455103954E+02  0.32495157418E+03  0.37063680264E+03  0.17200000000E+03 0.  1.
         -6    1    1    2    0  502  0.39950742186E+02  0.24455103954E+02  0.34167472123E+03  0.38538257490E+03  0.17200000000E+03 0.  1.
</event>
<event>
 4    1  0.1244074E+000  0.1760906E+03  0.7818608E-02  0.1171641E+00
         21   -1    0    0  503  502  0.00000000000E+00  0.00000000000E+00  0.25021237004E+03  0.25021237004E+03  0.00000000000E+00 0.  1.
         21   -1    0    0  501  503 -0.00000000000E+00 -0.00000000000E+00 -0.14383096210E+03  0.14383096210E+03  0.00000000000E+00 0.  1.
          6    1    1    2  501    0 -0.11922177488E+02  0.35801779292E+02 -0.20102659974E+02  0.17723437210E+03  0.17200000000E+03 0. -1.
         -6    1    1    2    0  502  0.11922177488E+02 -0.35801779292E+02  0.12648406792E+03  0.21680896004E+03  0.17200000000E+03 0. -1.
</event>
<event>
 4    1  0.1244074E+000  0.2226431E+03  0.7818608E-02  0.1131928E+00
         21   -1    0    0  503  502  0.00000000000E+00  0.00000000000E+00  0.33273869485E+03  0.33273869485E+03  0.00000000000E+00 0.  1.
         21   -1    0    0  501  503 -0.00000000000E+00 -0.00000000000E+00 -0.18222206196E+03  0.18222206196E+03  0.00000000000E+00 0. -1.
          6    1    1    2  501    0  0.13914359190E+03 -0.25000384142E+02 -0.34722299849E+02  0.22533441033E+03  0.17200000000E+03 0. -1.
         -6    1    1    2    0  502 -0.13914359190E+03  0.25000384142E+02  0.18523893274E+03  0.28962634648E+03  0.17200000000E+03 0.  1.
</event>
<event>
 4    1  0.1244074E+000  0.1877470E+03  0.7818608E-02  0.1160509E+00
         21   -1    0    0  501  502  0.00000000000E+00  0.00000000000E+00  0.33972896543E+03  0.33972896543E+03  0.00000000000E+00 0. -1.
         21   -1    0    0  502  503 -0.00000000000E+00 -0.00000000000E+00 -0.14578437049E+03  0.14578437049E+03  0.00000000000E+00 0.  1.
          6    1    1    2  501    0  0.72018265908E+02  0.21869997092E+02  0.22731503143E+03  0.29482376246E+03  0.17200000000E+03 0. -1.
         -6    1    1    2    0  503 -0.72018265908E+02 -0.21869997092E+02 -0.33370436492E+02  0.19068957347E+03  0.17200000000E+03 0.  1.
</event>
<event>
 4    1  0.1244074E+000  0.2458780E+03  0.7818608E-02  0.1115938E+00
         21   -1    0    0  501  502  0.00000000000E+00  0.00000000000E+00  0.93889073332E+03  0.93889073332E+03  0.00000000000E+00 0. -1.
         21   -1    0    0  502  503 -0.00000000000E+00 -0.00000000000E+00 -0.64758874036E+02  0.64758874036E+02  0.00000000000E+00 0.  1.
          6    1    1    2  501    0 -0.17248802339E+03 -0.33464268279E+02  0.39923573031E+03  0.46887646968E+03  0.17200000000E+03 0.  1.
         -6    1    1    2    0  503  0.17248802339E+03  0.33464268279E+02  0.47489612897E+03  0.53477313768E+03  0.17200000000E+03 0. -1.
</event>
<event>
 4    1  0.1244074E+000  0.2646706E+03  0.7818608E-02  0.1104369E+00
         21   -1    0    0  503  502  0.00000000000E+00  0.00000000000E+00  0.62510309571E+03  0.62510309571E+03  0.00000000000E+00 0.  1.
         21   -1    0    0  501  503 -0.00000000000E+00 -0.00000000000E+00 -0.28001529276E+03  0.28001529276E+03  0.00000000000E+00 0. -1.
          6    1    1    2  501    0 -0.56174860808E+02  0.19316029335E+03 -0.17794828651E+03  0.31892962639E+03  0.17200000000E+03 0. -1.
         -6    1    1    2    0  502  0.56174860808E+02 -0.19316029335E+03  0.52303608946E+03  0.58618876209E+03  0.17200000000E+03 0.  1.
</event>
<event>
 4    1  0.1244074E+000  0.1812114E+03  0.7818608E-02  0.1166636E+00
         21   -1    0    0  501  502  0.00000000000E+00  0.00000000000E+00  0.18056788256E+02  0.18056788256E+02  0.00000000000E+00 0. -1.
         21   -1    0    0  502  503 -0.00000000000E+00 -0.00000000000E+00 -0.18588656158E+04  0.18588656158E+04  0.00000000000E+00 0. -1.
          6    1    1    2  501    0 -0.16660628547E+02  0.54552809372E+02 -0.78223698865E+03  0.80295223517E+03  0.17200000000E+03 0. -1.
         -6    1    1    2    0  503  0.16660628547E+02 -0.54552809372E+02 -0.10585718388E+04  0.10739701688E+04  0.17200000000E+03 0. -1.
</event>
<event>
 4    1  0.1244074E+000  0.2006411E+03  0.7818608E-02  0.1149199E+00
         21   -1    0    0  503  502  0.00000000000E+00  0.00000000000E+00  0.37063557802E+02  0.37063557802E+02  0.00000000000E+00 0.  1.
         21   -1    0    0  501  503 -0.00000000000E+00 -0.00000000000E+00 -0.10927359419E+04  0.10927359419E+04  0.00000000000E+00 0.  1.
          6    1    1    2  501    0  0.64827473086E+02  0.80437912944E+02 -0.48400561067E+03  0.52394493057E+03  0.17200000000E+03 0. -1.
         -6    1    1    2    0  502 -0.64827473086E+02 -0.80437912944E+02 -0.57166677347E+03  0.60585456918E+03  0.17200000000E+03 0. -1.
</event>
<event>
 4    1  0.1244074E+000  0.2453301E+03  0.7818608E-02  0.1116292E+00
         21   -1    0    0  501  502  0.00000000000E+00  0.00000000000E+00  0.10124622080E+04  0.10124622080E+04  0.00000000000E+00 0.  1.
         21   -1    0    0  502  503 -0.00000000000E+00 -0.00000000000E+00 -0.79883378972E+02  0.79883378972E+02  0.00000000000E+00 0. -1.
          6    1    1    2  501    0 -0.15646898137E+03 -0.78232562901E+02  0.19003199622E+03  0.31032085914E+03  0.17200000000E+03 0. -1.
         -6    1    1    2    0  503  0.15646898137E+03  0.78232562901E+02  0.74254683279E+03  0.78202472781E+03  0.17200000000E+03 0.  1.
</event>
<event>
 4    1  0.1244074E+000  0.1795213E+03  0.7818608E-02  0.1168267E+00
         21   -1    0    0  501  502  0.00000000000E+00  0.00000000000E+00  0.61521223446E+02  0.61521223446E+02  0.00000000000E+00 0.  1.
         21   -1    0    0  502  503 -0.00000000000E+00 -0.00000000000E+00 -0.52833546172E+03  0.52833546172E+03  0.00000000000E+00 0.  1.
          6    1    1    2  501    0 -0.17515904797E+02  0.48343280412E+02 -0.20623174015E+03  0.27342167128E+03  0.17200000000E+03 0.  1.
         -6    1    1    2    0  503  0.17515904797E+02 -0.48343280412E+02 -0.26058249812E+03  0.31643501388E+03  0.17200000000E+03 0.  1.
</event>
<event>
 4    1  0.1244074E+000  0.2299992E+03  0.7818608E-02  0.1126640E+00
         21   -1    0    0  503  502  0.00000000000E+00  0.00000000000E+00  0.23218656207E+03  0.23218656207E+03  0.00000000000E+00 0.  1.
         21   -1    0    0  501  503 -0.00000000000E+00 -0.00000000000E+00 -0.67826427165E+03  0.67826427165E+03  0.00000000000E+00 0. -1.
          6    1    1    2  501    0  0.14705975914E+03  0.41098392297E+02 -0.59401119373E+03  0.63698426110E+03  0.17200000000E+03 0. -1.
         -6    1    1    2    0  502 -0.14705975914E+03 -0.41098392297E+02  0.14793348416E+03  0.27346657262E+03  0.17200000000E+03 0.  1.
</event>
<event>
 4    1  0.1244074E+000  0.2116289E+03  0.7818608E-02  0.1140283E+00
         21   -1    0    0  501  502  0.00000000000E+00  0.00000000000E+00  0.61290624528E+02  0.61290624528E+02  0.00000000000E+00 0. -1.
         21   -1    0    0  502  503 -0.00000000000E+00 -0.00000000000E+00 -0.78372884306E+03  0.78372884306E+03  0.00000000000E+00 0. -1.
          6    1    1    2  501    0 -0.11424463041E+03 -0.46378476033E+02 -0.25134543550E+03  0.32857468948E+03  0.17200000000E+03 0.  1.
         -6    1    1    2    0  503  0.11424463041E+03  0.46378476033E+02 -0.47109278303E+03  0.51644477811E+03  0.17200000000E+03 0.  1.
</event>
<event>
 4    1  0.1244074E+000  0.3026266E+03  0.7818608E-02  0.1083935E+00
         21   -1    0    0  501  502  0.00000000000E+00  0.00000000000E+00  0.26195596208E+03  0.26195596208E+03  0.00000000000E+00 0.  1.
         21   -1    0    0  502  503 -0.00000000000E+00 -0.00000000000E+00 -0.37490263686E+03  0.37490263686E+03  0.00000000000E+00 0. -1.
          6    1    1    2  501    0  0.42138921254E+02  0.24540410967E+03 -0.13917920984E+03  0.33309716027E+03  0.17200000000E+03 0. -1.
         -6    1    1    2    0  503 -0.42138921254E+02 -0.24540410967E+03  0.26232535058E+02  0.30376143867E+03  0.17200000000E+03 0.  1.
</event>
<event>
 4    1  0.1244074E+000  0.2096256E+03  0.7818608E-02  0.1141863E+00
         21   -1    0    0  503  502  0.00000000000E+00  0.00000000000E+00  0.10689931664E+04  0.10689931664E+04  0.00000000000E+00 0. -1.
         21   -1    0    0  501  503 -0.00000000000E+00 -0.00000000000E+00 -0.77259346070E+02  0.77259346070E+02  0.00000000000E+00 0.  1.
          6    1    1    2  501    0  0.43849516064E+02  0.11151731990E+03  0.10381442571E+03  0.23392376468E+03  0.17200000000E+03 0.  1.
         -6    1    1    2    0  502 -0.43849516064E+02 -0.11151731990E+03  0.88791939458E+03  0.91232874775E+03  0.17200000000E+03 0. -1.
</event>
<event>
 4    1  0.1244074E+000  0.1769054E+03  0.7818608E-02  0.1170832E+00
         21   -1    0    0  503  502  0.00000000000E+00  0.00000000000E+00  0.10789205581E+03  0.10789205581E+03  0.00000000000E+00 0. -1.
         21   -1    0    0  501  503 -0.00000000000E+00 -0.00000000000E+00 -0.31233379349E+03  0.31233379349E+03  0.00000000000E+00 0. -1.
          6    1    1    2  501    0 -0.31206500999E+02  0.27159976206E+02 -0.46114828092E+02  0.18281708723E+03  0.17200000000E+03 0. -1.
         -6    1    1    2    0  502  0.31206500999E+02 -0.27159976206E+02 -0.15832690958E+03  0.23740876208E+03  0.17200000000E+03 0. -1.
</event>
<event>
 4    1  0.1244074E+000  0.1819171E+03  0.7818608E-02  0.1165960E+00
         21   -1    0    0  501  502  0.00000000000E+00  0.00000000000E+00  0.32049996186E+03  0.32049996186E+03  0.00000000000E+00 0.  1.
         21   -1    0    0  502  503 -0.00000000000E+00 -0.00000000000E+00 -0.11009438558E+03  0.11009438558E+03  0.00000000000E+00 0. -1.
          6    1    1    2  501    0 -0.32268248980E+01  0.59155797852E+02  0.15885715979E+03  0.24151484020E+03  0.17200000000E+03 0.  1.
         -6    1    1    2    0  503  0.32268248980E+01 -0.59155797852E+02  0.51548416486E+02  0.18907950725E+03  0.17200000000E+03 0. -1.
</event>
<event>
 4    1  0.1244074E+000  0.2043735E+03  0.7818608E-02  0.1146101E+00
         21   -1    0    0  501  502  0.00000000000E+00  0.00000000000E+00  0.84984929947E+02  0.84984929947E+02  0.00000000000E+00 0. -1.
         21   -1    0    0  502  503 -0.00000000000E+00 -0.00000000000E+00 -0.65348001210E+03  0.65348001210E+03  0.00000000000E+00 0. -1.
          6    1    1    2  501    0 -0.32390408262E+02  0.10552431880E+03 -0.10040786236E+03  0.22770651996E+03  0.17200000000E+03 0. -1.
         -6    1    1    2    0  503  0.32390408262E+02 -0.10552431880E+03 -0.46808721979E+03  0.51075842209E+03  0.17200000000E+03 0. -1.
</event>
<event>
 4    1  0.1244074E+000  0.2006211E+03  0.7818608E-02  0.1149216E+00
         21   -1    0    0  501  502  0.00000000000E+00  0.00000000000E+00  0.16271671485E+03  0.16271671485E+03  0.00000000000E+00 0.  1.
         21   -1    0    0  502  503 -0.00000000000E+00 -0.00000000000E+00 -0.45193734697E+03  0.45193734697E+03  0.00000000000E+00 0.  1.
          6    1    1    2  501    0 -0.55677321866E+02 -0.86976243054E+02 -0.35138409962E+03  0.40462280768E+03  0.17200000000E+03 0. -1.
         -6    1    1    2    0  503  0.55677321866E+02  0.86976243054E+02  0.62163467493E+02  0.21003125414E+03  0.17200000000E+03 0. -1.
</event>
<event>
 4    1  0.1244074E+000  0.1928166E+03  0.7818608E-02  0.1155945E+00
         21   -1    0    0  503  502  0.00000000000E+00  0.00000000000E+00  0.13110047909E+03  0.13110047909E+03  0.00000000000E+00 0.  1.
         21   -1    0    0  501  503 -0.00000000000E+00 -0.00000000000E+00 -0.29744362955E+03  0.29744362955E+03  0.00000000000E+00 0.  1.
          6    1    1    2  501    0 -0.51653755424E+02 -0.70186378439E+02 -0.12942142601E+03  0.23222433912E+03  0.17200000000E+03 0. -1.
         -6    1    1    2    0  502  0.51653755424E+02  0.70186378439E+02 -0.36921724451E+02  0.19631976952E+03  0.17200000000E+03 0. -1.
</event>
<event>
 4    1  0.1244074E+000  0.1764264E+03  0.7818608E-02  0.1171307E+00
         21   -1    0    0  503  502  0.00000000000E+00  0.00000000000E+00  0.82666634147E+03  0.82666634147E+03  0.00000000000E+00 0.  1.
         21   -1    0    0  501  503 -0.00000000000E+00 -0.00000000000E+00 -0.38531137172E+02  0.38531137172E+02  0.00000000000E+00 0.  1.
          6    1    1    2  501    0 -0.76975414377E+01  0.38510039406E+02  0.45938337725E+03  0.49209690364E+03  0.17200000000E+03 0.  1.
         -6    1    1    2    0  502  0.76975414377E+01 -0.38510039406E+02  0.32875182705E+03  0.37310057501E+03  0.17200000000E+03 0.  1.
</event>
<event>
 4    1  0.1244074E+000  0.2931814E+03  0.7818608E-02  0.1088700E+00
         21   -1    0    0  501  502  0.00000000000E+00  0.00000000000E+00  0.36652892817E+03  0.36652892817E+03  0.00000000000E+00 0.  1.
         21   -1    0    0  502  503 -0.00000000000E+00 -0.00000000000E+00 -0.26428969061E+03  0.26428969061E+03  0.00000000000E+00 0. -1.
          6    1    1    2  501    0  0.16307282474E+03  0.17256469458E+03  0.15699186603E+03  0.33256843805E+03  0.17200000000E+03 0.  1.
         -6    1    1    2    0  503 -0.16307282474E+03 -0.17256469458E+03 -0.54752628477E+02  0.29825018074E+03  0.17200000000E+03 0. -1.
</event>
<event>
 4    1  0.1244074E+000  0.1993936E+03  0.7818608E-02  0.1150252E+00
         21   -1    0    0  501  502  0.00000000000E+00  0.00000000000E+00  0.13747863590E+03  0.13747863590E+03  0.00000000000E+00 0.  1.
         21   -1    0    0  502  503 -0.00000000000E+00 -0.00000000000E+00 -0.28924809457E+03  0.28924809457E+03  0.00000000000E+00 0.  1.
          6    1    1    2  501    0  0.96986932472E+01  0.10039802105E+03 -0.78835604134E+02  0.21441287219E+03  0.17200000000E+03 0.  1.
         -6    1    1    2    0  503 -0.96986932472E+01 -0.10039802105E+03 -0.72933854535E+02  0.21231385828E+03  0.17200000000E+03 0.  1.
</event>
<event>
 4    1  0.1244074E+000  0.2654487E+03  0.7818608E-02  0.1103913E+00
         21   -1    0    0  503  502  0.00000000000E+00  0.00000000000E+00  0.31247525916E+03  0.31247525916E+03  0.00000000000E+00 0. -1.
         21   -1    0    0  501  503 -0.00000000000E+00 -0.00000000000E+00 -0.31577974491E+03  0.31577974491E+03  0.00000000000E+00 0.  1.
          6    1    1    2  501    0  0.99087582052E+02 -0.17624037254E+03 -0.16961390597E+03  0.31501094414E+03  0.17200000000E+03 0.  1.
         -6    1    1    2    0  502 -0.99087582052E+02  0.17624037254E+03  0.16630942021E+03  0.31324405993E+03  0.17200000000E+03 0. -1.
</event>
<event>
 4    1  0.1244074E+000  0.2122706E+03  0.7818608E-02  0.1139780E+00
         21   -1    0    0  501  502  0.00000000000E+00  0.00000000000E+00  0.17244775444E+03  0.17244775444E+03  0.00000000000E+00 0. -1.
         21   -1    0    0  502  503 -0.00000000000E+00 -0.00000000000E+00 -0.42104018241E+03  0.42104018241E+03  0.00000000000E+00 0. -1.
          6    1    1    2  501    0  0.11020094611E+03  0.57710987081E+02  0.58489116720E+02  0.22018125108E+03  0.17200000000E+03 0. -1.
         -6    1    1    2    0  503 -0.11020094611E+03 -0.57710987081E+02 -0.30708154469E+03  0.37330668577E+03  0.17200000000E+03 0. -1.
</event>
<event>
 4    1  0.1244074E+000  0.1767536E+03  0.7818608E-02  0.1170982E+00
         21   -1    0    0  503  502  0.00000000000E+00  0.00000000000E+00  0.68053715511E+02  0.68053715511E+02  0.00000000000E+00 0.  1.
         21   -1    0    0  501  503 -0.00000000000E+00 -0.00000000000E+00 -0.52622202801E+03  0.52622202801E+03  0.00000000000E+00 0.  1.
          6    1    1    2  501    0  0.42695266543E+01  0.40492198150E+02 -0.33522504871E+03  0.37896923391E+03  0.17200000000E+03 0.  1.
         -6    1    1    2    0  502 -0.42695266543E+01 -0.40492198150E+02 -0.12294326379E+03  0.21530650961E+03  0.17200000000E+03 0.  1.
</event>
<event>
 4    1  0.1244074E+000  0.4357268E+03  0.7818608E-02  0.1032066E+00
         21   -1    0    0  503  502  0.00000000000E+00  0.00000000000E+00  0.30860376854E+03  0.30860376854E+03  0.00000000000E+00 0.  1.
         21   -1    0    0  501  503 -0.00000000000E+00 -0.00000000000E+00 -0.63134842257E+03  0.63134842257E+03  0.00000000000E+00 0. -1.
          6    1    1    2  501    0 -0.27199063881E+03  0.29375992949E+03 -0.23649975628E+03  0.49577206305E+03  0.17200000000E+03 0. -1.
         -6    1    1    2    0  502  0.27199063881E+03 -0.29375992949E+03 -0.86244897738E+02  0.44418012806E+03  0.17200000000E+03 0.  1.
</event>
<event>
 4    1  0.1244074E+000  0.2418794E+03  0.7818608E-02  0.1118547E+00
         21   -1    0    0  503  502  0.00000000000E+00  0.00000000000E+00  0.97044957746E+03  0.97044957746E+03  0.00000000000E+00 0.  1.
         21   -1    0    0  501  503 -0.00000000000E+00 -0.00000000000E+00 -0.76513008476E+02  0.76513008476E+02  0.00000000000E+00 0. -1.
          6    1    1    2  501    0 -0.44038659859E+02  0.16426276599E+03  0.20590166114E+03  0.31764941982E+03  0.17200000000E+03 0. -1.
         -6    1    1    2    0  502  0.44038659859E+02 -0.16426276599E+03  0.68803490785E+03  0.72931316611E+03  0.17200000000E+03 0. -1.
</event>
<event>
 4    1  0.1244074E+000  0.1846778E+03  0.7818608E-02  0.1163351E+00
         21   -1    0    0  503  502  0.00000000000E+00  0.00000000000E+00  0.61343824181E+02  0.61343824181E+02  0.00000000000E+00 0.  1.
         21   -1    0    0  501  503 -0.00000000000E+00 -0.00000000000E+00 -0.60773520058E+03  0.60773520058E+03  0.00000000000E+00 0. -1.
          6    1    1    2  501    0  0.13195674557E+02 -0.65937562063E+02 -0.37082286728E+03  0.41426499588E+03  0.17200000000E+03 0. -1.
         -6    1    1    2    0  502 -0.13195674557E+02  0.65937562063E+02 -0.17556850912E+03  0.25481402888E+03  0.17200000000E+03 0. -1.
</event>
<event>
 4    1  0.1244074E+000  0.1744399E+03  0.7818608E-02  0.1173295E+00
         21   -1    0    0  503  502  0.00000000000E+00  0.00000000000E+00  0.46436358007E+02  0.46436358007E+02  0.00000000000E+00 0.  1.
         21   -1    0    0  501  503 -0.00000000000E+00 -0.00000000000E+00 -0.10896071494E+04  0.10896071494E+04  0.00000000000E+00 0.  1.
          6    1    1    2  501    0 -0.25688226783E+02  0.13616373366E+02 -0.88020446757E+03  0.89732335050E+03  0.17200000000E+03 0.  1.
         -6    1    1    2    0  502  0.25688226783E+02 -0.13616373366E+02 -0.16296632385E+03  0.23872015694E+03  0.17200000000E+03 0.  1.
</event>
<event>
 4    1  0.1244074E+000  0.1756102E+03  0.7818608E-02  0.1172120E+00
         21   -1    0    0  501  502  0.00000000000E+00  0.00000000000E+00  0.10934210518E+04  0.10934210518E+04  0.00000000000E+00 0.  1.
         21   -1    0    0  502  503 -0.00000000000E+00 -0.00000000000E+00 -0.54205049957E+02  0.54205049957E+02  0.00000000000E+00 0.  1.
          6    1    1    2  501    0  0.35184062189E+02 -0.41245654513E+01  0.91702400899E+03  0.93368729419E+03  0.17200000000E+03 0.  1.
         -6    1    1    2    0  503 -0.35184062189E+02  0.41245654513E+01  0.12219199289E+03  0.21393880761E+03  0.17200000000E+03 0.  1.
</event>
<event>
 4    1  0.1244074E+000  0.2777146E+03  0.7818608E-02  0.1096944E+00
         21   -1    0    0  501  502  0.00000000000E+00  0.00000000000E+00  0.59337114883E+03  0.59337114883E+03  0.00000000000E+00 0. -1.
         21   -1    0    0  502  503 -0.00000000000E+00 -0.00000000000E+00 -0.13501303559E+03  0.13501303559E+03  0.00000000000E+00 0.  1.
          6    1    1    2  501    0 -0.79349021689E+02  0.20308891689E+03  0.29950747225E+03  0.40844840720E+03  0.17200000000E+03 0. -1.
         -6    1    1    2    0  503  0.79349021689E+02 -0.20308891689E+03  0.15885064098E+03  0.31993577722E+03  0.17200000000E+03 0. -1.
</event>
<event>
 4    1  0.1244074E+000  0.1867655E+03  0.7818608E-02  0.1161411E+00
         21   -1    0    0  503  502  0.00000000000E+00  0.00000000000E+00  0.47643924542E+03  0.47643924542E+03  0.00000000000E+00 0.  1.
         21   -1    0    0  501  503 -0.00000000000E+00 -0.00000000000E+00 -0.16989313866E+03  0.16989313866E+03  0.00000000000E+00 0. -1.
          6    1    1    2  501    0 -0.36576226371E+02 -0.62924810812E+02 -0.90512266170E+02  0.20754233900E+03  0.17200000000E+03 0. -1.
         -6    1    1    2    0  502  0.36576226371E+02  0.62924810812E+02  0.39705837293E+03  0.43879004508E+03  0.17200000000E+03 0.  1.
</event>
<event>
 4    1  0.1244074E+000  0.2423667E+03  0.7818608E-02  0.1118226E+00
         21   -1    0    0  501  502  0.00000000000E+00  0.00000000000E+00  0.33504089526E+03  0.33504089526E+03  0.00000000000E+00 0. -1.
         21   -1    0    0  502  503 -0.00000000000E+00 -0.00000000000E+00 -0.37215604002E+03  0.37215604002E+03  0.00000000000E+00 0. -1.
          6    1    1    2  501    0 -0.14959438336E+03 -0.82335396743E+02  0.23859614920E+03  0.34010251323E+03  0.17200000000E+03 0. -1.
         -6    1    1    2    0  503  0.14959438336E+03  0.82335396743E+02 -0.27571129395E+03  0.36709442206E+03  0.17200000000E+03 0. -1.
</event>
<event>
 4    1  0.1244074E+000  0.2310833E+03  0.7818608E-02  0.1125880E+00
         21   -1    0    0  501  502  0.00000000000E+00  0.00000000000E+00  0.40098484952E+03  0.40098484952E+03  0.00000000000E+00 0. -1.
         21   -1    0    0  502  503 -0.00000000000E+00 -0.00000000000E+00 -0.15324949791E+03  0.15324949791E+03  0.00000000000E+00 0.  1.
          6    1    1    2  501    0  0.12171931284E+03 -0.94867841304E+02  0.22417462072E+03  0.32195303851E+03  0.17200000000E+03 0. -1.
         -6    1    1    2    0  503 -0.12171931284E+03  0.94867841304E+02  0.23560730882E+02  0.23228130892E+03  0.17200000000E+03 0.  1.
</event>
<event>
 4    1  0.1244074E+000  0.1745201E+03  0.7818608E-02  0.1173214E+00
         21   -1    0    0  503  502  0.00000000000E+00  0.00000000000E+00  0.17248167736E+04  0.17248167736E+04  0.00000000000E+00 0.  1.
         21   -1    0    0  501  503 -0.00000000000E+00 -0.00000000000E+00 -0.22484578274E+02  0.22484578274E+02  0.00000000000E+00 0.  1.
          6    1    1    2  501    0 -0.25264711876E+02 -0.15327997303E+02  0.44640041842E+03  0.47930218728E+03  0.17200000000E+03 0. -1.
         -6    1    1    2    0  502  0.25264711876E+02  0.15327997303E+02  0.12559317769E+04  0.12679991646E+04  0.17200000000E+03 0. -1.
</event>
<event>
 4    1  0.1244074E+000  0.1739310E+03  0.7818608E-02  0.1173809E+00
         21   -1    0    0  503  502  0.00000000000E+00  0.00000000000E+00  0.10839408414E+03  0.10839408414E+03  0.00000000000E+00 0.  1.
         21   -1    0    0  501  503 -0.00000000000E+00 -0.00000000000E+00 -0.28070273952E+03  0.28070273952E+03  0.00000000000E+00 0.  1.
          6    1    1    2  501    0  0.17403153843E+02  0.19108289259E+02 -0.10088844183E+03  0.20107330548E+03  0.17200000000E+03 0. -1.
         -6    1    1    2    0  502 -0.17403153843E+02 -0.19108289259E+02 -0.71420213553E+02  0.18802351817E+03  0.17200000000E+03 0. -1.
</event>
<event>
 4    1  0.1244074E+000  0.1763405E+03  0.7818608E-02  0.1171392E+00
         21   -1    0    0  501  502  0.00000000000E+00  0.00000000000E+00  0.31455271589E+03  0.31455271589E+03  0.00000000000E+00 0. -1.
         21   -1    0    0  502  503 -0.00000000000E+00 -0.00000000000E+00 -0.11673038900E+03  0.11673038900E+03  0.00000000000E+00 0. -1.
          6    1    1    2  501    0 -0.23508379971E+02  0.30973214773E+02  0.18329017440E+03  0.25434478960E+03  0.17200000000E+03 0.  1.
         -6    1    1    2    0  503  0.23508379971E+02 -0.30973214773E+02  0.14532152493E+02  0.17693831529E+03  0.17200000000E+03 0.  1.
</event>
<event>
 4    1  0.1244074E+000  0.1960020E+03  0.7818608E-02  0.1153157E+00
         21   -1    0    0  503  502  0.00000000000E+00  0.00000000000E+00  0.78864225642E+02  0.78864225642E+02  0.00000000000E+00 0. -1.
         21   -1    0    0  501  503 -0.00000000000E+00 -0.00000000000E+00 -0.48725902010E+03  0.48725902010E+03  0.00000000000E+00 0.  1.
          6    1    1    2  501    0  0.89487184330E+02 -0.28719729738E+02 -0.20888227562E+03  0.28644124023E+03  0.17200000000E+03 0. -1.
         -6    1    1    2    0  502 -0.89487184330E+02  0.28719729738E+02 -0.19951251884E+03  0.27968200552E+03  0.17200000000E+03 0. -1.
</event>
<event>
 4    1  0.1244074E+000  0.1794323E+03  0.7818608E-02  0.1168354E+00
         21   -1    0    0  501  502  0.00000000000E+00  0.00000000000E+00  0.13852295352E+03  0.13852295352E+03  0.00000000000E+00 0.  1.
         21   -1    0    0  502  503 -0.00000000000E+00 -0.00000000000E+00 -0.30959299985E+03  0.30959299985E+03  0.00000000000E+00 0.  1.
          6    1    1    2  501    0  0.34356661747E+02 -0.37836186396E+02  0.26328462075E+02  0.18135364657E+03  0.17200000000E+03 0.  1.
         -6    1    1    2    0  503 -0.34356661747E+02  0.37836186396E+02 -0.19739850841E+03  0.26676230680E+03  0.17200000000E+03 0.  1.
</event>
<event>
 4    1  0.1244074E+000  0.1779023E+03  0.7818608E-02  0.1169849E+00
         21   -1    0    0  503  502  0.00000000000E+00  0.00000000000E+00  0.18714946418E+03  0.18714946418E+03  0.00000000000E+00 0. -1.
         21   -1    0    0  501  503 -0.00000000000E+00 -0.00000000000E+00 -0.28662946399E+03  0.28662946399E+03  0.00000000000E+00 0. -1.
          6    1    1    2  501    0 -0.45075269851E+02 -0.57849259764E+01  0.10194278262E+03  0.20504042589E+03  0.17200000000E+03 0. -1.
         -6    1    1    2    0  502  0.45075269851E+02  0.57849259764E+01 -0.20142278244E+03  0.26873850227E+03  0.17200000000E+03 0. -1.
</event>
<event>
 4    1  0.1244074E+000  0.1983986E+03  0.7818608E-02  0.1151097E+00
         21   -1    0    0  501  502  0.00000000000E+00  0.00000000000E+00  0.14045122980E+03  0.14045122980E+03  0.00000000000E+00 0.  1.
         21   -1    0    0  502  503 -0.00000000000E+00 -0.00000000000E+00 -0.44734229604E+03  0.44734229604E+03  0.00000000000E+00 0. -1.
          6    1    1    2  501    0 -0.62726628432E+02 -0.76441992453E+02  0.26171672945E+02  0.20011737703E+03  0.17200000000E+03 0.  1.
         -6    1    1    2    0  503  0.62726628432E+02  0.76441992453E+02 -0.33306273919E+03  0.38767614881E+03  0.17200000000E+03 0. -1.
</event>
<event>
 4    1  0.1244074E+000  0.2166359E+03  0.7818608E-02  0.1136416E+00
         21   -1    0    0  503  502  0.00000000000E+00  0.00000000000E+00  0.10153072858E+04  0.10153072858E+04  0.00000000000E+00 0. -1.
         21   -1    0    0  501  503 -0.00000000000E+00 -0.00000000000E+00 -0.46598572443E+02  0.46598572443E+02  0.00000000000E+00 0. -1.
          6    1    1    2  501    0 -0.11613171003E+03  0.62133234063E+02  0.53198594460E+03  0.57440417661E+03  0.17200000000E+03 0.  1.
         -6    1    1    2    0  502  0.11613171003E+03 -0.62133234063E+02  0.43672276876E+03  0.48750168164E+03  0.17200000000E+03 0.  1.
</event>
<event>
 4    1  0.1244074E+000  0.1955135E+03  0.7818608E-02  0.1153580E+00
         21   -1    0    0  501  502  0.00000000000E+00  0.00000000000E+00  0.13865947330E+04  0.13865947330E+04  0.00000000000E+00 0.  1.
         21   -1    0    0  502  503 -0.00000000000E+00 -0.00000000000E+00 -0.29480799648E+02  0.29480799648E+02  0.00000000000E+00 0.  1.
          6    1    1    2  501    0 -0.71266274731E+02  0.59687862537E+02  0.85891330981E+03  0.88088455352E+03  0.17200000000E+03 0. -1.
         -6    1    1    2    0  503  0.71266274731E+02 -0.59687862537E+02  0.49820062351E+03  0.53519097910E+03  0.17200000000E+03 0. -1.
</event>
<event>
 4    1  0.1244074E+000  0.2087439E+03  0.7818608E-02  0.1142565E+00
         21   -1    0    0  503  502  0.00000000000E+00  0.00000000000E+00  0.29476621078E+03  0.29476621078E+03  0.00000000000E+00 0.  1.
         21   -1    0    0  501  503 -0.00000000000E+00 -0.00000000000E+00 -0.29778064223E+03  0.29778064223E+03  0.00000000000E+00 0.  1.
          6    1    1    2  501    0 -0.11817449810E+03  0.49805273669E+01  0.20873739865E+03  0.29520386049E+03  0.17200000000E+03 0.  1.
         -6    1    1    2    0  502  0.11817449810E+03 -0.49805273669E+01 -0.21175183010E+03  0.29734299252E+03  0.17200000000E+03 0.  1.
</event>
<event>
 4    1  0.1244074E+000  0.2531456E+03  0.7818608E-02  0.1111333E+00
         21   -1    0    0  503  502  0.00000000000E+00  0.00000000000E+00  0.39503821312E+03  0.39503821312E+03  0.00000000000E+00 0.  1.
         21   -1    0    0  501  503 -0.00000000000E+00 -0.00000000000E+00 -0.28602602908E+03  0.28602602908E+03  0.00000000000E+00 0.  1.
          6    1    1    2  501    0  0.18309527239E+03 -0.31221672317E+02 -0.16953521605E+03  0.30467172674E+03  0.17200000000E+03 0.  1.
         -6    1    1    2    0  502 -0.18309527239E+03  0.31221672317E+02  0.27854740010E+03  0.37639251546E+03  0.17200000000E+03 0.  1.
</event>
<event>
 4    1  0.1244074E+000  0.2228659E+03  0.7818608E-02  0.1131764E+00
         21   -1    0    0  501  502  0.00000000000E+00  0.00000000000E+00  0.30826017194E+03  0.30826017194E+03  0.00000000000E+00 0. -1.
         21   -1    0    0  502  503 -0.00000000000E+00 -0.00000000000E+00 -0.16119314099E+03  0.16119314099E+03  0.00000000000E+00 0. -1.
          6    1    1    2  501    0  0.12908194127E+03 -0.58506856787E+02  0.68797859783E+02  0.23324310357E+03  0.17200000000E+03 0. -1.
         -6    1    1    2    0  503 -0.12908194127E+03  0.58506856787E+02  0.78269171170E+02  0.23621020936E+03  0.17200000000E+03 0. -1.
</event>
<event>
 4    1  0.1244074E+000  0.2429989E+03  0.7818608E-02  0.1117811E+00
         21   -1    0    0  503  502  0.00000000000E+00  0.00000000000E+00  0.19955195711E+02  0.19955195711E+02  0.00000000000E+00 0.  1.
         21   -1    0    0  501  503 -0.00000000000E+00 -0.00000000000E+00 -0.29707062631E+04  0.29707062631E+04  0.00000000000E+00 0. -1.
          6    1    1    2  501    0 -0.17134168438E+03  0.10318867123E+02 -0.15690366016E+04  0.15877418899E+04  0.17200000000E+03 0.  1.
         -6    1    1    2    0  502  0.17134168438E+03 -0.10318867123E+02 -0.13817144658E+04  0.14029195689E+04  0.17200000000E+03 0. -1.
</event>
<event>
 4    1  0.1244074E+000  0.2127014E+03  0.7818608E-02  0.1139444E+00
         21   -1    0    0  501  502  0.00000000000E+00  0.00000000000E+00  0.13271153987E+03  0.13271153987E+03  0.00000000000E+00 0. -1.
         21   -1    0    0  502  503 -0.00000000000E+00 -0.00000000000E+00 -0.34692600643E+03  0.34692600643E+03  0.00000000000E+00 0.  1.
          6    1    1    2  501    0 -0.93332041446E+02 -0.83348829551E+02 -0.75511047371E+02  0.22570736723E+03  0.17200000000E+03 0. -1.
         -6    1    1    2    0  503  0.93332041446E+02  0.83348829551E+02 -0.13870341919E+03  0.25393017907E+03  0.17200000000E+03 0.  1.
</event>
<event>
 4    1  0.1244074E+000  0.2780680E+03  0.7818608E-02  0.1096749E+00
         21   -1    0    0  501  502  0.00000000000E+00  0.00000000000E+00  0.20819574312E+03  0.20819574312E+03  0.00000000000E+00 0. -1.
         21   -1    0    0  502  503 -0.00000000000E+00 -0.00000000000E+00 -0.37261686867E+03  0.37261686867E+03  0.00000000000E+00 0.  1.
          6    1    1    2  501    0  0.15366635448E+03 -0.15532046911E+03 -0.65546105304E+02  0.28568879667E+03  0.17200000000E+03 0. -1.
         -6    1    1    2    0  503 -0.15366635448E+03  0.15532046911E+03 -0.98875020245E+02  0.29512381512E+03  0.17200000000E+03 0.  1.
</event>
<event>
 4    1  0.1244074E+000  0.1778106E+03  0.7818608E-02  0.1169939E+00
         21   -1    0    0  501  502  0.00000000000E+00  0.00000000000E+00  0.13754873993E+03  0.13754873993E+03  0.00000000000E+00 0.  1.
         21   -1    0    0  502  503 -0.00000000000E+00 -0.00000000000E+00 -0.24169500436E+03  0.24169500436E+03  0.00000000000E+00 0.  1.
          6    1    1    2  501    0 -0.43140547904E+02 -0.13095942338E+02 -0.10108393484E+02  0.17809769846E+03  0.17200000000E+03 0.  1.
         -6    1    1    2    0  503  0.43140547904E+02  0.13095942338E+02 -0.94037870944E+02  0.20114604582E+03  0.17200000000E+03 0.  1.
</event>
<event>
 4    1  0.1244074E+000  0.1807407E+03  0.7818608E-02  0.1167088E+00
         21   -1    0    0  501  502  0.00000000000E+00  0.00000000000E+00  0.12766989064E+03  0.12766989064E+03  0.00000000000E+00 0. -1.
         21   -1    0    0  502  503 -0.00000000000E+00 -0.00000000000E+00 -0.25814975645E+03  0.25814975645E+03  0.00000000000E+00 0. -1.
          6    1    1    2  501    0  0.12897078782E+02 -0.54008126725E+02 -0.83358578211E+02  0.19903734563E+03  0.17200000000E+03 0.  1.
         -6    1    1    2    0  503 -0.12897078782E+02  0.54008126725E+02 -0.47121287599E+02  0.18678230146E+03  0.17200000000E+03 0.  1.
</event>
<event>
 4    1  0.1244074E+000  0.2045389E+03  0.7818608E-02  0.1145965E+00
         21   -1    0    0  501  502  0.00000000000E+00  0.00000000000E+00  0.67726660265E+02  0.67726660265E+02  0.00000000000E+00 0.  1.
         21   -1    0    0  502  503 -0.00000000000E+00 -0.00000000000E+00 -0.15794387260E+04  0.15794387260E+04  0.00000000000E+00 0.  1.
          6    1    1    2  501    0 -0.41885918117E+02 -0.10245839195E+03 -0.11319831912E+03  0.23377341951E+03  0.17200000000E+03 0.  1.
         -6    1    1    2    0  503  0.41885918117E+02  0.10245839195E+03 -0.13985137467E+04  0.14133919668E+04  0.17200000000E+03 0.  1.
</event>
<event>
 4    1  0.1244074E+000  0.1919596E+03  0.7818608E-02  0.1156706E+00
         21   -1    0    0  501  502  0.00000000000E+00  0.00000000000E+00  0.13946211281E+03  0.13946211281E+03  0.00000000000E+00 0.  1.
         21   -1    0    0  502  503 -0.00000000000E+00 -0.00000000000E+00 -0.27099894387E+03  0.27099894387E+03  0.00000000000E+00 0.  1.
          6    1    1    2  501    0 -0.84673316077E+02  0.97419221777E+01 -0.33305612151E+02  0.19482746034E+03  0.17200000000E+03 0. -1.
         -6    1    1    2    0  503  0.84673316077E+02 -0.97419221777E+01 -0.98231218910E+02  0.21563359634E+03  0.17200000000E+03 0. -1.
</event>
<event>
 4    1  0.1244074E+000  0.2644416E+03  0.7818608E-02  0.1104504E+00
         21   -1    0    0  503  502  0.00000000000E+00  0.00000000000E+00  0.10298249114E+04  0.10298249114E+04  0.00000000000E+00 0. -1.
         21   -1    0    0  501  503 -0.00000000000E+00 -0.00000000000E+00 -0.84700230753E+02  0.84700230753E+02  0.00000000000E+00 0.  1.
          6    1    1    2  501    0  0.32749308165E+02  0.19817376161E+03  0.22440798053E+03  0.34682603521E+03  0.17200000000E+03 0.  1.
         -6    1    1    2    0  502 -0.32749308165E+02 -0.19817376161E+03  0.72071670014E+03  0.76769910697E+03  0.17200000000E+03 0.  1.
</event>
<event>
 4    1  0.1244074E+000  0.1762414E+03  0.7818608E-02  0.1171491E+00
         21   -1    0    0  501  502  0.00000000000E+00  0.00000000000E+00  0.24084018350E+03  0.24084018350E+03  0.00000000000E+00 0. -1.
         21   -1    0    0  502  503 -0.00000000000E+00 -0.00000000000E+00 -0.21528760073E+03  0.21528760073E+03  0.00000000000E+00 0. -1.
          6    1    1    2  501    0 -0.17120663982E+02 -0.34408174141E+02  0.15718651640E+03  0.23615384926E+03  0.17200000000E+03 0. -1.
         -6    1    1    2    0  503  0.17120663982E+02  0.34408174141E+02 -0.13163393363E+03  0.21997393497E+03  0.17200000000E+03 0. -1.
</event>
<event>
 4    1  0.1244074E+000  0.2230191E+03  0.7818608E-02  0.1131652E+00
         21   -1    0    0  503  502  0.00000000000E+00  0.00000000000E+00  0.36676612718E+03  0.36676612718E+03  0.00000000000E+00 0.  1.
         21   -1    0    0  501  503 -0.00000000000E+00 -0.00000000000E+00 -0.24211606157E+03  0.24211606157E+03  0.00000000000E+00 0.  1.
          6    1    1    2  501    0  0.10983892725E+03  0.89938573193E+02 -0.13959365308E+03  0.26310439918E+03  0.17200000000E+03 0.  1.
         -6    1    1    2    0  502 -0.10983892725E+03 -0.89938573193E+02  0.26424371870E+03  0.34577778957E+03  0.17200000000E+03 0.  1.
</event>
<event>
 4    1  0.1244074E+000  0.1813163E+03  0.7818608E-02  0.1166535E+00
         21   -1    0    0  503  502  0.00000000000E+00  0.00000000000E+00  0.91554143056E+02  0.91554143056E+02  0.00000000000E+00 0.  1.
         21   -1    0    0  501  503 -0.00000000000E+00 -0.00000000000E+00 -0.37681424144E+03  0.37681424144E+03  0.00000000000E+00 0.  1.
          6    1    1    2  501    0  0.57109191046E+02  0.54896139934E+01 -0.91831001226E+02  0.20324499588E+03  0.17200000000E+03 0. -1.
         -6    1    1    2    0  502 -0.57109191046E+02 -0.54896139934E+01 -0.19342909716E+03  0.26512338861E+03  0.17200000000E+03 0. -1.
</event>
<event>
 4    1  0.1244074E+000  0.2708240E+03  0.7818608E-02  0.1100809E+00
         21   -1    0    0  503  502  0.00000000000E+00  0.00000000000E+00  0.37297090896E+03  0.37297090896E+03  0.00000000000E+00 0.  1.
         21   -1    0    0  501  503 -0.00000000000E+00 -0.00000000000E+00 -0.19965901037E+03  0.19965901037E+03  0.00000000000E+00 0. -1.
          6    1    1    2  501    0  0.16076574005E+03 -0.13385069788E+03  0.12179067653E+03  0.29694881947E+03  0.17200000000E+03 0.  1.
         -6    1    1    2    0  502 -0.16076574005E+03  0.13385069788E+03  0.51521222062E+02  0.27568109986E+03  0.17200000000E+03 0. -1.
</event>
<event>
 4    1  0.1244074E+000  0.2294500E+03  0.7818608E-02  0.1127027E+00
         21   -1    0    0  503  502  0.00000000000E+00  0.00000000000E+00  0.78274468779E+02  0.78274468779E+02  0.00000000000E+00 0.  1.
         21   -1    0    0  501  503 -0.00000000000E+00 -0.00000000000E+00 -0.85976313326E+03  0.85976313326E+03  0.00000000000E+00 0. -1.
          6    1    1    2  501    0  0.12431540620E+03  0.87229493138E+02 -0.60957718561E+03  0.65133067632E+03  0.17200000000E+03 0. -1.
         -6    1    1    2    0  502 -0.12431540620E+03 -0.87229493138E+02 -0.17191147887E+03  0.28670692573E+03  0.17200000000E+03 0.  1.
</event>
<event>
 4    1  0.1244074E+000  0.2017337E+03  0.7818608E-02  0.1148284E+00
         21   -1    0    0  503  502  0.00000000000E+00  0.00000000000E+00  0.19354070178E+03  0.19354070178E+03  0.00000000000E+00 0.  1.
         21   -1    0    0  501  503 -0.00000000000E+00 -0.00000000000E+00 -0.22983800682E+03  0.22983800682E+03  0.00000000000E+00 0.  1.
          6    1    1    2  501    0 -0.93258113309E+02  0.49146764927E+02 -0.79910827153E+02  0.21698437846E+03  0.17200000000E+03 0.  1.
         -6    1    1    2    0  502  0.93258113309E+02 -0.49146764927E+02  0.43613522121E+02  0.20639433014E+03  0.17200000000E+03 0.  1.
</event>
<event>
 4    1  0.1244074E+000  0.2377945E+03  0.7818608E-02  0.1121271E+00
         21   -1    0    0  503  502  0.00000000000E+00  0.00000000000E+00  0.93995363901E+03  0.93995363901E+03  0.00000000000E+00 0. -1.
         21   -1    0    0  501  503 -0.00000000000E+00 -0.00000000000E+00 -0.64608963663E+02  0.64608963663E+02  0.00000000000E+00 0. -1.
          6    1    1    2  501    0  0.15687027074E+03 -0.48517540408E+02  0.30584618969E+03  0.38741208721E+03  0.17200000000E+03 0. -1.
         -6    1    1    2    0  502 -0.15687027074E+03  0.48517540408E+02  0.56949848565E+03  0.61715051546E+03  0.17200000000E+03 0. -1.
</event>
<event>
 4    1  0.1244074E+000  0.1809758E+03  0.7818608E-02  0.1166862E+00
         21   -1    0    0  501  502  0.00000000000E+00  0.00000000000E+00  0.41917518374E+02  0.41917518374E+02  0.00000000000E+00 0. -1.
         21   -1    0    0  502  503 -0.00000000000E+00 -0.00000000000E+00 -0.88668025721E+03  0.88668025721E+03  0.00000000000E+00 0. -1.
          6    1    1    2  501    0 -0.25490616854E+02  0.50184207112E+02 -0.26235482989E+03  0.31871975614E+03  0.17200000000E+03 0.  1.
         -6    1    1    2    0  503  0.25490616854E+02 -0.50184207112E+02 -0.58240790895E+03  0.60987801944E+03  0.17200000000E+03 0.  1.
</event>
<event>
 4    1  0.1244074E+000  0.2316591E+03  0.7818608E-02  0.1125477E+00
         21   -1    0    0  501  502  0.00000000000E+00  0.00000000000E+00  0.74106976225E+03  0.74106976225E+03  0.00000000000E+00 0.  1.
         21   -1    0    0  502  503 -0.00000000000E+00 -0.00000000000E+00 -0.98981646459E+02  0.98981646459E+02  0.00000000000E+00 0.  1.
          6    1    1    2  501    0  0.13305044504E+03 -0.79871883565E+02  0.53864048920E+03  0.58634419526E+03  0.17200000000E+03 0.  1.
         -6    1    1    2    0  503 -0.13305044504E+03  0.79871883565E+02  0.10344762660E+03  0.25370721345E+03  0.17200000000E+03 0.  1.
</event>
<event>
 4    1  0.1244074E+000  0.2077013E+03  0.7818608E-02  0.1143399E+00
         21   -1    0    0  503  502  0.00000000000E+00  0.00000000000E+00  0.57148603745E+03  0.57148603745E+03  0.00000000000E+00 0. -1.
         21   -1    0    0  501  503 -0.00000000000E+00 -0.00000000000E+00 -0.10327899679E+03  0.10327899679E+03  0.00000000000E+00 0.  1.
          6    1    1    2  501    0 -0.91485125605E+02  0.72015916978E+02  0.59088345585E+02  0.21594270789E+03  0.17200000000E+03 0.  1.
         -6    1    1    2    0  502  0.91485125605E+02 -0.72015916978E+02  0.40911869508E+03  0.45882232636E+03  0.17200000000E+03 0. -1.
</event>
<event>
 4    1  0.1244074E+000  0.1930694E+03  0.7818608E-02  0.1155722E+00
         21   -1    0    0  503  502  0.00000000000E+00  0.00000000000E+00  0.34604820436E+03  0.34604820436E+03  0.00000000000E+00 0.  1.
         21   -1    0    0  501  503 -0.00000000000E+00 -0.00000000000E+00 -0.19636172479E+03  0.19636172479E+03  0.00000000000E+00 0.  1.
          6    1    1    2  501    0  0.70768031785E+02  0.51804107397E+02  0.25706157993E+03  0.32149095748E+03  0.17200000000E+03 0.  1.
         -6    1    1    2    0  502 -0.70768031785E+02 -0.51804107397E+02 -0.10737510036E+03  0.22091897167E+03  0.17200000000E+03 0.  1.
</event>
<event>
 4    1  0.1244074E+000  0.2208029E+03  0.7818608E-02  0.1133286E+00
         21   -1    0    0  501  502  0.00000000000E+00  0.00000000000E+00  0.55680719823E+03  0.55680719823E+03  0.00000000000E+00 0.  1.
         21   -1    0    0  502  503 -0.00000000000E+00 -0.00000000000E+00 -0.87995969093E+02  0.87995969093E+02  0.00000000000E+00 0.  1.
          6    1    1    2  501    0  0.46247275533E+02  0.13050326849E+03  0.25710453188E+03  0.33890508095E+03  0.17200000000E+03 0. -1.
         -6    1    1    2    0  503 -0.46247275533E+02 -0.13050326849E+03  0.21170669726E+03  0.30589808638E+03  0.17200000000E+03 0. -1.
</event>
<event>
 4    1  0.1244074E+000  0.1742081E+03  0.7818608E-02  0.1173529E+00
         21   -1    0    0  501  502  0.00000000000E+00  0.00000000000E+00  0.24746977651E+02  0.24746977651E+02  0.00000000000E+00 0. -1.
         21   -1    0    0  502  503 -0.00000000000E+00 -0.00000000000E+00 -0.12697422079E+04  0.12697422079E+04  0.00000000000E+00 0. -1.
          6    1    1    2  501    0  0.26911346951E+02 -0.63443318696E+01 -0.50284740276E+03  0.53216912876E+03  0.17200000000E+03 0. -1.
         -6    1    1    2    0  503 -0.26911346951E+02  0.63443318696E+01 -0.74214782751E+03  0.76232005681E+03  0.17200000000E+03 0. -1.
</event>
<event>
 4    1  0.1244074E+000  0.1906904E+03  0.7818608E-02  0.1157840E+00
         21   -1    0    0  503  502  0.00000000000E+00  0.00000000000E+00  0.77826500989E+02  0.77826500989E+02  0.00000000000E+00 0. -1.
         21   -1    0    0  501  503 -0.00000000000E+00 -0.00000000000E+00 -0.47356710636E+03  0.47356710636E+03  0.00000000000E+00 0. -1.
          6    1    1    2  501    0 -0.20420423336E+02  0.79761205539E+02 -0.16597690740E+03  0.25280660076E+03  0.17200000000E+03 0. -1.
         -6    1    1    2    0  502  0.20420423336E+02 -0.79761205539E+02 -0.22976369797E+03  0.29858700659E+03  0.17200000000E+03 0. -1.
</event>
<event>
 4    1  0.1244074E+000  0.2363892E+03  0.7818608E-02  0.1122222E+00
         21   -1    0    0  501  502  0.00000000000E+00  0.00000000000E+00  0.27132286542E+03  0.27132286542E+03  0.00000000000E+00 0. -1.
         21   -1    0    0  502  503 -0.00000000000E+00 -0.00000000000E+00 -0.21255968043E+03  0.21255968043E+03  0.00000000000E+00 0. -1.
          6    1    1    2  501    0  0.43356243401E+02 -0.15625651550E+03  0.72034488408E+02  0.24712108368E+03  0.17200000000E+03 0. -1.
         -6    1    1    2    0  503 -0.43356243401E+02  0.15625651550E+03 -0.13271303419E+02  0.23676146218E+03  0.17200000000E+03 0. -1.
</event>
<event>
 4    1  0.1244074E+000  0.3814527E+03  0.7818608E-02  0.1050398E+00
         21   -1    0    0  501  502  0.00000000000E+00  0.00000000000E+00  0.45359083237E+03  0.45359083237E+03  0.00000000000E+00 0.  1.
         21   -1    0    0  502  503 -0.00000000000E+00 -0.00000000000E+00 -0.33203346338E+03  0.33203346338E+03  0.00000000000E+00 0. -1.
          6    1    1    2  501    0  0.32945874256E+03 -0.85901708072E+02 -0.11514388206E+02  0.38162645038E+03  0.17200000000E+03 0. -1.
         -6    1    1    2    0  503 -0.32945874256E+03  0.85901708072E+02  0.13307175720E+03  0.40399784537E+03  0.17200000000E+03 0.  1.
</event>
<event>
 4    1  0.1244074E+000  0.2214048E+03  0.7818608E-02  0.1132840E+00
         21   -1    0    0  503  502  0.00000000000E+00  0.00000000000E+00  0.99148171444E+02  0.99148171444E+02  0.00000000000E+00 0.  1.
         21   -1    0    0  501  503 -0.00000000000E+00 -0.00000000000E+00 -0.69046954238E+03  0.69046954238E+03  0.00000000000E+00 0.  1.
          6    1    1    2  501    0  0.88023584073E+02  0.10811075975E+03 -0.50604140299E+03  0.55235675905E+03  0.17200000000E+03 0.  1.
         -6    1    1    2    0  502 -0.88023584073E+02 -0.10811075975E+03 -0.85279967945E+02  0.23726095477E+03  0.17200000000E+03 0.  1.
</event>
<event>
 4    1  0.1244074E+000  0.3231980E+03  0.7818608E-02  0.1074187E+00
         21   -1    0    0  501  502  0.00000000000E+00  0.00000000000E+00  0.14577020333E+03  0.14577020333E+03  0.00000000000E+00 0. -1.
         21   -1    0    0  502  503 -0.00000000000E+00 -0.00000000000E+00 -0.79536883045E+03  0.79536883045E+03  0.00000000000E+00 0. -1.
          6    1    1    2  501    0  0.17057613975E+03 -0.21395499658E+03 -0.17669970364E+03  0.36834731610E+03  0.17200000000E+03 0. -1.
         -6    1    1    2    0  503 -0.17057613975E+03  0.21395499658E+03 -0.47289892348E+03  0.57279171768E+03  0.17200000000E+03 0. -1.
</event>
<event>
 4    1  0.1244074E+000  0.2246092E+03  0.7818608E-02  0.1130493E+00
         21   -1    0    0  503  502  0.00000000000E+00  0.00000000000E+00  0.14062943513E+03  0.14062943513E+03  0.00000000000E+00 0. -1.
         21   -1    0    0  501  503 -0.00000000000E+00 -0.00000000000E+00 -0.48229696392E+03  0.48229696392E+03  0.00000000000E+00 0.  1.
          6    1    1    2  501    0 -0.14333983363E+03 -0.17860190556E+02 -0.32848030896E+03  0.39793040558E+03  0.17200000000E+03 0.  1.
         -6    1    1    2    0  502  0.14333983363E+03  0.17860190556E+02 -0.13187219830E+02  0.22499599347E+03  0.17200000000E+03 0. -1.
</event>
<event>
 4    1  0.1244074E+000  0.2198778E+03  0.7818608E-02  0.1133974E+00
         21   -1    0    0  501  502  0.00000000000E+00  0.00000000000E+00  0.89017956971E+02  0.89017956971E+02  0.00000000000E+00 0.  1.
         21   -1    0    0  502  503 -0.00000000000E+00 -0.00000000000E+00 -0.59614115756E+03  0.59614115756E+03  0.00000000000E+00 0. -1.
          6    1    1    2  501    0 -0.48743089986E+02 -0.12800929027E+03 -0.35574141513E+03  0.41820834719E+03  0.17200000000E+03 0. -1.
         -6    1    1    2    0  503  0.48743089986E+02  0.12800929027E+03 -0.15138178545E+03  0.26695076734E+03  0.17200000000E+03 0.  1.
</event>
<event>
 4    1  0.1244074E+000  0.1912973E+03  0.7818608E-02  0.1157296E+00
         21   -1    0    0  503  502  0.00000000000E+00  0.00000000000E+00  0.50283319169E+03  0.50283319169E+03  0.00000000000E+00 0.  1.
         21   -1    0    0  501  503 -0.00000000000E+00 -0.00000000000E+00 -0.12764831557E+03  0.12764831557E+03  0.00000000000E+00 0.  1.
          6    1    1    2  501    0  0.83262227401E+02 -0.88354916334E+01 -0.19091967422E+02  0.19224767266E+03  0.17200000000E+03 0.  1.
         -6    1    1    2    0  502 -0.83262227401E+02  0.88354916334E+01  0.39427684355E+03  0.43823383459E+03  0.17200000000E+03 0.  1.
</event>
<event>
 4    1  0.1244074E+000  0.2121702E+03  0.7818608E-02  0.1139859E+00
         21   -1    0    0  503  502  0.00000000000E+00  0.00000000000E+00  0.32138451839E+03  0.32138451839E+03  0.00000000000E+00 0. -1.
         21   -1    0    0  501  503 -0.00000000000E+00 -0.00000000000E+00 -0.14404912747E+03  0.14404912747E+03  0.00000000000E+00 0. -1.
          6    1    1    2  501    0 -0.27522135955E+02 -0.12113922738E+03  0.49987228609E+02  0.21797913524E+03  0.17200000000E+03 0.  1.
         -6    1    1    2    0  502  0.27522135955E+02  0.12113922738E+03  0.12734816232E+03  0.24745451062E+03  0.17200000000E+03 0.  1.
</event>
<event>
 4    1  0.1244074E+000  0.2122467E+03  0.7818608E-02  0.1139799E+00
         21   -1    0    0  503  502  0.00000000000E+00  0.00000000000E+00  0.26517915481E+03  0.26517915481E+03  0.00000000000E+00 0.  1.
         21   -1    0    0  501  503 -0.00000000000E+00 -0.00000000000E+00 -0.22754146351E+03  0.22754146351E+03  0.00000000000E+00 0.  1.
          6    1    1    2  501    0 -0.71776437152E+02 -0.10155201886E+03 -0.10519860665E+03  0.23688692726E+03  0.17200000000E+03 0.  1.
         -6    1    1    2    0  502  0.71776437152E+02  0.10155201886E+03  0.14283629795E+03  0.25583369105E+03  0.17200000000E+03 0.  1.
</event>
<event>
 4    1  0.1244074E+000  0.1860287E+03  0.7818608E-02  0.1162093E+00
         21   -1    0    0  503  502  0.00000000000E+00  0.00000000000E+00  0.46010954504E+02  0.46010954504E+02  0.00000000000E+00 0.  1.
         21   -1    0    0  501  503 -0.00000000000E+00 -0.00000000000E+00 -0.10589755620E+04  0.10589755620E+04  0.00000000000E+00 0. -1.
          6    1    1    2  501    0 -0.65548647593E+02  0.26945240894E+02 -0.80387957891E+03  0.82512365655E+03  0.17200000000E+03 0. -1.
         -6    1    1    2    0  502  0.65548647593E+02 -0.26945240894E+02 -0.20908502862E+03  0.27986285999E+03  0.17200000000E+03 0.  1.
</event>
<event>
 4    1  0.1244074E+000  0.2544011E+03  0.7818608E-02  0.1110555E+00
         21   -1    0    0  501  502  0.00000000000E+00  0.00000000000E+00  0.19604866282E+03  0.19604866282E+03  0.00000000000E+00 0. -1.
         21   -1    0    0  502  503 -0.00000000000E+00 -0.00000000000E+00 -0.59864518400E+03  0.59864518400E+03  0.00000000000E+00 0.  1.
          6    1    1    2  501    0  0.17987368398E+03 -0.52738572783E+02  0.64821008280E+02  0.26252935524E+03  0.17200000000E+03 0. -1.
         -6    1    1    2    0  503 -0.17987368398E+03  0.52738572783E+02 -0.46741752946E+03  0.53216449158E+03  0.17200000000E+03 0.  1.
</event>
<event>
 4    1  0.1244074E+000  0.2158932E+03  0.7818608E-02  0.1136982E+00
         21   -1    0    0  501  502  0.00000000000E+00  0.00000000000E+00  0.48569074340E+02  0.48569074340E+02  0.00000000000E+00 0.  1.
         21   -1    0    0  502  503 -0.00000000000E+00 -0.00000000000E+00 -0.12940576780E+04  0.12940576780E+04  0.00000000000E+00 0. -1.
          6    1    1    2  501    0 -0.58714819852E+02  0.11652652901E+03 -0.28148912160E+03  0.35474778028E+03  0.17200000000E+03 0.  1.
         -6    1    1    2    0  503  0.58714819852E+02 -0.11652652901E+03 -0.96399948208E+03  0.98787897208E+03  0.17200000000E+03 0.  1.
</event>
<event>
 4    1  0.1244074E+000  0.2027581E+03  0.7818608E-02  0.1147433E+00
         21   -1    0    0  503  502  0.00000000000E+00  0.00000000000E+00  0.11553563220E+04  0.11553563220E+04  0.00000000000E+00 0. -1.
         21   -1    0    0  501  503 -0.00000000000E+00 -0.00000000000E+00 -0.23056518771E+03  0.23056518771E+03  0.00000000000E+00 0. -1.
          6    1    1    2  501    0 -0.10433324647E+03  0.25326589947E+02 -0.17485380507E+03  0.26774001499E+03  0.17200000000E+03 0. -1.
         -6    1    1    2    0  502  0.10433324647E+03 -0.25326589947E+02  0.10996449394E+04  0.11181814947E+04  0.17200000000E+03 0. -1.
</event>
<event>
 4    1  0.1244074E+000  0.1885756E+03  0.7818608E-02  0.1159752E+00
         21   -1    0    0  503  502  0.00000000000E+00  0.00000000000E+00  0.35469953351E+03  0.35469953351E+03  0.00000000000E+00 0. -1.
         21   -1    0    0  501  503 -0.00000000000E+00 -0.00000000000E+00 -0.10115663325E+03  0.10115663325E+03  0.00000000000E+00 0.  1.
          6    1    1    2  501    0 -0.12044620903E+02 -0.76365379412E+02  0.10526429101E+03  0.21596600433E+03  0.17200000000E+03 0. -1.
         -6    1    1    2    0  502  0.12044620903E+02  0.76365379412E+02  0.14827860926E+03  0.23989016243E+03  0.17200000000E+03 0.  1.
</event>
<event>
 4    1  0.1244074E+000  0.2005170E+03  0.7818608E-02  0.1149304E+00
         21   -1    0    0  501  502  0.00000000000E+00  0.00000000000E+00  0.37137219608E+03  0.37137219608E+03  0.00000000000E+00 0. -1.
         21   -1    0    0  502  503 -0.00000000000E+00 -0.00000000000E+00 -0.11086701774E+03  0.11086701774E+03  0.00000000000E+00 0. -1.
          6    1    1    2  501    0 -0.75835616569E+02  0.69800011396E+02  0.16718268939E+03  0.26106921297E+03  0.17200000000E+03 0. -1.
         -6    1    1    2    0  503  0.75835616569E+02 -0.69800011396E+02  0.93322488947E+02  0.22117000085E+03  0.17200000000E+03 0. -1.
</event>
<event>
 4    1  0.1244074E+000  0.3243106E+03  0.7818608E-02  0.1073682E+00
         21   -1    0    0  503  502  0.00000000000E+00  0.00000000000E+00  0.41731695410E+03  0.41731695410E+03  0.00000000000E+00 0.  1.
         21   -1    0    0  501  503 -0.00000000000E+00 -0.00000000000E+00 -0.40176349787E+03  0.40176349787E+03  0.00000000000E+00 0. -1.
          6    1    1    2  501    0  0.25492567874E+03  0.10298661952E+03 -0.24223909693E+03  0.40479269456E+03  0.17200000000E+03 0. -1.
         -6    1    1    2    0  502 -0.25492567874E+03 -0.10298661952E+03  0.25779255316E+03  0.41428775742E+03  0.17200000000E+03 0. -1.
</event>
<event>
 4    1  0.1244074E+000  0.2330886E+03  0.7818608E-02  0.1124485E+00
         21   -1    0    0  501  502  0.00000000000E+00  0.00000000000E+00  0.27773637088E+03  0.27773637088E+03  0.00000000000E+00 0.  1.
         21   -1    0    0  502  503 -0.00000000000E+00 -0.00000000000E+00 -0.26077725685E+03  0.26077725685E+03  0.00000000000E+00 0.  1.
          6    1    1    2  501    0 -0.15608153750E+03 -0.19617196682E+02  0.14307158567E+03  0.27349544673E+03  0.17200000000E+03 0.  1.
         -6    1    1    2    0  503  0.15608153750E+03  0.19617196682E+02 -0.12611247165E+03  0.26501818100E+03  0.17200000000E+03 0.  1.
</event>
<event>
 4    1  0.1244074E+000  0.2025013E+03  0.7818608E-02  0.1147646E+00
         21   -1    0    0  503  502  0.00000000000E+00  0.00000000000E+00  0.44381131703E+03  0.44381131703E+03  0.00000000000E+00 0.  1.
         21   -1    0    0  501  503 -0.00000000000E+00 -0.00000000000E+00 -0.97340932437E+02  0.97340932437E+02  0.00000000000E+00 0. -1.
          6    1    1    2  501    0 -0.30473790531E+02  0.10244075824E+03  0.11225549714E+03  0.23153413894E+03  0.17200000000E+03 0. -1.
         -6    1    1    2    0  502  0.30473790531E+02 -0.10244075824E+03  0.23421488745E+03  0.30961811052E+03  0.17200000000E+03 0.  1.
</event>
<event>
 4    1  0.1244074E+000  0.2128327E+03  0.7818608E-02  0.1139342E+00
         21   -1    0    0  503  502  0.00000000000E+00  0.00000000000E+00  0.13143336649E+04  0.13143336649E+04  0.00000000000E+00 0.  1.
         21   -1    0    0  501  503 -0.00000000000E+00 -0.00000000000E+00 -0.37720111642E+02  0.37720111642E+02  0.00000000000E+00 0. -1.
          6    1    1    2  501    0  0.58397221536E+02 -0.11092126909E+03  0.83691549408E+03  0.86355388231E+03  0.17200000000E+03 0.  1.
         -6    1    1    2    0  502 -0.58397221536E+02  0.11092126909E+03  0.43969805917E+03  0.48849989423E+03  0.17200000000E+03 0. -1.
</event>
<event>
 4    1  0.1244074E+000  0.3930190E+03  0.7818608E-02  0.1046224E+00
         21   -1    0    0  501  502  0.00000000000E+00  0.00000000000E+00  0.25532866575E+03  0.25532866575E+03  0.00000000000E+00 0.  1.
         21   -1    0    0  502  503 -0.00000000000E+00 -0.00000000000E+00 -0.61353349182E+03  0.61353349182E+03  0.00000000000E+00 0. -1.
          6    1    1    2  501    0 -0.84156665456E+02  0.34321650504E+03 -0.23045383101E+03  0.45560167021E+03  0.17200000000E+03 0.  1.
         -6    1    1    2    0  503  0.84156665456E+02 -0.34321650504E+03 -0.12775099506E+03  0.41326048736E+03  0.17200000000E+03 0.  1.
</event>
<event>
 4    1  0.1244074E+000  0.1883968E+03  0.7818608E-02  0.1159915E+00
         21   -1    0    0  501  502  0.00000000000E+00  0.00000000000E+00  0.10203361590E+03  0.10203361590E+03  0.00000000000E+00 0. -1.
         21   -1    0    0  502  503 -0.00000000000E+00 -0.00000000000E+00 -0.34795659591E+03  0.34795659591E+03  0.00000000000E+00 0. -1.
          6    1    1    2  501    0 -0.60818660849E+02 -0.47015542708E+02 -0.11920456754E+03  0.22294191998E+03  0.17200000000E+03 0. -1.
         -6    1    1    2    0  503  0.60818660849E+02  0.47015542708E+02 -0.12671841247E+03  0.22704829183E+03  0.17200000000E+03 0. -1.
</event>
<event>
 4    1  0.1244074E+000  0.2419548E+03  0.7818608E-02  0.1118497E+00
         21   -1    0    0  503  502  0.00000000000E+00  0.00000000000E+00  0.75855802020E+03  0.75855802020E+03  0.00000000000E+00 0.  1.
         21   -1    0    0  501  503 -0.00000000000E+00 -0.00000000000E+00 -0.85484797852E+02  0.85484797852E+02  0.00000000000E+00 0. -1.
          6    1    1    2  501    0 -0.16450938878E+03  0.43529314692E+02  0.20496244514E+03  0.31709895010E+03  0.17200000000E+03 0. -1.
         -6    1    1    2    0  502  0.16450938878E+03 -0.43529314692E+02  0.46811077721E+03  0.52694386795E+03  0.17200000000E+03 0. -1.
</event>
<event>
 4    1  0.1244074E+000  0.1980369E+03  0.7818608E-02  0.1151406E+00
         21   -1    0    0  501  502  0.00000000000E+00  0.00000000000E+00  0.23699937045E+03  0.23699937045E+03  0.00000000000E+00 0. -1.
         21   -1    0    0  502  503 -0.00000000000E+00 -0.00000000000E+00 -0.19990626909E+03  0.19990626909E+03  0.00000000000E+00 0. -1.
          6    1    1    2  501    0  0.28351693729E+02 -0.93972272711E+02  0.10920133691E+03  0.22614937223E+03  0.17200000000E+03 0. -1.
         -6    1    1    2    0  503 -0.28351693729E+02  0.93972272711E+02 -0.72108235559E+02  0.21075626731E+03  0.17200000000E+03 0. -1.
</event>
<event>
 4    1  0.1244074E+000  0.1976246E+03  0.7818608E-02  0.1151759E+00
         21   -1    0    0  503  502  0.00000000000E+00  0.00000000000E+00  0.53695201241E+03  0.53695201241E+03  0.00000000000E+00 0.  1.
         21   -1    0    0  501  503 -0.00000000000E+00 -0.00000000000E+00 -0.11092570467E+03  0.11092570467E+03  0.00000000000E+00 0.  1.
          6    1    1    2  501    0 -0.26089138674E+02  0.93759566769E+02  0.22939176507E+02  0.19895151504E+03  0.17200000000E+03 0.  1.
         -6    1    1    2    0  502  0.26089138674E+02 -0.93759566769E+02  0.40308713123E+03  0.44892620204E+03  0.17200000000E+03 0.  1.
</event>
<event>
 4    1  0.1244074E+000  0.2201408E+03  0.7818608E-02  0.1133778E+00
         21   -1    0    0  501  502  0.00000000000E+00  0.00000000000E+00  0.75681264129E+02  0.75681264129E+02  0.00000000000E+00 0. -1.
         21   -1    0    0  502  503 -0.00000000000E+00 -0.00000000000E+00 -0.15289778966E+04  0.15289778966E+04  0.00000000000E+00 0. -1.
          6    1    1    2  501    0  0.12917422431E+03 -0.46818709005E+02 -0.11498297962E+03  0.24836074034E+03  0.17200000000E+03 0. -1.
         -6    1    1    2    0  503 -0.12917422431E+03  0.46818709005E+02 -0.13383136528E+04  0.13562984204E+04  0.17200000000E+03 0. -1.
</event>
<event>
 4    1  0.1244074E+000  0.4257424E+03  0.7818608E-02  0.1035213E+00
         21   -1    0    0  503  502  0.00000000000E+00  0.00000000000E+00  0.14766067486E+03  0.14766067486E+03  0.00000000000E+00 0. -1.
         21   -1    0    0  501  503 -0.00000000000E+00 -0.00000000000E+00 -0.13694691489E+04  0.13694691489E+04  0.00000000000E+00 0.  1.
          6    1    1    2  501    0 -0.24851173421E+03  0.29985746977E+03 -0.85512435634E+03  0.95524564852E+03  0.17200000000E+03 0. -1.
         -6    1    1    2    0  502  0.24851173421E+03 -0.29985746977E+03 -0.36668411773E+03  0.56188417526E+03  0.17200000000E+03 0. -1.
</event>
<event>
 4    1  0.1244074E+000  0.2301001E+03  0.7818608E-02  0.1126569E+00
         21   -1    0    0  501  502  0.00000000000E+00  0.00000000000E+00  0.21921892295E+03  0.21921892295E+03  0.00000000000E+00 0.  1.
         21   -1    0    0  502  503 -0.00000000000E+00 -0.00000000000E+00 -0.31419272628E+03  0.31419272628E+03  0.00000000000E+00 0.  1.
          6    1    1    2  501    0  0.14915137720E+03  0.33405500541E+02  0.80780407931E+02  0.24386786400E+03  0.17200000000E+03 0.  1.
         -6    1    1    2    0  503 -0.14915137720E+03 -0.33405500541E+02 -0.17575421126E+03  0.28954378523E+03  0.17200000000E+03 0.  1.
</event>
<event>
 4    1  0.1244074E+000  0.2040818E+03  0.7818608E-02  0.1146340E+00
         21   -1    0    0  503  502  0.00000000000E+00  0.00000000000E+00  0.29691740885E+03  0.29691740885E+03  0.00000000000E+00 0.  1.
         21   -1    0    0  501  503 -0.00000000000E+00 -0.00000000000E+00 -0.20280209812E+03  0.20280209812E+03  0.00000000000E+00 0.  1.
          6    1    1    2  501    0 -0.21243634557E+02  0.10776867418E+03 -0.91682613188E+02  0.22372992805E+03  0.17200000000E+03 0.  1.
         -6    1    1    2    0  502  0.21243634557E+02 -0.10776867418E+03  0.18579792392E+03  0.27598957893E+03  0.17200000000E+03 0.  1.
</event>
<event>
 4    1  0.1244074E+000  0.2238633E+03  0.7818608E-02  0.1131035E+00
         21   -1    0    0  503  502  0.00000000000E+00  0.00000000000E+00  0.11537714941E+03  0.11537714941E+03  0.00000000000E+00 0.  1.
         21   -1    0    0  501  503 -0.00000000000E+00 -0.00000000000E+00 -0.44573307912E+03  0.44573307912E+03  0.00000000000E+00 0.  1.
          6    1    1    2  501    0 -0.12190189773E+03  0.75304182880E+02 -0.12035606402E+03  0.25416603781E+03  0.17200000000E+03 0. -1.
         -6    1    1    2    0  502  0.12190189773E+03 -0.75304182880E+02 -0.20999986569E+03  0.30694419072E+03  0.17200000000E+03 0. -1.
</event>
<event>
 4    1  0.1244074E+000  0.1998415E+03  0.7818608E-02  0.1149873E+00
         21   -1    0    0  503  502  0.00000000000E+00  0.00000000000E+00  0.86433791081E+03  0.86433791081E+03  0.00000000000E+00 0.  1.
         21   -1    0    0  501  503 -0.00000000000E+00 -0.00000000000E+00 -0.46298937685E+02  0.46298937685E+02  0.00000000000E+00 0.  1.
          6    1    1    2  501    0  0.63378602491E+02  0.79597492032E+02  0.42954453345E+03  0.47375638699E+03  0.17200000000E+03 0. -1.
         -6    1    1    2    0  502 -0.63378602491E+02 -0.79597492032E+02  0.38849443968E+03  0.43688046151E+03  0.17200000000E+03 0. -1.
</event>
<event>
 4    1  0.1244074E+000  0.1822267E+03  0.7818608E-02  0.1165665E+00
         21   -1    0    0  503  502  0.00000000000E+00  0.00000000000E+00  0.93066605160E+02  0.93066605160E+02  0.00000000000E+00 0.  1.
         21   -1    0    0  501  503 -0.00000000000E+00 -0.00000000000E+00 -0.39581434626E+03  0.39581434626E+03  0.00000000000E+00 0.  1.
          6    1    1    2  501    0  0.55318213663E+01 -0.59932913267E+02 -0.22811287692E+03  0.29196239442E+03  0.17200000000E+03 0.  1.
         -6    1    1    2    0  502 -0.55318213663E+01  0.59932913267E+02 -0.74634864187E+02  0.19691855700E+03  0.17200000000E+03 0.  1.
</event>
<event>
 4    1  0.1244074E+000  0.1721671E+03  0.7818608E-02  0.1175607E+00
         21   -1    0    0  501  502  0.00000000000E+00  0.00000000000E+00  0.41873233125E+03  0.41873233125E+03  0.00000000000E+00 0. -1.
         21   -1    0    0  502  503 -0.00000000000E+00 -0.00000000000E+00 -0.13754253963E+03  0.13754253963E+03  0.00000000000E+00 0. -1.
          6    1    1    2  501    0 -0.41961427474E+01  0.63178961656E+01  0.33436153424E+03  0.37608397866E+03  0.17200000000E+03 0. -1.
         -6    1    1    2    0  503  0.41961427474E+01 -0.63178961656E+01 -0.53171742614E+02  0.18019089222E+03  0.17200000000E+03 0. -1.
</event>
<event>
 4    1  0.1244074E+000  0.1806686E+03  0.7818608E-02  0.1167158E+00
         21   -1    0    0  501  502  0.00000000000E+00  0.00000000000E+00  0.25521001015E+02  0.25521001015E+02  0.00000000000E+00 0.  1.
         21   -1    0    0  502  503 -0.00000000000E+00 -0.00000000000E+00 -0.12805080094E+04  0.12805080094E+04  0.00000000000E+00 0.  1.
          6    1    1    2  501    0  0.49626545868E+02  0.24378948664E+02 -0.60501616075E+03  0.63141561745E+03  0.17200000000E+03 0.  1.
         -6    1    1    2    0  503 -0.49626545868E+02 -0.24378948664E+02 -0.64997084765E+03  0.67461339298E+03  0.17200000000E+03 0.  1.
</event>
<event>
 4    1  0.1244074E+000  0.1792621E+03  0.7818608E-02  0.1168519E+00
         21   -1    0    0  501  502  0.00000000000E+00  0.00000000000E+00  0.70097526615E+03  0.70097526615E+03  0.00000000000E+00 0. -1.
         21   -1    0    0  502  503 -0.00000000000E+00 -0.00000000000E+00 -0.18522388778E+03  0.18522388778E+03  0.00000000000E+00 0. -1.
          6    1    1    2  501    0  0.48298150326E+02 -0.14771617230E+02  0.64224988292E+03  0.66679818845E+03  0.17200000000E+03 0. -1.
         -6    1    1    2    0  503 -0.48298150326E+02  0.14771617230E+02 -0.12649850455E+03  0.21940096548E+03  0.17200000000E+03 0. -1.
</event>
<event>
 4    1  0.1244074E+000  0.2857496E+03  0.7818608E-02  0.1092589E+00
         21   -1    0    0  501  502  0.00000000000E+00  0.00000000000E+00  0.26669140899E+03  0.26669140899E+03  0.00000000000E+00 0.  1.
         21   -1    0    0  502  503 -0.00000000000E+00 -0.00000000000E+00 -0.53718142705E+03  0.53718142705E+03  0.00000000000E+00 0.  1.
          6    1    1    2  501    0  0.19911495880E+03  0.11145424260E+03  0.12833588406E+03  0.31324577276E+03  0.17200000000E+03 0.  1.
         -6    1    1    2    0  503 -0.19911495880E+03 -0.11145424260E+03 -0.39882590213E+03  0.49062706328E+03  0.17200000000E+03 0.  1.
</event>
<event>
 4    1  0.1244074E+000  0.3815965E+03  0.7818608E-02  0.1050345E+00
         21   -1    0    0  501  502  0.00000000000E+00  0.00000000000E+00  0.16555972925E+04  0.16555972925E+04  0.00000000000E+00 0. -1.
         21   -1    0    0  502  503 -0.00000000000E+00 -0.00000000000E+00 -0.97359804607E+02  0.97359804607E+02  0.00000000000E+00 0.  1.
          6    1    1    2  501    0 -0.40245731509E+02 -0.33824870428E+03  0.10515496564E+04  0.11186476589E+04  0.17200000000E+03 0.  1.
         -6    1    1    2    0  503  0.40245731509E+02  0.33824870428E+03  0.50668783153E+03  0.63430943827E+03  0.17200000000E+03 0.  1.
</event>
<event>
 4    1  0.1244074E+000  0.1787729E+03  0.7818608E-02  0.1168996E+00
         21   -1    0    0  503  502  0.00000000000E+00  0.00000000000E+00  0.92890229138E+03  0.92890229138E+03  0.00000000000E+00 0.  1.
         21   -1    0    0  501  503 -0.00000000000E+00 -0.00000000000E+00 -0.35338584072E+02  0.35338584072E+02  0.00000000000E+00 0.  1.
          6    1    1    2  501    0 -0.25465988118E+02 -0.41560065249E+02  0.36845887963E+03  0.40953840059E+03  0.17200000000E+03 0. -1.
         -6    1    1    2    0  502  0.25465988118E+02  0.41560065249E+02  0.52510482767E+03  0.55470247486E+03  0.17200000000E+03 0. -1.
</event>
<event>
 4    1  0.1244074E+000  0.1892098E+03  0.7818608E-02  0.1159176E+00
         21   -1    0    0  503  502  0.00000000000E+00  0.00000000000E+00  0.80047970401E+02  0.80047970401E+02  0.00000000000E+00 0. -1.
         21   -1    0    0  501  503 -0.00000000000E+00 -0.00000000000E+00 -0.44775097397E+03  0.44775097397E+03  0.00000000000E+00 0. -1.
          6    1    1    2  501    0  0.73358406425E+02 -0.28894305054E+02 -0.17490198950E+03  0.25766459320E+03  0.17200000000E+03 0. -1.
         -6    1    1    2    0  502 -0.73358406425E+02  0.28894305054E+02 -0.19280101407E+03  0.27013435118E+03  0.17200000000E+03 0. -1.
</event>
<event>
 4    1  0.1244074E+000  0.1991407E+03  0.7818608E-02  0.1150466E+00
         21   -1    0    0  501  502  0.00000000000E+00  0.00000000000E+00  0.28185009293E+03  0.28185009293E+03  0.00000000000E+00 0.  1.
         21   -1    0    0  502  503 -0.00000000000E+00 -0.00000000000E+00 -0.14384137275E+03  0.14384137275E+03  0.00000000000E+00 0.  1.
          6    1    1    2  501    0  0.16073326163E+01 -0.10035163051E+03  0.10044597512E+03  0.22303907098E+03  0.17200000000E+03 0. -1.
         -6    1    1    2    0  503 -0.16073326163E+01  0.10035163051E+03  0.37562745064E+02  0.20265239471E+03  0.17200000000E+03 0. -1.
</event>
<event>
 4    1  0.1244074E+000  0.2608156E+03  0.7818608E-02  0.1106654E+00
         21   -1    0    0  501  502  0.00000000000E+00  0.00000000000E+00  0.10291535278E+03  0.10291535278E+03  0.00000000000E+00 0.  1.
         21   -1    0    0  502  503 -0.00000000000E+00 -0.00000000000E+00 -0.80094138732E+03  0.80094138732E+03  0.00000000000E+00 0.  1.
          6    1    1    2  501    0 -0.18716318047E+03 -0.58401288564E+02 -0.16009354565E+03  0.30603057035E+03  0.17200000000E+03 0.  1.
         -6    1    1    2    0  503  0.18716318047E+03  0.58401288564E+02 -0.53793248889E+03  0.59782616974E+03  0.17200000000E+03 0.  1.
</event>
<event>
 4    1  0.1244074E+000  0.2558888E+03  0.7818608E-02  0.1109639E+00
         21   -1    0    0  503  502  0.00000000000E+00  0.00000000000E+00  0.20144603988E+03  0.20144603988E+03  0.00000000000E+00 0. -1.
         21   -1    0    0  501  503 -0.00000000000E+00 -0.00000000000E+00 -0.35487776425E+03  0.35487776425E+03  0.00000000000E+00 0. -1.
          6    1    1    2  501    0  0.13322964937E+03 -0.13470311989E+03  0.39339732706E+01  0.25591902259E+03  0.17200000000E+03 0. -1.
         -6    1    1    2    0  502 -0.13322964937E+03  0.13470311989E+03 -0.15736569764E+03  0.30040478154E+03  0.17200000000E+03 0. -1.
</event>
<event>
 4    1  0.1244074E+000  0.1844001E+03  0.7818608E-02  0.1163611E+00
         21   -1    0    0  501  502  0.00000000000E+00  0.00000000000E+00  0.44437353830E+03  0.44437353830E+03  0.00000000000E+00 0. -1.
         21   -1    0    0  502  503 -0.00000000000E+00 -0.00000000000E+00 -0.78194162250E+02  0.78194162250E+02  0.00000000000E+00 0. -1.
          6    1    1    2  501    0 -0.29847667568E+02  0.59401328216E+02  0.22132303329E+03  0.28807513971E+03  0.17200000000E+03 0.  1.
         -6    1    1    2    0  503  0.29847667568E+02 -0.59401328216E+02  0.14485634276E+03  0.23449256084E+03  0.17200000000E+03 0.  1.
</event>
<event>
 4    1  0.1244074E+000  0.1929902E+03  0.7818608E-02  0.1155792E+00
         21   -1    0    0  501  502  0.00000000000E+00  0.00000000000E+00  0.58312894526E+03  0.58312894526E+03  0.00000000000E+00 0. -1.
         21   -1    0    0  502  503 -0.00000000000E+00 -0.00000000000E+00 -0.78186205045E+02  0.78186205045E+02  0.00000000000E+00 0. -1.
          6    1    1    2  501    0  0.67752427118E+01  0.87265857981E+02  0.11098752219E+03  0.22262853358E+03  0.17200000000E+03 0. -1.
         -6    1    1    2    0  503 -0.67752427118E+01 -0.87265857981E+02  0.39395521803E+03  0.43868661673E+03  0.17200000000E+03 0. -1.
</event>
<event>
 4    1  0.1244074E+000  0.1932486E+03  0.7818608E-02  0.1155564E+00
         21   -1    0    0  501  502  0.00000000000E+00  0.00000000000E+00  0.65576771859E+03  0.65576771859E+03  0.00000000000E+00 0.  1.
         21   -1    0    0  502  503 -0.00000000000E+00 -0.00000000000E+00 -0.59226136072E+02  0.59226136072E+02  0.00000000000E+00 0.  1.
          6    1    1    2  501    0 -0.87848259138E+02 -0.66108213371E+01  0.36837646625E+03  0.41598826965E+03  0.17200000000E+03 0.  1.
         -6    1    1    2    0  503  0.87848259138E+02  0.66108213371E+01  0.22816511627E+03  0.29900558502E+03  0.17200000000E+03 0.  1.
</event>
<event>
 4    1  0.1244074E+000  0.1859568E+03  0.7818608E-02  0.1162159E+00
         21   -1    0    0  501  502  0.00000000000E+00  0.00000000000E+00  0.60681234789E+02  0.60681234789E+02  0.00000000000E+00 0. -1.
         21   -1    0    0  502  503 -0.00000000000E+00 -0.00000000000E+00 -0.58206310051E+03  0.58206310051E+03  0.00000000000E+00 0. -1.
          6    1    1    2  501    0  0.16167852062E+02 -0.68807821290E+02 -0.30722027028E+03  0.35911587292E+03  0.17200000000E+03 0. -1.
         -6    1    1    2    0  503 -0.16167852062E+02  0.68807821290E+02 -0.21416159545E+03  0.28362846238E+03  0.17200000000E+03 0. -1.
</event>
<event>
 4    1  0.1244074E+000  0.2521420E+03  0.7818608E-02  0.1111959E+00
         21   -1    0    0  501  502  0.00000000000E+00  0.00000000000E+00  0.68446441932E+03  0.68446441932E+03  0.00000000000E+00 0.  1.
         21   -1    0    0  502  503 -0.00000000000E+00 -0.00000000000E+00 -0.13141975860E+03  0.13141975860E+03  0.00000000000E+00 0.  1.
          6    1    1    2  501    0 -0.18406519362E+03 -0.10563501840E+02  0.49742545989E+03  0.55768061758E+03  0.17200000000E+03 0.  1.
         -6    1    1    2    0  503  0.18406519362E+03  0.10563501840E+02  0.55619200819E+02  0.25820356034E+03  0.17200000000E+03 0.  1.
</event>
<event>
 4    1  0.1244074E+000  0.2285622E+03  0.7818608E-02  0.1127656E+00
         21   -1    0    0  503  502  0.00000000000E+00  0.00000000000E+00  0.47441530422E+03  0.47441530422E+03  0.00000000000E+00 0.  1.
         21   -1    0    0  501  503 -0.00000000000E+00 -0.00000000000E+00 -0.11497695873E+03  0.11497695873E+03  0.00000000000E+00 0. -1.
          6    1    1    2  501    0 -0.64580658828E+02 -0.13596334439E+03  0.11912481721E+03  0.25774292345E+03  0.17200000000E+03 0.  1.
         -6    1    1    2    0  502  0.64580658828E+02  0.13596334439E+03  0.24031352829E+03  0.33164933950E+03  0.17200000000E+03 0.  1.
</event>
<event>
 4    1  0.1244074E+000  0.1924711E+03  0.7818608E-02  0.1156251E+00
         21   -1    0    0  503  502  0.00000000000E+00  0.00000000000E+00  0.81460513066E+02  0.81460513066E+02  0.00000000000E+00 0.  1.
         21   -1    0    0  501  503 -0.00000000000E+00 -0.00000000000E+00 -0.67485911272E+03  0.67485911272E+03  0.00000000000E+00 0.  1.
          6    1    1    2  501    0 -0.61519880815E+02  0.60633495529E+02 -0.51266080417E+03  0.54760041696E+03  0.17200000000E+03 0. -1.
         -6    1    1    2    0  502  0.61519880815E+02 -0.60633495529E+02 -0.80737795481E+02  0.20871920883E+03  0.17200000000E+03 0. -1.
</event>
<event>
 4    1  0.1244074E+000  0.5435462E+03  0.7818608E-02  0.1002999E+00
         21   -1    0    0  501  502  0.00000000000E+00  0.00000000000E+00  0.13848056451E+04  0.13848056451E+04  0.00000000000E+00 0. -1.
         21   -1    0    0  502  503 -0.00000000000E+00 -0.00000000000E+00 -0.21425786774E+03  0.21425786774E+03  0.00000000000E+00 0. -1.
          6    1    1    2  501    0 -0.51122880703E+03  0.67108539625E+02  0.53310829703E+03  0.76134545745E+03  0.17200000000E+03 0. -1.
         -6    1    1    2    0  503  0.51122880703E+03 -0.67108539625E+02  0.63743948032E+03  0.83771805537E+03  0.17200000000E+03 0. -1.
</event>
<event>
 4    1  0.1244074E+000  0.2423004E+03  0.7818608E-02  0.1118270E+00
         21   -1    0    0  503  502  0.00000000000E+00  0.00000000000E+00  0.17630867902E+03  0.17630867902E+03  0.00000000000E+00 0.  1.
         21   -1    0    0  501  503 -0.00000000000E+00 -0.00000000000E+00 -0.45190811725E+03  0.45190811725E+03  0.00000000000E+00 0.  1.
          6    1    1    2  501    0  0.13586472355E+03  0.10327770208E+03 -0.29892864784E+03  0.38479584633E+03  0.17200000000E+03 0.  1.
         -6    1    1    2    0  502 -0.13586472355E+03 -0.10327770208E+03  0.23329209618E+02  0.24342094994E+03  0.17200000000E+03 0.  1.
</event>
<event>
 4    1  0.1244074E+000  0.1856831E+03  0.7818608E-02  0.1162414E+00
         21   -1    0    0  503  502  0.00000000000E+00  0.00000000000E+00  0.39546585277E+03  0.39546585277E+03  0.00000000000E+00 0. -1.
         21   -1    0    0  501  503 -0.00000000000E+00 -0.00000000000E+00 -0.15790646927E+03  0.15790646927E+03  0.00000000000E+00 0. -1.
          6    1    1    2  501    0 -0.49238949968E+02  0.49696374485E+02 -0.66388715549E+02  0.19719448619E+03  0.17200000000E+03 0. -1.
         -6    1    1    2    0  502  0.49238949968E+02 -0.49696374485E+02  0.30394809905E+03  0.35617783585E+03  0.17200000000E+03 0. -1.
</event>
<event>
 4    1  0.1244074E+000  0.1864640E+03  0.7818608E-02  0.1161690E+00
         21   -1    0    0  501  502  0.00000000000E+00  0.00000000000E+00  0.86775461053E+03  0.86775461053E+03  0.00000000000E+00 0. -1.
         21   -1    0    0  502  503 -0.00000000000E+00 -0.00000000000E+00 -0.47908769919E+02  0.47908769919E+02  0.00000000000E+00 0. -1.
          6    1    1    2  501    0  0.51170695862E+02 -0.50659595058E+02  0.59514343652E+03  0.62367022112E+03  0.17200000000E+03 0.  1.
         -6    1    1    2    0  503 -0.51170695862E+02  0.50659595058E+02  0.22470240409E+03  0.29199315932E+03  0.17200000000E+03 0.  1.
</event>
<event>
 4    1  0.1244074E+000  0.3258607E+03  0.7818608E-02  0.1072983E+00
         21   -1    0    0  501  502  0.00000000000E+00  0.00000000000E+00  0.10560787745E+04  0.10560787745E+04  0.00000000000E+00 0. -1.
         21   -1    0    0  502  503 -0.00000000000E+00 -0.00000000000E+00 -0.10609221874E+03  0.10609221874E+03  0.00000000000E+00 0.  1.
          6    1    1    2  501    0  0.11404462247E+03 -0.25218052738E+03  0.34214042221E+03  0.47248837320E+03  0.17200000000E+03 0. -1.
         -6    1    1    2    0  503 -0.11404462247E+03  0.25218052738E+03  0.60784613356E+03  0.68968262004E+03  0.17200000000E+03 0.  1.
</event>
<event>
 4    1  0.1244074E+000  0.2010908E+03  0.7818608E-02  0.1148822E+00
         21   -1    0    0  501  502  0.00000000000E+00  0.00000000000E+00  0.12244995019E+04  0.12244995019E+04  0.00000000000E+00 0. -1.
         21   -1    0    0  502  503 -0.00000000000E+00 -0.00000000000E+00 -0.44308440227E+02  0.44308440227E+02  0.00000000000E+00 0. -1.
          6    1    1    2  501    0  0.85381440685E+02 -0.59695171560E+02  0.91025654667E+03  0.93220410033E+03  0.17200000000E+03 0. -1.
         -6    1    1    2    0  503 -0.85381440685E+02  0.59695171560E+02  0.26993451501E+03  0.33660384180E+03  0.17200000000E+03 0. -1.
</event>
<event>
 4    1  0.1244074E+000  0.2124976E+03  0.7818608E-02  0.1139603E+00
         21   -1    0    0  501  502  0.00000000000E+00  0.00000000000E+00  0.65434093486E+03  0.65434093486E+03  0.00000000000E+00 0. -1.
         21   -1    0    0  502  503 -0.00000000000E+00 -0.00000000000E+00 -0.18140499238E+03  0.18140499238E+03  0.00000000000E+00 0. -1.
          6    1    1    2  501    0  0.70447258920E+02  0.10299715649E+03  0.56539200627E+03  0.60400608547E+03  0.17200000000E+03 0. -1.
         -6    1    1    2    0  503 -0.70447258920E+02 -0.10299715649E+03 -0.92456063792E+02  0.23173984177E+03  0.17200000000E+03 0. -1.
</event>
<event>
 4    1  0.1244074E+000  0.1771215E+03  0.7818608E-02  0.1170618E+00
         21   -1    0    0  501  502  0.00000000000E+00  0.00000000000E+00  0.24924217057E+02  0.24924217057E+02  0.00000000000E+00 0. -1.
         21   -1    0    0  502  503 -0.00000000000E+00 -0.00000000000E+00 -0.14995953465E+04  0.14995953465E+04  0.00000000000E+00 0. -1.
          6    1    1    2  501    0 -0.18161588772E+01  0.42245895234E+02 -0.43181973974E+03  0.46673365180E+03  0.17200000000E+03 0. -1.
         -6    1    1    2    0  503  0.18161588772E+01 -0.42245895234E+02 -0.10428513897E+04  0.10577859117E+04  0.17200000000E+03 0. -1.
</event>
<event>
 4    1  0.1244074E+000  0.1976566E+03  0.7818608E-02  0.1151731E+00
         21   -1    0    0  503  502  0.00000000000E+00  0.00000000000E+00  0.52947316648E+03  0.52947316648E+03  0.00000000000E+00 0.  1.
         21   -1    0    0  501  503 -0.00000000000E+00 -0.00000000000E+00 -0.78629656314E+02  0.78629656314E+02  0.00000000000E+00 0. -1.
          6    1    1    2  501    0  0.93529092432E+02  0.27137308269E+02  0.14996378189E+03  0.24810735682E+03  0.17200000000E+03 0. -1.
         -6    1    1    2    0  502 -0.93529092432E+02 -0.27137308269E+02  0.30087972828E+03  0.35999546597E+03  0.17200000000E+03 0.  1.
</event>
<event>
 4    1  0.1244074E+000  0.2313705E+03  0.7818608E-02  0.1125679E+00
         21   -1    0    0  503  502  0.00000000000E+00  0.00000000000E+00  0.30731002008E+03  0.30731002008E+03  0.00000000000E+00 0. -1.
         21   -1    0    0  501  503 -0.00000000000E+00 -0.00000000000E+00 -0.26384054301E+03  0.26384054301E+03  0.00000000000E+00 0. -1.
          6    1    1    2  501    0  0.11965362207E+02 -0.15428917699E+03 -0.14472555002E+03  0.27290621989E+03  0.17200000000E+03 0. -1.
         -6    1    1    2    0  502 -0.11965362207E+02  0.15428917699E+03  0.18819502709E+03  0.29824434320E+03  0.17200000000E+03 0. -1.
</event>
<event>
 4    1  0.1244074E+000  0.1865655E+03  0.7818608E-02  0.1161596E+00
         21   -1    0    0  501  502  0.00000000000E+00  0.00000000000E+00  0.26919711329E+03  0.26919711329E+03  0.00000000000E+00 0.  1.
         21   -1    0    0  502  503 -0.00000000000E+00 -0.00000000000E+00 -0.14594920769E+03  0.14594920769E+03  0.00000000000E+00 0.  1.
          6    1    1    2  501    0 -0.24550187417E+01  0.72226311123E+02 -0.84880359269E+01  0.18675843726E+03  0.17200000000E+03 0. -1.
         -6    1    1    2    0  503  0.24550187417E+01 -0.72226311123E+02  0.13173594153E+03  0.22838788371E+03  0.17200000000E+03 0. -1.
</event>
<event>
 4    1  0.1244074E+000  0.5664290E+03  0.7818608E-02  0.9977612E-01
         21   -1    0    0  503  502  0.00000000000E+00  0.00000000000E+00  0.10367777155E+04  0.10367777155E+04  0.00000000000E+00 0.  1.
         21   -1    0    0  501  503 -0.00000000000E+00 -0.00000000000E+00 -0.38242329907E+03  0.38242329907E+03  0.00000000000E+00 0. -1.
          6    1    1    2  501    0  0.30407881237E+03  0.44586308449E+03  0.17226734163E+02  0.56669089865E+03  0.17200000000E+03 0. -1.
         -6    1    1    2    0  502 -0.30407881237E+03 -0.44586308449E+03  0.63712768226E+03  0.85251011592E+03  0.17200000000E+03 0.  1.
</event>
<event>
 4    1  0.1244074E+000  0.1759266E+03  0.7818608E-02  0.1171805E+00
         21   -1    0    0  501  502  0.00000000000E+00  0.00000000000E+00  0.67202916887E+02  0.67202916887E+02  0.00000000000E+00 0.  1.
         21   -1    0    0  502  503 -0.00000000000E+00 -0.00000000000E+00 -0.60066903412E+03  0.60066903412E+03  0.00000000000E+00 0.  1.
          6    1    1    2  501    0  0.16298902070E+02  0.33174116543E+02 -0.10544690430E+03  0.20510783955E+03  0.17200000000E+03 0. -1.
         -6    1    1    2    0  503 -0.16298902070E+02 -0.33174116543E+02 -0.42801921292E+03  0.46276411145E+03  0.17200000000E+03 0. -1.
</event>
<event>
 4    1  0.1244074E+000  0.1798878E+03  0.7818608E-02  0.1167912E+00
         21   -1    0    0  501  502  0.00000000000E+00  0.00000000000E+00  0.20252296491E+03  0.20252296491E+03  0.00000000000E+00 0. -1.
         21   -1    0    0  502  503 -0.00000000000E+00 -0.00000000000E+00 -0.16359869705E+03  0.16359869705E+03  0.00000000000E+00 0. -1.
          6    1    1    2  501    0 -0.52668686833E+02  0.12801790667E+01  0.47421018451E+02  0.18603328310E+03  0.17200000000E+03 0.  1.
         -6    1    1    2    0  503  0.52668686833E+02 -0.12801790667E+01 -0.84967505897E+01  0.18008837886E+03  0.17200000000E+03 0.  1.
</event>
<event>
 4    1  0.1244074E+000  0.2563714E+03  0.7818608E-02  0.1109343E+00
         21   -1    0    0  503  502  0.00000000000E+00  0.00000000000E+00  0.27723036010E+03  0.27723036010E+03  0.00000000000E+00 0.  1.
         21   -1    0    0  501  503 -0.00000000000E+00 -0.00000000000E+00 -0.25753001481E+03  0.25753001481E+03  0.00000000000E+00 0. -1.
          6    1    1    2  501    0 -0.42003044762E+02  0.18541311365E+03  0.85193149968E+02  0.27015579076E+03  0.17200000000E+03 0.  1.
         -6    1    1    2    0  502  0.42003044762E+02 -0.18541311365E+03 -0.65492804681E+02  0.26460458414E+03  0.17200000000E+03 0. -1.
</event>
<event>
 4    1  0.1244074E+000  0.1917030E+03  0.7818608E-02  0.1156934E+00
         21   -1    0    0  503  502  0.00000000000E+00  0.00000000000E+00  0.68462533175E+02  0.68462533175E+02  0.00000000000E+00 0. -1.
         21   -1    0    0  501  503 -0.00000000000E+00 -0.00000000000E+00 -0.54895847877E+03  0.54895847877E+03  0.00000000000E+00 0. -1.
          6    1    1    2  501    0 -0.19488797532E+01  0.84629999372E+02 -0.28620919100E+03  0.34447893396E+03  0.17200000000E+03 0.  1.
         -6    1    1    2    0  502  0.19488797532E+01 -0.84629999372E+02 -0.19428675459E+03  0.27294207799E+03  0.17200000000E+03 0.  1.
</event>
<event>
 4    1  0.1244074E+000  0.1847410E+03  0.7818608E-02  0.1163292E+00
         21   -1    0    0  503  502  0.00000000000E+00  0.00000000000E+00  0.17006243511E+03  0.17006243511E+03  0.00000000000E+00 0. -1.
         21   -1    0    0  501  503 -0.00000000000E+00 -0.00000000000E+00 -0.20157136039E+03  0.20157136039E+03  0.00000000000E+00 0. -1.
          6    1    1    2  501    0  0.21334213810E+02  0.63953799629E+02 -0.34431353680E+01  0.18477308339E+03  0.17200000000E+03 0.  1.
         -6    1    1    2    0  502 -0.21334213810E+02 -0.63953799629E+02 -0.28065789915E+02  0.18686071211E+03  0.17200000000E+03 0.  1.
</event>
<event>
 4    1  0.1244074E+000  0.1898513E+03  0.7818608E-02  0.1158595E+00
         21   -1    0    0  501  502  0.00000000000E+00  0.00000000000E+00  0.33393862729E+03  0.33393862729E+03  0.00000000000E+00 0. -1.
         21   -1    0    0  502  503 -0.00000000000E+00 -0.00000000000E+00 -0.11852483914E+03  0.11852483914E+03  0.00000000000E+00 0. -1.
          6    1    1    2  501    0  0.63539519010E+02 -0.49216487824E+02  0.17533101901E+03  0.25842697107E+03  0.17200000000E+03 0. -1.
         -6    1    1    2    0  503 -0.63539519010E+02  0.49216487824E+02  0.40082769146E+02  0.19403649536E+03  0.17200000000E+03 0. -1.
</event>
<event>
 4    1  0.1244074E+000  0.1873115E+03  0.7818608E-02  0.1160909E+00
         21   -1    0    0  501  502  0.00000000000E+00  0.00000000000E+00  0.64651851800E+03  0.64651851800E+03  0.00000000000E+00 0. -1.
         21   -1    0    0  502  503 -0.00000000000E+00 -0.00000000000E+00 -0.71675204217E+02  0.71675204217E+02  0.00000000000E+00 0. -1.
          6    1    1    2  501    0  0.67254767866E+02  0.31279136530E+02  0.11045744225E+03  0.21745444288E+03  0.17200000000E+03 0. -1.
         -6    1    1    2    0  503 -0.67254767866E+02 -0.31279136530E+02  0.46438587153E+03  0.50073927933E+03  0.17200000000E+03 0. -1.
</event>
<event>
 4    1  0.1244074E+000  0.1941624E+03  0.7818608E-02  0.1154760E+00
         21   -1    0    0  503  502  0.00000000000E+00  0.00000000000E+00  0.12093708345E+04  0.12093708345E+04  0.00000000000E+00 0. -1.
         21   -1    0    0  501  503 -0.00000000000E+00 -0.00000000000E+00 -0.29201807548E+03  0.29201807548E+03  0.00000000000E+00 0. -1.
          6    1    1    2  501    0  0.65480276769E+02 -0.61865685551E+02 -0.25081992035E+03  0.31719026173E+03  0.17200000000E+03 0. -1.
         -6    1    1    2    0  502 -0.65480276769E+02  0.61865685551E+02  0.11681726793E+04  0.11841986482E+04  0.17200000000E+03 0. -1.
</event>
<event>
 4    1  0.1244074E+000  0.1922139E+03  0.7818608E-02  0.1156480E+00
         21   -1    0    0  501  502  0.00000000000E+00  0.00000000000E+00  0.31691618882E+03  0.31691618882E+03  0.00000000000E+00 0.  1.
         21   -1    0    0  502  503 -0.00000000000E+00 -0.00000000000E+00 -0.96379353316E+03  0.96379353316E+03  0.00000000000E+00 0.  1.
          6    1    1    2  501    0 -0.78713427158E+02 -0.34152050582E+02  0.27693976600E+03  0.33710799481E+03  0.17200000000E+03 0.  1.
         -6    1    1    2    0  503  0.78713427158E+02  0.34152050582E+02 -0.92381711033E+03  0.94360172717E+03  0.17200000000E+03 0.  1.
</event>
<event>
 4    1  0.1244074E+000  0.2014129E+03  0.7818608E-02  0.1148552E+00
         21   -1    0    0  503  502  0.00000000000E+00  0.00000000000E+00  0.79557132098E+03  0.79557132098E+03  0.00000000000E+00 0. -1.
         21   -1    0    0  501  503 -0.00000000000E+00 -0.00000000000E+00 -0.56292148946E+02  0.56292148946E+02  0.00000000000E+00 0. -1.
          6    1    1    2  501    0 -0.90732276114E+01  0.10440707308E+03  0.50034442274E+03  0.53936231026E+03  0.17200000000E+03 0.  1.
         -6    1    1    2    0  502  0.90732276114E+01 -0.10440707308E+03  0.23893474929E+03  0.31250115966E+03  0.17200000000E+03 0.  1.
</event>
<event>
 4    1  0.1244074E+000  0.2895377E+03  0.7818608E-02  0.1090591E+00
         21   -1    0    0  503  502  0.00000000000E+00  0.00000000000E+00  0.34805792353E+03  0.34805792353E+03  0.00000000000E+00 0. -1.
         21   -1    0    0  501  503 -0.00000000000E+00 -0.00000000000E+00 -0.31386806598E+03  0.31386806598E+03  0.00000000000E+00 0.  1.
          6    1    1    2  501    0 -0.11234460465E+03 -0.20402633330E+03 -0.14253023216E+03  0.32271802236E+03  0.17200000000E+03 0.  1.
         -6    1    1    2    0  502  0.11234460465E+03  0.20402633330E+03  0.17672008971E+03  0.33920796716E+03  0.17200000000E+03 0. -1.
</event>
<event>
 4    1  0.1244074E+000  0.1880549E+03  0.7818608E-02  0.1160228E+00
         21   -1    0    0  503  502  0.00000000000E+00  0.00000000000E+00  0.38527369441E+03  0.38527369441E+03  0.00000000000E+00 0.  1.
         21   -1    0    0  501  503 -0.00000000000E+00 -0.00000000000E+00 -0.12215998581E+03  0.12215998581E+03  0.00000000000E+00 0.  1.
          6    1    1    2  501    0  0.70362629800E+02  0.28804998061E+02  0.50539460278E+01  0.18812275236E+03  0.17200000000E+03 0.  1.
         -6    1    1    2    0  502 -0.70362629800E+02 -0.28804998061E+02  0.25805976258E+03  0.31931092785E+03  0.17200000000E+03 0.  1.
</event>
<event>
 4    1  0.1244074E+000  0.2239381E+03  0.7818608E-02  0.1130981E+00
         21   -1    0    0  501  502  0.00000000000E+00  0.00000000000E+00  0.54488331163E+03  0.54488331163E+03  0.00000000000E+00 0.  1.
         21   -1    0    0  502  503 -0.00000000000E+00 -0.00000000000E+00 -0.92140191870E+02  0.92140191870E+02  0.00000000000E+00 0. -1.
          6    1    1    2  501    0  0.87984748031E+02  0.11323848979E+03  0.21560356564E+03  0.31085876049E+03  0.17200000000E+03 0. -1.
         -6    1    1    2    0  503 -0.87984748031E+02 -0.11323848979E+03  0.23713955412E+03  0.32616474301E+03  0.17200000000E+03 0. -1.
</event>
<event>
 4    1  0.1244074E+000  0.4542598E+03  0.7818608E-02  0.1026459E+00
         21   -1    0    0  503  502  0.00000000000E+00  0.00000000000E+00  0.14963132445E+04  0.14963132445E+04  0.00000000000E+00 0.  1.
         21   -1    0    0  501  503 -0.00000000000E+00 -0.00000000000E+00 -0.16909537535E+03  0.16909537535E+03  0.00000000000E+00 0.  1.
          6    1    1    2  501    0  0.40504692904E+03  0.11271640909E+03  0.30598906918E+03  0.54770549939E+03  0.17200000000E+03 0. -1.
         -6    1    1    2    0  502 -0.40504692904E+03 -0.11271640909E+03  0.10212288000E+04  0.11177031205E+04  0.17200000000E+03 0. -1.
</event>
<event>
 4    1  0.1244074E+000  0.1925103E+03  0.7818608E-02  0.1156217E+00
         21   -1    0    0  503  502  0.00000000000E+00  0.00000000000E+00  0.93555710607E+02  0.93555710607E+02  0.00000000000E+00 0.  1.
         21   -1    0    0  501  503 -0.00000000000E+00 -0.00000000000E+00 -0.46935976178E+03  0.46935976178E+03  0.00000000000E+00 0.  1.
          6    1    1    2  501    0 -0.86315220643E+02  0.50883223679E+01 -0.29907636525E+03  0.35567805751E+03  0.17200000000E+03 0.  1.
         -6    1    1    2    0  502  0.86315220643E+02 -0.50883223679E+01 -0.76727685919E+02  0.20723741488E+03  0.17200000000E+03 0.  1.
</event>
<event>
 4    1  0.1244074E+000  0.2220263E+03  0.7818608E-02  0.1132381E+00
         21   -1    0    0  501  502  0.00000000000E+00  0.00000000000E+00  0.29958951988E+03  0.29958951988E+03  0.00000000000E+00 0. -1.
         21   -1    0    0  502  503 -0.00000000000E+00 -0.00000000000E+00 -0.22126039056E+03  0.22126039056E+03  0.00000000000E+00 0.  1.
          6    1    1    2  501    0 -0.71434501257E+02 -0.12086689828E+03  0.17101591406E+03  0.28025370280E+03  0.17200000000E+03 0.  1.
         -6    1    1    2    0  503  0.71434501257E+02  0.12086689828E+03 -0.92686784734E+02  0.24059620765E+03  0.17200000000E+03 0.  1.
</event>
<event>
 4    1  0.1244074E+000  0.2203844E+03  0.7818608E-02  0.1133597E+00
         21   -1    0    0  501  502  0.00000000000E+00  0.00000000000E+00  0.15851382851E+03  0.15851382851E+03  0.00000000000E+00 0. -1.
         21   -1    0    0  502  503 -0.00000000000E+00 -0.00000000000E+00 -0.37722576153E+03  0.37722576153E+03  0.00000000000E+00 0. -1.
          6    1    1    2  501    0  0.13402546240E+03 -0.31975954583E+02  0.67103342612E+01  0.22048654115E+03  0.17200000000E+03 0. -1.
         -6    1    1    2    0  503 -0.13402546240E+03  0.31975954583E+02 -0.22542226729E+03  0.31525304889E+03  0.17200000000E+03 0. -1.
</event>
<event>
 4    1  0.1244074E+000  0.1721534E+03  0.7818608E-02  0.1175621E+00
         21   -1    0    0  501  502  0.00000000000E+00  0.00000000000E+00  0.75796646355E+02  0.75796646355E+02  0.00000000000E+00 0.  1.
         21   -1    0    0  502  503 -0.00000000000E+00 -0.00000000000E+00 -0.39101319684E+03  0.39101319684E+03  0.00000000000E+00 0.  1.
          6    1    1    2  501    0 -0.68886772167E+01 -0.23128778459E+01 -0.15873097564E+03  0.23416303275E+03  0.17200000000E+03 0.  1.
         -6    1    1    2    0  503  0.68886772167E+01  0.23128778459E+01 -0.15648557485E+03  0.23264681045E+03  0.17200000000E+03 0.  1.
</event>
<event>
 4    1  0.1244074E+000  0.1816544E+03  0.7818608E-02  0.1166211E+00
         21   -1    0    0  503  502  0.00000000000E+00  0.00000000000E+00  0.13903256964E+04  0.13903256964E+04  0.00000000000E+00 0. -1.
         21   -1    0    0  501  503 -0.00000000000E+00 -0.00000000000E+00 -0.27903261347E+02  0.27903261347E+02  0.00000000000E+00 0. -1.
          6    1    1    2  501    0 -0.38747070294E+02 -0.43737550705E+02  0.40711282446E+03  0.44580170551E+03  0.17200000000E+03 0. -1.
         -6    1    1    2    0  502  0.38747070294E+02  0.43737550705E+02  0.95530961058E+03  0.97242725222E+03  0.17200000000E+03 0. -1.
</event>
<event>
 4    1  0.1244074E+000  0.2073229E+03  0.7818608E-02  0.1143704E+00
         21   -1    0    0  503  502  0.00000000000E+00  0.00000000000E+00  0.73328555183E+02  0.73328555183E+02  0.00000000000E+00 0. -1.
         21   -1    0    0  501  503 -0.00000000000E+00 -0.00000000000E+00 -0.73065288897E+03  0.73065288897E+03  0.00000000000E+00 0. -1.
          6    1    1    2  501    0 -0.14949602004E+02  0.11478366140E+03 -0.50742333648E+03  0.54814343189E+03  0.17200000000E+03 0. -1.
         -6    1    1    2    0  502  0.14949602004E+02 -0.11478366140E+03 -0.14990099731E+03  0.25583801226E+03  0.17200000000E+03 0. -1.
</event>
<event>
 4    1  0.1244074E+000  0.1985833E+03  0.7818608E-02  0.1150940E+00
         21   -1    0    0  501  502  0.00000000000E+00  0.00000000000E+00  0.34782137347E+03  0.34782137347E+03  0.00000000000E+00 0.  1.
         21   -1    0    0  502  503 -0.00000000000E+00 -0.00000000000E+00 -0.11467940376E+03  0.11467940376E+03  0.00000000000E+00 0.  1.
          6    1    1    2  501    0 -0.90064769619E+02 -0.41709349958E+02  0.91937482925E+02  0.21883288913E+03  0.17200000000E+03 0. -1.
         -6    1    1    2    0  503  0.90064769619E+02  0.41709349958E+02  0.14120448679E+03  0.24366788810E+03  0.17200000000E+03 0. -1.
</event>
<event>
 4    1  0.1244074E+000  0.1760253E+03  0.7818608E-02  0.1171706E+00
         21   -1    0    0  501  502  0.00000000000E+00  0.00000000000E+00  0.12371665473E+03  0.12371665473E+03  0.00000000000E+00 0. -1.
         21   -1    0    0  502  503 -0.00000000000E+00 -0.00000000000E+00 -0.25407816821E+03  0.25407816821E+03  0.00000000000E+00 0. -1.
          6    1    1    2  501    0 -0.37256230015E+02 -0.35894317179E+01 -0.87751714396E+02  0.19668572412E+03  0.17200000000E+03 0.  1.
         -6    1    1    2    0  503  0.37256230015E+02  0.35894317179E+01 -0.42609799082E+02  0.18110909881E+03  0.17200000000E+03 0.  1.
</event>
<event>
 4    1  0.1244074E+000  0.1801172E+03  0.7818608E-02  0.1167690E+00
         21   -1    0    0  503  502  0.00000000000E+00  0.00000000000E+00  0.14075954098E+03  0.14075954098E+03  0.00000000000E+00 0.  1.
         21   -1    0    0  501  503 -0.00000000000E+00 -0.00000000000E+00 -0.24370678828E+03  0.24370678828E+03  0.00000000000E+00 0.  1.
          6    1    1    2  501    0  0.49830274571E+02  0.19368325212E+02 -0.96258352733E+02  0.20422501991E+03  0.17200000000E+03 0.  1.
         -6    1    1    2    0  502 -0.49830274571E+02 -0.19368325212E+02 -0.66888945704E+01  0.18024130935E+03  0.17200000000E+03 0.  1.
</event>
<event>
 4    1  0.1244074E+000  0.2414222E+03  0.7818608E-02  0.1118849E+00
         21   -1    0    0  503  502  0.00000000000E+00  0.00000000000E+00  0.46960614655E+03  0.46960614655E+03  0.00000000000E+00 0. -1.
         21   -1    0    0  501  503 -0.00000000000E+00 -0.00000000000E+00 -0.43708641626E+03  0.43708641626E+03  0.00000000000E+00 0. -1.
          6    1    1    2  501    0  0.32325527405E+01 -0.16938192860E+03 -0.36735855219E+03  0.43958729850E+03  0.17200000000E+03 0. -1.
         -6    1    1    2    0  502 -0.32325527405E+01  0.16938192860E+03  0.39987828248E+03  0.46710526430E+03  0.17200000000E+03 0. -1.
</event>
<event>
 4    1  0.1244074E+000  0.1763138E+03  0.7818608E-02  0.1171419E+00
         21   -1    0    0  501  502  0.00000000000E+00  0.00000000000E+00  0.29009370937E+03  0.29009370937E+03  0.00000000000E+00 0. -1.
         21   -1    0    0  502  503 -0.00000000000E+00 -0.00000000000E+00 -0.76824136977E+03  0.76824136977E+03  0.00000000000E+00 0. -1.
          6    1    1    2  501    0  0.24937135945E+02 -0.29676229755E+02  0.25180205714E+03  0.30739358376E+03  0.17200000000E+03 0. -1.
         -6    1    1    2    0  503 -0.24937135945E+02  0.29676229755E+02 -0.72994971753E+03  0.75094149538E+03  0.17200000000E+03 0. -1.
</event>
<event>
 4    1  0.1244074E+000  0.1741492E+03  0.7818608E-02  0.1173589E+00
         21   -1    0    0  501  502  0.00000000000E+00  0.00000000000E+00  0.16914605195E+04  0.16914605195E+04  0.00000000000E+00 0. -1.
         21   -1    0    0  502  503 -0.00000000000E+00 -0.00000000000E+00 -0.21228241999E+02  0.21228241999E+02  0.00000000000E+00 0. -1.
          6    1    1    2  501    0  0.28744790516E+01  0.27123264469E+02  0.11726605075E+04  0.11855212356E+04  0.17200000000E+03 0. -1.
         -6    1    1    2    0  503 -0.28744790516E+01 -0.27123264469E+02  0.49757176996E+03  0.52716752591E+03  0.17200000000E+03 0. -1.
</event>
<event>
 4    1  0.1244074E+000  0.2248897E+03  0.7818608E-02  0.1130289E+00
         21   -1    0    0  503  502  0.00000000000E+00  0.00000000000E+00  0.11090186137E+03  0.11090186137E+03  0.00000000000E+00 0. -1.
         21   -1    0    0  501  503 -0.00000000000E+00 -0.00000000000E+00 -0.46312822548E+03  0.46312822548E+03  0.00000000000E+00 0.  1.
          6    1    1    2  501    0 -0.34953407294E+02  0.14060448755E+03 -0.21162818035E+03  0.30880713936E+03  0.17200000000E+03 0. -1.
         -6    1    1    2    0  502  0.34953407294E+02 -0.14060448755E+03 -0.14059818376E+03  0.26522294749E+03  0.17200000000E+03 0.  1.
</event>
<event>
 4    1  0.1244074E+000  0.2121935E+03  0.7818608E-02  0.1139841E+00
         21   -1    0    0  503  502  0.00000000000E+00  0.00000000000E+00  0.57890356030E+03  0.57890356030E+03  0.00000000000E+00 0. -1.
         21   -1    0    0  501  503 -0.00000000000E+00 -0.00000000000E+00 -0.78008759716E+02  0.78008759716E+02  0.00000000000E+00 0.  1.
          6    1    1    2  501    0  0.12315195506E+03  0.16603509239E+02  0.23259109987E+03  0.31484075386E+03  0.17200000000E+03 0. -1.
         -6    1    1    2    0  502 -0.12315195506E+03 -0.16603509239E+02  0.26830370071E+03  0.34207156615E+03  0.17200000000E+03 0. -1.
</event>
<event>
 4    1  0.1244074E+000  0.1823845E+03  0.7818608E-02  0.1165515E+00
         21   -1    0    0  503  502  0.00000000000E+00  0.00000000000E+00  0.24554697860E+02  0.24554697860E+02  0.00000000000E+00 0. -1.
         21   -1    0    0  501  503 -0.00000000000E+00 -0.00000000000E+00 -0.21801198045E+04  0.21801198045E+04  0.00000000000E+00 0. -1.
          6    1    1    2  501    0  0.55720233930E+02  0.23986702124E+02 -0.17560692144E+04  0.17655149934E+04  0.17200000000E+03 0. -1.
         -6    1    1    2    0  502 -0.55720233930E+02 -0.23986702124E+02 -0.39949589226E+03  0.43915950893E+03  0.17200000000E+03 0. -1.
</event>
<event>
 4    1  0.1244074E+000  0.1987050E+03  0.7818608E-02  0.1150836E+00
         21   -1    0    0  503  502  0.00000000000E+00  0.00000000000E+00  0.20893043464E+03  0.20893043464E+03  0.00000000000E+00 0. -1.
         21   -1    0    0  501  503 -0.00000000000E+00 -0.00000000000E+00 -0.65073716539E+03  0.65073716539E+03  0.00000000000E+00 0. -1.
          6    1    1    2  501    0 -0.95691068506E+02 -0.27256362248E+02 -0.58298337038E+03  0.61591663398E+03  0.17200000000E+03 0. -1.
         -6    1    1    2    0  502  0.95691068506E+02  0.27256362248E+02  0.14117663963E+03  0.24375096605E+03  0.17200000000E+03 0. -1.
</event>
<event>
 4    1  0.1244074E+000  0.2098997E+03  0.7818608E-02  0.1141645E+00
         21   -1    0    0  503  502  0.00000000000E+00  0.00000000000E+00  0.58525314180E+03  0.58525314180E+03  0.00000000000E+00 0. -1.
         21   -1    0    0  501  503 -0.00000000000E+00 -0.00000000000E+00 -0.81444822495E+02  0.81444822495E+02  0.00000000000E+00 0. -1.
          6    1    1    2  501    0 -0.89363016449E+02  0.80549000203E+02  0.16019226678E+03  0.26404441384E+03  0.17200000000E+03 0.  1.
         -6    1    1    2    0  502  0.89363016449E+02 -0.80549000203E+02  0.34361605252E+03  0.40265355045E+03  0.17200000000E+03 0.  1.
</event>
<event>
 4    1  0.1244074E+000  0.1960785E+03  0.7818608E-02  0.1153090E+00
         21   -1    0    0  503  502  0.00000000000E+00  0.00000000000E+00  0.48094006402E+03  0.48094006402E+03  0.00000000000E+00 0.  1.
         21   -1    0    0  501  503 -0.00000000000E+00 -0.00000000000E+00 -0.85868480879E+02  0.85868480879E+02  0.00000000000E+00 0. -1.
          6    1    1    2  501    0  0.33442208781E+02  0.88002357114E+02  0.12307508831E+03  0.23150437047E+03  0.17200000000E+03 0. -1.
         -6    1    1    2    0  502 -0.33442208781E+02 -0.88002357114E+02  0.27199649483E+03  0.33530417442E+03  0.17200000000E+03 0.  1.
</event>
<event>
 4    1  0.1244074E+000  0.1763230E+03  0.7818608E-02  0.1171410E+00
         21   -1    0    0  503  502  0.00000000000E+00  0.00000000000E+00  0.20995792080E+03  0.20995792080E+03  0.00000000000E+00 0.  1.
         21   -1    0    0  501  503 -0.00000000000E+00 -0.00000000000E+00 -0.18956055868E+03  0.18956055868E+03  0.00000000000E+00 0.  1.
          6    1    1    2  501    0 -0.30876456036E+02 -0.23504160653E+02 -0.83250247861E+02  0.19498821727E+03  0.17200000000E+03 0. -1.
         -6    1    1    2    0  502  0.30876456036E+02  0.23504160653E+02  0.10364760997E+03  0.20453026221E+03  0.17200000000E+03 0. -1.
</event>
<event>
 4    1  0.1244074E+000  0.2107228E+03  0.7818608E-02  0.1140995E+00
         21   -1    0    0  503  502  0.00000000000E+00  0.00000000000E+00  0.19515364317E+03  0.19515364317E+03  0.00000000000E+00 0.  1.
         21   -1    0    0  501  503 -0.00000000000E+00 -0.00000000000E+00 -0.22925511608E+03  0.22925511608E+03  0.00000000000E+00 0.  1.
          6    1    1    2  501    0 -0.10797313394E+03 -0.56230823909E+02  0.13354114136E+01  0.21072704272E+03  0.17200000000E+03 0. -1.
         -6    1    1    2    0  502  0.10797313394E+03  0.56230823909E+02 -0.35436884326E+02  0.21368171653E+03  0.17200000000E+03 0. -1.
</event>
<event>
 4    1  0.1244074E+000  0.1939407E+03  0.7818608E-02  0.1154954E+00
         21   -1    0    0  503  502  0.00000000000E+00  0.00000000000E+00  0.17563949702E+03  0.17563949702E+03  0.00000000000E+00 0. -1.
         21   -1    0    0  501  503 -0.00000000000E+00 -0.00000000000E+00 -0.39886408925E+03  0.39886408925E+03  0.00000000000E+00 0.  1.
          6    1    1    2  501    0 -0.89461789014E+02  0.50564905885E+01 -0.30709203650E+03  0.36320586266E+03  0.17200000000E+03 0.  1.
         -6    1    1    2    0  502  0.89461789014E+02 -0.50564905885E+01  0.83867444273E+02  0.21129772360E+03  0.17200000000E+03 0. -1.
</event>
<event>
 4    1  0.1244074E+000  0.1731675E+03  0.7818608E-02  0.1174584E+00
         21   -1    0    0  501  502  0.00000000000E+00  0.00000000000E+00  0.20527308582E+03  0.20527308582E+03  0.00000000000E+00 0. -1.
         21   -1    0    0  502  503 -0.00000000000E+00 -0.00000000000E+00 -0.18594198464E+03  0.18594198464E+03  0.00000000000E+00 0. -1.
          6    1    1    2  501    0 -0.98233614765E+01  0.17506675148E+02 -0.80898951508E+02  0.19113247359E+03  0.17200000000E+03 0. -1.
         -6    1    1    2    0  503  0.98233614765E+01 -0.17506675148E+02  0.10023005269E+03  0.20008259686E+03  0.17200000000E+03 0. -1.
</event>
<event>
 4    1  0.1244074E+000  0.1924365E+03  0.7818608E-02  0.1156282E+00
         21   -1    0    0  503  502  0.00000000000E+00  0.00000000000E+00  0.28981789795E+03  0.28981789795E+03  0.00000000000E+00 0. -1.
         21   -1    0    0  501  503 -0.00000000000E+00 -0.00000000000E+00 -0.21716486070E+03  0.21716486070E+03  0.00000000000E+00 0.  1.
          6    1    1    2  501    0  0.17904457022E+02 -0.84423010247E+02 -0.12630688922E+03  0.23018523955E+03  0.17200000000E+03 0.  1.
         -6    1    1    2    0  502 -0.17904457022E+02  0.84423010247E+02  0.19895992647E+03  0.27679751910E+03  0.17200000000E+03 0. -1.
</event>
<event>
 4    1  0.1244074E+000  0.2301093E+03  0.7818608E-02  0.1126563E+00
         21   -1    0    0  501  502  0.00000000000E+00  0.00000000000E+00  0.56257087630E+03  0.56257087630E+03  0.00000000000E+00 0.  1.
         21   -1    0    0  502  503 -0.00000000000E+00 -0.00000000000E+00 -0.11963013095E+03  0.11963013095E+03  0.00000000000E+00 0.  1.
          6    1    1    2  501    0  0.13964458099E+03 -0.62174670650E+02  0.37897791331E+03  0.44336729407E+03  0.17200000000E+03 0.  1.
         -6    1    1    2    0  503 -0.13964458099E+03  0.62174670650E+02  0.63962832033E+02  0.23883371318E+03  0.17200000000E+03 0.  1.
</event>
<event>
 4    1  0.1244074E+000  0.2722387E+03  0.7818608E-02  0.1100005E+00
         21   -1    0    0  501  502  0.00000000000E+00  0.00000000000E+00  0.22013127537E+03  0.22013127537E+03  0.00000000000E+00 0.  1.
         21   -1    0    0  502  503 -0.00000000000E+00 -0.00000000000E+00 -0.39596969267E+03  0.39596969267E+03  0.00000000000E+00 0. -1.
          6    1    1    2  501    0 -0.14782955731E+03  0.15058668145E+03  0.31281373926E+02  0.27403001843E+03  0.17200000000E+03 0.  1.
         -6    1    1    2    0  503  0.14782955731E+03 -0.15058668145E+03 -0.20711979122E+03  0.34207094960E+03  0.17200000000E+03 0. -1.
</event>
<event>
 4    1  0.1244074E+000  0.2133604E+03  0.7818608E-02  0.1138932E+00
         21   -1    0    0  503  502  0.00000000000E+00  0.00000000000E+00  0.10917894692E+04  0.10917894692E+04  0.00000000000E+00 0. -1.
         21   -1    0    0  501  503 -0.00000000000E+00 -0.00000000000E+00 -0.44142909455E+02  0.44142909455E+02  0.00000000000E+00 0. -1.
          6    1    1    2  501    0  0.22380037937E+01 -0.12622855863E+03  0.39008695101E+03  0.44462398386E+03  0.17200000000E+03 0. -1.
         -6    1    1    2    0  502 -0.22380037937E+01  0.12622855863E+03  0.65755960878E+03  0.69130839484E+03  0.17200000000E+03 0. -1.
</event>
<event>
 4    1  0.1244074E+000  0.3195123E+03  0.7818608E-02  0.1075874E+00
         21   -1    0    0  501  502  0.00000000000E+00  0.00000000000E+00  0.30762810026E+03  0.30762810026E+03  0.00000000000E+00 0. -1.
         21   -1    0    0  502  503 -0.00000000000E+00 -0.00000000000E+00 -0.34866680198E+03  0.34866680198E+03  0.00000000000E+00 0.  1.
          6    1    1    2  501    0 -0.24213742498E+03 -0.11778602969E+03 -0.92574368442E+02  0.33265311521E+03  0.17200000000E+03 0. -1.
         -6    1    1    2    0  503  0.24213742498E+03  0.11778602969E+03  0.51535666728E+02  0.32364178703E+03  0.17200000000E+03 0.  1.
</event>
<event>
 4    1  0.1244074E+000  0.1878705E+03  0.7818608E-02  0.1160396E+00
         21   -1    0    0  501  502  0.00000000000E+00  0.00000000000E+00  0.37394524207E+02  0.37394524207E+02  0.00000000000E+00 0. -1.
         21   -1    0    0  502  503 -0.00000000000E+00 -0.00000000000E+00 -0.94403311614E+03  0.94403311614E+03  0.00000000000E+00 0. -1.
          6    1    1    2  501    0  0.60828691313E+02  0.44846524636E+02 -0.45988966573E+03  0.49678349923E+03  0.17200000000E+03 0.  1.
         -6    1    1    2    0  503 -0.60828691313E+02 -0.44846524636E+02 -0.44674892620E+03  0.48464414112E+03  0.17200000000E+03 0.  1.
</event>
<event>
 4    1  0.1244074E+000  0.2641361E+03  0.7818608E-02  0.1104683E+00
         21   -1    0    0  503  502  0.00000000000E+00  0.00000000000E+00  0.39766881319E+03  0.39766881319E+03  0.00000000000E+00 0.  1.
         21   -1    0    0  501  503 -0.00000000000E+00 -0.00000000000E+00 -0.18390835908E+03  0.18390835908E+03  0.00000000000E+00 0. -1.
          6    1    1    2  501    0 -0.19195736239E+03 -0.57760357741E+02  0.44489497701E+02  0.26785668427E+03  0.17200000000E+03 0.  1.
         -6    1    1    2    0  502  0.19195736239E+03  0.57760357741E+02  0.16927095642E+03  0.31372048800E+03  0.17200000000E+03 0.  1.
</event>
<event>
 4    1  0.1244074E+000  0.1962876E+03  0.7818608E-02  0.1152910E+00
         21   -1    0    0  501  502  0.00000000000E+00  0.00000000000E+00  0.27372936579E+03  0.27372936579E+03  0.00000000000E+00 0.  1.
         21   -1    0    0  502  503 -0.00000000000E+00 -0.00000000000E+00 -0.15197608385E+03  0.15197608385E+03  0.00000000000E+00 0.  1.
          6    1    1    2  501    0 -0.11083296096E+02 -0.93925396811E+02  0.30396124948E+01  0.19631112771E+03  0.17200000000E+03 0.  1.
         -6    1    1    2    0  503  0.11083296096E+02  0.93925396811E+02  0.11871366944E+03  0.22939432192E+03  0.17200000000E+03 0.  1.
</event>
<event>
 4    1  0.1244074E+000  0.2146297E+03  0.7818608E-02  0.1137951E+00
         21   -1    0    0  503  502  0.00000000000E+00  0.00000000000E+00  0.70029015997E+02  0.70029015997E+02  0.00000000000E+00 0. -1.
         21   -1    0    0  501  503 -0.00000000000E+00 -0.00000000000E+00 -0.80165361932E+03  0.80165361932E+03  0.00000000000E+00 0.  1.
          6    1    1    2  501    0 -0.75670956979E+01  0.12815870454E+03 -0.55043180281E+03  0.59079699054E+03  0.17200000000E+03 0.  1.
         -6    1    1    2    0  502  0.75670956979E+01 -0.12815870454E+03 -0.18119280052E+03  0.28088564478E+03  0.17200000000E+03 0. -1.
</event>
<event>
 4    1  0.1244074E+000  0.2527176E+03  0.7818608E-02  0.1111599E+00
         21   -1    0    0  501  502  0.00000000000E+00  0.00000000000E+00  0.64869653039E+03  0.64869653039E+03  0.00000000000E+00 0.  1.
         21   -1    0    0  502  503 -0.00000000000E+00 -0.00000000000E+00 -0.43968691214E+03  0.43968691214E+03  0.00000000000E+00 0.  1.
          6    1    1    2  501    0 -0.14216567259E+03 -0.11862163998E+03  0.58391383091E+03  0.63625587137E+03  0.17200000000E+03 0.  1.
         -6    1    1    2    0  503  0.14216567259E+03  0.11862163998E+03 -0.37490421266E+03  0.45212757116E+03  0.17200000000E+03 0.  1.
</event>
<event>
 4    1  0.1244074E+000  0.1854267E+03  0.7818608E-02  0.1162652E+00
         21   -1    0    0  501  502  0.00000000000E+00  0.00000000000E+00  0.28561884970E+02  0.28561884970E+02  0.00000000000E+00 0.  1.
         21   -1    0    0  502  503 -0.00000000000E+00 -0.00000000000E+00 -0.17299561200E+04  0.17299561200E+04  0.00000000000E+00 0.  1.
          6    1    1    2  501    0  0.61700467530E+02 -0.31498018376E+02 -0.36579664329E+03  0.41011005486E+03  0.17200000000E+03 0.  1.
         -6    1    1    2    0  503 -0.61700467530E+02  0.31498018376E+02 -0.13355975917E+04  0.13484079501E+04  0.17200000000E+03 0.  1.
</event>
<event>
 4    1  0.1244074E+000  0.2167186E+03  0.7818608E-02  0.1136353E+00
         21   -1    0    0  501  502  0.00000000000E+00  0.00000000000E+00  0.89264799899E+02  0.89264799899E+02  0.00000000000E+00 0.  1.
         21   -1    0    0  502  503 -0.00000000000E+00 -0.00000000000E+00 -0.52829319141E+03  0.52829319141E+03  0.00000000000E+00 0.  1.
          6    1    1    2  501    0  0.13162027535E+03 -0.76848379964E+01 -0.19986143167E+03  0.29480764150E+03  0.17200000000E+03 0. -1.
         -6    1    1    2    0  503 -0.13162027535E+03  0.76848379964E+01 -0.23916695984E+03  0.32275034980E+03  0.17200000000E+03 0. -1.
</event>
<event>
 4    1  0.1244074E+000  0.2620533E+03  0.7818608E-02  0.1105916E+00
         21   -1    0    0  501  502  0.00000000000E+00  0.00000000000E+00  0.68479605837E+02  0.68479605837E+02  0.00000000000E+00 0.  1.
         21   -1    0    0  502  503 -0.00000000000E+00 -0.00000000000E+00 -0.10028353891E+04  0.10028353891E+04  0.00000000000E+00 0.  1.
          6    1    1    2  501    0  0.17928143277E+03 -0.83343311304E+02 -0.46441086950E+03  0.53324421740E+03  0.17200000000E+03 0. -1.
         -6    1    1    2    0  503 -0.17928143277E+03  0.83343311304E+02 -0.46994491378E+03  0.53807077756E+03  0.17200000000E+03 0. -1.
</event>
<event>
 4    1  0.1244074E+000  0.2032597E+03  0.7818608E-02  0.1147018E+00
         21   -1    0    0  501  502  0.00000000000E+00  0.00000000000E+00  0.95196743576E+02  0.95196743576E+02  0.00000000000E+00 0.  1.
         21   -1    0    0  502  503 -0.00000000000E+00 -0.00000000000E+00 -0.50966846136E+03  0.50966846136E+03  0.00000000000E+00 0. -1.
          6    1    1    2  501    0  0.10570558665E+03  0.23596929875E+02 -0.90697385647E+02  0.22257695728E+03  0.17200000000E+03 0. -1.
         -6    1    1    2    0  503 -0.10570558665E+03 -0.23596929875E+02 -0.32377433214E+03  0.38228824766E+03  0.17200000000E+03 0. -1.
</event>
<event>
 4    1  0.1244074E+000  0.2431989E+03  0.7818608E-02  0.1117680E+00
         21   -1    0    0  501  502  0.00000000000E+00  0.00000000000E+00  0.55103336820E+02  0.55103336820E+02  0.00000000000E+00 0.  1.
         21   -1    0    0  502  503 -0.00000000000E+00 -0.00000000000E+00 -0.25355965243E+04  0.25355965243E+04  0.00000000000E+00 0. -1.
          6    1    1    2  501    0  0.12863562484E+02  0.17145329206E+03 -0.25656196160E+03  0.35351059777E+03  0.17200000000E+03 0.  1.
         -6    1    1    2    0  503 -0.12863562484E+02 -0.17145329206E+03 -0.22239312259E+04  0.22371892633E+04  0.17200000000E+03 0. -1.
</event>
<event>
 4    1  0.1244074E+000  0.2841173E+03  0.7818608E-02  0.1093461E+00
         21   -1    0    0  501  502  0.00000000000E+00  0.00000000000E+00  0.10649304559E+03  0.10649304559E+03  0.00000000000E+00 0. -1.
         21   -1    0    0  502  503 -0.00000000000E+00 -0.00000000000E+00 -0.79807018383E+03  0.79807018383E+03  0.00000000000E+00 0. -1.
          6    1    1    2  501    0  0.56709066803E+02  0.21891257558E+03 -0.24445508438E+03  0.37480784714E+03  0.17200000000E+03 0. -1.
         -6    1    1    2    0  503 -0.56709066803E+02 -0.21891257558E+03 -0.44712205386E+03  0.52975538228E+03  0.17200000000E+03 0. -1.
</event>
<event>
 4    1  0.1244074E+000  0.1757032E+03  0.7818608E-02  0.1172027E+00
         21   -1    0    0  503  502  0.00000000000E+00  0.00000000000E+00  0.22301635585E+04  0.22301635585E+04  0.00000000000E+00 0. -1.
         21   -1    0    0  501  503 -0.00000000000E+00 -0.00000000000E+00 -0.39475645320E+02  0.39475645320E+02  0.00000000000E+00 0. -1.
          6    1    1    2  501    0  0.18778150225E+02  0.30577710480E+02  0.18089183761E+03  0.25217746175E+03  0.17200000000E+03 0. -1.
         -6    1    1    2    0  502 -0.18778150225E+02 -0.30577710480E+02  0.20097960755E+04  0.20174617420E+04  0.17200000000E+03 0. -1.
</event>
<event>
 4    1  0.1244074E+000  0.1873926E+03  0.7818608E-02  0.1160834E+00
         21   -1    0    0  503  502  0.00000000000E+00  0.00000000000E+00  0.11299185130E+03  0.11299185130E+03  0.00000000000E+00 0.  1.
         21   -1    0    0  501  503 -0.00000000000E+00 -0.00000000000E+00 -0.31157627131E+03  0.31157627131E+03  0.00000000000E+00 0.  1.
          6    1    1    2  501    0 -0.52492321709E+02  0.52692828271E+02 -0.11000172565E+03  0.21729325262E+03  0.17200000000E+03 0.  1.
         -6    1    1    2    0  502  0.52492321709E+02 -0.52692828271E+02 -0.88582694348E+02  0.20727486999E+03  0.17200000000E+03 0.  1.
</event>
<event>
 4    1  0.1244074E+000  0.3726382E+03  0.7818608E-02  0.1053689E+00
         21   -1    0    0  503  502  0.00000000000E+00  0.00000000000E+00  0.19068389036E+03  0.19068389036E+03  0.00000000000E+00 0.  1.
         21   -1    0    0  501  503 -0.00000000000E+00 -0.00000000000E+00 -0.11761806790E+04  0.11761806790E+04  0.00000000000E+00 0.  1.
          6    1    1    2  501    0 -0.10429577198E+03 -0.31368397889E+03 -0.91452246908E+03  0.98752751512E+03  0.17200000000E+03 0.  1.
         -6    1    1    2    0  502  0.10429577198E+03  0.31368397889E+03 -0.70974319536E+02  0.37933705421E+03  0.17200000000E+03 0.  1.
</event>
<event>
 4    1  0.1244074E+000  0.1969735E+03  0.7818608E-02  0.1152318E+00
         21   -1    0    0  503  502  0.00000000000E+00  0.00000000000E+00  0.50263664092E+02  0.50263664092E+02  0.00000000000E+00 0. -1.
         21   -1    0    0  501  503 -0.00000000000E+00 -0.00000000000E+00 -0.85159648886E+03  0.85159648886E+03  0.00000000000E+00 0. -1.
          6    1    1    2  501    0  0.71056651766E+02 -0.64540730149E+02 -0.53861274843E+03  0.57349999684E+03  0.17200000000E+03 0. -1.
         -6    1    1    2    0  502 -0.71056651766E+02  0.64540730149E+02 -0.26272007634E+03  0.32836015611E+03  0.17200000000E+03 0. -1.
</event>
<event>
 4    1  0.1244074E+000  0.4227766E+03  0.7818608E-02  0.1036166E+00
         21   -1    0    0  501  502  0.00000000000E+00  0.00000000000E+00  0.37714186728E+03  0.37714186728E+03  0.00000000000E+00 0. -1.
         21   -1    0    0  502  503 -0.00000000000E+00 -0.00000000000E+00 -0.50245669308E+03  0.50245669308E+03  0.00000000000E+00 0.  1.
          6    1    1    2  501    0 -0.37152703051E+03  0.10546888051E+03 -0.16744436647E+03  0.45472808910E+03  0.17200000000E+03 0. -1.
         -6    1    1    2    0  503  0.37152703051E+03 -0.10546888051E+03  0.42129540669E+02  0.42487047126E+03  0.17200000000E+03 0.  1.
</event>
<event>
 4    1  0.1244074E+000  0.3084450E+03  0.7818608E-02  0.1081094E+00
         21   -1    0    0  501  502  0.00000000000E+00  0.00000000000E+00  0.21120604231E+03  0.21120604231E+03  0.00000000000E+00 0. -1.
         21   -1    0    0  502  503 -0.00000000000E+00 -0.00000000000E+00 -0.45077938398E+03  0.45077938398E+03  0.00000000000E+00 0. -1.
          6    1    1    2  501    0  0.21559224126E+03  0.13810984860E+03 -0.11087703051E+03  0.32776830333E+03  0.17200000000E+03 0. -1.
         -6    1    1    2    0  503 -0.21559224126E+03 -0.13810984860E+03 -0.12869631117E+03  0.33421712296E+03  0.17200000000E+03 0. -1.
</event>
<event>
 4    1  0.1244074E+000  0.1842869E+03  0.7818608E-02  0.1163718E+00
         21   -1    0    0  501  502  0.00000000000E+00  0.00000000000E+00  0.94052058788E+02  0.94052058788E+02  0.00000000000E+00 0. -1.
         21   -1    0    0  502  503 -0.00000000000E+00 -0.00000000000E+00 -0.36778948173E+03  0.36778948173E+03  0.00000000000E+00 0. -1.
          6    1    1    2  501    0  0.64895511795E+02  0.12892502524E+02 -0.10571205640E+03  0.21245395487E+03  0.17200000000E+03 0.  1.
         -6    1    1    2    0  503 -0.64895511795E+02 -0.12892502524E+02 -0.16802536654E+03  0.24938758564E+03  0.17200000000E+03 0.  1.
</event>
<event>
 4    1  0.1244074E+000  0.1880901E+03  0.7818608E-02  0.1160195E+00
         21   -1    0    0  503  502  0.00000000000E+00  0.00000000000E+00  0.20301431298E+03  0.20301431298E+03  0.00000000000E+00 0. -1.
         21   -1    0    0  501  503 -0.00000000000E+00 -0.00000000000E+00 -0.18704525920E+03  0.18704525920E+03  0.00000000000E+00 0. -1.
          6    1    1    2  501    0 -0.75715534919E+02  0.78128123055E+01 -0.42999188616E+02  0.19294251083E+03  0.17200000000E+03 0. -1.
         -6    1    1    2    0  502  0.75715534919E+02 -0.78128123055E+01  0.58968242393E+02  0.19711706135E+03  0.17200000000E+03 0. -1.
</event>
<event>
 4    1  0.1244074E+000  0.1801322E+03  0.7818608E-02  0.1167675E+00
         21   -1    0    0  503  502  0.00000000000E+00  0.00000000000E+00  0.27199581632E+02  0.27199581632E+02  0.00000000000E+00 0.  1.
         21   -1    0    0  501  503 -0.00000000000E+00 -0.00000000000E+00 -0.12719524707E+04  0.12719524707E+04  0.00000000000E+00 0.  1.
          6    1    1    2  501    0 -0.28485492305E+02 -0.45300924543E+02 -0.78426994794E+03  0.80469059164E+03  0.17200000000E+03 0. -1.
         -6    1    1    2    0  502  0.28485492305E+02  0.45300924543E+02 -0.46048294113E+03  0.49446146069E+03  0.17200000000E+03 0. -1.
</event>
<event>
 4    1  0.1244074E+000  0.1916032E+03  0.7818608E-02  0.1157023E+00
         21   -1    0    0  501  502  0.00000000000E+00  0.00000000000E+00  0.24325748348E+04  0.24325748348E+04  0.00000000000E+00 0. -1.
         21   -1    0    0  502  503 -0.00000000000E+00 -0.00000000000E+00 -0.37877336898E+02  0.37877336898E+02  0.00000000000E+00 0. -1.
          6    1    1    2  501    0  0.83108153794E+02  0.14860552165E+02  0.21553959032E+04  0.21638953997E+04  0.17200000000E+03 0. -1.
         -6    1    1    2    0  503 -0.83108153794E+02 -0.14860552165E+02  0.23930159467E+03  0.30655677199E+03  0.17200000000E+03 0. -1.
</event>
<event>
 4    1  0.1244074E+000  0.2057601E+03  0.7818608E-02  0.1144968E+00
         21   -1    0    0  501  502  0.00000000000E+00  0.00000000000E+00  0.29752878980E+03  0.29752878980E+03  0.00000000000E+00 0.  1.
         21   -1    0    0  502  503 -0.00000000000E+00 -0.00000000000E+00 -0.16391137876E+03  0.16391137876E+03  0.00000000000E+00 0.  1.
          6    1    1    2  501    0  0.58922212655E+02 -0.96339913505E+02  0.15059261221E+03  0.25498105994E+03  0.17200000000E+03 0.  1.
         -6    1    1    2    0  503 -0.58922212655E+02  0.96339913505E+02 -0.16975201167E+02  0.20645910862E+03  0.17200000000E+03 0.  1.
</event>
<event>
 4    1  0.1244074E+000  0.2623441E+03  0.7818608E-02  0.1105743E+00
         21   -1    0    0  503  502  0.00000000000E+00  0.00000000000E+00  0.11918989532E+04  0.11918989532E+04  0.00000000000E+00 0. -1.
         21   -1    0    0  501  503 -0.00000000000E+00 -0.00000000000E+00 -0.59426109315E+02  0.59426109315E+02  0.00000000000E+00 0. -1.
          6    1    1    2  501    0 -0.13513675337E+03  0.14483950152E+03  0.46095724483E+03  0.53038288516E+03  0.17200000000E+03 0.  1.
         -6    1    1    2    0  502  0.13513675337E+03 -0.14483950152E+03  0.67151559904E+03  0.72094217733E+03  0.17200000000E+03 0.  1.
</event>
<event>
 4    1  0.1244074E+000  0.1966601E+03  0.7818608E-02  0.1152588E+00
         21   -1    0    0  501  502  0.00000000000E+00  0.00000000000E+00  0.22602446830E+03  0.22602446830E+03  0.00000000000E+00 0.  1.
         21   -1    0    0  502  503 -0.00000000000E+00 -0.00000000000E+00 -0.33036280984E+03  0.33036280984E+03  0.00000000000E+00 0.  1.
          6    1    1    2  501    0 -0.89493215338E+02 -0.32896183360E+02  0.14098063722E+03  0.24197259048E+03  0.17200000000E+03 0.  1.
         -6    1    1    2    0  503  0.89493215338E+02  0.32896183360E+02 -0.24531897877E+03  0.31441468766E+03  0.17200000000E+03 0.  1.
</event>
<event>
 4    1  0.1244074E+000  0.1995783E+03  0.7818608E-02  0.1150095E+00
         21   -1    0    0  501  502  0.00000000000E+00  0.00000000000E+00  0.70553160797E+03  0.70553160797E+03  0.00000000000E+00 0. -1.
         21   -1    0    0  502  503 -0.00000000000E+00 -0.00000000000E+00 -0.21007608614E+03  0.21007608614E+03  0.00000000000E+00 0. -1.
          6    1    1    2  501    0  0.91918726390E+02 -0.42408135304E+02  0.63921274760E+03  0.66964500961E+03  0.17200000000E+03 0. -1.
         -6    1    1    2    0  503 -0.91918726390E+02  0.42408135304E+02 -0.14375722578E+03  0.24596268450E+03  0.17200000000E+03 0. -1.
</event>
<event>
 4    1  0.1244074E+000  0.2331824E+03  0.7818608E-02  0.1124420E+00
         21   -1    0    0  503  502  0.00000000000E+00  0.00000000000E+00  0.79321978192E+02  0.79321978192E+02  0.00000000000E+00 0. -1.
         21   -1    0    0  501  503 -0.00000000000E+00 -0.00000000000E+00 -0.14508252650E+04  0.14508252650E+04  0.00000000000E+00 0.  1.
          6    1    1    2  501    0  0.13400620523E+03  0.82658132782E+02 -0.12414293089E+04  0.12631392476E+04  0.17200000000E+03 0.  1.
         -6    1    1    2    0  502 -0.13400620523E+03 -0.82658132782E+02 -0.13007397791E+03  0.26700799554E+03  0.17200000000E+03 0. -1.
</event>
<event>
 4    1  0.1244074E+000  0.2269873E+03  0.7818608E-02  0.1128778E+00
         21   -1    0    0  503  502  0.00000000000E+00  0.00000000000E+00  0.36329183621E+03  0.36329183621E+03  0.00000000000E+00 0. -1.
         21   -1    0    0  501  503 -0.00000000000E+00 -0.00000000000E+00 -0.14194482941E+03  0.14194482941E+03  0.00000000000E+00 0.  1.
          6    1    1    2  501    0 -0.12978181832E+03 -0.71385583613E+02  0.10327967310E+03  0.24937905443E+03  0.17200000000E+03 0.  1.
         -6    1    1    2    0  502  0.12978181832E+03  0.71385583613E+02  0.11806733371E+03  0.25585761119E+03  0.17200000000E+03 0. -1.
</event>
<event>
 4    1  0.1244074E+000  0.1969914E+03  0.7818608E-02  0.1152303E+00
         21   -1    0    0  501  502  0.00000000000E+00  0.00000000000E+00  0.22501540612E+03  0.22501540612E+03  0.00000000000E+00 0.  1.
         21   -1    0    0  502  503 -0.00000000000E+00 -0.00000000000E+00 -0.49761256911E+03  0.49761256911E+03  0.00000000000E+00 0.  1.
          6    1    1    2  501    0 -0.13829454269E+02  0.95028127891E+02  0.15576967299E+03  0.25113699433E+03  0.17200000000E+03 0.  1.
         -6    1    1    2    0  503  0.13829454269E+02 -0.95028127891E+02 -0.42836683598E+03  0.47149098089E+03  0.17200000000E+03 0.  1.
</event>
<event>
 4    1  0.1244074E+000  0.6532670E+03  0.7818608E-02  0.9800668E-01
         21   -1    0    0  501  502  0.00000000000E+00  0.00000000000E+00  0.83330553856E+03  0.83330553856E+03  0.00000000000E+00 0. -1.
         21   -1    0    0  502  503 -0.00000000000E+00 -0.00000000000E+00 -0.51998222242E+03  0.51998222242E+03  0.00000000000E+00 0.  1.
          6    1    1    2  501    0  0.22222670523E+03  0.58973646536E+03  0.23983044400E+03  0.69589974059E+03  0.17200000000E+03 0.  1.
         -6    1    1    2    0  503 -0.22222670523E+03 -0.58973646536E+03  0.73492872147E+02  0.65738802038E+03  0.17200000000E+03 0.  1.
</event>
<event>
 4    1  0.1244074E+000  0.1964903E+03  0.7818608E-02  0.1152734E+00
         21   -1    0    0  503  502  0.00000000000E+00  0.00000000000E+00  0.66025556383E+02  0.66025556383E+02  0.00000000000E+00 0.  1.
         21   -1    0    0  501  503 -0.00000000000E+00 -0.00000000000E+00 -0.61047570819E+03  0.61047570819E+03  0.00000000000E+00 0. -1.
          6    1    1    2  501    0 -0.91078799627E+02  0.27001864264E+02 -0.20278862085E+03  0.28236797474E+03  0.17200000000E+03 0. -1.
         -6    1    1    2    0  502  0.91078799627E+02 -0.27001864264E+02 -0.34166153096E+03  0.39413328983E+03  0.17200000000E+03 0. -1.
</event>
<event>
 4    1  0.1244074E+000  0.2010951E+03  0.7818608E-02  0.1148818E+00
         21   -1    0    0  503  502  0.00000000000E+00  0.00000000000E+00  0.44633703471E+03  0.44633703471E+03  0.00000000000E+00 0. -1.
         21   -1    0    0  501  503 -0.00000000000E+00 -0.00000000000E+00 -0.91458291911E+02  0.91458291911E+02  0.00000000000E+00 0. -1.
          6    1    1    2  501    0  0.10409866582E+03  0.43265487637E+01  0.15142822231E+03  0.25173350544E+03  0.17200000000E+03 0.  1.
         -6    1    1    2    0  502 -0.10409866582E+03 -0.43265487637E+01  0.20345052049E+03  0.28606182118E+03  0.17200000000E+03 0.  1.
</event>
<event>
 4    1  0.1244074E+000  0.1775487E+03  0.7818608E-02  0.1170197E+00
         21   -1    0    0  503  502  0.00000000000E+00  0.00000000000E+00  0.87025780213E+03  0.87025780213E+03  0.00000000000E+00 0.  1.
         21   -1    0    0  501  503 -0.00000000000E+00 -0.00000000000E+00 -0.38196806424E+02  0.38196806424E+02  0.00000000000E+00 0.  1.
          6    1    1    2  501    0 -0.37249164508E+02 -0.23495330391E+02  0.31278076792E+03  0.35966003335E+03  0.17200000000E+03 0. -1.
         -6    1    1    2    0  502  0.37249164508E+02  0.23495330391E+02  0.51928022779E+03  0.54879457521E+03  0.17200000000E+03 0. -1.
</event>
<event>
 4    1  0.1244074E+000  0.2281162E+03  0.7818608E-02  0.1127973E+00
         21   -1    0    0  503  502  0.00000000000E+00  0.00000000000E+00  0.65898279730E+03  0.65898279730E+03  0.00000000000E+00 0. -1.
         21   -1    0    0  501  503 -0.00000000000E+00 -0.00000000000E+00 -0.79002152060E+02  0.79002152060E+02  0.00000000000E+00 0. -1.
          6    1    1    2  501    0 -0.22257560209E+02  0.14818102047E+03  0.28206026212E+03  0.36276025869E+03  0.17200000000E+03 0. -1.
         -6    1    1    2    0  502  0.22257560209E+02 -0.14818102047E+03  0.29792038312E+03  0.37522469067E+03  0.17200000000E+03 0. -1.
</event>
<event>
 4    1  0.1244074E+000  0.1741401E+03  0.7818608E-02  0.1173598E+00
         21   -1    0    0  503  502  0.00000000000E+00  0.00000000000E+00  0.25589965591E+03  0.25589965591E+03  0.00000000000E+00 0. -1.
         21   -1    0    0  501  503 -0.00000000000E+00 -0.00000000000E+00 -0.13955046351E+03  0.13955046351E+03  0.00000000000E+00 0.  1.
          6    1    1    2  501    0 -0.26677668679E+02  0.53932140751E+01 -0.18614520486E+02  0.17513219332E+03  0.17200000000E+03 0.  1.
         -6    1    1    2    0  502  0.26677668679E+02 -0.53932140751E+01  0.13496371289E+03  0.22031792610E+03  0.17200000000E+03 0. -1.
</event>
<event>
 4    1  0.1244074E+000  0.1758409E+03  0.7818608E-02  0.1171890E+00
         21   -1    0    0  503  502  0.00000000000E+00  0.00000000000E+00  0.16516727194E+03  0.16516727194E+03  0.00000000000E+00 0. -1.
         21   -1    0    0  501  503 -0.00000000000E+00 -0.00000000000E+00 -0.18892722656E+03  0.18892722656E+03  0.00000000000E+00 0. -1.
          6    1    1    2  501    0  0.30759765673E+02  0.19744759450E+02  0.50275060150E+01  0.17591274691E+03  0.17200000000E+03 0. -1.
         -6    1    1    2    0  502 -0.30759765673E+02 -0.19744759450E+02 -0.28787460635E+02  0.17818175159E+03  0.17200000000E+03 0. -1.
</event>
<event>
 4    1  0.1244074E+000  0.1884616E+03  0.7818608E-02  0.1159856E+00
         21   -1    0    0  501  502  0.00000000000E+00  0.00000000000E+00  0.32386023288E+03  0.32386023288E+03  0.00000000000E+00 0. -1.
         21   -1    0    0  502  503 -0.00000000000E+00 -0.00000000000E+00 -0.24688885945E+03  0.24688885945E+03  0.00000000000E+00 0. -1.
          6    1    1    2  501    0  0.38568666741E+02  0.66680093750E+02  0.25123651841E+03  0.31406617955E+03  0.17200000000E+03 0. -1.
         -6    1    1    2    0  503 -0.38568666741E+02 -0.66680093750E+02 -0.17426514498E+03  0.25668291278E+03  0.17200000000E+03 0. -1.
</event>
<event>
 4    1  0.1244074E+000  0.1733572E+03  0.7818608E-02  0.1174391E+00
         21   -1    0    0  503  502  0.00000000000E+00  0.00000000000E+00  0.97739220523E+02  0.97739220523E+02  0.00000000000E+00 0.  1.
         21   -1    0    0  501  503 -0.00000000000E+00 -0.00000000000E+00 -0.12320669494E+04  0.12320669494E+04  0.00000000000E+00 0.  1.
          6    1    1    2  501    0 -0.21435582238E+02  0.30364395573E+01 -0.11431545195E+04  0.11562244417E+04  0.17200000000E+03 0.  1.
         -6    1    1    2    0  502  0.21435582238E+02 -0.30364395573E+01  0.88267905848E+01  0.17358172825E+03  0.17200000000E+03 0.  1.
</event>
<event>
 4    1  0.1244074E+000  0.1943129E+03  0.7818608E-02  0.1154628E+00
         21   -1    0    0  503  502  0.00000000000E+00  0.00000000000E+00  0.61891071389E+02  0.61891071389E+02  0.00000000000E+00 0.  1.
         21   -1    0    0  501  503 -0.00000000000E+00 -0.00000000000E+00 -0.62645658389E+03  0.62645658389E+03  0.00000000000E+00 0.  1.
          6    1    1    2  501    0  0.69734425016E+02 -0.57538079717E+02 -0.33795705561E+03  0.38983649404E+03  0.17200000000E+03 0.  1.
         -6    1    1    2    0  502 -0.69734425016E+02  0.57538079717E+02 -0.22660845690E+03  0.29851116124E+03  0.17200000000E+03 0.  1.
</event>
<event>
 4    1  0.1244074E+000  0.1991189E+03  0.7818608E-02  0.1150484E+00
         21   -1    0    0  503  502  0.00000000000E+00  0.00000000000E+00  0.51781534522E+02  0.51781534522E+02  0.00000000000E+00 0.  1.
         21   -1    0    0  501  503 -0.00000000000E+00 -0.00000000000E+00 -0.77044001265E+03  0.77044001265E+03  0.00000000000E+00 0.  1.
          6    1    1    2  501    0 -0.41427417444E+02 -0.91368049033E+02 -0.32703247041E+03  0.38288195048E+03  0.17200000000E+03 0. -1.
         -6    1    1    2    0  502  0.41427417444E+02  0.91368049033E+02 -0.39162600772E+03  0.43933959669E+03  0.17200000000E+03 0. -1.
</event>
<event>
 4    1  0.1244074E+000  0.1908902E+03  0.7818608E-02  0.1157661E+00
         21   -1    0    0  503  502  0.00000000000E+00  0.00000000000E+00  0.17850941248E+02  0.17850941248E+02  0.00000000000E+00 0.  1.
         21   -1    0    0  501  503 -0.00000000000E+00 -0.00000000000E+00 -0.20492712733E+04  0.20492712733E+04  0.00000000000E+00 0. -1.
          6    1    1    2  501    0 -0.77235968365E+02 -0.29827239786E+02 -0.10801868958E+04  0.10969242402E+04  0.17200000000E+03 0.  1.
         -6    1    1    2    0  502  0.77235968365E+02  0.29827239786E+02 -0.95123343632E+03  0.97019797434E+03  0.17200000000E+03 0. -1.
</event>
<event>
 4    1  0.1244074E+000  0.2361401E+03  0.7818608E-02  0.1122391E+00
         21   -1    0    0  503  502  0.00000000000E+00  0.00000000000E+00  0.17646103454E+04  0.17646103454E+04  0.00000000000E+00 0. -1.
         21   -1    0    0  501  503 -0.00000000000E+00 -0.00000000000E+00 -0.31654726682E+02  0.31654726682E+02  0.00000000000E+00 0.  1.
          6    1    1    2  501    0 -0.11743954597E+03 -0.11129291065E+03  0.82922519455E+03  0.86219289152E+03  0.17200000000E+03 0.  1.
         -6    1    1    2    0  502  0.11743954597E+03  0.11129291065E+03  0.90373042412E+03  0.93407218051E+03  0.17200000000E+03 0. -1.
</event>
<event>
 4    1  0.1244074E+000  0.1951904E+03  0.7818608E-02  0.1153861E+00
         21   -1    0    0  503  502  0.00000000000E+00  0.00000000000E+00  0.15109157486E+04  0.15109157486E+04  0.00000000000E+00 0.  1.
         21   -1    0    0  501  503 -0.00000000000E+00 -0.00000000000E+00 -0.31459424568E+02  0.31459424568E+02  0.00000000000E+00 0.  1.
          6    1    1    2  501    0  0.43272673892E+02 -0.81503263229E+02  0.39617431322E+03  0.44164849448E+03  0.17200000000E+03 0.  1.
         -6    1    1    2    0  502 -0.43272673892E+02  0.81503263229E+02  0.10832820108E+04  0.11007266787E+04  0.17200000000E+03 0.  1.
</event>
<event>
 4    1  0.1244074E+000  0.1763973E+03  0.7818608E-02  0.1171336E+00
         21   -1    0    0  503  502  0.00000000000E+00  0.00000000000E+00  0.22873098873E+03  0.22873098873E+03  0.00000000000E+00 0. -1.
         21   -1    0    0  501  503 -0.00000000000E+00 -0.00000000000E+00 -0.18966951566E+03  0.18966951566E+03  0.00000000000E+00 0. -1.
          6    1    1    2  501    0 -0.39023776390E+02  0.30271493062E+01 -0.91712859694E+02  0.19881465587E+03  0.17200000000E+03 0. -1.
         -6    1    1    2    0  502  0.39023776390E+02 -0.30271493062E+01  0.13077433276E+03  0.21958584851E+03  0.17200000000E+03 0. -1.
</event>
<event>
 4    1  0.1244074E+000  0.1774689E+03  0.7818608E-02  0.1170275E+00
         21   -1    0    0  501  502  0.00000000000E+00  0.00000000000E+00  0.11188326774E+04  0.11188326774E+04  0.00000000000E+00 0. -1.
         21   -1    0    0  502  503 -0.00000000000E+00 -0.00000000000E+00 -0.28557442215E+02  0.28557442215E+02  0.00000000000E+00 0. -1.
          6    1    1    2  501    0  0.14638935764E+02  0.41193394094E+02  0.61365939305E+03  0.63880595241E+03  0.17200000000E+03 0. -1.
         -6    1    1    2    0  503 -0.14638935764E+02 -0.41193394094E+02  0.47661584214E+03  0.50858416721E+03  0.17200000000E+03 0. -1.
</event>
<event>
 4    1  0.1244074E+000  0.2139217E+03  0.7818608E-02  0.1138498E+00
         21   -1    0    0  501  502  0.00000000000E+00  0.00000000000E+00  0.61512311107E+03  0.61512311107E+03  0.00000000000E+00 0. -1.
         21   -1    0    0  502  503 -0.00000000000E+00 -0.00000000000E+00 -0.89147369730E+02  0.89147369730E+02  0.00000000000E+00 0.  1.
          6    1    1    2  501    0 -0.11516682255E+03  0.53991532937E+02  0.40623191485E+03  0.45911529194E+03  0.17200000000E+03 0. -1.
         -6    1    1    2    0  503  0.11516682255E+03 -0.53991532937E+02  0.11974382649E+03  0.24515518887E+03  0.17200000000E+03 0.  1.
</event>
<event>
 4    1  0.1244074E+000  0.1970969E+03  0.7818608E-02  0.1152212E+00
         21   -1    0    0  501  502  0.00000000000E+00  0.00000000000E+00  0.18762246525E+04  0.18762246525E+04  0.00000000000E+00 0. -1.
         21   -1    0    0  502  503 -0.00000000000E+00 -0.00000000000E+00 -0.30774300257E+02  0.30774300257E+02  0.00000000000E+00 0.  1.
          6    1    1    2  501    0 -0.69289968938E+02 -0.66798921968E+02  0.14681393513E+04  0.14813103492E+04  0.17200000000E+03 0. -1.
         -6    1    1    2    0  503  0.69289968938E+02  0.66798921968E+02  0.37731100089E+03  0.42568860352E+03  0.17200000000E+03 0.  1.
</event>
<event>
 4    1  0.1244074E+000  0.1731670E+03  0.7818608E-02  0.1174585E+00
         21   -1    0    0  503  502  0.00000000000E+00  0.00000000000E+00  0.26992262197E+02  0.26992262197E+02  0.00000000000E+00 0.  1.
         21   -1    0    0  501  503 -0.00000000000E+00 -0.00000000000E+00 -0.13808821851E+04  0.13808821851E+04  0.00000000000E+00 0.  1.
          6    1    1    2  501    0 -0.19713539183E+02 -0.37651464881E+01 -0.98818145562E+03  0.10032394476E+04  0.17200000000E+03 0.  1.
         -6    1    1    2    0  502  0.19713539183E+02  0.37651464881E+01 -0.36570846733E+03  0.40463499976E+03  0.17200000000E+03 0.  1.
</event>
<event>
 4    1  0.1244074E+000  0.1953071E+03  0.7818608E-02  0.1153760E+00
         21   -1    0    0  503  502  0.00000000000E+00  0.00000000000E+00  0.82540348835E+02  0.82540348835E+02  0.00000000000E+00 0. -1.
         21   -1    0    0  501  503 -0.00000000000E+00 -0.00000000000E+00 -0.16778168233E+04  0.16778168233E+04  0.00000000000E+00 0. -1.
          6    1    1    2  501    0  0.68644055021E+02  0.62039309250E+02 -0.15468563625E+04  0.15591374181E+04  0.17200000000E+03 0. -1.
         -6    1    1    2    0  502 -0.68644055021E+02 -0.62039309250E+02 -0.48420111946E+02  0.20121975406E+03  0.17200000000E+03 0. -1.
</event>
<event>
 4    1  0.1244074E+000  0.2018374E+03  0.7818608E-02  0.1148198E+00
         21   -1    0    0  501  502  0.00000000000E+00  0.00000000000E+00  0.19254889179E+04  0.19254889179E+04  0.00000000000E+00 0. -1.
         21   -1    0    0  502  503 -0.00000000000E+00 -0.00000000000E+00 -0.28997189185E+02  0.28997189185E+02  0.00000000000E+00 0. -1.
          6    1    1    2  501    0 -0.85491357516E+02 -0.62012454667E+02  0.14563785792E+04  0.14702982292E+04  0.17200000000E+03 0. -1.
         -6    1    1    2    0  503  0.85491357516E+02  0.62012454667E+02  0.44011314949E+03  0.48418787789E+03  0.17200000000E+03 0. -1.
</event>
<event>
 4    1  0.1244074E+000  0.2027921E+03  0.7818608E-02  0.1147405E+00
         21   -1    0    0  503  502  0.00000000000E+00  0.00000000000E+00  0.21855446682E+03  0.21855446682E+03  0.00000000000E+00 0.  1.
         21   -1    0    0  501  503 -0.00000000000E+00 -0.00000000000E+00 -0.20034832498E+03  0.20034832498E+03  0.00000000000E+00 0. -1.
          6    1    1    2  501    0 -0.14543888996E+02  0.10643820380E+03 -0.42544232473E+02  0.20720672685E+03  0.17200000000E+03 0. -1.
         -6    1    1    2    0  502  0.14543888996E+02 -0.10643820380E+03  0.60750374311E+02  0.21169606495E+03  0.17200000000E+03 0.  1.
</event>
<event>
 4    1  0.1244074E+000  0.1795125E+03  0.7818608E-02  0.1168276E+00
         21   -1    0    0  503  502  0.00000000000E+00  0.00000000000E+00  0.74925129298E+03  0.74925129298E+03  0.00000000000E+00 0.  1.
         21   -1    0    0  501  503 -0.00000000000E+00 -0.00000000000E+00 -0.17080249808E+03  0.17080249808E+03  0.00000000000E+00 0.  1.
          6    1    1    2  501    0 -0.46715085639E+02  0.21410872022E+02 -0.10869040462E+03  0.20985311225E+03  0.17200000000E+03 0.  1.
         -6    1    1    2    0  502  0.46715085639E+02 -0.21410872022E+02  0.68713919951E+03  0.71020067881E+03  0.17200000000E+03 0.  1.
</event>
<event>
 4    1  0.1244074E+000  0.1817729E+03  0.7818608E-02  0.1166098E+00
         21   -1    0    0  503  502  0.00000000000E+00  0.00000000000E+00  0.98427303132E+03  0.98427303132E+03  0.00000000000E+00 0.  1.
         21   -1    0    0  501  503 -0.00000000000E+00 -0.00000000000E+00 -0.52181505788E+02  0.52181505788E+02  0.00000000000E+00 0.  1.
          6    1    1    2  501    0  0.54634308507E+02  0.21736590693E+02  0.77554566814E+03  0.79656291052E+03  0.17200000000E+03 0.  1.
         -6    1    1    2    0  502 -0.54634308507E+02 -0.21736590693E+02  0.15654585739E+03  0.23989162658E+03  0.17200000000E+03 0.  1.
</event>
<event>
 4    1  0.1244074E+000  0.1738296E+03  0.7818608E-02  0.1173912E+00
         21   -1    0    0  501  502  0.00000000000E+00  0.00000000000E+00  0.53082720124E+03  0.53082720124E+03  0.00000000000E+00 0.  1.
         21   -1    0    0  502  503 -0.00000000000E+00 -0.00000000000E+00 -0.61377061758E+02  0.61377061758E+02  0.00000000000E+00 0.  1.
          6    1    1    2  501    0 -0.10615085197E+02 -0.22804640472E+02  0.31448317384E+03  0.35932770321E+03  0.17200000000E+03 0.  1.
         -6    1    1    2    0  503  0.10615085197E+02  0.22804640472E+02  0.15496696564E+03  0.23287655979E+03  0.17200000000E+03 0.  1.
</event>
<event>
 4    1  0.1244074E+000  0.2408628E+03  0.7818608E-02  0.1119219E+00
         21   -1    0    0  501  502  0.00000000000E+00  0.00000000000E+00  0.79371793380E+03  0.79371793380E+03  0.00000000000E+00 0.  1.
         21   -1    0    0  502  503 -0.00000000000E+00 -0.00000000000E+00 -0.76939832968E+02  0.76939832968E+02  0.00000000000E+00 0.  1.
          6    1    1    2  501    0 -0.45481139367E+02  0.16236483673E+03  0.45573513031E+03  0.51547006047E+03  0.17200000000E+03 0. -1.
         -6    1    1    2    0  503  0.45481139367E+02 -0.16236483673E+03  0.26104297053E+03  0.35518770630E+03  0.17200000000E+03 0. -1.
</event>
<event>
 4    1  0.1244074E+000  0.2181891E+03  0.7818608E-02  0.1135240E+00
         21   -1    0    0  503  502  0.00000000000E+00  0.00000000000E+00  0.65075169166E+02  0.65075169166E+02  0.00000000000E+00 0. -1.
         21   -1    0    0  501  503 -0.00000000000E+00 -0.00000000000E+00 -0.15053810618E+04  0.15053810618E+04  0.00000000000E+00 0. -1.
          6    1    1    2  501    0 -0.93561034506E+02  0.96274752077E+02 -0.12831322643E+04  0.13015509604E+04  0.17200000000E+03 0. -1.
         -6    1    1    2    0  502  0.93561034506E+02 -0.96274752077E+02 -0.15717362842E+03  0.26890527056E+03  0.17200000000E+03 0. -1.
</event>
<event>
 4    1  0.1244074E+000  0.1822282E+03  0.7818608E-02  0.1165664E+00
         21   -1    0    0  501  502  0.00000000000E+00  0.00000000000E+00  0.19472155176E+03  0.19472155176E+03  0.00000000000E+00 0. -1.
         21   -1    0    0  502  503 -0.00000000000E+00 -0.00000000000E+00 -0.22340586034E+03  0.22340586034E+03  0.00000000000E+00 0. -1.
          6    1    1    2  501    0 -0.14155842337E+02  0.58504109432E+02  0.87360823977E+02  0.20208669491E+03  0.17200000000E+03 0.  1.
         -6    1    1    2    0  503  0.14155842337E+02 -0.58504109432E+02 -0.11604513256E+03  0.21604071719E+03  0.17200000000E+03 0.  1.
</event>
<event>
 4    1  0.1244074E+000  0.3093506E+03  0.7818608E-02  0.1080658E+00
         21   -1    0    0  503  502  0.00000000000E+00  0.00000000000E+00  0.63598779990E+03  0.63598779990E+03  0.00000000000E+00 0.  1.
         21   -1    0    0  501  503 -0.00000000000E+00 -0.00000000000E+00 -0.15438584354E+03  0.15438584354E+03  0.00000000000E+00 0. -1.
          6    1    1    2  501    0  0.14956309785E+03  0.20915221521E+03  0.17787186138E+03  0.35684193761E+03  0.17200000000E+03 0.  1.
         -6    1    1    2    0  502 -0.14956309785E+03 -0.20915221521E+03  0.30373009498E+03  0.43353170583E+03  0.17200000000E+03 0.  1.
</event>
<event>
 4    1  0.1244074E+000  0.1875482E+03  0.7818608E-02  0.1160691E+00
         21   -1    0    0  501  502  0.00000000000E+00  0.00000000000E+00  0.32350130487E+03  0.32350130487E+03  0.00000000000E+00 0.  1.
         21   -1    0    0  502  503 -0.00000000000E+00 -0.00000000000E+00 -0.17705996440E+03  0.17705996440E+03  0.00000000000E+00 0.  1.
          6    1    1    2  501    0 -0.74435327635E+02 -0.70503805473E+01 -0.82258557115E+02  0.20479452162E+03  0.17200000000E+03 0.  1.
         -6    1    1    2    0  503  0.74435327635E+02  0.70503805473E+01  0.22869989758E+03  0.29576674765E+03  0.17200000000E+03 0.  1.
</event>
<event>
 4    1  0.1244074E+000  0.1836091E+03  0.7818608E-02  0.1164355E+00
         21   -1    0    0  503  502  0.00000000000E+00  0.00000000000E+00  0.29396641085E+04  0.29396641085E+04  0.00000000000E+00 0.  1.
         21   -1    0    0  501  503 -0.00000000000E+00 -0.00000000000E+00 -0.11519525423E+02  0.11519525423E+02  0.00000000000E+00 0.  1.
          6    1    1    2  501    0  0.51795212797E+02  0.38020728227E+02  0.13654674201E+04  0.13777567257E+04  0.17200000000E+03 0. -1.
         -6    1    1    2    0  502 -0.51795212797E+02 -0.38020728227E+02  0.15626771629E+04  0.15734269082E+04  0.17200000000E+03 0. -1.
</event>
<event>
 4    1  0.1244074E+000  0.1922488E+03  0.7818608E-02  0.1156449E+00
         21   -1    0    0  501  502  0.00000000000E+00  0.00000000000E+00  0.53751333340E+02  0.53751333340E+02  0.00000000000E+00 0. -1.
         21   -1    0    0  502  503 -0.00000000000E+00 -0.00000000000E+00 -0.12773019432E+04  0.12773019432E+04  0.00000000000E+00 0. -1.
          6    1    1    2  501    0  0.77259594903E+02 -0.37504321314E+02 -0.15957218941E+03  0.24984575793E+03  0.17200000000E+03 0. -1.
         -6    1    1    2    0  503 -0.77259594903E+02  0.37504321314E+02 -0.10639784205E+04  0.10812075186E+04  0.17200000000E+03 0. -1.
</event>
<event>
 4    1  0.1244074E+000  0.2550859E+03  0.7818608E-02  0.1110132E+00
         21   -1    0    0  501  502  0.00000000000E+00  0.00000000000E+00  0.61581521313E+03  0.61581521313E+03  0.00000000000E+00 0.  1.
         21   -1    0    0  502  503 -0.00000000000E+00 -0.00000000000E+00 -0.16326644835E+03  0.16326644835E+03  0.00000000000E+00 0. -1.
          6    1    1    2  501    0  0.18758891762E+03 -0.17181425471E+02  0.45765620686E+03  0.52394466031E+03  0.17200000000E+03 0. -1.
         -6    1    1    2    0  503 -0.18758891762E+03  0.17181425471E+02 -0.51074420789E+01  0.25513700116E+03  0.17200000000E+03 0. -1.
</event>
<event>
 4    1  0.1244074E+000  0.2403928E+03  0.7818608E-02  0.1119531E+00
         21   -1    0    0  503  502  0.00000000000E+00  0.00000000000E+00  0.28693541722E+03  0.28693541722E+03  0.00000000000E+00 0. -1.
         21   -1    0    0  501  503 -0.00000000000E+00 -0.00000000000E+00 -0.20394588852E+03  0.20394588852E+03  0.00000000000E+00 0. -1.
          6    1    1    2  501    0 -0.21410325825E+02 -0.16657216614E+03  0.14070198872E+02  0.24080419241E+03  0.17200000000E+03 0. -1.
         -6    1    1    2    0  502  0.21410325825E+02  0.16657216614E+03  0.68919329824E+02  0.25007711333E+03  0.17200000000E+03 0. -1.
</event>
<event>
 4    1  0.1244074E+000  0.2048639E+03  0.7818608E-02  0.1145699E+00
         21   -1    0    0  501  502  0.00000000000E+00  0.00000000000E+00  0.13455443533E+03  0.13455443533E+03  0.00000000000E+00 0.  1.
         21   -1    0    0  502  503 -0.00000000000E+00 -0.00000000000E+00 -0.31197189665E+03  0.31197189665E+03  0.00000000000E+00 0.  1.
          6    1    1    2  501    0 -0.10513777123E+03  0.36486389640E+02 -0.85627566484E+02  0.22203893287E+03  0.17200000000E+03 0.  1.
         -6    1    1    2    0  503  0.10513777123E+03 -0.36486389640E+02 -0.91789894837E+02  0.22448739912E+03  0.17200000000E+03 0.  1.
</event>
<event>
 4    1  0.1244074E+000  0.2508159E+03  0.7818608E-02  0.1112790E+00
         21   -1    0    0  503  502  0.00000000000E+00  0.00000000000E+00  0.46003564012E+03  0.46003564012E+03  0.00000000000E+00 0. -1.
         21   -1    0    0  501  503 -0.00000000000E+00 -0.00000000000E+00 -0.25066255192E+03  0.25066255192E+03  0.00000000000E+00 0. -1.
          6    1    1    2  501    0 -0.11034353624E+03 -0.14542669915E+03 -0.13486637596E+03  0.28477633360E+03  0.17200000000E+03 0. -1.
         -6    1    1    2    0  502  0.11034353624E+03  0.14542669915E+03  0.34423946415E+03  0.42592185844E+03  0.17200000000E+03 0. -1.
</event>
<event>
 4    1  0.1244074E+000  0.1755655E+03  0.7818608E-02  0.1172165E+00
         21   -1    0    0  503  502  0.00000000000E+00  0.00000000000E+00  0.36942716406E+03  0.36942716406E+03  0.00000000000E+00 0.  1.
         21   -1    0    0  501  503 -0.00000000000E+00 -0.00000000000E+00 -0.89356051548E+02  0.89356051548E+02  0.00000000000E+00 0.  1.
          6    1    1    2  501    0  0.23759486202E+02  0.25975759559E+02  0.80987548576E+02  0.19334486363E+03  0.17200000000E+03 0. -1.
         -6    1    1    2    0  502 -0.23759486202E+02 -0.25975759559E+02  0.19908356394E+03  0.26543835198E+03  0.17200000000E+03 0. -1.
</event>
<event>
 4    1  0.1244074E+000  0.1762860E+03  0.7818608E-02  0.1171447E+00
         21   -1    0    0  501  502  0.00000000000E+00  0.00000000000E+00  0.94392016889E+02  0.94392016889E+02  0.00000000000E+00 0.  1.
         21   -1    0    0  502  503 -0.00000000000E+00 -0.00000000000E+00 -0.36622326388E+03  0.36622326388E+03  0.00000000000E+00 0.  1.
          6    1    1    2  501    0 -0.37312371201E+02 -0.10026131268E+02 -0.62718597920E+02  0.18711055256E+03  0.17200000000E+03 0. -1.
         -6    1    1    2    0  503  0.37312371201E+02  0.10026131268E+02 -0.20911264907E+03  0.27350472821E+03  0.17200000000E+03 0. -1.
</event>
<event>
 4    1  0.1244074E+000  0.1757499E+03  0.7818608E-02  0.1171981E+00
         21   -1    0    0  501  502  0.00000000000E+00  0.00000000000E+00  0.52617408168E+03  0.52617408168E+03  0.00000000000E+00 0.  1.
         21   -1    0    0  502  503 -0.00000000000E+00 -0.00000000000E+00 -0.76427472567E+02  0.76427472567E+02  0.00000000000E+00 0.  1.
          6    1    1    2  501    0 -0.63983056886E+00 -0.36105667862E+02  0.79775303524E+02  0.19300810265E+03  0.17200000000E+03 0. -1.
         -6    1    1    2    0  503  0.63983056886E+00  0.36105667862E+02  0.36997130559E+03  0.40959345160E+03  0.17200000000E+03 0. -1.
</event>
<event>
 4    1  0.1244074E+000  0.1753141E+03  0.7818608E-02  0.1172417E+00
         21   -1    0    0  503  502  0.00000000000E+00  0.00000000000E+00  0.47605839664E+02  0.47605839664E+02  0.00000000000E+00 0. -1.
         21   -1    0    0  501  503 -0.00000000000E+00 -0.00000000000E+00 -0.68336025839E+03  0.68336025839E+03  0.00000000000E+00 0. -1.
          6    1    1    2  501    0 -0.19747583612E+02 -0.27587341751E+02 -0.40377371127E+03  0.44019113848E+03  0.17200000000E+03 0.  1.
         -6    1    1    2    0  502  0.19747583612E+02  0.27587341751E+02 -0.23198070745E+03  0.29077495957E+03  0.17200000000E+03 0.  1.
</event>
<event>
 4    1  0.1244074E+000  0.2661294E+03  0.7818608E-02  0.1103515E+00
         21   -1    0    0  503  502  0.00000000000E+00  0.00000000000E+00  0.29954150199E+03  0.29954150199E+03  0.00000000000E+00 0.  1.
         21   -1    0    0  501  503 -0.00000000000E+00 -0.00000000000E+00 -0.24222077260E+03  0.24222077260E+03  0.00000000000E+00 0.  1.
          6    1    1    2  501    0  0.98700768732E+02 -0.17747967034E+03 -0.13171298955E+02  0.26645517118E+03  0.17200000000E+03 0.  1.
         -6    1    1    2    0  502 -0.98700768732E+02  0.17747967034E+03  0.70492028344E+02  0.27530710342E+03  0.17200000000E+03 0.  1.
</event>
<event>
 4    1  0.1244074E+000  0.1920031E+03  0.7818608E-02  0.1156667E+00
         21   -1    0    0  503  502  0.00000000000E+00  0.00000000000E+00  0.52439222403E+03  0.52439222403E+03  0.00000000000E+00 0.  1.
         21   -1    0    0  501  503 -0.00000000000E+00 -0.00000000000E+00 -0.78784683887E+02  0.78784683887E+02  0.00000000000E+00 0.  1.
          6    1    1    2  501    0  0.85327808983E+02  0.61137598424E+00  0.12383677265E+03  0.22847484550E+03  0.17200000000E+03 0.  1.
         -6    1    1    2    0  502 -0.85327808983E+02 -0.61137598424E+00  0.32177076748E+03  0.37470206241E+03  0.17200000000E+03 0.  1.
</event>
<event>
 4    1  0.1244074E+000  0.2112317E+03  0.7818608E-02  0.1140594E+00
         21   -1    0    0  501  502  0.00000000000E+00  0.00000000000E+00  0.43926844766E+03  0.43926844766E+03  0.00000000000E+00 0.  1.
         21   -1    0    0  502  503 -0.00000000000E+00 -0.00000000000E+00 -0.10254584202E+03  0.10254584202E+03  0.00000000000E+00 0.  1.
          6    1    1    2  501    0  0.10986255278E+03  0.54452130366E+02  0.19471693050E+03  0.28728643899E+03  0.17200000000E+03 0.  1.
         -6    1    1    2    0  503 -0.10986255278E+03 -0.54452130366E+02  0.14200567514E+03  0.25452785069E+03  0.17200000000E+03 0.  1.
</event>
<event>
 4    1  0.1244074E+000  0.1902301E+03  0.7818608E-02  0.1158254E+00
         21   -1    0    0  503  502  0.00000000000E+00  0.00000000000E+00  0.13678354705E+03  0.13678354705E+03  0.00000000000E+00 0. -1.
         21   -1    0    0  501  503 -0.00000000000E+00 -0.00000000000E+00 -0.30769019729E+03  0.30769019729E+03  0.00000000000E+00 0. -1.
          6    1    1    2  501    0 -0.61910170838E+02 -0.52636776058E+02 -0.16865812491E+03  0.25423033365E+03  0.17200000000E+03 0.  1.
         -6    1    1    2    0  502  0.61910170838E+02  0.52636776058E+02 -0.22485253313E+01  0.19024341070E+03  0.17200000000E+03 0.  1.
</event>
<event>
 4    1  0.1244074E+000  0.1942231E+03  0.7818608E-02  0.1154707E+00
         21   -1    0    0  503  502  0.00000000000E+00  0.00000000000E+00  0.32254103458E+03  0.32254103458E+03  0.00000000000E+00 0. -1.
         21   -1    0    0  501  503 -0.00000000000E+00 -0.00000000000E+00 -0.16358996703E+03  0.16358996703E+03  0.00000000000E+00 0. -1.
          6    1    1    2  501    0 -0.61243037286E+02  0.66241118775E+02 -0.50303216573E+02  0.20063152551E+03  0.17200000000E+03 0. -1.
         -6    1    1    2    0  502  0.61243037286E+02 -0.66241118775E+02  0.20925428412E+03  0.28549947611E+03  0.17200000000E+03 0. -1.
</event>
<event>
 4    1  0.1244074E+000  0.2136896E+03  0.7818608E-02  0.1138677E+00
         21   -1    0    0  503  502  0.00000000000E+00  0.00000000000E+00  0.26638138111E+03  0.26638138111E+03  0.00000000000E+00 0. -1.
         21   -1    0    0  501  503 -0.00000000000E+00 -0.00000000000E+00 -0.21787103040E+03  0.21787103040E+03  0.00000000000E+00 0. -1.
          6    1    1    2  501    0 -0.12664787525E+03 -0.62903210080E+01 -0.87543585394E+02  0.23092668054E+03  0.17200000000E+03 0. -1.
         -6    1    1    2    0  502  0.12664787525E+03  0.62903210080E+01  0.13605393610E+03  0.25332573097E+03  0.17200000000E+03 0. -1.
</event>
<event>
 4    1  0.1244074E+000  0.2056373E+03  0.7818608E-02  0.1145068E+00
         21   -1    0    0  503  502  0.00000000000E+00  0.00000000000E+00  0.91639145487E+02  0.91639145487E+02  0.00000000000E+00 0. -1.
         21   -1    0    0  501  503 -0.00000000000E+00 -0.00000000000E+00 -0.62180687624E+03  0.62180687624E+03  0.00000000000E+00 0. -1.
          6    1    1    2  501    0  0.10629026446E+03  0.37484595308E+02 -0.44623858292E+03  0.49134060293E+03  0.17200000000E+03 0. -1.
         -6    1    1    2    0  502 -0.10629026446E+03 -0.37484595308E+02 -0.83929147837E+02  0.22210541880E+03  0.17200000000E+03 0. -1.
</event>
<event>
 4    1  0.1244074E+000  0.1875474E+03  0.7818608E-02  0.1160692E+00
         21   -1    0    0  501  502  0.00000000000E+00  0.00000000000E+00  0.11783106407E+04  0.11783106407E+04  0.00000000000E+00 0. -1.
         21   -1    0    0  502  503 -0.00000000000E+00 -0.00000000000E+00 -0.30252459147E+02  0.30252459147E+02  0.00000000000E+00 0. -1.
          6    1    1    2  501    0  0.30229857674E+02  0.68382496982E+02  0.50443688026E+03  0.53817337016E+03  0.17200000000E+03 0. -1.
         -6    1    1    2    0  503 -0.30229857674E+02 -0.68382496982E+02  0.64362130134E+03  0.67038972973E+03  0.17200000000E+03 0. -1.
</event>
<event>
 4    1  0.1244074E+000  0.2100089E+03  0.7818608E-02  0.1141559E+00
         21   -1    0    0  501  502  0.00000000000E+00  0.00000000000E+00  0.48409909264E+02  0.48409909264E+02  0.00000000000E+00 0.  1.
         21   -1    0    0  502  503 -0.00000000000E+00 -0.00000000000E+00 -0.91480673169E+03  0.91480673169E+03  0.00000000000E+00 0.  1.
          6    1    1    2  501    0 -0.11831026922E+03 -0.22856689924E+02 -0.46406960850E+03  0.50937643213E+03  0.17200000000E+03 0.  1.
         -6    1    1    2    0  503  0.11831026922E+03  0.22856689924E+02 -0.40232721392E+03  0.45384020882E+03  0.17200000000E+03 0.  1.
</event>
<event>
 4    1  0.1244074E+000  0.2216832E+03  0.7818608E-02  0.1132634E+00
         21   -1    0    0  503  502  0.00000000000E+00  0.00000000000E+00  0.10500447720E+03  0.10500447720E+03  0.00000000000E+00 0.  1.
         21   -1    0    0  501  503 -0.00000000000E+00 -0.00000000000E+00 -0.61849435013E+03  0.61849435013E+03  0.00000000000E+00 0.  1.
          6    1    1    2  501    0 -0.12632082952E+03  0.60020761611E+02 -0.43518054858E+03  0.48839077966E+03  0.17200000000E+03 0.  1.
         -6    1    1    2    0  502  0.12632082952E+03 -0.60020761611E+02 -0.78309324352E+02  0.23510804766E+03  0.17200000000E+03 0.  1.
</event>
<event>
 4    1  0.1244074E+000  0.2000084E+03  0.7818608E-02  0.1149732E+00
         21   -1    0    0  501  502  0.00000000000E+00  0.00000000000E+00  0.14058727370E+03  0.14058727370E+03  0.00000000000E+00 0.  1.
         21   -1    0    0  502  503 -0.00000000000E+00 -0.00000000000E+00 -0.31324571926E+03  0.31324571926E+03  0.00000000000E+00 0.  1.
          6    1    1    2  501    0 -0.41825663969E+01 -0.10198947390E+03 -0.15501598904E+03  0.25304802608E+03  0.17200000000E+03 0.  1.
         -6    1    1    2    0  503  0.41825663969E+01  0.10198947390E+03 -0.17642456524E+02  0.20078496687E+03  0.17200000000E+03 0.  1.
</event>
<event>
 4    1  0.1244074E+000  0.1851541E+03  0.7818608E-02  0.1162906E+00
         21   -1    0    0  503  502  0.00000000000E+00  0.00000000000E+00  0.75450196396E+03  0.75450196396E+03  0.00000000000E+00 0.  1.
         21   -1    0    0  501  503 -0.00000000000E+00 -0.00000000000E+00 -0.90386552227E+02  0.90386552227E+02  0.00000000000E+00 0.  1.
          6    1    1    2  501    0  0.52790122009E+02 -0.43717729587E+02  0.34149883028E+02  0.18827706013E+03  0.17200000000E+03 0.  1.
         -6    1    1    2    0  502 -0.52790122009E+02  0.43717729587E+02  0.62996552870E+03  0.65661145605E+03  0.17200000000E+03 0.  1.
</event>
<event>
 4    1  0.1244074E+000  0.2611566E+03  0.7818608E-02  0.1106450E+00
         21   -1    0    0  501  502  0.00000000000E+00  0.00000000000E+00  0.54302956954E+03  0.54302956954E+03  0.00000000000E+00 0. -1.
         21   -1    0    0  502  503 -0.00000000000E+00 -0.00000000000E+00 -0.12673438836E+03  0.12673438836E+03  0.00000000000E+00 0.  1.
          6    1    1    2  501    0 -0.60968146462E+01 -0.19642203315E+03  0.23987492532E+03  0.35460226459E+03  0.17200000000E+03 0.  1.
         -6    1    1    2    0  503  0.60968146462E+01  0.19642203315E+03  0.17642025585E+03  0.31516169331E+03  0.17200000000E+03 0.  1.
</event>
<event>
 4    1  0.1244074E+000  0.1780791E+03  0.7818608E-02  0.1169675E+00
         21   -1    0    0  501  502  0.00000000000E+00  0.00000000000E+00  0.95018383454E+02  0.95018383454E+02  0.00000000000E+00 0.  1.
         21   -1    0    0  502  503 -0.00000000000E+00 -0.00000000000E+00 -0.34325864620E+03  0.34325864620E+03  0.00000000000E+00 0.  1.
          6    1    1    2  501    0  0.99635529700E+01  0.45043322891E+02 -0.87643199797E+02  0.19847796804E+03  0.17200000000E+03 0.  1.
         -6    1    1    2    0  503 -0.99635529700E+01 -0.45043322891E+02 -0.16059706294E+03  0.23979906161E+03  0.17200000000E+03 0.  1.
</event>
<event>
 4    1  0.1244074E+000  0.1759370E+03  0.7818608E-02  0.1171794E+00
         21   -1    0    0  503  502  0.00000000000E+00  0.00000000000E+00  0.37864348138E+03  0.37864348138E+03  0.00000000000E+00 0.  1.
         21   -1    0    0  501  503 -0.00000000000E+00 -0.00000000000E+00 -0.24988065759E+03  0.24988065759E+03  0.00000000000E+00 0.  1.
          6    1    1    2  501    0 -0.10698871792E+01 -0.36995937172E+02 -0.19339904590E+03  0.26145178328E+03  0.17200000000E+03 0.  1.
         -6    1    1    2    0  502  0.10698871792E+01  0.36995937172E+02  0.32216186969E+03  0.36707235569E+03  0.17200000000E+03 0.  1.
</event>
<event>
 4    1  0.1244074E+000  0.2046261E+03  0.7818608E-02  0.1145894E+00
         21   -1    0    0  503  502  0.00000000000E+00  0.00000000000E+00  0.11736263844E+04  0.11736263844E+04  0.00000000000E+00 0.  1.
         21   -1    0    0  501  503 -0.00000000000E+00 -0.00000000000E+00 -0.38908217887E+02  0.38908217887E+02  0.00000000000E+00 0.  1.
          6    1    1    2  501    0 -0.70307011708E+01  0.11062739235E+03  0.39265433343E+03  0.44277452078E+03  0.17200000000E+03 0.  1.
         -6    1    1    2    0  502  0.70307011708E+01 -0.11062739235E+03  0.74206383304E+03  0.76976008146E+03  0.17200000000E+03 0.  1.
</event>
<event>
 4    1  0.1244074E+000  0.2344457E+03  0.7818608E-02  0.1123549E+00
         21   -1    0    0  501  502  0.00000000000E+00  0.00000000000E+00  0.11334984523E+03  0.11334984523E+03  0.00000000000E+00 0. -1.
         21   -1    0    0  502  503 -0.00000000000E+00 -0.00000000000E+00 -0.51208158138E+03  0.51208158138E+03  0.00000000000E+00 0. -1.
          6    1    1    2  501    0 -0.15917870185E+03 -0.65502542619E+01 -0.12733526839E+03  0.26679399455E+03  0.17200000000E+03 0. -1.
         -6    1    1    2    0  503  0.15917870185E+03  0.65502542619E+01 -0.27139646777E+03  0.35863743206E+03  0.17200000000E+03 0. -1.
</event>
<event>
 4    1  0.1244074E+000  0.1736816E+03  0.7818608E-02  0.1174062E+00
         21   -1    0    0  501  502  0.00000000000E+00  0.00000000000E+00  0.24075727861E+03  0.24075727861E+03  0.00000000000E+00 0. -1.
         21   -1    0    0  502  503 -0.00000000000E+00 -0.00000000000E+00 -0.22254084821E+03  0.22254084821E+03  0.00000000000E+00 0. -1.
          6    1    1    2  501    0 -0.41545211488E+01 -0.23749234580E+02  0.16223984185E+03  0.23767004959E+03  0.17200000000E+03 0.  1.
         -6    1    1    2    0  503  0.41545211488E+01  0.23749234580E+02 -0.14402341144E+03  0.22562807723E+03  0.17200000000E+03 0.  1.
</event>
<event>
 4    1  0.1244074E+000  0.2045033E+03  0.7818608E-02  0.1145994E+00
         21   -1    0    0  503  502  0.00000000000E+00  0.00000000000E+00  0.19353545782E+03  0.19353545782E+03  0.00000000000E+00 0. -1.
         21   -1    0    0  501  503 -0.00000000000E+00 -0.00000000000E+00 -0.27626822568E+03  0.27626822568E+03  0.00000000000E+00 0. -1.
          6    1    1    2  501    0 -0.11062367907E+03  0.46578498714E-01 -0.15099675449E+03  0.25420782916E+03  0.17200000000E+03 0. -1.
         -6    1    1    2    0  502  0.11062367907E+03 -0.46578498714E-01  0.68263986630E+02  0.21559585434E+03  0.17200000000E+03 0. -1.
</event>
<event>
 4    1  0.1244074E+000  0.2026136E+03  0.7818608E-02  0.1147552E+00
         21   -1    0    0  501  502  0.00000000000E+00  0.00000000000E+00  0.14381241734E+03  0.14381241734E+03  0.00000000000E+00 0.  1.
         21   -1    0    0  502  503 -0.00000000000E+00 -0.00000000000E+00 -0.49088987970E+03  0.49088987970E+03  0.00000000000E+00 0. -1.
          6    1    1    2  501    0  0.10688910272E+03 -0.65568485830E+01  0.31758422806E+02  0.20508746905E+03  0.17200000000E+03 0.  1.
         -6    1    1    2    0  503 -0.10688910272E+03  0.65568485830E+01 -0.37883588516E+03  0.42961482799E+03  0.17200000000E+03 0. -1.
</event>
<event>
 4    1  0.1244074E+000  0.1951346E+03  0.7818608E-02  0.1153910E+00
         21   -1    0    0  501  502  0.00000000000E+00  0.00000000000E+00  0.25320588974E+03  0.25320588974E+03  0.00000000000E+00 0.  1.
         21   -1    0    0  502  503 -0.00000000000E+00 -0.00000000000E+00 -0.16545276107E+03  0.16545276107E+03  0.00000000000E+00 0. -1.
          6    1    1    2  501    0  0.42920297331E+02 -0.81555849909E+02  0.10705462935E+03  0.22257179121E+03  0.17200000000E+03 0.  1.
         -6    1    1    2    0  503 -0.42920297331E+02  0.81555849909E+02 -0.19301500686E+02  0.19608685960E+03  0.17200000000E+03 0. -1.
</event>
<event>
 4    1  0.1244074E+000  0.2763691E+03  0.7818608E-02  0.1097689E+00
         21   -1    0    0  501  502  0.00000000000E+00  0.00000000000E+00  0.52632545540E+03  0.52632545540E+03  0.00000000000E+00 0.  1.
         21   -1    0    0  502  503 -0.00000000000E+00 -0.00000000000E+00 -0.37540115295E+03  0.37540115295E+03  0.00000000000E+00 0. -1.
          6    1    1    2  501    0 -0.21580568524E+03  0.14960157331E+02  0.42858603487E+03  0.50996655711E+03  0.17200000000E+03 0.  1.
         -6    1    1    2    0  503  0.21580568524E+03 -0.14960157331E+02 -0.27766173242E+03  0.39176005123E+03  0.17200000000E+03 0. -1.
</event>
<event>
 4    1  0.1244074E+000  0.2006556E+03  0.7818608E-02  0.1149187E+00
         21   -1    0    0  503  502  0.00000000000E+00  0.00000000000E+00  0.18477111963E+02  0.18477111963E+02  0.00000000000E+00 0.  1.
         21   -1    0    0  501  503 -0.00000000000E+00 -0.00000000000E+00 -0.28043742754E+04  0.28043742754E+04  0.00000000000E+00 0.  1.
          6    1    1    2  501    0 -0.37783962138E+02  0.96182425953E+02 -0.20594331825E+04  0.20691852793E+04  0.17200000000E+03 0. -1.
         -6    1    1    2    0  502  0.37783962138E+02 -0.96182425953E+02 -0.72646398096E+03  0.75366610810E+03  0.17200000000E+03 0. -1.
</event>
<event>
 4    1  0.1244074E+000  0.1871872E+03  0.7818608E-02  0.1161023E+00
         21   -1    0    0  501  502  0.00000000000E+00  0.00000000000E+00  0.15821417625E+04  0.15821417625E+04  0.00000000000E+00 0.  1.
         21   -1    0    0  502  503 -0.00000000000E+00 -0.00000000000E+00 -0.44772560896E+02  0.44772560896E+02  0.00000000000E+00 0.  1.
          6    1    1    2  501    0 -0.65018444916E+02 -0.35037656486E+02  0.13469568990E+04  0.13599014388E+04  0.17200000000E+03 0.  1.
         -6    1    1    2    0  503  0.65018444916E+02  0.35037656486E+02  0.19041230265E+03  0.26701288462E+03  0.17200000000E+03 0.  1.
</event>
<event>
 4    1  0.1244074E+000  0.1753149E+03  0.7818608E-02  0.1172416E+00
         21   -1    0    0  501  502  0.00000000000E+00  0.00000000000E+00  0.69834721511E+02  0.69834721511E+02  0.00000000000E+00 0. -1.
         21   -1    0    0  502  503 -0.00000000000E+00 -0.00000000000E+00 -0.49932148305E+03  0.49932148305E+03  0.00000000000E+00 0. -1.
          6    1    1    2  501    0 -0.33275236099E+02  0.66396895511E+01 -0.11675038811E+03  0.21063233355E+03  0.17200000000E+03 0. -1.
         -6    1    1    2    0  503  0.33275236099E+02 -0.66396895511E+01 -0.31273637343E+03  0.35852387100E+03  0.17200000000E+03 0. -1.
</event>
<event>
 4    1  0.1244074E+000  0.2195231E+03  0.7818608E-02  0.1134239E+00
         21   -1    0    0  503  502  0.00000000000E+00  0.00000000000E+00  0.86761375860E+02  0.86761375860E+02  0.00000000000E+00 0. -1.
         21   -1    0    0  501  503 -0.00000000000E+00 -0.00000000000E+00 -0.63706800228E+03  0.63706800228E+03  0.00000000000E+00 0. -1.
          6    1    1    2  501    0  0.10271056282E+03  0.89760414722E+02 -0.40470513730E+03  0.46040920921E+03  0.17200000000E+03 0. -1.
         -6    1    1    2    0  502 -0.10271056282E+03 -0.89760414722E+02 -0.14560148911E+03  0.26342016893E+03  0.17200000000E+03 0. -1.
</event>
<event>
 4    1  0.1244074E+000  0.1723060E+03  0.7818608E-02  0.1175464E+00
         21   -1    0    0  503  502  0.00000000000E+00  0.00000000000E+00  0.23085524287E+03  0.23085524287E+03  0.00000000000E+00 0. -1.
         21   -1    0    0  501  503 -0.00000000000E+00 -0.00000000000E+00 -0.23499884933E+03  0.23499884933E+03  0.00000000000E+00 0. -1.
          6    1    1    2  501    0 -0.10076704813E+02  0.19577101481E+01 -0.15879859463E+03  0.23432107516E+03  0.17200000000E+03 0. -1.
         -6    1    1    2    0  502  0.10076704813E+02 -0.19577101481E+01  0.15465498818E+03  0.23153301704E+03  0.17200000000E+03 0. -1.
</event>
<event>
 4    1  0.1244074E+000  0.1877685E+03  0.7818608E-02  0.1160490E+00
         21   -1    0    0  501  502  0.00000000000E+00  0.00000000000E+00  0.81162219865E+03  0.81162219865E+03  0.00000000000E+00 0.  1.
         21   -1    0    0  502  503 -0.00000000000E+00 -0.00000000000E+00 -0.54383043327E+02  0.54383043327E+02  0.00000000000E+00 0. -1.
          6    1    1    2  501    0  0.41018249388E+02 -0.63170358099E+02  0.57285338935E+03  0.60284160159E+03  0.17200000000E+03 0.  1.
         -6    1    1    2    0  503 -0.41018249388E+02  0.63170358099E+02  0.18438576597E+03  0.26316364038E+03  0.17200000000E+03 0. -1.
</event>
<event>
 4    1  0.1244074E+000  0.1926022E+03  0.7818608E-02  0.1156135E+00
         21   -1    0    0  501  502  0.00000000000E+00  0.00000000000E+00  0.96302225060E+03  0.96302225060E+03  0.00000000000E+00 0.  1.
         21   -1    0    0  502  503 -0.00000000000E+00 -0.00000000000E+00 -0.55414117211E+02  0.55414117211E+02  0.00000000000E+00 0.  1.
          6    1    1    2  501    0  0.85908375433E+02 -0.11460337455E+02  0.73496943707E+03  0.75978658960E+03  0.17200000000E+03 0.  1.
         -6    1    1    2    0  503 -0.85908375433E+02  0.11460337455E+02  0.17263869632E+03  0.25864977822E+03  0.17200000000E+03 0.  1.
</event>
<event>
 4    1  0.1244074E+000  0.1857373E+03  0.7818608E-02  0.1162363E+00
         21   -1    0    0  501  502  0.00000000000E+00  0.00000000000E+00  0.42043365528E+02  0.42043365528E+02  0.00000000000E+00 0. -1.
         21   -1    0    0  502  503 -0.00000000000E+00 -0.00000000000E+00 -0.11747401711E+04  0.11747401711E+04  0.00000000000E+00 0. -1.
          6    1    1    2  501    0  0.31800200856E+02  0.62474834968E+02 -0.23227998300E+03  0.29740939508E+03  0.17200000000E+03 0. -1.
         -6    1    1    2    0  503 -0.31800200856E+02 -0.62474834968E+02 -0.90041682253E+03  0.91937414151E+03  0.17200000000E+03 0. -1.
</event>
<event>
 4    1  0.1244074E+000  0.1752954E+03  0.7818608E-02  0.1172435E+00
         21   -1    0    0  501  502  0.00000000000E+00  0.00000000000E+00  0.11697527801E+03  0.11697527801E+03  0.00000000000E+00 0. -1.
         21   -1    0    0  502  503 -0.00000000000E+00 -0.00000000000E+00 -0.52788776851E+03  0.52788776851E+03  0.00000000000E+00 0. -1.
          6    1    1    2  501    0 -0.15106030653E+01  0.33796385414E+02  0.23077288716E+02  0.17680791510E+03  0.17200000000E+03 0. -1.
         -6    1    1    2    0  503  0.15106030653E+01 -0.33796385414E+02 -0.43398977922E+03  0.46805513142E+03  0.17200000000E+03 0. -1.
</event>
<event>
 4    1  0.1244074E+000  0.2020952E+03  0.7818608E-02  0.1147983E+00
         21   -1    0    0  501  502  0.00000000000E+00  0.00000000000E+00  0.45353931126E+03  0.45353931126E+03  0.00000000000E+00 0.  1.
         21   -1    0    0  502  503 -0.00000000000E+00 -0.00000000000E+00 -0.91596330989E+02  0.91596330989E+02  0.00000000000E+00 0.  1.
          6    1    1    2  501    0 -0.74390140971E+02 -0.75660928289E+02  0.21635477137E+03  0.29606056177E+03  0.17200000000E+03 0.  1.
         -6    1    1    2    0  503  0.74390140971E+02  0.75660928289E+02  0.14558820890E+03  0.24907508048E+03  0.17200000000E+03 0.  1.
</event>
<event>
 4    1  0.1244074E+000  0.3004507E+03  0.7818608E-02  0.1085016E+00
         21   -1    0    0  501  502  0.00000000000E+00  0.00000000000E+00  0.10577415180E+04  0.10577415180E+04  0.00000000000E+00 0. -1.
         21   -1    0    0  502  503 -0.00000000000E+00 -0.00000000000E+00 -0.89314334037E+02  0.89314334037E+02  0.00000000000E+00 0.  1.
          6    1    1    2  501    0 -0.97512204976E+02 -0.22622559661E+03  0.36327311094E+03  0.47142125940E+03  0.17200000000E+03 0.  1.
         -6    1    1    2    0  503  0.97512204976E+02  0.22622559661E+03  0.60515407306E+03  0.67563459268E+03  0.17200000000E+03 0. -1.
</event>
<event>
 4    1  0.1244074E+000  0.2775758E+03  0.7818608E-02  0.1097020E+00
         21   -1    0    0  503  502  0.00000000000E+00  0.00000000000E+00  0.22763468027E+03  0.22763468027E+03  0.00000000000E+00 0.  1.
         21   -1    0    0  501  503 -0.00000000000E+00 -0.00000000000E+00 -0.40058641552E+03  0.40058641552E+03  0.00000000000E+00 0.  1.
          6    1    1    2  501    0 -0.29118376304E+02 -0.21590844425E+03 -0.21016311395E+03  0.34816213264E+03  0.17200000000E+03 0.  1.
         -6    1    1    2    0  502  0.29118376304E+02  0.21590844425E+03  0.37211378692E+02  0.28005896315E+03  0.17200000000E+03 0.  1.
</event>
<event>
 4    1  0.1244074E+000  0.2851910E+03  0.7818608E-02  0.1092887E+00
         21   -1    0    0  503  502  0.00000000000E+00  0.00000000000E+00  0.19268083652E+04  0.19268083652E+04  0.00000000000E+00 0. -1.
         21   -1    0    0  501  503 -0.00000000000E+00 -0.00000000000E+00 -0.42314190498E+02  0.42314190498E+02  0.00000000000E+00 0.  1.
          6    1    1    2  501    0  0.22097508460E+03  0.54036095458E+02  0.89379555784E+03  0.93819208420E+03  0.17200000000E+03 0. -1.
         -6    1    1    2    0  502 -0.22097508460E+03 -0.54036095458E+02  0.99069861682E+03  0.10309304715E+04  0.17200000000E+03 0. -1.
</event>
<event>
 4    1  0.1244074E+000  0.1815031E+03  0.7818608E-02  0.1166356E+00
         21   -1    0    0  503  502  0.00000000000E+00  0.00000000000E+00  0.23992063778E+03  0.23992063778E+03  0.00000000000E+00 0. -1.
         21   -1    0    0  501  503 -0.00000000000E+00 -0.00000000000E+00 -0.17104973630E+03  0.17104973630E+03  0.00000000000E+00 0.  1.
          6    1    1    2  501    0  0.52234559538E+02  0.25118357591E+02  0.12569817350E+03  0.22077910209E+03  0.17200000000E+03 0. -1.
         -6    1    1    2    0  502 -0.52234559538E+02 -0.25118357591E+02 -0.56827272016E+02  0.19019127199E+03  0.17200000000E+03 0.  1.
</event>
<event>
 4    1  0.1244074E+000  0.2254058E+03  0.7818608E-02  0.1129916E+00
         21   -1    0    0  503  502  0.00000000000E+00  0.00000000000E+00  0.14314345041E+03  0.14314345041E+03  0.00000000000E+00 0.  1.
         21   -1    0    0  501  503 -0.00000000000E+00 -0.00000000000E+00 -0.42501095524E+03  0.42501095524E+03  0.00000000000E+00 0. -1.
          6    1    1    2  501    0  0.14293338157E+03 -0.28174919540E+02 -0.25627795851E+03  0.34130070272E+03  0.17200000000E+03 0. -1.
         -6    1    1    2    0  502 -0.14293338157E+03  0.28174919540E+02 -0.25589546316E+02  0.22685370294E+03  0.17200000000E+03 0.  1.
</event>
<event>
 4    1  0.1244074E+000  0.3109629E+03  0.7818608E-02  0.1079885E+00
         21   -1    0    0  503  502  0.00000000000E+00  0.00000000000E+00  0.11611492565E+03  0.11611492565E+03  0.00000000000E+00 0.  1.
         21   -1    0    0  501  503 -0.00000000000E+00 -0.00000000000E+00 -0.10311817548E+04  0.10311817548E+04  0.00000000000E+00 0. -1.
          6    1    1    2  501    0  0.61871275139E+02 -0.25156682487E+03 -0.70915818427E+03  0.77434052741E+03  0.17200000000E+03 0. -1.
         -6    1    1    2    0  502 -0.61871275139E+02  0.25156682487E+03 -0.20590864490E+03  0.37295615306E+03  0.17200000000E+03 0.  1.
</event>
<event>
 4    1  0.1244074E+000  0.1790752E+03  0.7818608E-02  0.1168701E+00
         21   -1    0    0  503  502  0.00000000000E+00  0.00000000000E+00  0.19468285534E+03  0.19468285534E+03  0.00000000000E+00 0.  1.
         21   -1    0    0  501  503 -0.00000000000E+00 -0.00000000000E+00 -0.16474409247E+03  0.16474409247E+03  0.00000000000E+00 0.  1.
          6    1    1    2  501    0  0.33277858741E+01 -0.49727855702E+02  0.12744324024E+02  0.17952813592E+03  0.17200000000E+03 0. -1.
         -6    1    1    2    0  502 -0.33277858741E+01  0.49727855702E+02  0.17194438848E+02  0.17989881189E+03  0.17200000000E+03 0. -1.
</event>
<event>
 4    1  0.1244074E+000  0.1833283E+03  0.7818608E-02  0.1164620E+00
         21   -1    0    0  501  502  0.00000000000E+00  0.00000000000E+00  0.52841250067E+02  0.52841250067E+02  0.00000000000E+00 0. -1.
         21   -1    0    0  502  503 -0.00000000000E+00 -0.00000000000E+00 -0.72481274916E+03  0.72481274916E+03  0.00000000000E+00 0. -1.
          6    1    1    2  501    0  0.59578685591E+02  0.21809546167E+02 -0.47206046659E+03  0.50640928131E+03  0.17200000000E+03 0.  1.
         -6    1    1    2    0  503 -0.59578685591E+02 -0.21809546167E+02 -0.19991103250E+03  0.27124471792E+03  0.17200000000E+03 0.  1.
</event>
<event>
 4    1  0.1244074E+000  0.2103845E+03  0.7818608E-02  0.1141262E+00
         21   -1    0    0  503  502  0.00000000000E+00  0.00000000000E+00  0.44820605523E+03  0.44820605523E+03  0.00000000000E+00 0. -1.
         21   -1    0    0  501  503 -0.00000000000E+00 -0.00000000000E+00 -0.13876654187E+03  0.13876654187E+03  0.00000000000E+00 0. -1.
          6    1    1    2  501    0  0.12052413886E+01  0.12114524122E+03 -0.28779158824E+01  0.21040414558E+03  0.17200000000E+03 0. -1.
         -6    1    1    2    0  502 -0.12052413886E+01 -0.12114524122E+03  0.31231742924E+03  0.37656845152E+03  0.17200000000E+03 0. -1.
</event>
<event>
 4    1  0.1244074E+000  0.2190243E+03  0.7818608E-02  0.1134613E+00
         21   -1    0    0  501  502  0.00000000000E+00  0.00000000000E+00  0.13522753964E+03  0.13522753964E+03  0.00000000000E+00 0. -1.
         21   -1    0    0  502  503 -0.00000000000E+00 -0.00000000000E+00 -0.35500835393E+03  0.35500835393E+03  0.00000000000E+00 0. -1.
          6    1    1    2  501    0  0.12159025360E+03 -0.60028953783E+02 -0.11653163745E+03  0.24809531957E+03  0.17200000000E+03 0. -1.
         -6    1    1    2    0  503 -0.12159025360E+03  0.60028953783E+02 -0.10324917684E+03  0.24214057401E+03  0.17200000000E+03 0. -1.
</event>
<event>
 4    1  0.1244074E+000  0.2320247E+03  0.7818608E-02  0.1125223E+00
         21   -1    0    0  501  502  0.00000000000E+00  0.00000000000E+00  0.12634233412E+04  0.12634233412E+04  0.00000000000E+00 0. -1.
         21   -1    0    0  502  503 -0.00000000000E+00 -0.00000000000E+00 -0.69974083086E+02  0.69974083086E+02  0.00000000000E+00 0. -1.
          6    1    1    2  501    0 -0.15408605874E+03 -0.22559739157E+02  0.10136374592E+04  0.10398540061E+04  0.17200000000E+03 0.  1.
         -6    1    1    2    0  503  0.15408605874E+03  0.22559739157E+02  0.17981179893E+03  0.29354341820E+03  0.17200000000E+03 0.  1.
</event>
<event>
 4    1  0.1244074E+000  0.2254705E+03  0.7818608E-02  0.1129869E+00
         21   -1    0    0  503  502  0.00000000000E+00  0.00000000000E+00  0.25739704163E+02  0.25739704163E+02  0.00000000000E+00 0. -1.
         21   -1    0    0  501  503 -0.00000000000E+00 -0.00000000000E+00 -0.20752892086E+04  0.20752892086E+04  0.00000000000E+00 0. -1.
          6    1    1    2  501    0  0.16943314488E+02  0.14479591330E+03 -0.12556643042E+04  0.12757467528E+04  0.17200000000E+03 0. -1.
         -6    1    1    2    0  502 -0.16943314488E+02 -0.14479591330E+03 -0.79388520024E+03  0.82528215997E+03  0.17200000000E+03 0. -1.
</event>
<event>
 4    1  0.1244074E+000  0.2667012E+03  0.7818608E-02  0.1103183E+00
         21   -1    0    0  501  502  0.00000000000E+00  0.00000000000E+00  0.64775972424E+03  0.64775972424E+03  0.00000000000E+00 0. -1.
         21   -1    0    0  502  503 -0.00000000000E+00 -0.00000000000E+00 -0.13811108396E+03  0.13811108396E+03  0.00000000000E+00 0.  1.
          6    1    1    2  501    0  0.83599025538E+02  0.18589441248E+03  0.43270134918E+03  0.50829124254E+03  0.17200000000E+03 0.  1.
         -6    1    1    2    0  503 -0.83599025538E+02 -0.18589441248E+03  0.76947291095E+02  0.27757956565E+03  0.17200000000E+03 0.  1.
</event>
<event>
 4    1  0.1244074E+000  0.2525101E+03  0.7818608E-02  0.1111729E+00
         21   -1    0    0  501  502  0.00000000000E+00  0.00000000000E+00  0.58893999719E+02  0.58893999719E+02  0.00000000000E+00 0.  1.
         21   -1    0    0  502  503 -0.00000000000E+00 -0.00000000000E+00 -0.13943982249E+04  0.13943982249E+04  0.00000000000E+00 0. -1.
          6    1    1    2  501    0 -0.60580752904E+02  0.17466341449E+03 -0.32416684922E+03  0.41090811883E+03  0.17200000000E+03 0. -1.
         -6    1    1    2    0  503  0.60580752904E+02 -0.17466341449E+03 -0.10113373759E+04  0.10423841057E+04  0.17200000000E+03 0. -1.
</event>
<event>
 4    1  0.1244074E+000  0.1961075E+03  0.7818608E-02  0.1153065E+00
         21   -1    0    0  503  502  0.00000000000E+00  0.00000000000E+00  0.57177280096E+02  0.57177280096E+02  0.00000000000E+00 0. -1.
         21   -1    0    0  501  503 -0.00000000000E+00 -0.00000000000E+00 -0.81992522554E+03  0.81992522554E+03  0.00000000000E+00 0. -1.
          6    1    1    2  501    0  0.76841301769E+02  0.54493690919E+02 -0.19548505407E+03  0.27689809384E+03  0.17200000000E+03 0. -1.
         -6    1    1    2    0  502 -0.76841301769E+02 -0.54493690919E+02 -0.56726289137E+03  0.60020441179E+03  0.17200000000E+03 0. -1.
</event>
<event>
 4    1  0.1244074E+000  0.1896020E+03  0.7818608E-02  0.1158821E+00
         21   -1    0    0  501  502  0.00000000000E+00  0.00000000000E+00  0.17280371093E+04  0.17280371093E+04  0.00000000000E+00 0. -1.
         21   -1    0    0  502  503 -0.00000000000E+00 -0.00000000000E+00 -0.23546580759E+02  0.23546580759E+02  0.00000000000E+00 0. -1.
          6    1    1    2  501    0  0.35652455791E+02 -0.71371083004E+02  0.11511753277E+04  0.11666848607E+04  0.17200000000E+03 0. -1.
         -6    1    1    2    0  503 -0.35652455791E+02  0.71371083004E+02  0.55331520076E+03  0.58489882928E+03  0.17200000000E+03 0. -1.
</event>
<event>
 4    1  0.1244074E+000  0.1772317E+03  0.7818608E-02  0.1170509E+00
         21   -1    0    0  503  502  0.00000000000E+00  0.00000000000E+00  0.11247506335E+04  0.11247506335E+04  0.00000000000E+00 0.  1.
         21   -1    0    0  501  503 -0.00000000000E+00 -0.00000000000E+00 -0.29373203524E+02  0.29373203524E+02  0.00000000000E+00 0.  1.
          6    1    1    2  501    0  0.36140582483E+02 -0.22824008563E+02  0.41965059541E+03  0.45554110605E+03  0.17200000000E+03 0. -1.
         -6    1    1    2    0  502 -0.36140582483E+02  0.22824008563E+02  0.67572683455E+03  0.69858273096E+03  0.17200000000E+03 0. -1.
</event>
<event>
 4    1  0.1244074E+000  0.2550125E+03  0.7818608E-02  0.1110177E+00
         21   -1    0    0  501  502  0.00000000000E+00  0.00000000000E+00  0.44063925483E+03  0.44063925483E+03  0.00000000000E+00 0.  1.
         21   -1    0    0  502  503 -0.00000000000E+00 -0.00000000000E+00 -0.16942483646E+03  0.16942483646E+03  0.00000000000E+00 0.  1.
          6    1    1    2  501    0 -0.17522333445E+03 -0.68878007862E+02  0.24512620730E+03  0.35372058805E+03  0.17200000000E+03 0.  1.
         -6    1    1    2    0  503  0.17522333445E+03  0.68878007862E+02  0.26088211068E+02  0.25634350325E+03  0.17200000000E+03 0.  1.
</event>
<event>
 4    1  0.1244074E+000  0.3190462E+03  0.7818608E-02  0.1076089E+00
         21   -1    0    0  503  502  0.00000000000E+00  0.00000000000E+00  0.55829519013E+02  0.55829519013E+02  0.00000000000E+00 0. -1.
         21   -1    0    0  501  503 -0.00000000000E+00 -0.00000000000E+00 -0.18427258088E+04  0.18427258088E+04  0.00000000000E+00 0. -1.
          6    1    1    2  501    0  0.26737199605E+03 -0.26807882784E+02 -0.79582447430E+03  0.85739549844E+03  0.17200000000E+03 0. -1.
         -6    1    1    2    0  502 -0.26737199605E+03  0.26807882784E+02 -0.99107181554E+03  0.10411598294E+04  0.17200000000E+03 0. -1.
</event>
<event>
 4    1  0.1244074E+000  0.1995731E+03  0.7818608E-02  0.1150100E+00
         21   -1    0    0  503  502  0.00000000000E+00  0.00000000000E+00  0.40638385902E+03  0.40638385902E+03  0.00000000000E+00 0. -1.
         21   -1    0    0  501  503 -0.00000000000E+00 -0.00000000000E+00 -0.10313495530E+03  0.10313495530E+03  0.00000000000E+00 0. -1.
          6    1    1    2  501    0  0.16727506958E+02  0.99827830742E+02  0.20841828485E+03  0.28856123569E+03  0.17200000000E+03 0.  1.
         -6    1    1    2    0  502 -0.16727506958E+02 -0.99827830742E+02  0.94830618871E+02  0.22095757863E+03  0.17200000000E+03 0.  1.
</event>
<event>
 4    1  0.1244074E+000  0.1817893E+03  0.7818608E-02  0.1166083E+00
         21   -1    0    0  501  502  0.00000000000E+00  0.00000000000E+00  0.22466273507E+03  0.22466273507E+03  0.00000000000E+00 0. -1.
         21   -1    0    0  502  503 -0.00000000000E+00 -0.00000000000E+00 -0.15203190590E+03  0.15203190590E+03  0.00000000000E+00 0. -1.
          6    1    1    2  501    0 -0.30115609695E+02 -0.50560781998E+02  0.23836545300E+01  0.18180490761E+03  0.17200000000E+03 0. -1.
         -6    1    1    2    0  503  0.30115609695E+02  0.50560781998E+02  0.70247174638E+02  0.19488973336E+03  0.17200000000E+03 0. -1.
</event>
<event>
 4    1  0.1244074E+000  0.1841277E+03  0.7818608E-02  0.1163867E+00
         21   -1    0    0  501  502  0.00000000000E+00  0.00000000000E+00  0.20779486897E+03  0.20779486897E+03  0.00000000000E+00 0.  1.
         21   -1    0    0  502  503 -0.00000000000E+00 -0.00000000000E+00 -0.27803105903E+03  0.27803105903E+03  0.00000000000E+00 0.  1.
          6    1    1    2  501    0  0.49695403607E+02  0.43004280099E+02  0.12102281762E+03  0.22033956438E+03  0.17200000000E+03 0. -1.
         -6    1    1    2    0  503 -0.49695403607E+02 -0.43004280099E+02 -0.19125900768E+03  0.26548636361E+03  0.17200000000E+03 0. -1.
</event>
<event>
 4    1  0.1244074E+000  0.2047939E+03  0.7818608E-02  0.1145756E+00
         21   -1    0    0  503  502  0.00000000000E+00  0.00000000000E+00  0.24794807151E+03  0.24794807151E+03  0.00000000000E+00 0. -1.
         21   -1    0    0  501  503 -0.00000000000E+00 -0.00000000000E+00 -0.17985736891E+03  0.17985736891E+03  0.00000000000E+00 0.  1.
          6    1    1    2  501    0  0.97670320052E+02 -0.53075777676E+02 -0.18144289228E+02  0.20559607201E+03  0.17200000000E+03 0.  1.
         -6    1    1    2    0  502 -0.97670320052E+02  0.53075777676E+02  0.86234991822E+02  0.22220936841E+03  0.17200000000E+03 0.  1.
</event>
<event>
 4    1  0.1244074E+000  0.1993610E+03  0.7818608E-02  0.1150279E+00
         21   -1    0    0  503  502  0.00000000000E+00  0.00000000000E+00  0.19589842294E+03  0.19589842294E+03  0.00000000000E+00 0.  1.
         21   -1    0    0  501  503 -0.00000000000E+00 -0.00000000000E+00 -0.42041231687E+03  0.42041231687E+03  0.00000000000E+00 0.  1.
          6    1    1    2  501    0  0.52951643354E+02  0.85772463814E+02 -0.33391791679E+03  0.38890354490E+03  0.17200000000E+03 0.  1.
         -6    1    1    2    0  502 -0.52951643354E+02 -0.85772463814E+02  0.10940402285E+03  0.22740719491E+03  0.17200000000E+03 0.  1.
</event>
<event>
 4    1  0.1244074E+000  0.3806831E+03  0.7818608E-02  0.1050682E+00
         21   -1    0    0  501  502  0.00000000000E+00  0.00000000000E+00  0.10335437456E+04  0.10335437456E+04  0.00000000000E+00 0. -1.
         21   -1    0    0  502  503 -0.00000000000E+00 -0.00000000000E+00 -0.24010152673E+03  0.24010152673E+03  0.00000000000E+00 0.  1.
          6    1    1    2  501    0  0.31874289646E+03 -0.11721162753E+03  0.80746567864E+03  0.89270399453E+03  0.17200000000E+03 0. -1.
         -6    1    1    2    0  503 -0.31874289646E+03  0.11721162753E+03 -0.14023459810E+02  0.38094127776E+03  0.17200000000E+03 0.  1.
</event>
<event>
 4    1  0.1244074E+000  0.2090967E+03  0.7818608E-02  0.1142283E+00
         21   -1    0    0  503  502  0.00000000000E+00  0.00000000000E+00  0.44852113393E+02  0.44852113393E+02  0.00000000000E+00 0.  1.
         21   -1    0    0  501  503 -0.00000000000E+00 -0.00000000000E+00 -0.10775369194E+04  0.10775369194E+04  0.00000000000E+00 0.  1.
          6    1    1    2  501    0 -0.55166393826E+02 -0.10532852259E+03 -0.68963499497E+03  0.72063711740E+03  0.17200000000E+03 0.  1.
         -6    1    1    2    0  502  0.55166393826E+02  0.10532852259E+03 -0.34304981108E+03  0.40175191544E+03  0.17200000000E+03 0.  1.
</event>
<event>
 4    1  0.1244074E+000  0.1996722E+03  0.7818608E-02  0.1150016E+00
         21   -1    0    0  503  502  0.00000000000E+00  0.00000000000E+00  0.22273322221E+03  0.22273322221E+03  0.00000000000E+00 0.  1.
         21   -1    0    0  501  503 -0.00000000000E+00 -0.00000000000E+00 -0.39427743420E+03  0.39427743420E+03  0.00000000000E+00 0.  1.
          6    1    1    2  501    0  0.70181425351E+02  0.73208865977E+02 -0.31373397745E+03  0.37188436258E+03  0.17200000000E+03 0.  1.
         -6    1    1    2    0  502 -0.70181425351E+02 -0.73208865977E+02  0.14218976547E+03  0.24512629383E+03  0.17200000000E+03 0.  1.
</event>
<event>
 4    1  0.1244074E+000  0.1957531E+03  0.7818608E-02  0.1153372E+00
         21   -1    0    0  503  502  0.00000000000E+00  0.00000000000E+00  0.15189656588E+04  0.15189656588E+04  0.00000000000E+00 0. -1.
         21   -1    0    0  501  503 -0.00000000000E+00 -0.00000000000E+00 -0.25989478874E+02  0.25989478874E+02  0.00000000000E+00 0. -1.
          6    1    1    2  501    0  0.69534467055E+02  0.62451930161E+02  0.87878126135E+03  0.90031982705E+03  0.17200000000E+03 0. -1.
         -6    1    1    2    0  502 -0.69534467055E+02 -0.62451930161E+02  0.61419491856E+03  0.64463531060E+03  0.17200000000E+03 0. -1.
</event>
<event>
 4    1  0.1244074E+000  0.1758073E+03  0.7818608E-02  0.1171924E+00
         21   -1    0    0  501  502  0.00000000000E+00  0.00000000000E+00  0.80698847655E+03  0.80698847655E+03  0.00000000000E+00 0.  1.
         21   -1    0    0  502  503 -0.00000000000E+00 -0.00000000000E+00 -0.47001592073E+02  0.47001592073E+02  0.00000000000E+00 0.  1.
          6    1    1    2  501    0 -0.31652961151E+02  0.17952348017E+02  0.56371040606E+03  0.59048930444E+03  0.17200000000E+03 0. -1.
         -6    1    1    2    0  503  0.31652961151E+02 -0.17952348017E+02  0.19627647841E+03  0.26350076419E+03  0.17200000000E+03 0. -1.
</event>
<event>
 4    1  0.1244074E+000  0.2268464E+03  0.7818608E-02  0.1128879E+00
         21   -1    0    0  503  502  0.00000000000E+00  0.00000000000E+00  0.23419482864E+04  0.23419482864E+04  0.00000000000E+00 0. -1.
         21   -1    0    0  501  503 -0.00000000000E+00 -0.00000000000E+00 -0.31296105996E+02  0.31296105996E+02  0.00000000000E+00 0. -1.
          6    1    1    2  501    0 -0.27432395951E+02 -0.14533667559E+03  0.50766016525E+03  0.55603788450E+03  0.17200000000E+03 0. -1.
         -6    1    1    2    0  502  0.27432395951E+02  0.14533667559E+03  0.18029920152E+04  0.18172065079E+04  0.17200000000E+03 0. -1.
</event>
<event>
 4    1  0.1244074E+000  0.2627280E+03  0.7818608E-02  0.1105515E+00
         21   -1    0    0  503  502  0.00000000000E+00  0.00000000000E+00  0.80422089561E+03  0.80422089561E+03  0.00000000000E+00 0.  1.
         21   -1    0    0  501  503 -0.00000000000E+00 -0.00000000000E+00 -0.85856887514E+02  0.85856887514E+02  0.00000000000E+00 0.  1.
          6    1    1    2  501    0  0.13604061564E+03 -0.14468917753E+03  0.36710706903E+03  0.45143505328E+03  0.17200000000E+03 0.  1.
         -6    1    1    2    0  502 -0.13604061564E+03  0.14468917753E+03  0.35125693906E+03  0.43864272984E+03  0.17200000000E+03 0.  1.
</event>
<event>
 4    1  0.1244074E+000  0.1881784E+03  0.7818608E-02  0.1160115E+00
         21   -1    0    0  503  502  0.00000000000E+00  0.00000000000E+00  0.36645232626E+03  0.36645232626E+03  0.00000000000E+00 0.  1.
         21   -1    0    0  501  503 -0.00000000000E+00 -0.00000000000E+00 -0.18930800349E+03  0.18930800349E+03  0.00000000000E+00 0.  1.
          6    1    1    2  501    0 -0.48391765123E+02  0.59036734246E+02 -0.10585467601E+03  0.21590810859E+03  0.17200000000E+03 0.  1.
         -6    1    1    2    0  502  0.48391765123E+02 -0.59036734246E+02  0.28299899877E+03  0.33985222116E+03  0.17200000000E+03 0.  1.
</event>
<event>
 4    1  0.1244074E+000  0.1730601E+03  0.7818608E-02  0.1174694E+00
         21   -1    0    0  501  502  0.00000000000E+00  0.00000000000E+00  0.52357906536E+02  0.52357906536E+02  0.00000000000E+00 0.  1.
         21   -1    0    0  502  503 -0.00000000000E+00 -0.00000000000E+00 -0.11997258171E+04  0.11997258171E+04  0.00000000000E+00 0.  1.
          6    1    1    2  501    0  0.13272012884E+02 -0.13771760963E+02 -0.12084873528E+03  0.21107871646E+03  0.17200000000E+03 0.  1.
         -6    1    1    2    0  503 -0.13272012884E+02  0.13771760963E+02 -0.10265191753E+04  0.10410050072E+04  0.17200000000E+03 0.  1.
</event>
<event>
 4    1  0.1244074E+000  0.3447805E+03  0.7818608E-02  0.1064778E+00
         21   -1    0    0  503  502  0.00000000000E+00  0.00000000000E+00  0.80229336979E+03  0.80229336979E+03  0.00000000000E+00 0. -1.
         21   -1    0    0  501  503 -0.00000000000E+00 -0.00000000000E+00 -0.17627387745E+03  0.17627387745E+03  0.00000000000E+00 0.  1.
          6    1    1    2  501    0 -0.23011465460E+03 -0.19062216596E+03  0.50838584548E+03  0.61427170886E+03  0.17200000000E+03 0. -1.
         -6    1    1    2    0  502  0.23011465460E+03  0.19062216596E+03  0.11763364686E+03  0.36429553839E+03  0.17200000000E+03 0. -1.
</event>
<event>
 4    1  0.1244074E+000  0.2088178E+03  0.7818608E-02  0.1142506E+00
         21   -1    0    0  503  502  0.00000000000E+00  0.00000000000E+00  0.10550742614E+03  0.10550742614E+03  0.00000000000E+00 0.  1.
         21   -1    0    0  501  503 -0.00000000000E+00 -0.00000000000E+00 -0.52649664019E+03  0.52649664019E+03  0.00000000000E+00 0.  1.
          6    1    1    2  501    0 -0.10848364050E+03  0.47456924756E+02 -0.63962243185E+02  0.21839420440E+03  0.17200000000E+03 0.  1.
         -6    1    1    2    0  502  0.10848364050E+03 -0.47456924756E+02 -0.35702697086E+03  0.41360986193E+03  0.17200000000E+03 0.  1.
</event>
<event>
 4    1  0.1244074E+000  0.1852317E+03  0.7818608E-02  0.1162834E+00
         21   -1    0    0  501  502  0.00000000000E+00  0.00000000000E+00  0.41939764949E+02  0.41939764949E+02  0.00000000000E+00 0. -1.
         21   -1    0    0  502  503 -0.00000000000E+00 -0.00000000000E+00 -0.12214072901E+04  0.12214072901E+04  0.00000000000E+00 0.  1.
          6    1    1    2  501    0 -0.52274447467E+02 -0.44655867278E+02 -0.22675394411E+03  0.29279363980E+03  0.17200000000E+03 0. -1.
         -6    1    1    2    0  503  0.52274447467E+02  0.44655867278E+02 -0.95271358100E+03  0.97055341520E+03  0.17200000000E+03 0.  1.
</event>
<event>
 4    1  0.1244074E+000  0.3395326E+03  0.7818608E-02  0.1066995E+00
         21   -1    0    0  503  502  0.00000000000E+00  0.00000000000E+00  0.53480917837E+03  0.53480917837E+03  0.00000000000E+00 0.  1.
         21   -1    0    0  501  503 -0.00000000000E+00 -0.00000000000E+00 -0.22316463594E+03  0.22316463594E+03  0.00000000000E+00 0.  1.
          6    1    1    2  501    0 -0.54780395246E+02  0.28757171602E+03  0.85852807465E+02  0.35021862901E+03  0.17200000000E+03 0.  1.
         -6    1    1    2    0  502  0.54780395246E+02 -0.28757171602E+03  0.22579173497E+03  0.40775518530E+03  0.17200000000E+03 0.  1.
</event>
<event>
 4    1  0.1244074E+000  0.1823115E+03  0.7818608E-02  0.1165585E+00
         21   -1    0    0  501  502  0.00000000000E+00  0.00000000000E+00  0.44040130626E+02  0.44040130626E+02  0.00000000000E+00 0.  1.
         21   -1    0    0  502  503 -0.00000000000E+00 -0.00000000000E+00 -0.79886018856E+03  0.79886018856E+03  0.00000000000E+00 0.  1.
          6    1    1    2  501    0 -0.58046503033E+02  0.16855125086E+02 -0.27833115799E+03  0.33272469891E+03  0.17200000000E+03 0.  1.
         -6    1    1    2    0  503  0.58046503033E+02 -0.16855125086E+02 -0.47648889995E+03  0.51017562028E+03  0.17200000000E+03 0.  1.
</event>
<event>
 4    1  0.1244074E+000  0.1780538E+03  0.7818608E-02  0.1169700E+00
         21   -1    0    0  503  502  0.00000000000E+00  0.00000000000E+00  0.35393531191E+02  0.35393531191E+02  0.00000000000E+00 0. -1.
         21   -1    0    0  501  503 -0.00000000000E+00 -0.00000000000E+00 -0.10398832316E+04  0.10398832316E+04  0.00000000000E+00 0. -1.
          6    1    1    2  501    0  0.25779245376E+02 -0.38138971341E+02 -0.70241798384E+03  0.72463382107E+03  0.17200000000E+03 0. -1.
         -6    1    1    2    0  502 -0.25779245376E+02  0.38138971341E+02 -0.30207171662E+03  0.35064294176E+03  0.17200000000E+03 0. -1.
</event>
<event>
 4    1  0.1244074E+000  0.2286639E+03  0.7818608E-02  0.1127584E+00
         21   -1    0    0  503  502  0.00000000000E+00  0.00000000000E+00  0.23544031612E+03  0.23544031612E+03  0.00000000000E+00 0.  1.
         21   -1    0    0  501  503 -0.00000000000E+00 -0.00000000000E+00 -0.22211820506E+03  0.22211820506E+03  0.00000000000E+00 0.  1.
          6    1    1    2  501    0 -0.45881462167E+02 -0.14352030074E+03  0.37623933791E+01  0.22869486418E+03  0.17200000000E+03 0.  1.
         -6    1    1    2    0  502  0.45881462167E+02  0.14352030074E+03  0.95597176724E+01  0.22886365701E+03  0.17200000000E+03 0.  1.
</event>
<event>
 4    1  0.1244074E+000  0.2356284E+03  0.7818608E-02  0.1122740E+00
         21   -1    0    0  501  502  0.00000000000E+00  0.00000000000E+00  0.17479143595E+03  0.17479143595E+03  0.00000000000E+00 0.  1.
         21   -1    0    0  502  503 -0.00000000000E+00 -0.00000000000E+00 -0.31764880632E+03  0.31764880632E+03  0.00000000000E+00 0. -1.
          6    1    1    2  501    0  0.15328526325E+03 -0.49400193297E+02 -0.70131970919E+02  0.24584394313E+03  0.17200000000E+03 0.  1.
         -6    1    1    2    0  503 -0.15328526325E+03  0.49400193297E+02 -0.72725399449E+02  0.24659629915E+03  0.17200000000E+03 0. -1.
</event>
<event>
 4    1  0.1244074E+000  0.1735671E+03  0.7818608E-02  0.1174178E+00
         21   -1    0    0  501  502  0.00000000000E+00  0.00000000000E+00  0.13192345062E+03  0.13192345062E+03  0.00000000000E+00 0.  1.
         21   -1    0    0  502  503 -0.00000000000E+00 -0.00000000000E+00 -0.23220192049E+03  0.23220192049E+03  0.00000000000E+00 0.  1.
          6    1    1    2  501    0 -0.20367340530E+02 -0.11256845448E+02 -0.73569316127E+02  0.18851522327E+03  0.17200000000E+03 0. -1.
         -6    1    1    2    0  503  0.20367340530E+02  0.11256845448E+02 -0.26709153739E+02  0.17561014784E+03  0.17200000000E+03 0. -1.
</event>
<event>
 4    1  0.1244074E+000  0.1801381E+03  0.7818608E-02  0.1167669E+00
         21   -1    0    0  501  502  0.00000000000E+00  0.00000000000E+00  0.69703069927E+03  0.69703069927E+03  0.00000000000E+00 0.  1.
         21   -1    0    0  502  503 -0.00000000000E+00 -0.00000000000E+00 -0.84841538974E+02  0.84841538974E+02  0.00000000000E+00 0.  1.
          6    1    1    2  501    0  0.39336838677E+02 -0.36309153288E+02  0.56871520848E+03  0.59656242745E+03  0.17200000000E+03 0.  1.
         -6    1    1    2    0  503 -0.39336838677E+02  0.36309153288E+02  0.43473951815E+02  0.18530981079E+03  0.17200000000E+03 0.  1.
</event>
<event>
 4    1  0.1244074E+000  0.1742896E+03  0.7818608E-02  0.1173447E+00
         21   -1    0    0  503  502  0.00000000000E+00  0.00000000000E+00  0.23714865014E+02  0.23714865014E+02  0.00000000000E+00 0.  1.
         21   -1    0    0  501  503 -0.00000000000E+00 -0.00000000000E+00 -0.16488013082E+04  0.16488013082E+04  0.00000000000E+00 0.  1.
          6    1    1    2  501    0  0.28155031241E+02 -0.40489301661E+00 -0.12075544236E+04  0.12200674390E+04  0.17200000000E+03 0.  1.
         -6    1    1    2    0  502 -0.28155031241E+02  0.40489301661E+00 -0.41753201956E+03  0.45244873420E+03  0.17200000000E+03 0.  1.
</event>
<event>
 4    1  0.1244074E+000  0.2027037E+03  0.7818608E-02  0.1147478E+00
         21   -1    0    0  501  502  0.00000000000E+00  0.00000000000E+00  0.91933267131E+02  0.91933267131E+02  0.00000000000E+00 0.  1.
         21   -1    0    0  502  503 -0.00000000000E+00 -0.00000000000E+00 -0.63470366593E+03  0.63470366593E+03  0.00000000000E+00 0. -1.
          6    1    1    2  501    0 -0.10608326385E+03  0.15846588981E+02 -0.73776412487E+02  0.21571215147E+03  0.17200000000E+03 0.  1.
         -6    1    1    2    0  503  0.10608326385E+03 -0.15846588981E+02 -0.46899398631E+03  0.51092478159E+03  0.17200000000E+03 0. -1.
</event>
<event>
 4    1  0.1244074E+000  0.2636491E+03  0.7818608E-02  0.1104970E+00
         21   -1    0    0  503  502  0.00000000000E+00  0.00000000000E+00  0.37828346370E+03  0.37828346370E+03  0.00000000000E+00 0.  1.
         21   -1    0    0  501  503 -0.00000000000E+00 -0.00000000000E+00 -0.24368615697E+03  0.24368615697E+03  0.00000000000E+00 0. -1.
          6    1    1    2  501    0  0.21237568963E+02 -0.19868519876E+03 -0.86926838372E+02  0.27760964999E+03  0.17200000000E+03 0. -1.
         -6    1    1    2    0  502 -0.21237568963E+02  0.19868519876E+03  0.22152414510E+03  0.34435997067E+03  0.17200000000E+03 0.  1.
</event>
<event>
 4    1  0.1244074E+000  0.2241781E+03  0.7818608E-02  0.1130806E+00
         21   -1    0    0  501  502  0.00000000000E+00  0.00000000000E+00  0.34481219777E+03  0.34481219777E+03  0.00000000000E+00 0.  1.
         21   -1    0    0  502  503 -0.00000000000E+00 -0.00000000000E+00 -0.15342315415E+03  0.15342315415E+03  0.00000000000E+00 0.  1.
          6    1    1    2  501    0  0.12217503757E+03 -0.75796342359E+02  0.15141199238E+03  0.27052064017E+03  0.17200000000E+03 0.  1.
         -6    1    1    2    0  503 -0.12217503757E+03  0.75796342359E+02  0.39977051241E+02  0.22771471175E+03  0.17200000000E+03 0.  1.
</event>
<event>
 4    1  0.1244074E+000  0.1728839E+03  0.7818608E-02  0.1174873E+00
         21   -1    0    0  501  502  0.00000000000E+00  0.00000000000E+00  0.14807691905E+03  0.14807691905E+03  0.00000000000E+00 0. -1.
         21   -1    0    0  502  503 -0.00000000000E+00 -0.00000000000E+00 -0.21720562205E+03  0.21720562205E+03  0.00000000000E+00 0. -1.
          6    1    1    2  501    0 -0.13226954765E+02  0.11396990028E+02 -0.83131561910E+02  0.19183247978E+03  0.17200000000E+03 0.  1.
         -6    1    1    2    0  503  0.13226954765E+02 -0.11396990028E+02  0.14002858907E+02  0.17345006132E+03  0.17200000000E+03 0.  1.
</event>
<event>
 4    1  0.1244074E+000  0.2445691E+03  0.7818608E-02  0.1116786E+00
         21   -1    0    0  501  502  0.00000000000E+00  0.00000000000E+00  0.86302570929E+03  0.86302570929E+03  0.00000000000E+00 0.  1.
         21   -1    0    0  502  503 -0.00000000000E+00 -0.00000000000E+00 -0.11497486148E+03  0.11497486148E+03  0.00000000000E+00 0. -1.
          6    1    1    2  501    0  0.14234024133E+03 -0.99846472174E+02  0.68221016515E+03  0.72472392795E+03  0.17200000000E+03 0.  1.
         -6    1    1    2    0  503 -0.14234024133E+03  0.99846472174E+02  0.65840682654E+02  0.25327664282E+03  0.17200000000E+03 0. -1.
</event>
<event>
 4    1  0.1244074E+000  0.2571833E+03  0.7818608E-02  0.1108847E+00
         21   -1    0    0  501  502  0.00000000000E+00  0.00000000000E+00  0.21118286570E+03  0.21118286570E+03  0.00000000000E+00 0.  1.
         21   -1    0    0  502  503 -0.00000000000E+00 -0.00000000000E+00 -0.65640466052E+03  0.65640466052E+03  0.00000000000E+00 0. -1.
          6    1    1    2  501    0  0.80864802609E+02 -0.17326315753E+03  0.91058228361E+02  0.27282748947E+03  0.17200000000E+03 0.  1.
         -6    1    1    2    0  503 -0.80864802609E+02  0.17326315753E+03 -0.53628002318E+03  0.59476003675E+03  0.17200000000E+03 0. -1.
</event>
<event>
 4    1  0.1244074E+000  0.2396922E+03  0.7818608E-02  0.1119998E+00
         21   -1    0    0  503  502  0.00000000000E+00  0.00000000000E+00  0.15384827600E+04  0.15384827600E+04  0.00000000000E+00 0.  1.
         21   -1    0    0  501  503 -0.00000000000E+00 -0.00000000000E+00 -0.83845044221E+02  0.83845044221E+02  0.00000000000E+00 0. -1.
          6    1    1    2  501    0  0.15448432648E+01 -0.16693105967E+03  0.12322627950E+03  0.26951267351E+03  0.17200000000E+03 0. -1.
         -6    1    1    2    0  502 -0.15448432648E+01  0.16693105967E+03  0.13314114363E+04  0.13528151307E+04  0.17200000000E+03 0.  1.
</event>
<event>
 4    1  0.1244074E+000  0.2203775E+03  0.7818608E-02  0.1133602E+00
         21   -1    0    0  501  502  0.00000000000E+00  0.00000000000E+00  0.11058393416E+04  0.11058393416E+04  0.00000000000E+00 0. -1.
         21   -1    0    0  502  503 -0.00000000000E+00 -0.00000000000E+00 -0.49497861170E+02  0.49497861170E+02  0.00000000000E+00 0. -1.
          6    1    1    2  501    0  0.90971049308E+02  0.10347233082E+03  0.72212402639E+03  0.75500289042E+03  0.17200000000E+03 0.  1.
         -6    1    1    2    0  503 -0.90971049308E+02 -0.10347233082E+03  0.33421745405E+03  0.40033431236E+03  0.17200000000E+03 0.  1.
</event>
<event>
 4    1  0.1244074E+000  0.1844298E+03  0.7818608E-02  0.1163583E+00
         21   -1    0    0  503  502  0.00000000000E+00  0.00000000000E+00  0.99831894719E+03  0.99831894719E+03  0.00000000000E+00 0.  1.
         21   -1    0    0  501  503 -0.00000000000E+00 -0.00000000000E+00 -0.34887413428E+02  0.34887413428E+02  0.00000000000E+00 0. -1.
          6    1    1    2  501    0  0.60216798611E+02 -0.28359719405E+02  0.56071351905E+03  0.59026603067E+03  0.17200000000E+03 0.  1.
         -6    1    1    2    0  502 -0.60216798611E+02  0.28359719405E+02  0.40271801472E+03  0.44294032995E+03  0.17200000000E+03 0. -1.
</event>
<event>
 4    1  0.1244074E+000  0.1762314E+03  0.7818608E-02  0.1171501E+00
         21   -1    0    0  501  502  0.00000000000E+00  0.00000000000E+00  0.71071714625E+02  0.71071714625E+02  0.00000000000E+00 0. -1.
         21   -1    0    0  502  503 -0.00000000000E+00 -0.00000000000E+00 -0.45587697794E+03  0.45587697794E+03  0.00000000000E+00 0. -1.
          6    1    1    2  501    0  0.82645395240E+01  0.37486007087E+02 -0.13877161870E+03  0.22431019927E+03  0.17200000000E+03 0. -1.
         -6    1    1    2    0  503 -0.82645395240E+01 -0.37486007087E+02 -0.24603364462E+03  0.30263849330E+03  0.17200000000E+03 0. -1.
</event>
<event>
 4    1  0.1244074E+000  0.1974912E+03  0.7818608E-02  0.1151873E+00
         21   -1    0    0  501  502  0.00000000000E+00  0.00000000000E+00  0.12268481329E+03  0.12268481329E+03  0.00000000000E+00 0. -1.
         21   -1    0    0  502  503 -0.00000000000E+00 -0.00000000000E+00 -0.32257699191E+03  0.32257699191E+03  0.00000000000E+00 0. -1.
          6    1    1    2  501    0  0.96283996213E+02  0.12172978085E+02 -0.73168936512E+02  0.21060978750E+03  0.17200000000E+03 0. -1.
         -6    1    1    2    0  503 -0.96283996213E+02 -0.12172978085E+02 -0.12672324211E+03  0.23465201770E+03  0.17200000000E+03 0. -1.
</event>
<event>
 4    1  0.1244074E+000  0.5012538E+03  0.7818608E-02  0.1013452E+00
         21   -1    0    0  501  502  0.00000000000E+00  0.00000000000E+00  0.32775569981E+03  0.32775569981E+03  0.00000000000E+00 0.  1.
         21   -1    0    0  502  503 -0.00000000000E+00 -0.00000000000E+00 -0.77164372460E+03  0.77164372460E+03  0.00000000000E+00 0. -1.
          6    1    1    2  501    0 -0.21520257794E+03 -0.41875917979E+03 -0.26641440659E+03  0.56765485663E+03  0.17200000000E+03 0. -1.
         -6    1    1    2    0  503  0.21520257794E+03  0.41875917979E+03 -0.17747361820E+03  0.53174456778E+03  0.17200000000E+03 0. -1.
</event>
<event>
 4    1  0.1244074E+000  0.2154343E+03  0.7818608E-02  0.1137333E+00
         21   -1    0    0  501  502  0.00000000000E+00  0.00000000000E+00  0.82981936581E+02  0.82981936581E+02  0.00000000000E+00 0. -1.
         21   -1    0    0  502  503 -0.00000000000E+00 -0.00000000000E+00 -0.62657077294E+03  0.62657077294E+03  0.00000000000E+00 0.  1.
          6    1    1    2  501    0 -0.90252650510E+02 -0.93179485070E+02 -0.15554880397E+03  0.26572050688E+03  0.17200000000E+03 0. -1.
         -6    1    1    2    0  503  0.90252650510E+02  0.93179485070E+02 -0.38804003239E+03  0.44383220264E+03  0.17200000000E+03 0.  1.
</event>
<event>
 4    1  0.1244074E+000  0.1925392E+03  0.7818608E-02  0.1156191E+00
         21   -1    0    0  501  502  0.00000000000E+00  0.00000000000E+00  0.56008084191E+02  0.56008084191E+02  0.00000000000E+00 0.  1.
         21   -1    0    0  502  503 -0.00000000000E+00 -0.00000000000E+00 -0.67304686209E+03  0.67304686209E+03  0.00000000000E+00 0. -1.
          6    1    1    2  501    0 -0.12163027497E+02 -0.85670302864E+02 -0.26159195614E+03  0.32481023929E+03  0.17200000000E+03 0. -1.
         -6    1    1    2    0  503  0.12163027497E+02  0.85670302864E+02 -0.35544682175E+03  0.40424470699E+03  0.17200000000E+03 0.  1.
</event>
<event>
 4    1  0.1244074E+000  0.2019679E+03  0.7818608E-02  0.1148089E+00
         21   -1    0    0  501  502  0.00000000000E+00  0.00000000000E+00  0.26201857725E+02  0.26201857725E+02  0.00000000000E+00 0.  1.
         21   -1    0    0  502  503 -0.00000000000E+00 -0.00000000000E+00 -0.17242286549E+04  0.17242286549E+04  0.00000000000E+00 0.  1.
          6    1    1    2  501    0  0.10039308366E+03 -0.33589637968E+02 -0.11217435728E+04  0.11397805395E+04  0.17200000000E+03 0.  1.
         -6    1    1    2    0  503 -0.10039308366E+03  0.33589637968E+02 -0.57628322442E+03  0.61064997320E+03  0.17200000000E+03 0.  1.
</event>
<event>
 4    1  0.1244074E+000  0.2102668E+03  0.7818608E-02  0.1141355E+00
         21   -1    0    0  503  502  0.00000000000E+00  0.00000000000E+00  0.10921131151E+03  0.10921131151E+03  0.00000000000E+00 0.  1.
         21   -1    0    0  501  503 -0.00000000000E+00 -0.00000000000E+00 -0.15341563236E+04  0.15341563236E+04  0.00000000000E+00 0.  1.
          6    1    1    2  501    0 -0.99002695110E+00  0.12094269539E+03 -0.14174568548E+04  0.14329675680E+04  0.17200000000E+03 0.  1.
         -6    1    1    2    0  502  0.99002695110E+00 -0.12094269539E+03 -0.74881572446E+01  0.21040006707E+03  0.17200000000E+03 0.  1.
</event>
<event>
 4    1  0.1244074E+000  0.2441287E+03  0.7818608E-02  0.1117073E+00
         21   -1    0    0  503  502  0.00000000000E+00  0.00000000000E+00  0.27432102041E+03  0.27432102041E+03  0.00000000000E+00 0. -1.
         21   -1    0    0  501  503 -0.00000000000E+00 -0.00000000000E+00 -0.22893840232E+03  0.22893840232E+03  0.00000000000E+00 0. -1.
          6    1    1    2  501    0  0.85185387175E+02  0.15085846180E+03 -0.34142282664E+02  0.24650460675E+03  0.17200000000E+03 0. -1.
         -6    1    1    2    0  502 -0.85185387175E+02 -0.15085846180E+03  0.79524900756E+02  0.25675481597E+03  0.17200000000E+03 0. -1.
</event>
<event>
 4    1  0.1244074E+000  0.1880007E+03  0.7818608E-02  0.1160277E+00
         21   -1    0    0  501  502  0.00000000000E+00  0.00000000000E+00  0.36174702212E+03  0.36174702212E+03  0.00000000000E+00 0.  1.
         21   -1    0    0  502  503 -0.00000000000E+00 -0.00000000000E+00 -0.18968059517E+03  0.18968059517E+03  0.00000000000E+00 0. -1.
          6    1    1    2  501    0 -0.36777192689E+01 -0.75807176271E+02  0.27802600812E+03  0.33562287584E+03  0.17200000000E+03 0.  1.
         -6    1    1    2    0  503  0.36777192689E+01  0.75807176271E+02 -0.10595958117E+03  0.21580474145E+03  0.17200000000E+03 0. -1.
</event>
<event>
 4    1  0.1244074E+000  0.2261659E+03  0.7818608E-02  0.1129368E+00
         21   -1    0    0  501  502  0.00000000000E+00  0.00000000000E+00  0.17890372838E+04  0.17890372838E+04  0.00000000000E+00 0. -1.
         21   -1    0    0  502  503 -0.00000000000E+00 -0.00000000000E+00 -0.30834203874E+02  0.30834203874E+02  0.00000000000E+00 0. -1.
          6    1    1    2  501    0 -0.95932880676E+02  0.11119300183E+03  0.63369038568E+03  0.67284062463E+03  0.17200000000E+03 0. -1.
         -6    1    1    2    0  503  0.95932880676E+02 -0.11119300183E+03  0.11245126942E+04  0.11470308630E+04  0.17200000000E+03 0. -1.
</event>
<event>
 4    1  0.1244074E+000  0.1728648E+03  0.7818608E-02  0.1174893E+00
         21   -1    0    0  501  502  0.00000000000E+00  0.00000000000E+00  0.29164848190E+03  0.29164848190E+03  0.00000000000E+00 0.  1.
         21   -1    0    0  502  503 -0.00000000000E+00 -0.00000000000E+00 -0.21993766708E+03  0.21993766708E+03  0.00000000000E+00 0.  1.
          6    1    1    2  501    0 -0.17248855464E+02 -0.85544759744E+00  0.22280173576E+03  0.28199799337E+03  0.17200000000E+03 0.  1.
         -6    1    1    2    0  503  0.17248855464E+02  0.85544759744E+00 -0.15109092094E+03  0.22958815561E+03  0.17200000000E+03 0.  1.
</event>
<event>
 4    1  0.1244074E+000  0.2858438E+03  0.7818608E-02  0.1092539E+00
         21   -1    0    0  503  502  0.00000000000E+00  0.00000000000E+00  0.29139192981E+03  0.29139192981E+03  0.00000000000E+00 0. -1.
         21   -1    0    0  501  503 -0.00000000000E+00 -0.00000000000E+00 -0.30583281226E+03  0.30583281226E+03  0.00000000000E+00 0.  1.
          6    1    1    2  501    0 -0.86669015999E+02 -0.21121349194E+03  0.78889320868E+02  0.29653023869E+03  0.17200000000E+03 0. -1.
         -6    1    1    2    0  502  0.86669015999E+02  0.21121349194E+03 -0.93330203321E+02  0.30069450338E+03  0.17200000000E+03 0.  1.
</event>
<event>
 4    1  0.1244074E+000  0.2456853E+03  0.7818608E-02  0.1116062E+00
         21   -1    0    0  503  502  0.00000000000E+00  0.00000000000E+00  0.36299218496E+03  0.36299218496E+03  0.00000000000E+00 0. -1.
         21   -1    0    0  501  503 -0.00000000000E+00 -0.00000000000E+00 -0.16721439715E+03  0.16721439715E+03  0.00000000000E+00 0.  1.
          6    1    1    2  501    0 -0.97770582689E+02 -0.14566463331E+03  0.78157446283E+02  0.25781749096E+03  0.17200000000E+03 0.  1.
         -6    1    1    2    0  502  0.97770582689E+02  0.14566463331E+03  0.11762034153E+03  0.27238909115E+03  0.17200000000E+03 0. -1.
</event>
<event>
 4    1  0.1244074E+000  0.1890053E+03  0.7818608E-02  0.1159362E+00
         21   -1    0    0  503  502  0.00000000000E+00  0.00000000000E+00  0.84328086479E+03  0.84328086479E+03  0.00000000000E+00 0. -1.
         21   -1    0    0  501  503 -0.00000000000E+00 -0.00000000000E+00 -0.42731068607E+02  0.42731068607E+02  0.00000000000E+00 0. -1.
          6    1    1    2  501    0 -0.30521655159E+02 -0.72162596080E+02  0.35910045535E+03  0.40580309109E+03  0.17200000000E+03 0.  1.
         -6    1    1    2    0  502  0.30521655159E+02  0.72162596080E+02  0.44144934084E+03  0.48020884231E+03  0.17200000000E+03 0.  1.
</event>
<event>
 4    1  0.1244074E+000  0.2426950E+03  0.7818608E-02  0.1118010E+00
         21   -1    0    0  501  502  0.00000000000E+00  0.00000000000E+00  0.18249389190E+03  0.18249389190E+03  0.00000000000E+00 0. -1.
         21   -1    0    0  502  503 -0.00000000000E+00 -0.00000000000E+00 -0.34061655960E+03  0.34061655960E+03  0.00000000000E+00 0. -1.
          6    1    1    2  501    0  0.53868384225E+02  0.16252703611E+03 -0.13895606204E+03  0.27965984242E+03  0.17200000000E+03 0. -1.
         -6    1    1    2    0  503 -0.53868384225E+02 -0.16252703611E+03 -0.19166605658E+02  0.24345060908E+03  0.17200000000E+03 0. -1.
</event>
<event>
 4    1  0.1244074E+000  0.1811114E+03  0.7818608E-02  0.1166732E+00
         21   -1    0    0  503  502  0.00000000000E+00  0.00000000000E+00  0.13847599764E+03  0.13847599764E+03  0.00000000000E+00 0.  1.
         21   -1    0    0  501  503 -0.00000000000E+00 -0.00000000000E+00 -0.25027612800E+03  0.25027612800E+03  0.00000000000E+00 0.  1.
          6    1    1    2  501    0  0.45266419572E+02 -0.34180375352E+02 -0.10088031858E+03  0.20731180737E+03  0.17200000000E+03 0.  1.
         -6    1    1    2    0  502 -0.45266419572E+02  0.34180375352E+02 -0.10919811782E+02  0.18144031826E+03  0.17200000000E+03 0.  1.
</event>
<event>
 4    1  0.1244074E+000  0.1867972E+03  0.7818608E-02  0.1161382E+00
         21   -1    0    0  503  502  0.00000000000E+00  0.00000000000E+00  0.11667867339E+03  0.11667867339E+03  0.00000000000E+00 0. -1.
         21   -1    0    0  501  503 -0.00000000000E+00 -0.00000000000E+00 -0.30523728393E+03  0.30523728393E+03  0.00000000000E+00 0.  1.
          6    1    1    2  501    0  0.32486365849E+02 -0.65221431788E+02 -0.12430508141E+03  0.22437680895E+03  0.17200000000E+03 0.  1.
         -6    1    1    2    0  502 -0.32486365849E+02  0.65221431788E+02 -0.64253529132E+02  0.19753914836E+03  0.17200000000E+03 0. -1.
</event>
<event>
 4    1  0.1244074E+000  0.1816077E+03  0.7818608E-02  0.1166256E+00
         21   -1    0    0  503  502  0.00000000000E+00  0.00000000000E+00  0.85433213558E+02  0.85433213558E+02  0.00000000000E+00 0. -1.
         21   -1    0    0  501  503 -0.00000000000E+00 -0.00000000000E+00 -0.53740873336E+03  0.53740873336E+03  0.00000000000E+00 0. -1.
          6    1    1    2  501    0  0.56703320721E+02 -0.13493599961E+02 -0.60714828453E+02  0.19148794796E+03  0.17200000000E+03 0.  1.
         -6    1    1    2    0  502 -0.56703320721E+02  0.13493599961E+02 -0.39126069135E+03  0.43135399896E+03  0.17200000000E+03 0.  1.
</event>
<event>
 4    1  0.1244074E+000  0.2198968E+03  0.7818608E-02  0.1133960E+00
         21   -1    0    0  501  502  0.00000000000E+00  0.00000000000E+00  0.29667024690E+03  0.29667024690E+03  0.00000000000E+00 0. -1.
         21   -1    0    0  502  503 -0.00000000000E+00 -0.00000000000E+00 -0.21574810106E+03  0.21574810106E+03  0.00000000000E+00 0.  1.
          6    1    1    2  501    0  0.13097941736E+03  0.40187036535E+02  0.16715660327E+03  0.27621718935E+03  0.17200000000E+03 0. -1.
         -6    1    1    2    0  503 -0.13097941736E+03 -0.40187036535E+02 -0.86234457433E+02  0.23620115860E+03  0.17200000000E+03 0. -1.
</event>
<event>
 4    1  0.1244074E+000  0.1903707E+03  0.7818608E-02  0.1158127E+00
         21   -1    0    0  501  502  0.00000000000E+00  0.00000000000E+00  0.51570656977E+03  0.51570656977E+03  0.00000000000E+00 0.  1.
         21   -1    0    0  502  503 -0.00000000000E+00 -0.00000000000E+00 -0.76026751973E+02  0.76026751973E+02  0.00000000000E+00 0.  1.
          6    1    1    2  501    0 -0.84000836568E+01  0.81156792787E+02  0.30122302574E+03  0.35633733688E+03  0.17200000000E+03 0.  1.
         -6    1    1    2    0  503  0.84000836568E+01 -0.81156792787E+02  0.13845679205E+03  0.23539598486E+03  0.17200000000E+03 0.  1.
</event>
<event>
 4    1  0.1244074E+000  0.1989622E+03  0.7818608E-02  0.1150618E+00
         21   -1    0    0  503  502  0.00000000000E+00  0.00000000000E+00  0.21723877995E+04  0.21723877995E+04  0.00000000000E+00 0. -1.
         21   -1    0    0  501  503 -0.00000000000E+00 -0.00000000000E+00 -0.11730171337E+03  0.11730171337E+03  0.00000000000E+00 0. -1.
          6    1    1    2  501    0 -0.68848829685E+02 -0.72538276207E+02 -0.24627341553E+02  0.20048059461E+03  0.17200000000E+03 0. -1.
         -6    1    1    2    0  502  0.68848829685E+02  0.72538276207E+02  0.20797134277E+04  0.20892089183E+04  0.17200000000E+03 0. -1.
</event>
<event>
 4    1  0.1244074E+000  0.2392681E+03  0.7818608E-02  0.1120281E+00
         21   -1    0    0  501  502  0.00000000000E+00  0.00000000000E+00  0.78320857636E+02  0.78320857636E+02  0.00000000000E+00 0.  1.
         21   -1    0    0  502  503 -0.00000000000E+00 -0.00000000000E+00 -0.10302946944E+04  0.10302946944E+04  0.00000000000E+00 0. -1.
          6    1    1    2  501    0 -0.16297468365E+03 -0.33233640467E+02 -0.17720759216E+03  0.29774444258E+03  0.17200000000E+03 0.  1.
         -6    1    1    2    0  503  0.16297468365E+03  0.33233640467E+02 -0.77476624460E+03  0.81087110945E+03  0.17200000000E+03 0. -1.
</event>
<event>
 4    1  0.1244074E+000  0.2075601E+03  0.7818608E-02  0.1143513E+00
         21   -1    0    0  501  502  0.00000000000E+00  0.00000000000E+00  0.81151569504E+02  0.81151569504E+02  0.00000000000E+00 0. -1.
         21   -1    0    0  502  503 -0.00000000000E+00 -0.00000000000E+00 -0.17077143725E+04  0.17077143725E+04  0.00000000000E+00 0.  1.
          6    1    1    2  501    0 -0.11610700451E+03 -0.40421007877E+01 -0.70776795817E+02  0.21929553096E+03  0.17200000000E+03 0. -1.
         -6    1    1    2    0  503  0.11610700451E+03  0.40421007877E+01 -0.15557860072E+04  0.15695704111E+04  0.17200000000E+03 0.  1.
</event>
<event>
 4    1  0.1244074E+000  0.1775134E+03  0.7818608E-02  0.1170231E+00
         21   -1    0    0  501  502  0.00000000000E+00  0.00000000000E+00  0.28890378965E+03  0.28890378965E+03  0.00000000000E+00 0. -1.
         21   -1    0    0  502  503 -0.00000000000E+00 -0.00000000000E+00 -0.10907702462E+03  0.10907702462E+03  0.00000000000E+00 0. -1.
          6    1    1    2  501    0 -0.26530422390E+02 -0.34973628862E+02  0.91395314952E+02  0.19966001508E+03  0.17200000000E+03 0. -1.
         -6    1    1    2    0  503  0.26530422390E+02  0.34973628862E+02  0.88431450082E+02  0.19832079919E+03  0.17200000000E+03 0. -1.
</event>
<event>
 4    1  0.1244074E+000  0.1823041E+03  0.7818608E-02  0.1165592E+00
         21   -1    0    0  503  502  0.00000000000E+00  0.00000000000E+00  0.19136800285E+04  0.19136800285E+04  0.00000000000E+00 0. -1.
         21   -1    0    0  501  503 -0.00000000000E+00 -0.00000000000E+00 -0.49448081032E+02  0.49448081032E+02  0.00000000000E+00 0.  1.
          6    1    1    2  501    0  0.27972676412E+02 -0.53556813349E+02  0.14149433142E+03  0.23077142090E+03  0.17200000000E+03 0.  1.
         -6    1    1    2    0  502 -0.27972676412E+02  0.53556813349E+02  0.17227376160E+04  0.17323566886E+04  0.17200000000E+03 0. -1.
</event>
<event>
 4    1  0.1244074E+000  0.1829598E+03  0.7818608E-02  0.1164969E+00
         21   -1    0    0  501  502  0.00000000000E+00  0.00000000000E+00  0.35596839828E+03  0.35596839828E+03  0.00000000000E+00 0.  1.
         21   -1    0    0  502  503 -0.00000000000E+00 -0.00000000000E+00 -0.94417645387E+02  0.94417645387E+02  0.00000000000E+00 0.  1.
          6    1    1    2  501    0 -0.59787661274E+02  0.17769122656E+02  0.11648252552E+03  0.21689279590E+03  0.17200000000E+03 0. -1.
         -6    1    1    2    0  503  0.59787661274E+02 -0.17769122656E+02  0.14506822737E+03  0.23349324777E+03  0.17200000000E+03 0. -1.
</event>
<event>
 4    1  0.1244074E+000  0.1909471E+03  0.7818608E-02  0.1157610E+00
         21   -1    0    0  503  502  0.00000000000E+00  0.00000000000E+00  0.52175958006E+03  0.52175958006E+03  0.00000000000E+00 0.  1.
         21   -1    0    0  501  503 -0.00000000000E+00 -0.00000000000E+00 -0.70327374401E+02  0.70327374401E+02  0.00000000000E+00 0. -1.
          6    1    1    2  501    0 -0.61641924298E+02  0.55471281468E+02  0.20211597387E+03  0.27804973798E+03  0.17200000000E+03 0. -1.
         -6    1    1    2    0  502  0.61641924298E+02 -0.55471281468E+02  0.24931623179E+03  0.31403721648E+03  0.17200000000E+03 0.  1.
</event>
<event>
 4    1  0.1244074E+000  0.2088329E+03  0.7818608E-02  0.1142494E+00
         21   -1    0    0  501  502  0.00000000000E+00  0.00000000000E+00  0.49297297713E+03  0.49297297713E+03  0.00000000000E+00 0.  1.
         21   -1    0    0  502  503 -0.00000000000E+00 -0.00000000000E+00 -0.90197263557E+02  0.90197263557E+02  0.00000000000E+00 0. -1.
          6    1    1    2  501    0 -0.11282645976E+03 -0.36018760689E+02  0.24178937205E+03  0.31948906332E+03  0.17200000000E+03 0. -1.
         -6    1    1    2    0  503  0.11282645976E+03  0.36018760689E+02  0.16098634152E+03  0.26368117737E+03  0.17200000000E+03 0.  1.
</event>
<event>
 4    1  0.1244074E+000  0.1831474E+03  0.7818608E-02  0.1164791E+00
         21   -1    0    0  501  502  0.00000000000E+00  0.00000000000E+00  0.35199505749E+03  0.35199505749E+03  0.00000000000E+00 0. -1.
         21   -1    0    0  502  503 -0.00000000000E+00 -0.00000000000E+00 -0.96486905022E+02  0.96486905022E+02  0.00000000000E+00 0. -1.
          6    1    1    2  501    0 -0.15739472193E+02  0.60919910782E+02  0.15268910317E+03  0.23844690969E+03  0.17200000000E+03 0.  1.
         -6    1    1    2    0  503  0.15739472193E+02 -0.60919910782E+02  0.10281904930E+03  0.21003505282E+03  0.17200000000E+03 0.  1.
</event>
<event>
 4    1  0.1244074E+000  0.1919113E+03  0.7818608E-02  0.1156749E+00
         21   -1    0    0  501  502  0.00000000000E+00  0.00000000000E+00  0.15479379306E+03  0.15479379306E+03  0.00000000000E+00 0.  1.
         21   -1    0    0  502  503 -0.00000000000E+00 -0.00000000000E+00 -0.50625975973E+03  0.50625975973E+03  0.00000000000E+00 0. -1.
          6    1    1    2  501    0 -0.26506813296E+02 -0.80890829874E+02  0.64899995348E+02  0.20258812133E+03  0.17200000000E+03 0.  1.
         -6    1    1    2    0  503  0.26506813296E+02  0.80890829874E+02 -0.41636596202E+03  0.45846543146E+03  0.17200000000E+03 0. -1.
</event>
<event>
 4    1  0.1244074E+000  0.1951013E+03  0.7818608E-02  0.1153939E+00
         21   -1    0    0  501  502  0.00000000000E+00  0.00000000000E+00  0.48709924575E+02  0.48709924575E+02  0.00000000000E+00 0.  1.
         21   -1    0    0  502  503 -0.00000000000E+00 -0.00000000000E+00 -0.98028553986E+03  0.98028553986E+03  0.00000000000E+00 0.  1.
          6    1    1    2  501    0 -0.71057535943E+02  0.58577839683E+02 -0.23407478225E+03  0.30472207075E+03  0.17200000000E+03 0.  1.
         -6    1    1    2    0  503  0.71057535943E+02 -0.58577839683E+02 -0.69750083304E+03  0.72427339369E+03  0.17200000000E+03 0.  1.
</event>
<event>
 4    1  0.1244074E+000  0.2010782E+03  0.7818608E-02  0.1148833E+00
         21   -1    0    0  503  502  0.00000000000E+00  0.00000000000E+00  0.42239591783E+03  0.42239591783E+03  0.00000000000E+00 0. -1.
         21   -1    0    0  501  503 -0.00000000000E+00 -0.00000000000E+00 -0.19245960381E+03  0.19245960381E+03  0.00000000000E+00 0. -1.
          6    1    1    2  501    0  0.90402491323E+02  0.51728450570E+02 -0.10298927869E+03  0.22591864589E+03  0.17200000000E+03 0. -1.
         -6    1    1    2    0  502 -0.90402491323E+02 -0.51728450570E+02  0.33292559271E+03  0.38893687575E+03  0.17200000000E+03 0. -1.
</event>
<event>
 4    1  0.1244074E+000  0.1894488E+03  0.7818608E-02  0.1158959E+00
         21   -1    0    0  503  502  0.00000000000E+00  0.00000000000E+00  0.25201936052E+03  0.25201936052E+03  0.00000000000E+00 0. -1.
         21   -1    0    0  501  503 -0.00000000000E+00 -0.00000000000E+00 -0.15614908335E+03  0.15614908335E+03  0.00000000000E+00 0.  1.
          6    1    1    2  501    0  0.79413499300E+02 -0.59637376568E+00  0.10846497731E+03  0.21830142197E+03  0.17200000000E+03 0. -1.
         -6    1    1    2    0  502 -0.79413499300E+02  0.59637376568E+00 -0.12594700146E+02  0.18986702190E+03  0.17200000000E+03 0.  1.
</event>
<event>
 4    1  0.1244074E+000  0.2933983E+03  0.7818608E-02  0.1088588E+00
         21   -1    0    0  501  502  0.00000000000E+00  0.00000000000E+00  0.76628171226E+02  0.76628171226E+02  0.00000000000E+00 0.  1.
         21   -1    0    0  502  503 -0.00000000000E+00 -0.00000000000E+00 -0.12950820037E+04  0.12950820037E+04  0.00000000000E+00 0. -1.
          6    1    1    2  501    0 -0.23033959017E+03  0.58670549173E+02 -0.35949656567E+03  0.46402622865E+03  0.17200000000E+03 0.  1.
         -6    1    1    2    0  503  0.23033959017E+03 -0.58670549173E+02 -0.85895726676E+03  0.90768394624E+03  0.17200000000E+03 0. -1.
</event>
<event>
 4    1  0.1244074E+000  0.2749169E+03  0.7818608E-02  0.1098498E+00
         21   -1    0    0  501  502  0.00000000000E+00  0.00000000000E+00  0.96761608247E+02  0.96761608247E+02  0.00000000000E+00 0. -1.
         21   -1    0    0  502  503 -0.00000000000E+00 -0.00000000000E+00 -0.85484333705E+03  0.85484333705E+03  0.00000000000E+00 0.  1.
          6    1    1    2  501    0 -0.20409751804E+03 -0.65874735548E+02 -0.23928122218E+03  0.36446506134E+03  0.17200000000E+03 0. -1.
         -6    1    1    2    0  503  0.20409751804E+03  0.65874735548E+02 -0.51880050663E+03  0.58713988396E+03  0.17200000000E+03 0.  1.
</event>
<event>
 4    1  0.1244074E+000  0.1784257E+03  0.7818608E-02  0.1169335E+00
         21   -1    0    0  501  502  0.00000000000E+00  0.00000000000E+00  0.48748248393E+02  0.48748248393E+02  0.00000000000E+00 0.  1.
         21   -1    0    0  502  503 -0.00000000000E+00 -0.00000000000E+00 -0.80115717845E+03  0.80115717845E+03  0.00000000000E+00 0.  1.
          6    1    1    2  501    0 -0.36724419659E+02  0.30050513078E+02 -0.19349983090E+03  0.26320695449E+03  0.17200000000E+03 0.  1.
         -6    1    1    2    0  503  0.36724419659E+02 -0.30050513078E+02 -0.55890909916E+03  0.58669847235E+03  0.17200000000E+03 0.  1.
</event>
<event>
 4    1  0.1244074E+000  0.3140155E+03  0.7818608E-02  0.1078437E+00
         21   -1    0    0  501  502  0.00000000000E+00  0.00000000000E+00  0.51508462564E+02  0.51508462564E+02  0.00000000000E+00 0. -1.
         21   -1    0    0  502  503 -0.00000000000E+00 -0.00000000000E+00 -0.20620266244E+04  0.20620266244E+04  0.00000000000E+00 0.  1.
          6    1    1    2  501    0 -0.74974700438E+02  0.25179465702E+03 -0.72246319415E+03  0.78775555974E+03  0.17200000000E+03 0.  1.
         -6    1    1    2    0  503  0.74974700438E+02 -0.25179465702E+03 -0.12880549677E+04  0.13257795272E+04  0.17200000000E+03 0. -1.
</event>
<event>
 4    1  0.1244074E+000  0.1734422E+03  0.7818608E-02  0.1174305E+00
         21   -1    0    0  501  502  0.00000000000E+00  0.00000000000E+00  0.15120304796E+04  0.15120304796E+04  0.00000000000E+00 0.  1.
         21   -1    0    0  502  503 -0.00000000000E+00 -0.00000000000E+00 -0.19901539997E+02  0.19901539997E+02  0.00000000000E+00 0.  1.
          6    1    1    2  501    0  0.49108933403E+01  0.21773630988E+02  0.75969360224E+03  0.77924102636E+03  0.17200000000E+03 0.  1.
         -6    1    1    2    0  503 -0.49108933403E+01 -0.21773630988E+02  0.73243533735E+03  0.75269099322E+03  0.17200000000E+03 0.  1.
</event>
<event>
 4    1  0.1244074E+000  0.2246134E+03  0.7818608E-02  0.1130490E+00
         21   -1    0    0  503  502  0.00000000000E+00  0.00000000000E+00  0.49519730447E+03  0.49519730447E+03  0.00000000000E+00 0. -1.
         21   -1    0    0  501  503 -0.00000000000E+00 -0.00000000000E+00 -0.16731410727E+03  0.16731410727E+03  0.00000000000E+00 0. -1.
          6    1    1    2  501    0 -0.97222625175E+02 -0.10684078200E+03 -0.43213627165E+02  0.22873261490E+03  0.17200000000E+03 0. -1.
         -6    1    1    2    0  502  0.97222625175E+02  0.10684078200E+03  0.37109682436E+03  0.43377879685E+03  0.17200000000E+03 0. -1.
</event>
<event>
 4    1  0.1244074E+000  0.1723869E+03  0.7818608E-02  0.1175381E+00
         21   -1    0    0  501  502  0.00000000000E+00  0.00000000000E+00  0.17204443504E+03  0.17204443504E+03  0.00000000000E+00 0.  1.
         21   -1    0    0  502  503 -0.00000000000E+00 -0.00000000000E+00 -0.19571097529E+03  0.19571097529E+03  0.00000000000E+00 0.  1.
          6    1    1    2  501    0 -0.98697980603E+01 -0.59872575645E+01  0.51175984876E+02  0.17982280610E+03  0.17200000000E+03 0.  1.
         -6    1    1    2    0  503  0.98697980603E+01  0.59872575645E+01 -0.74842525127E+02  0.18793260423E+03  0.17200000000E+03 0.  1.
</event>
<event>
 4    1  0.1244074E+000  0.2831368E+03  0.7818608E-02  0.1093988E+00
         21   -1    0    0  503  502  0.00000000000E+00  0.00000000000E+00  0.27326031084E+04  0.27326031084E+04  0.00000000000E+00 0. -1.
         21   -1    0    0  501  503 -0.00000000000E+00 -0.00000000000E+00 -0.38166143694E+02  0.38166143694E+02  0.00000000000E+00 0.  1.
          6    1    1    2  501    0 -0.22300757702E+03  0.29155736236E+02  0.68088753382E+03  0.73741051666E+03  0.17200000000E+03 0.  1.
         -6    1    1    2    0  502  0.22300757702E+03 -0.29155736236E+02  0.20135494309E+04  0.20333587355E+04  0.17200000000E+03 0. -1.
</event>
<event>
 4    1  0.1244074E+000  0.2232834E+03  0.7818608E-02  0.1131459E+00
         21   -1    0    0  503  502  0.00000000000E+00  0.00000000000E+00  0.44718961810E+03  0.44718961810E+03  0.00000000000E+00 0.  1.
         21   -1    0    0  501  503 -0.00000000000E+00 -0.00000000000E+00 -0.11244498735E+03  0.11244498735E+03  0.00000000000E+00 0.  1.
          6    1    1    2  501    0 -0.14121298889E+03  0.18175986921E+02  0.14153401899E+03  0.26436216307E+03  0.17200000000E+03 0.  1.
         -6    1    1    2    0  502  0.14121298889E+03 -0.18175986921E+02  0.19321061176E+03  0.29527244238E+03  0.17200000000E+03 0.  1.
</event>
<event>
 4    1  0.1244074E+000  0.1920007E+03  0.7818608E-02  0.1156669E+00
         21   -1    0    0  503  502  0.00000000000E+00  0.00000000000E+00  0.95995668935E+02  0.95995668935E+02  0.00000000000E+00 0. -1.
         21   -1    0    0  501  503 -0.00000000000E+00 -0.00000000000E+00 -0.38715483441E+03  0.38715483441E+03  0.00000000000E+00 0. -1.
          6    1    1    2  501    0 -0.85270058376E+02 -0.30451593578E+01 -0.12384165835E+03  0.22847540829E+03  0.17200000000E+03 0. -1.
         -6    1    1    2    0  502  0.85270058376E+02  0.30451593578E+01 -0.16731750713E+03  0.25467509506E+03  0.17200000000E+03 0. -1.
</event>
<event>
 4    1  0.1244074E+000  0.1917384E+03  0.7818608E-02  0.1156903E+00
         21   -1    0    0  503  502  0.00000000000E+00  0.00000000000E+00  0.10778154255E+04  0.10778154255E+04  0.00000000000E+00 0. -1.
         21   -1    0    0  501  503 -0.00000000000E+00 -0.00000000000E+00 -0.25643262134E+03  0.25643262134E+03  0.00000000000E+00 0. -1.
          6    1    1    2  501    0 -0.48935868489E+02  0.69172845246E+02 -0.21048133959E+03  0.28472090907E+03  0.17200000000E+03 0. -1.
         -6    1    1    2    0  502  0.48935868489E+02 -0.69172845246E+02  0.10318641437E+04  0.10495271377E+04  0.17200000000E+03 0. -1.
</event>
<event>
 4    1  0.1244074E+000  0.3036736E+03  0.7818608E-02  0.1083418E+00
         21   -1    0    0  501  502  0.00000000000E+00  0.00000000000E+00  0.13904719858E+03  0.13904719858E+03  0.00000000000E+00 0.  1.
         21   -1    0    0  502  503 -0.00000000000E+00 -0.00000000000E+00 -0.74895692683E+03  0.74895692683E+03  0.00000000000E+00 0.  1.
          6    1    1    2  501    0  0.52087340266E+01  0.25021300847E+03 -0.15472287219E+03  0.34081790988E+03  0.17200000000E+03 0.  1.
         -6    1    1    2    0  503 -0.52087340266E+01 -0.25021300847E+03 -0.45518685607E+03  0.54718621552E+03  0.17200000000E+03 0.  1.
</event>
<event>
 4    1  0.1244074E+000  0.1791448E+03  0.7818608E-02  0.1168633E+00
         21   -1    0    0  503  502  0.00000000000E+00  0.00000000000E+00  0.11941040818E+04  0.11941040818E+04  0.00000000000E+00 0. -1.
         21   -1    0    0  501  503 -0.00000000000E+00 -0.00000000000E+00 -0.31526266418E+02  0.31526266418E+02  0.00000000000E+00 0. -1.
          6    1    1    2  501    0  0.37563056276E+02 -0.33134452511E+02  0.34593201407E+03  0.38956621195E+03  0.17200000000E+03 0. -1.
         -6    1    1    2    0  502 -0.37563056276E+02  0.33134452511E+02  0.81664580132E+03  0.83606413627E+03  0.17200000000E+03 0. -1.
</event>
<event>
 4    1  0.1244074E+000  0.1839646E+03  0.7818608E-02  0.1164020E+00
         21   -1    0    0  503  502  0.00000000000E+00  0.00000000000E+00  0.56821972680E+02  0.56821972680E+02  0.00000000000E+00 0. -1.
         21   -1    0    0  501  503 -0.00000000000E+00 -0.00000000000E+00 -0.60106941352E+03  0.60106941352E+03  0.00000000000E+00 0. -1.
          6    1    1    2  501    0  0.40304314798E+02  0.51327900405E+02 -0.30351109950E+03  0.35491122646E+03  0.17200000000E+03 0. -1.
         -6    1    1    2    0  502 -0.40304314798E+02 -0.51327900405E+02 -0.24073634134E+03  0.30298015973E+03  0.17200000000E+03 0. -1.
</event>
<event>
 4    1  0.1244074E+000  0.2348426E+03  0.7818608E-02  0.1123277E+00
         21   -1    0    0  501  502  0.00000000000E+00  0.00000000000E+00  0.41287161872E+03  0.41287161872E+03  0.00000000000E+00 0. -1.
         21   -1    0    0  502  503 -0.00000000000E+00 -0.00000000000E+00 -0.29111746994E+03  0.29111746994E+03  0.00000000000E+00 0. -1.
          6    1    1    2  501    0  0.13445501595E+03 -0.86538385118E+02  0.31981453896E+03  0.39677749778E+03  0.17200000000E+03 0. -1.
         -6    1    1    2    0  503 -0.13445501595E+03  0.86538385118E+02 -0.19806039018E+03  0.30721159088E+03  0.17200000000E+03 0. -1.
</event>
<event>
 4    1  0.1244074E+000  0.1790721E+03  0.7818608E-02  0.1168704E+00
         21   -1    0    0  503  502  0.00000000000E+00  0.00000000000E+00  0.65371244680E+03  0.65371244680E+03  0.00000000000E+00 0. -1.
         21   -1    0    0  501  503 -0.00000000000E+00 -0.00000000000E+00 -0.54641351453E+02  0.54641351453E+02  0.00000000000E+00 0. -1.
          6    1    1    2  501    0  0.37735507931E+02  0.32539791112E+02  0.18627295068E+03  0.25838811644E+03  0.17200000000E+03 0. -1.
         -6    1    1    2    0  502 -0.37735507931E+02 -0.32539791112E+02  0.41279814467E+03  0.44996568181E+03  0.17200000000E+03 0. -1.
</event>
<event>
 4    1  0.1244074E+000  0.4380404E+03  0.7818608E-02  0.1031350E+00
         21   -1    0    0  503  502  0.00000000000E+00  0.00000000000E+00  0.87972661446E+03  0.87972661446E+03  0.00000000000E+00 0. -1.
         21   -1    0    0  501  503 -0.00000000000E+00 -0.00000000000E+00 -0.36057018133E+03  0.36057018133E+03  0.00000000000E+00 0.  1.
          6    1    1    2  501    0 -0.58590510064E+02  0.39857567480E+03 -0.13022334922E+03  0.45698745835E+03  0.17200000000E+03 0.  1.
         -6    1    1    2    0  502  0.58590510064E+02 -0.39857567480E+03  0.64937978234E+03  0.78330933744E+03  0.17200000000E+03 0. -1.
</event>
<event>
 4    1  0.1244074E+000  0.1889321E+03  0.7818608E-02  0.1159428E+00
         21   -1    0    0  501  502  0.00000000000E+00  0.00000000000E+00  0.16008890500E+04  0.16008890500E+04  0.00000000000E+00 0.  1.
         21   -1    0    0  502  503 -0.00000000000E+00 -0.00000000000E+00 -0.34610575400E+02  0.34610575400E+02  0.00000000000E+00 0.  1.
          6    1    1    2  501    0 -0.63790703145E+02 -0.45189460842E+02  0.12708974912E+04  0.12848641073E+04  0.17200000000E+03 0.  1.
         -6    1    1    2    0  503  0.63790703145E+02  0.45189460842E+02  0.29538098344E+03  0.35063551811E+03  0.17200000000E+03 0.  1.
</event>
<event>
 4    1  0.1244074E+000  0.2259306E+03  0.7818608E-02  0.1129537E+00
         21   -1    0    0  503  502  0.00000000000E+00  0.00000000000E+00  0.19195813363E+04  0.19195813363E+04  0.00000000000E+00 0.  1.
         21   -1    0    0  501  503 -0.00000000000E+00 -0.00000000000E+00 -0.11481038414E+03  0.11481038414E+03  0.00000000000E+00 0.  1.
          6    1    1    2  501    0  0.13372596839E+03 -0.59816554475E+02  0.10735009883E+02  0.22618553280E+03  0.17200000000E+03 0.  1.
         -6    1    1    2    0  502 -0.13372596839E+03  0.59816554475E+02  0.17940359423E+04  0.18082061876E+04  0.17200000000E+03 0.  1.
</event>
<event>
 4    1  0.1244074E+000  0.2178648E+03  0.7818608E-02  0.1135485E+00
         21   -1    0    0  501  502  0.00000000000E+00  0.00000000000E+00  0.59462528759E+03  0.59462528759E+03  0.00000000000E+00 0.  1.
         21   -1    0    0  502  503 -0.00000000000E+00 -0.00000000000E+00 -0.79834368539E+02  0.79834368539E+02  0.00000000000E+00 0.  1.
          6    1    1    2  501    0  0.12467002990E+03  0.48357479304E+02  0.26133309041E+03  0.34023528080E+03  0.17200000000E+03 0.  1.
         -6    1    1    2    0  503 -0.12467002990E+03 -0.48357479304E+02  0.25345782864E+03  0.33422437532E+03  0.17200000000E+03 0.  1.
</event>
<event>
 4    1  0.1244074E+000  0.1828786E+03  0.7818608E-02  0.1165046E+00
         21   -1    0    0  501  502  0.00000000000E+00  0.00000000000E+00  0.44046017256E+03  0.44046017256E+03  0.00000000000E+00 0.  1.
         21   -1    0    0  502  503 -0.00000000000E+00 -0.00000000000E+00 -0.13694806977E+03  0.13694806977E+03  0.00000000000E+00 0.  1.
          6    1    1    2  501    0 -0.12335389248E+02 -0.60896668475E+02  0.34446453015E+03  0.39000048538E+03  0.17200000000E+03 0.  1.
         -6    1    1    2    0  503  0.12335389248E+02  0.60896668475E+02 -0.40952427359E+02  0.18740775695E+03  0.17200000000E+03 0.  1.
</event>
<event>
 4    1  0.1244074E+000  0.1934354E+03  0.7818608E-02  0.1155399E+00
         21   -1    0    0  501  502  0.00000000000E+00  0.00000000000E+00  0.17033211991E+03  0.17033211991E+03  0.00000000000E+00 0. -1.
         21   -1    0    0  502  503 -0.00000000000E+00 -0.00000000000E+00 -0.23795241191E+03  0.23795241191E+03  0.00000000000E+00 0. -1.
          6    1    1    2  501    0 -0.62864993605E+02 -0.62299801392E+02  0.22771505252E+02  0.19477118402E+03  0.17200000000E+03 0.  1.
         -6    1    1    2    0  503  0.62864993605E+02  0.62299801392E+02 -0.90391797249E+02  0.21351334779E+03  0.17200000000E+03 0.  1.
</event>
<event>
 4    1  0.1244074E+000  0.1775005E+03  0.7818608E-02  0.1170244E+00
         21   -1    0    0  501  502  0.00000000000E+00  0.00000000000E+00  0.36005908247E+02  0.36005908247E+02  0.00000000000E+00 0. -1.
         21   -1    0    0  502  503 -0.00000000000E+00 -0.00000000000E+00 -0.90347946642E+03  0.90347946642E+03  0.00000000000E+00 0. -1.
          6    1    1    2  501    0 -0.16701007365E+02 -0.40540208111E+02 -0.51708557197E+03  0.54670277195E+03  0.17200000000E+03 0. -1.
         -6    1    1    2    0  503  0.16701007365E+02  0.40540208111E+02 -0.35038798621E+03  0.39278260272E+03  0.17200000000E+03 0. -1.
</event>
<event>
 4    1  0.1244074E+000  0.1925922E+03  0.7818608E-02  0.1156144E+00
         21   -1    0    0  503  502  0.00000000000E+00  0.00000000000E+00  0.23984069366E+03  0.23984069366E+03  0.00000000000E+00 0.  1.
         21   -1    0    0  501  503 -0.00000000000E+00 -0.00000000000E+00 -0.16025297331E+03  0.16025297331E+03  0.00000000000E+00 0. -1.
          6    1    1    2  501    0 -0.85799259637E+02 -0.12092410521E+02  0.77194336446E+02  0.20748663795E+03  0.17200000000E+03 0. -1.
         -6    1    1    2    0  502  0.85799259637E+02  0.12092410521E+02  0.23933839046E+01  0.19260702903E+03  0.17200000000E+03 0. -1.
</event>
<event>
 4    1  0.1244074E+000  0.2179101E+03  0.7818608E-02  0.1135451E+00
         21   -1    0    0  503  502  0.00000000000E+00  0.00000000000E+00  0.61255746981E+02  0.61255746981E+02  0.00000000000E+00 0. -1.
         21   -1    0    0  501  503 -0.00000000000E+00 -0.00000000000E+00 -0.77989848377E+03  0.77989848377E+03  0.00000000000E+00 0. -1.
          6    1    1    2  501    0  0.11267410239E+03  0.72148118419E+02 -0.39200240832E+03  0.44849826362E+03  0.17200000000E+03 0. -1.
         -6    1    1    2    0  502 -0.11267410239E+03 -0.72148118419E+02 -0.32664032847E+03  0.39265596713E+03  0.17200000000E+03 0. -1.
</event>
<event>
 4    1  0.1244074E+000  0.1928515E+03  0.7818608E-02  0.1155914E+00
         21   -1    0    0  503  502  0.00000000000E+00  0.00000000000E+00  0.92301049847E+03  0.92301049847E+03  0.00000000000E+00 0.  1.
         21   -1    0    0  501  503 -0.00000000000E+00 -0.00000000000E+00 -0.12471005470E+03  0.12471005470E+03  0.00000000000E+00 0.  1.
          6    1    1    2  501    0 -0.45167723539E+02 -0.74616253527E+02 -0.31849978095E+02  0.19546388322E+03  0.17200000000E+03 0.  1.
         -6    1    1    2    0  502  0.45167723539E+02  0.74616253527E+02  0.83015042187E+03  0.85225666995E+03  0.17200000000E+03 0.  1.
</event>
<event>
 4    1  0.1244074E+000  0.2234982E+03  0.7818608E-02  0.1131302E+00
         21   -1    0    0  501  502  0.00000000000E+00  0.00000000000E+00  0.10128341221E+03  0.10128341221E+03  0.00000000000E+00 0.  1.
         21   -1    0    0  502  503 -0.00000000000E+00 -0.00000000000E+00 -0.60123998532E+03  0.60123998532E+03  0.00000000000E+00 0. -1.
          6    1    1    2  501    0 -0.31104019532E+02 -0.13928385238E+03 -0.39889019664E+03  0.45723608841E+03  0.17200000000E+03 0. -1.
         -6    1    1    2    0  503  0.31104019532E+02  0.13928385238E+03 -0.10106637647E+03  0.24528730913E+03  0.17200000000E+03 0.  1.
</event>
<event>
 4    1  0.1244074E+000  0.1934481E+03  0.7818608E-02  0.1155388E+00
         21   -1    0    0  503  502  0.00000000000E+00  0.00000000000E+00  0.55728041386E+02  0.55728041386E+02  0.00000000000E+00 0. -1.
         21   -1    0    0  501  503 -0.00000000000E+00 -0.00000000000E+00 -0.83199734653E+03  0.83199734653E+03  0.00000000000E+00 0.  1.
          6    1    1    2  501    0  0.88517155817E+02  0.17014533823E+01 -0.58307517697E+03  0.61432796112E+03  0.17200000000E+03 0.  1.
         -6    1    1    2    0  502 -0.88517155817E+02 -0.17014533823E+01 -0.19319412818E+03  0.27339742680E+03  0.17200000000E+03 0. -1.
</event>
<event>
 4    1  0.1244074E+000  0.2506020E+03  0.7818608E-02  0.1112925E+00
         21   -1    0    0  503  502  0.00000000000E+00  0.00000000000E+00  0.56240529819E+02  0.56240529819E+02  0.00000000000E+00 0. -1.
         21   -1    0    0  501  503 -0.00000000000E+00 -0.00000000000E+00 -0.11180387454E+04  0.11180387454E+04  0.00000000000E+00 0.  1.
          6    1    1    2  501    0 -0.10879384259E+03 -0.14622332470E+03 -0.55154264361E+03  0.60580578454E+03  0.17200000000E+03 0. -1.
         -6    1    1    2    0  502  0.10879384259E+03  0.14622332470E+03 -0.51025557199E+03  0.56847349069E+03  0.17200000000E+03 0. -1.
</event>
<event>
 4    1  0.1244074E+000  0.1896615E+03  0.7818608E-02  0.1158767E+00
         21   -1    0    0  501  502  0.00000000000E+00  0.00000000000E+00  0.25275873194E+03  0.25275873194E+03  0.00000000000E+00 0.  1.
         21   -1    0    0  502  503 -0.00000000000E+00 -0.00000000000E+00 -0.22461439737E+03  0.22461439737E+03  0.00000000000E+00 0. -1.
          6    1    1    2  501    0  0.54465580064E+02  0.58489148262E+02  0.15855167187E+03  0.24720459650E+03  0.17200000000E+03 0. -1.
         -6    1    1    2    0  503 -0.54465580064E+02 -0.58489148262E+02 -0.13040733730E+03  0.23016853282E+03  0.17200000000E+03 0.  1.
</event>
<event>
 4    1  0.1244074E+000  0.2218079E+03  0.7818608E-02  0.1132542E+00
         21   -1    0    0  501  502  0.00000000000E+00  0.00000000000E+00  0.15309133787E+03  0.15309133787E+03  0.00000000000E+00 0.  1.
         21   -1    0    0  502  503 -0.00000000000E+00 -0.00000000000E+00 -0.54146730449E+03  0.54146730449E+03  0.00000000000E+00 0. -1.
          6    1    1    2  501    0  0.96980293441E+02  0.10104243181E+03  0.27224212559E+02  0.22347238776E+03  0.17200000000E+03 0.  1.
         -6    1    1    2    0  503 -0.96980293441E+02 -0.10104243181E+03 -0.41560017918E+03  0.47108625460E+03  0.17200000000E+03 0. -1.
</event>
<event>
 4    1  0.1244074E+000  0.3049808E+03  0.7818608E-02  0.1082777E+00
         21   -1    0    0  501  502  0.00000000000E+00  0.00000000000E+00  0.27586553086E+03  0.27586553086E+03  0.00000000000E+00 0.  1.
         21   -1    0    0  502  503 -0.00000000000E+00 -0.00000000000E+00 -0.34299312818E+03  0.34299312818E+03  0.00000000000E+00 0. -1.
          6    1    1    2  501    0  0.24349878041E+03 -0.64324219503E+02  0.67580246161E+01  0.30505562144E+03  0.17200000000E+03 0.  1.
         -6    1    1    2    0  503 -0.24349878041E+03  0.64324219503E+02 -0.73885621942E+02  0.31380303760E+03  0.17200000000E+03 0. -1.
</event>
<event>
 4    1  0.1244074E+000  0.2465879E+03  0.7818608E-02  0.1115480E+00
         21   -1    0    0  501  502  0.00000000000E+00  0.00000000000E+00  0.51780786894E+02  0.51780786894E+02  0.00000000000E+00 0.  1.
         21   -1    0    0  502  503 -0.00000000000E+00 -0.00000000000E+00 -0.13225225369E+04  0.13225225369E+04  0.00000000000E+00 0.  1.
          6    1    1    2  501    0 -0.10828124845E+02  0.17636425944E+03 -0.40531966228E+03  0.47443611680E+03  0.17200000000E+03 0.  1.
         -6    1    1    2    0  503  0.10828124845E+02 -0.17636425944E+03 -0.86542208772E+03  0.89986720699E+03  0.17200000000E+03 0.  1.
</event>
<event>
 4    1  0.1244074E+000  0.1919902E+03  0.7818608E-02  0.1156678E+00
         21   -1    0    0  503  502  0.00000000000E+00  0.00000000000E+00  0.89720750318E+02  0.89720750318E+02  0.00000000000E+00 0. -1.
         21   -1    0    0  501  503 -0.00000000000E+00 -0.00000000000E+00 -0.43297224035E+03  0.43297224035E+03  0.00000000000E+00 0. -1.
          6    1    1    2  501    0  0.82361365365E+02  0.22200390029E+02 -0.23072299439E+03  0.30015554628E+03  0.17200000000E+03 0. -1.
         -6    1    1    2    0  502 -0.82361365365E+02 -0.22200390029E+02 -0.11252849564E+03  0.22253744438E+03  0.17200000000E+03 0. -1.
</event>
<event>
 4    1  0.1244074E+000  0.2091880E+03  0.7818608E-02  0.1142211E+00
         21   -1    0    0  503  502  0.00000000000E+00  0.00000000000E+00  0.18813775655E+04  0.18813775655E+04  0.00000000000E+00 0.  1.
         21   -1    0    0  501  503 -0.00000000000E+00 -0.00000000000E+00 -0.10772655300E+03  0.10772655300E+03  0.00000000000E+00 0.  1.
          6    1    1    2  501    0  0.11848078937E+03  0.11744084296E+02  0.61616075819E+01  0.20927872891E+03  0.17200000000E+03 0. -1.
         -6    1    1    2    0  502 -0.11848078937E+03 -0.11744084296E+02  0.17674894049E+04  0.17798253896E+04  0.17200000000E+03 0. -1.
</event>
<event>
 4    1  0.1244074E+000  0.1846295E+03  0.7818608E-02  0.1163396E+00
         21   -1    0    0  503  502  0.00000000000E+00  0.00000000000E+00  0.78382837632E+02  0.78382837632E+02  0.00000000000E+00 0.  1.
         21   -1    0    0  501  503 -0.00000000000E+00 -0.00000000000E+00 -0.44459982978E+03  0.44459982978E+03  0.00000000000E+00 0.  1.
          6    1    1    2  501    0  0.61997905681E+02 -0.25696291016E+02 -0.22174893970E+03  0.28854918461E+03  0.17200000000E+03 0. -1.
         -6    1    1    2    0  502 -0.61997905681E+02  0.25696291016E+02 -0.14446805245E+03  0.23443348280E+03  0.17200000000E+03 0. -1.
</event>
<event>
 4    1  0.1244074E+000  0.1734659E+03  0.7818608E-02  0.1174281E+00
         21   -1    0    0  503  502  0.00000000000E+00  0.00000000000E+00  0.74471772834E+03  0.74471772834E+03  0.00000000000E+00 0. -1.
         21   -1    0    0  501  503 -0.00000000000E+00 -0.00000000000E+00 -0.16845119521E+03  0.16845119521E+03  0.00000000000E+00 0. -1.
          6    1    1    2  501    0 -0.75949139446E+01 -0.21183254939E+02 -0.10994384391E+03  0.20537298221E+03  0.17200000000E+03 0. -1.
         -6    1    1    2    0  502  0.75949139446E+01  0.21183254939E+02  0.68621037705E+03  0.70779594134E+03  0.17200000000E+03 0. -1.
</event>
<event>
 4    1  0.1244074E+000  0.2272898E+03  0.7818608E-02  0.1128562E+00
         21   -1    0    0  501  502  0.00000000000E+00  0.00000000000E+00  0.33035982823E+02  0.33035982823E+02  0.00000000000E+00 0.  1.
         21   -1    0    0  502  503 -0.00000000000E+00 -0.00000000000E+00 -0.15645135167E+04  0.15645135167E+04  0.00000000000E+00 0. -1.
          6    1    1    2  501    0  0.93091841628E+02  0.11580406939E+03 -0.74832359745E+03  0.78207984245E+03  0.17200000000E+03 0. -1.
         -6    1    1    2    0  503 -0.93091841628E+02 -0.11580406939E+03 -0.78315393642E+03  0.81546965706E+03  0.17200000000E+03 0. -1.
</event>
<event>
 4    1  0.1244074E+000  0.1858613E+03  0.7818608E-02  0.1162248E+00
         21   -1    0    0  501  502  0.00000000000E+00  0.00000000000E+00  0.32661417176E+02  0.32661417176E+02  0.00000000000E+00 0. -1.
         21   -1    0    0  502  503 -0.00000000000E+00 -0.00000000000E+00 -0.10972508539E+04  0.10972508539E+04  0.00000000000E+00 0. -1.
          6    1    1    2  501    0 -0.66912935626E+02  0.21979252645E+02 -0.63961962141E+03  0.66607633841E+03  0.17200000000E+03 0.  1.
         -6    1    1    2    0  503  0.66912935626E+02 -0.21979252645E+02 -0.42496981532E+03  0.46383593267E+03  0.17200000000E+03 0.  1.
</event>
<event>
 4    1  0.1244074E+000  0.1844944E+03  0.7818608E-02  0.1163523E+00
         21   -1    0    0  501  502  0.00000000000E+00  0.00000000000E+00  0.17766026108E+03  0.17766026108E+03  0.00000000000E+00 0.  1.
         21   -1    0    0  502  503 -0.00000000000E+00 -0.00000000000E+00 -0.20277197044E+03  0.20277197044E+03  0.00000000000E+00 0.  1.
          6    1    1    2  501    0  0.56303742180E+02 -0.35833918727E+02  0.32109933780E+02  0.18726780012E+03  0.17200000000E+03 0. -1.
         -6    1    1    2    0  503 -0.56303742180E+02  0.35833918727E+02 -0.57221643146E+02  0.19316443140E+03  0.17200000000E+03 0. -1.
</event>
<event>
 4    1  0.1244074E+000  0.2332749E+03  0.7818608E-02  0.1124356E+00
         21   -1    0    0  501  502  0.00000000000E+00  0.00000000000E+00  0.31485527541E+03  0.31485527541E+03  0.00000000000E+00 0.  1.
         21   -1    0    0  502  503 -0.00000000000E+00 -0.00000000000E+00 -0.25839577023E+03  0.25839577023E+03  0.00000000000E+00 0.  1.
          6    1    1    2  501    0 -0.33669536189E+02  0.15394650255E+03  0.19316608742E+03  0.30287010523E+03  0.17200000000E+03 0.  1.
         -6    1    1    2    0  503  0.33669536189E+02 -0.15394650255E+03 -0.13670658223E+03  0.27038094041E+03  0.17200000000E+03 0.  1.
</event>
<event>
 4    1  0.1244074E+000  0.1792437E+03  0.7818608E-02  0.1168537E+00
         21   -1    0    0  501  502  0.00000000000E+00  0.00000000000E+00  0.38572134869E+03  0.38572134869E+03  0.00000000000E+00 0.  1.
         21   -1    0    0  502  503 -0.00000000000E+00 -0.00000000000E+00 -0.10174505473E+03  0.10174505473E+03  0.00000000000E+00 0.  1.
          6    1    1    2  501    0  0.46581065798E+02  0.19352675062E+02  0.24578093590E+03  0.30419827444E+03  0.17200000000E+03 0.  1.
         -6    1    1    2    0  503 -0.46581065798E+02 -0.19352675062E+02  0.38195358064E+02  0.18326812898E+03  0.17200000000E+03 0.  1.
</event>
<event>
 4    1  0.1244074E+000  0.1817608E+03  0.7818608E-02  0.1166110E+00
         21   -1    0    0  503  502  0.00000000000E+00  0.00000000000E+00  0.53228254727E+03  0.53228254727E+03  0.00000000000E+00 0. -1.
         21   -1    0    0  501  503 -0.00000000000E+00 -0.00000000000E+00 -0.20316554887E+03  0.20316554887E+03  0.00000000000E+00 0. -1.
          6    1    1    2  501    0  0.22752025717E+02 -0.54178849339E+02 -0.14189091049E+03  0.23058628075E+03  0.17200000000E+03 0. -1.
         -6    1    1    2    0  502 -0.22752025717E+02  0.54178849339E+02  0.47100790889E+03  0.50486181538E+03  0.17200000000E+03 0. -1.
</event>
<event>
 4    1  0.1244074E+000  0.3317413E+03  0.7818608E-02  0.1070369E+00
         21   -1    0    0  503  502  0.00000000000E+00  0.00000000000E+00  0.28786920442E+03  0.28786920442E+03  0.00000000000E+00 0.  1.
         21   -1    0    0  501  503 -0.00000000000E+00 -0.00000000000E+00 -0.43034166256E+03  0.43034166256E+03  0.00000000000E+00 0. -1.
          6    1    1    2  501    0  0.17878639653E+03  0.22023564509E+03 -0.19122084891E+03  0.38290694432E+03  0.17200000000E+03 0. -1.
         -6    1    1    2    0  502 -0.17878639653E+03 -0.22023564509E+03  0.48748390765E+02  0.33530392266E+03  0.17200000000E+03 0. -1.
</event>
<event>
 4    1  0.1244074E+000  0.2951814E+03  0.7818608E-02  0.1087674E+00
         21   -1    0    0  501  502  0.00000000000E+00  0.00000000000E+00  0.49106002919E+03  0.49106002919E+03  0.00000000000E+00 0. -1.
         21   -1    0    0  502  503 -0.00000000000E+00 -0.00000000000E+00 -0.25317280893E+03  0.25317280893E+03  0.00000000000E+00 0. -1.
          6    1    1    2  501    0  0.21233148484E+03 -0.11163957215E+03  0.32247054862E+03  0.43717194358E+03  0.17200000000E+03 0. -1.
         -6    1    1    2    0  503 -0.21233148484E+03  0.11163957215E+03 -0.84583328360E+02  0.30706089455E+03  0.17200000000E+03 0. -1.
</event>
<event>
 4    1  0.1244074E+000  0.2284814E+03  0.7818608E-02  0.1127713E+00
         21   -1    0    0  503  502  0.00000000000E+00  0.00000000000E+00  0.12383736707E+03  0.12383736707E+03  0.00000000000E+00 0. -1.
         21   -1    0    0  501  503 -0.00000000000E+00 -0.00000000000E+00 -0.56676034106E+03  0.56676034106E+03  0.00000000000E+00 0. -1.
          6    1    1    2  501    0  0.79930928159E+02  0.12740010942E+03 -0.39624199085E+03  0.45739638878E+03  0.17200000000E+03 0. -1.
         -6    1    1    2    0  502 -0.79930928159E+02 -0.12740010942E+03 -0.46680983143E+02  0.23320131934E+03  0.17200000000E+03 0. -1.
</event>
<event>
 4    1  0.1244074E+000  0.2319951E+03  0.7818608E-02  0.1125243E+00
         21   -1    0    0  501  502  0.00000000000E+00  0.00000000000E+00  0.21766335406E+03  0.21766335406E+03  0.00000000000E+00 0. -1.
         21   -1    0    0  502  503 -0.00000000000E+00 -0.00000000000E+00 -0.40613346690E+03  0.40613346690E+03  0.00000000000E+00 0.  1.
          6    1    1    2  501    0  0.55585710979E+02  0.14542344202E+03  0.10083471110E+03  0.25296123758E+03  0.17200000000E+03 0. -1.
         -6    1    1    2    0  503 -0.55585710979E+02 -0.14542344202E+03 -0.28930482393E+03  0.37083558339E+03  0.17200000000E+03 0.  1.
</event>
<event>
 4    1  0.1244074E+000  0.2075933E+03  0.7818608E-02  0.1143486E+00
         21   -1    0    0  503  502  0.00000000000E+00  0.00000000000E+00  0.50291283460E+03  0.50291283460E+03  0.00000000000E+00 0.  1.
         21   -1    0    0  501  503 -0.00000000000E+00 -0.00000000000E+00 -0.20065463818E+04  0.20065463818E+04  0.00000000000E+00 0.  1.
          6    1    1    2  501    0 -0.39091328281E+02 -0.10946615502E+03 -0.19794620835E+04  0.19903178417E+04  0.17200000000E+03 0.  1.
         -6    1    1    2    0  502  0.39091328281E+02  0.10946615502E+03  0.47582853626E+03  0.51914137473E+03  0.17200000000E+03 0.  1.
</event>
<event>
 4    1  0.1244074E+000  0.3400043E+03  0.7818608E-02  0.1066794E+00
         21   -1    0    0  501  502  0.00000000000E+00  0.00000000000E+00  0.95758143511E+03  0.95758143511E+03  0.00000000000E+00 0. -1.
         21   -1    0    0  502  503 -0.00000000000E+00 -0.00000000000E+00 -0.14748784003E+03  0.14748784003E+03  0.00000000000E+00 0.  1.
          6    1    1    2  501    0 -0.21085681869E+03  0.20385855577E+03  0.64041993963E+03  0.72507972515E+03  0.17200000000E+03 0. -1.
         -6    1    1    2    0  503  0.21085681869E+03 -0.20385855577E+03  0.16967365546E+03  0.37998954999E+03  0.17200000000E+03 0.  1.
</event>
<event>
 4    1  0.1244074E+000  0.1841838E+03  0.7818608E-02  0.1163814E+00
         21   -1    0    0  501  502  0.00000000000E+00  0.00000000000E+00  0.51715956161E+02  0.51715956161E+02  0.00000000000E+00 0. -1.
         21   -1    0    0  502  503 -0.00000000000E+00 -0.00000000000E+00 -0.66771944796E+03  0.66771944796E+03  0.00000000000E+00 0. -1.
          6    1    1    2  501    0  0.35682186156E+02  0.55375619294E+02 -0.35573598991E+03  0.40058928111E+03  0.17200000000E+03 0. -1.
         -6    1    1    2    0  503 -0.35682186156E+02 -0.55375619294E+02 -0.26026750189E+03  0.31884612302E+03  0.17200000000E+03 0. -1.
</event>
<event>
 4    1  0.1244074E+000  0.1938953E+03  0.7818608E-02  0.1154994E+00
         21   -1    0    0  501  502  0.00000000000E+00  0.00000000000E+00  0.10041975618E+03  0.10041975618E+03  0.00000000000E+00 0.  1.
         21   -1    0    0  502  503 -0.00000000000E+00 -0.00000000000E+00 -0.39552043328E+03  0.39552043328E+03  0.00000000000E+00 0.  1.
          6    1    1    2  501    0  0.89478284475E+02  0.22437428357E+01 -0.90225047318E+02  0.21385966646E+03  0.17200000000E+03 0.  1.
         -6    1    1    2    0  503 -0.89478284475E+02 -0.22437428357E+01 -0.20487562979E+03  0.28208052300E+03  0.17200000000E+03 0.  1.
</event>
<event>
 4    1  0.1244074E+000  0.2035303E+03  0.7818608E-02  0.1146794E+00
         21   -1    0    0  501  502  0.00000000000E+00  0.00000000000E+00  0.21796890382E+04  0.21796890382E+04  0.00000000000E+00 0.  1.
         21   -1    0    0  502  503 -0.00000000000E+00 -0.00000000000E+00 -0.25687063816E+02  0.25687063816E+02  0.00000000000E+00 0. -1.
          6    1    1    2  501    0  0.26204699095E+02 -0.10561209355E+03  0.16394155459E+04  0.16520011903E+04  0.17200000000E+03 0.  1.
         -6    1    1    2    0  503 -0.26204699095E+02  0.10561209355E+03  0.51458642855E+03  0.55337491179E+03  0.17200000000E+03 0. -1.
</event>
<event>
 4    1  0.1244074E+000  0.1750195E+03  0.7818608E-02  0.1172712E+00
         21   -1    0    0  501  502  0.00000000000E+00  0.00000000000E+00  0.16718426748E+03  0.16718426748E+03  0.00000000000E+00 0. -1.
         21   -1    0    0  502  503 -0.00000000000E+00 -0.00000000000E+00 -0.35941951439E+03  0.35941951439E+03  0.00000000000E+00 0. -1.
          6    1    1    2  501    0  0.31923388614E+02  0.53600115280E+01  0.88236588871E+02  0.19600389812E+03  0.17200000000E+03 0. -1.
         -6    1    1    2    0  503 -0.31923388614E+02 -0.53600115280E+01 -0.28047183578E+03  0.33059988374E+03  0.17200000000E+03 0. -1.
</event>
<event>
 4    1  0.1244074E+000  0.1900445E+03  0.7818608E-02  0.1158421E+00
         21   -1    0    0  503  502  0.00000000000E+00  0.00000000000E+00  0.29701592659E+03  0.29701592659E+03  0.00000000000E+00 0. -1.
         21   -1    0    0  501  503 -0.00000000000E+00 -0.00000000000E+00 -0.15376120492E+03  0.15376120492E+03  0.00000000000E+00 0. -1.
          6    1    1    2  501    0 -0.79251950422E+02  0.15876338604E+02 -0.31453812203E+02  0.19262988365E+03  0.17200000000E+03 0. -1.
         -6    1    1    2    0  502  0.79251950422E+02 -0.15876338604E+02  0.17470853387E+03  0.25814724787E+03  0.17200000000E+03 0. -1.
</event>
<event>
 4    1  0.1244074E+000  0.1787500E+03  0.7818608E-02  0.1169018E+00
         21   -1    0    0  503  502  0.00000000000E+00  0.00000000000E+00  0.98866582595E+03  0.98866582595E+03  0.00000000000E+00 0. -1.
         21   -1    0    0  501  503 -0.00000000000E+00 -0.00000000000E+00 -0.39912221246E+02  0.39912221246E+02  0.00000000000E+00 0.  1.
          6    1    1    2  501    0  0.48105359113E+02  0.73095870206E+01  0.25004018526E+03  0.30736240805E+03  0.17200000000E+03 0.  1.
         -6    1    1    2    0  502 -0.48105359113E+02 -0.73095870206E+01  0.69871341945E+03  0.72121563915E+03  0.17200000000E+03 0. -1.
</event>
<event>
 4    1  0.1244074E+000  0.4633601E+03  0.7818608E-02  0.1023811E+00
         21   -1    0    0  501  502  0.00000000000E+00  0.00000000000E+00  0.42651197364E+03  0.42651197364E+03  0.00000000000E+00 0.  1.
         21   -1    0    0  502  503 -0.00000000000E+00 -0.00000000000E+00 -0.81222767135E+03  0.81222767135E+03  0.00000000000E+00 0. -1.
          6    1    1    2  501    0 -0.37948067823E+03  0.20276332926E+03  0.18906456565E+03  0.50044776234E+03  0.17200000000E+03 0.  1.
         -6    1    1    2    0  503  0.37948067823E+03 -0.20276332926E+03 -0.57478026337E+03  0.73829188266E+03  0.17200000000E+03 0. -1.
</event>
<event>
 4    1  0.1244074E+000  0.1945323E+03  0.7818608E-02  0.1154436E+00
         21   -1    0    0  503  502  0.00000000000E+00  0.00000000000E+00  0.13129500510E+03  0.13129500510E+03  0.00000000000E+00 0. -1.
         21   -1    0    0  501  503 -0.00000000000E+00 -0.00000000000E+00 -0.29359001348E+03  0.29359001348E+03  0.00000000000E+00 0.  1.
          6    1    1    2  501    0 -0.90866195937E+02  0.14728211942E+01 -0.10985886951E+03  0.22340950288E+03  0.17200000000E+03 0.  1.
         -6    1    1    2    0  502  0.90866195937E+02 -0.14728211942E+01 -0.52436138873E+02  0.20147551570E+03  0.17200000000E+03 0. -1.
</event>
<event>
 4    1  0.1244074E+000  0.2080049E+03  0.7818608E-02  0.1143156E+00
         21   -1    0    0  501  502  0.00000000000E+00  0.00000000000E+00  0.13234212445E+04  0.13234212445E+04  0.00000000000E+00 0. -1.
         21   -1    0    0  502  503 -0.00000000000E+00 -0.00000000000E+00 -0.45181168115E+02  0.45181168115E+02  0.00000000000E+00 0. -1.
          6    1    1    2  501    0 -0.11690937600E+03  0.37737608890E+01  0.99889041380E+03  0.10203176477E+04  0.17200000000E+03 0. -1.
         -6    1    1    2    0  503  0.11690937600E+03 -0.37737608890E+01  0.27934966255E+03  0.34828476486E+03  0.17200000000E+03 0. -1.
</event>
<event>
 4    1  0.1244074E+000  0.2146140E+03  0.7818608E-02  0.1137963E+00
         21   -1    0    0  503  502  0.00000000000E+00  0.00000000000E+00  0.46246923443E+03  0.46246923443E+03  0.00000000000E+00 0.  1.
         21   -1    0    0  501  503 -0.00000000000E+00 -0.00000000000E+00 -0.20524668544E+03  0.20524668544E+03  0.00000000000E+00 0. -1.
          6    1    1    2  501    0  0.73363891413E+02 -0.10532278610E+03 -0.11092096699E+03  0.24158354819E+03  0.17200000000E+03 0. -1.
         -6    1    1    2    0  502 -0.73363891413E+02  0.10532278610E+03  0.36814351598E+03  0.42613237168E+03  0.17200000000E+03 0.  1.
</event>
<event>
 4    1  0.1244074E+000  0.2302912E+03  0.7818608E-02  0.1126435E+00
         21   -1    0    0  501  502  0.00000000000E+00  0.00000000000E+00  0.38369701155E+02  0.38369701155E+02  0.00000000000E+00 0.  1.
         21   -1    0    0  502  503 -0.00000000000E+00 -0.00000000000E+00 -0.19287486468E+04  0.19287486468E+04  0.00000000000E+00 0.  1.
          6    1    1    2  501    0  0.15269232505E+03  0.11623482108E+02 -0.42160979977E+03  0.48040490706E+03  0.17200000000E+03 0. -1.
         -6    1    1    2    0  503 -0.15269232505E+03 -0.11623482108E+02 -0.14687691459E+04  0.14867134409E+04  0.17200000000E+03 0. -1.
</event>
<event>
 4    1  0.1244074E+000  0.1824665E+03  0.7818608E-02  0.1165437E+00
         21   -1    0    0  503  502  0.00000000000E+00  0.00000000000E+00  0.80283196773E+03  0.80283196773E+03  0.00000000000E+00 0. -1.
         21   -1    0    0  501  503 -0.00000000000E+00 -0.00000000000E+00 -0.48091100207E+02  0.48091100207E+02  0.00000000000E+00 0.  1.
          6    1    1    2  501    0  0.28127862430E+02  0.54026223056E+02  0.21951125739E+03  0.28544561924E+03  0.17200000000E+03 0.  1.
         -6    1    1    2    0  502 -0.28127862430E+02 -0.54026223056E+02  0.53522961013E+03  0.56547744870E+03  0.17200000000E+03 0. -1.
</event>
<event>
 4    1  0.1244074E+000  0.2025343E+03  0.7818608E-02  0.1147618E+00
         21   -1    0    0  503  502  0.00000000000E+00  0.00000000000E+00  0.90626379961E+03  0.90626379961E+03  0.00000000000E+00 0. -1.
         21   -1    0    0  501  503 -0.00000000000E+00 -0.00000000000E+00 -0.48771905089E+02  0.48771905089E+02  0.00000000000E+00 0.  1.
          6    1    1    2  501    0  0.81127693227E+02 -0.69673805477E+02  0.30066167863E+03  0.36251563659E+03  0.17200000000E+03 0. -1.
         -6    1    1    2    0  502 -0.81127693227E+02  0.69673805477E+02  0.55683021590E+03  0.59252006811E+03  0.17200000000E+03 0. -1.
</event>
<event>
 4    1  0.1244074E+000  0.2158571E+03  0.7818608E-02  0.1137010E+00
         21   -1    0    0  501  502  0.00000000000E+00  0.00000000000E+00  0.65435367517E+03  0.65435367517E+03  0.00000000000E+00 0. -1.
         21   -1    0    0  502  503 -0.00000000000E+00 -0.00000000000E+00 -0.82677434909E+02  0.82677434909E+02  0.00000000000E+00 0. -1.
          6    1    1    2  501    0  0.27206077678E+02  0.12755433459E+03  0.42310332512E+03  0.47498494993E+03  0.17200000000E+03 0. -1.
         -6    1    1    2    0  503 -0.27206077678E+02 -0.12755433459E+03  0.14857291515E+03  0.26204616015E+03  0.17200000000E+03 0. -1.
</event>
<event>
 4    1  0.1244074E+000  0.1737485E+03  0.7818608E-02  0.1173994E+00
         21   -1    0    0  501  502  0.00000000000E+00  0.00000000000E+00  0.43328762577E+03  0.43328762577E+03  0.00000000000E+00 0.  1.
         21   -1    0    0  502  503 -0.00000000000E+00 -0.00000000000E+00 -0.20233351940E+03  0.20233351940E+03  0.00000000000E+00 0.  1.
          6    1    1    2  501    0 -0.21681935270E+02 -0.11594419601E+02  0.37281565478E+03  0.41131502444E+03  0.17200000000E+03 0.  1.
         -6    1    1    2    0  503  0.21681935270E+02  0.11594419601E+02 -0.14186154840E+03  0.22430612073E+03  0.17200000000E+03 0.  1.
</event>
<event>
 4    1  0.1244074E+000  0.4200449E+03  0.7818608E-02  0.1037052E+00
         21   -1    0    0  503  502  0.00000000000E+00  0.00000000000E+00  0.29612316217E+03  0.29612316217E+03  0.00000000000E+00 0.  1.
         21   -1    0    0  501  503 -0.00000000000E+00 -0.00000000000E+00 -0.68827165754E+03  0.68827165754E+03  0.00000000000E+00 0. -1.
          6    1    1    2  501    0 -0.50723892791E+02  0.37984310741E+03 -0.37646076093E+03  0.56405709292E+03  0.17200000000E+03 0. -1.
         -6    1    1    2    0  502  0.50723892791E+02 -0.37984310741E+03 -0.15687734443E+02  0.42033772679E+03  0.17200000000E+03 0.  1.
</event>
<event>
 4    1  0.1244074E+000  0.2318746E+03  0.7818608E-02  0.1125327E+00
         21   -1    0    0  503  502  0.00000000000E+00  0.00000000000E+00  0.17684559981E+03  0.17684559981E+03  0.00000000000E+00 0.  1.
         21   -1    0    0  501  503 -0.00000000000E+00 -0.00000000000E+00 -0.48959845584E+03  0.48959845584E+03  0.00000000000E+00 0. -1.
          6    1    1    2  501    0  0.14112980897E+03  0.65300864822E+02 -0.36152540003E+03  0.42949556552E+03  0.17200000000E+03 0. -1.
         -6    1    1    2    0  502 -0.14112980897E+03 -0.65300864822E+02  0.48772544007E+02  0.23694849013E+03  0.17200000000E+03 0.  1.
</event>
<event>
 4    1  0.1244074E+000  0.2733213E+03  0.7818608E-02  0.1099394E+00
         21   -1    0    0  501  502  0.00000000000E+00  0.00000000000E+00  0.19183006911E+03  0.19183006911E+03  0.00000000000E+00 0.  1.
         21   -1    0    0  502  503 -0.00000000000E+00 -0.00000000000E+00 -0.41718911802E+03  0.41718911802E+03  0.00000000000E+00 0. -1.
          6    1    1    2  501    0 -0.14214720834E+03  0.15784385779E+03 -0.34132075154E+02  0.27544420639E+03  0.17200000000E+03 0.  1.
         -6    1    1    2    0  503  0.14214720834E+03 -0.15784385779E+03 -0.19122697375E+03  0.33357498073E+03  0.17200000000E+03 0. -1.
</event>
<event>
 4    1  0.1244074E+000  0.2073468E+03  0.7818608E-02  0.1143684E+00
         21   -1    0    0  501  502  0.00000000000E+00  0.00000000000E+00  0.20470526855E+03  0.20470526855E+03  0.00000000000E+00 0. -1.
         21   -1    0    0  502  503 -0.00000000000E+00 -0.00000000000E+00 -0.13248577944E+04  0.13248577944E+04  0.00000000000E+00 0. -1.
          6    1    1    2  501    0  0.86831574919E+02  0.76609300811E+02  0.14147291260E+03  0.25101253429E+03  0.17200000000E+03 0. -1.
         -6    1    1    2    0  503 -0.86831574919E+02 -0.76609300811E+02 -0.12616254384E+04  0.12785505286E+04  0.17200000000E+03 0. -1.
</event>
<event>
 4    1  0.1244074E+000  0.1747625E+03  0.7818608E-02  0.1172970E+00
         21   -1    0    0  503  502  0.00000000000E+00  0.00000000000E+00  0.14455223011E+03  0.14455223011E+03  0.00000000000E+00 0.  1.
         21   -1    0    0  501  503 -0.00000000000E+00 -0.00000000000E+00 -0.24557491082E+03  0.24557491082E+03  0.00000000000E+00 0. -1.
          6    1    1    2  501    0  0.98264759633E+01  0.29349388200E+02  0.22376880370E+02  0.17618930442E+03  0.17200000000E+03 0.  1.
         -6    1    1    2    0  502 -0.98264759633E+01 -0.29349388200E+02 -0.12339956108E+03  0.21393783651E+03  0.17200000000E+03 0. -1.
</event>
<event>
 4    1  0.1244074E+000  0.1996025E+03  0.7818608E-02  0.1150075E+00
         21   -1    0    0  501  502  0.00000000000E+00  0.00000000000E+00  0.54615746543E+03  0.54615746543E+03  0.00000000000E+00 0. -1.
         21   -1    0    0  502  503 -0.00000000000E+00 -0.00000000000E+00 -0.97131453465E+02  0.97131453465E+02  0.00000000000E+00 0. -1.
          6    1    1    2  501    0  0.82410048213E+02 -0.58870393722E+02  0.38500543826E+03  0.43367075852E+03  0.17200000000E+03 0. -1.
         -6    1    1    2    0  503 -0.82410048213E+02  0.58870393722E+02  0.64020573709E+02  0.20961816038E+03  0.17200000000E+03 0. -1.
</event>
<event>
 4    1  0.1244074E+000  0.2235862E+03  0.7818608E-02  0.1131237E+00
         21   -1    0    0  501  502  0.00000000000E+00  0.00000000000E+00  0.10853661131E+03  0.10853661131E+03  0.00000000000E+00 0. -1.
         21   -1    0    0  502  503 -0.00000000000E+00 -0.00000000000E+00 -0.46062852349E+03  0.46062852349E+03  0.00000000000E+00 0.  1.
          6    1    1    2  501    0 -0.13697061131E+03 -0.40569202443E+02 -0.17342196295E+03  0.28295933592E+03  0.17200000000E+03 0. -1.
         -6    1    1    2    0  503  0.13697061131E+03  0.40569202443E+02 -0.17866994924E+03  0.28620579888E+03  0.17200000000E+03 0.  1.
</event>
<event>
 4    1  0.1244074E+000  0.1835591E+03  0.7818608E-02  0.1164402E+00
         21   -1    0    0  503  502  0.00000000000E+00  0.00000000000E+00  0.30586780638E+03  0.30586780638E+03  0.00000000000E+00 0.  1.
         21   -1    0    0  501  503 -0.00000000000E+00 -0.00000000000E+00 -0.11193115567E+03  0.11193115567E+03  0.00000000000E+00 0.  1.
          6    1    1    2  501    0 -0.36417866801E+02  0.52760588152E+02  0.70679372670E+02  0.19669650329E+03  0.17200000000E+03 0. -1.
         -6    1    1    2    0  502  0.36417866801E+02 -0.52760588152E+02  0.12325727804E+03  0.22110245877E+03  0.17200000000E+03 0. -1.
</event>
<event>
 4    1  0.1244074E+000  0.1930562E+03  0.7818608E-02  0.1155733E+00
         21   -1    0    0  501  502  0.00000000000E+00  0.00000000000E+00  0.42903157588E+03  0.42903157588E+03  0.00000000000E+00 0. -1.
         21   -1    0    0  502  503 -0.00000000000E+00 -0.00000000000E+00 -0.87414154525E+02  0.87414154525E+02  0.00000000000E+00 0.  1.
          6    1    1    2  501    0  0.47685005880E+02 -0.73571860675E+02  0.15046604956E+03  0.24476664507E+03  0.17200000000E+03 0. -1.
         -6    1    1    2    0  503 -0.47685005880E+02  0.73571860675E+02  0.19115137179E+03  0.27167908533E+03  0.17200000000E+03 0. -1.
</event>
<event>
 4    1  0.1244074E+000  0.2052888E+03  0.7818608E-02  0.1145352E+00
         21   -1    0    0  503  502  0.00000000000E+00  0.00000000000E+00  0.14874777320E+03  0.14874777320E+03  0.00000000000E+00 0.  1.
         21   -1    0    0  501  503 -0.00000000000E+00 -0.00000000000E+00 -0.31582375902E+03  0.31582375902E+03  0.00000000000E+00 0.  1.
          6    1    1    2  501    0 -0.10403470505E+03  0.41668367934E+02 -0.15805503402E+03  0.25908467056E+03  0.17200000000E+03 0.  1.
         -6    1    1    2    0  502  0.10403470505E+03 -0.41668367934E+02 -0.90209518012E+01  0.20548686165E+03  0.17200000000E+03 0.  1.
</event>
<event>
 4    1  0.1244074E+000  0.2055446E+03  0.7818608E-02  0.1145144E+00
         21   -1    0    0  503  502  0.00000000000E+00  0.00000000000E+00  0.29477208664E+03  0.29477208664E+03  0.00000000000E+00 0. -1.
         21   -1    0    0  501  503 -0.00000000000E+00 -0.00000000000E+00 -0.14802702492E+03  0.14802702492E+03  0.00000000000E+00 0. -1.
          6    1    1    2  501    0 -0.10500879717E+03  0.40469037977E+02  0.11282634301E+03  0.23447467709E+03  0.17200000000E+03 0. -1.
         -6    1    1    2    0  502  0.10500879717E+03 -0.40469037977E+02  0.33918718703E+02  0.20832443447E+03  0.17200000000E+03 0. -1.
</event>
<event>
 4    1  0.1244074E+000  0.2928469E+03  0.7818608E-02  0.1088872E+00
         21   -1    0    0  501  502  0.00000000000E+00  0.00000000000E+00  0.10357789411E+04  0.10357789411E+04  0.00000000000E+00 0. -1.
         21   -1    0    0  502  503 -0.00000000000E+00 -0.00000000000E+00 -0.92411432403E+02  0.92411432403E+02  0.00000000000E+00 0.  1.
          6    1    1    2  501    0 -0.21779356303E+03  0.93494637266E+02  0.28973307863E+03  0.41195210905E+03  0.17200000000E+03 0. -1.
         -6    1    1    2    0  503  0.21779356303E+03 -0.93494637266E+02  0.65363443003E+03  0.71623826442E+03  0.17200000000E+03 0. -1.
</event>
<event>
 4    1  0.1244074E+000  0.1971904E+03  0.7818608E-02  0.1152131E+00
         21   -1    0    0  501  502  0.00000000000E+00  0.00000000000E+00  0.43899275765E+02  0.43899275765E+02  0.00000000000E+00 0.  1.
         21   -1    0    0  502  503 -0.00000000000E+00 -0.00000000000E+00 -0.22380987058E+04  0.22380987058E+04  0.00000000000E+00 0.  1.
          6    1    1    2  501    0  0.61003847208E+02  0.74690040021E+02 -0.21017055451E+03  0.28819391638E+03  0.17200000000E+03 0.  1.
         -6    1    1    2    0  503 -0.61003847208E+02 -0.74690040021E+02 -0.19840288755E+04  0.19938040651E+04  0.17200000000E+03 0.  1.
</event>
<event>
 4    1  0.1244074E+000  0.1946954E+03  0.7818608E-02  0.1154293E+00
         21   -1    0    0  501  502  0.00000000000E+00  0.00000000000E+00  0.16902863005E+03  0.16902863005E+03  0.00000000000E+00 0.  1.
         21   -1    0    0  502  503 -0.00000000000E+00 -0.00000000000E+00 -0.26729801115E+03  0.26729801115E+03  0.00000000000E+00 0.  1.
          6    1    1    2  501    0 -0.73581334061E+02  0.53926818173E+02  0.38406277631E+02  0.19844736481E+03  0.17200000000E+03 0.  1.
         -6    1    1    2    0  503  0.73581334061E+02 -0.53926818173E+02 -0.13667565874E+03  0.23787927638E+03  0.17200000000E+03 0.  1.
</event>
<event>
 4    1  0.1244074E+000  0.2003937E+03  0.7818608E-02  0.1149407E+00
         21   -1    0    0  503  502  0.00000000000E+00  0.00000000000E+00  0.72400853237E+02  0.72400853237E+02  0.00000000000E+00 0.  1.
         21   -1    0    0  501  503 -0.00000000000E+00 -0.00000000000E+00 -0.58108140979E+03  0.58108140979E+03  0.00000000000E+00 0. -1.
          6    1    1    2  501    0 -0.78609817403E+02 -0.66288299976E+02 -0.32401700384E+03  0.38097855699E+03  0.17200000000E+03 0. -1.
         -6    1    1    2    0  502  0.78609817403E+02  0.66288299976E+02 -0.18466355271E+03  0.27250370604E+03  0.17200000000E+03 0. -1.
</event>
<event>
 4    1  0.1244074E+000  0.2273290E+03  0.7818608E-02  0.1128534E+00
         21   -1    0    0  503  502  0.00000000000E+00  0.00000000000E+00  0.47916221648E+02  0.47916221648E+02  0.00000000000E+00 0. -1.
         21   -1    0    0  501  503 -0.00000000000E+00 -0.00000000000E+00 -0.13956808200E+04  0.13956808200E+04  0.00000000000E+00 0.  1.
          6    1    1    2  501    0  0.85093687710E+01  0.14839834896E+03 -0.10179662934E+04  0.10430406770E+04  0.17200000000E+03 0.  1.
         -6    1    1    2    0  502 -0.85093687710E+01 -0.14839834896E+03 -0.32979830495E+03  0.40055636467E+03  0.17200000000E+03 0. -1.
</event>
<event>
 4    1  0.1244074E+000  0.1778685E+03  0.7818608E-02  0.1169882E+00
         21   -1    0    0  501  502  0.00000000000E+00  0.00000000000E+00  0.24089362059E+03  0.24089362059E+03  0.00000000000E+00 0. -1.
         21   -1    0    0  502  503 -0.00000000000E+00 -0.00000000000E+00 -0.14084461472E+03  0.14084461472E+03  0.00000000000E+00 0. -1.
          6    1    1    2  501    0  0.25282103489E+02 -0.37603215963E+02  0.99626789385E+02  0.20386928109E+03  0.17200000000E+03 0. -1.
         -6    1    1    2    0  503 -0.25282103489E+02  0.37603215963E+02  0.42221648207E+00  0.17786895422E+03  0.17200000000E+03 0. -1.
</event>
<event>
 4    1  0.1244074E+000  0.1737263E+03  0.7818608E-02  0.1174017E+00
         21   -1    0    0  501  502  0.00000000000E+00  0.00000000000E+00  0.93153136319E+02  0.93153136319E+02  0.00000000000E+00 0.  1.
         21   -1    0    0  502  503 -0.00000000000E+00 -0.00000000000E+00 -0.10477903314E+04  0.10477903314E+04  0.00000000000E+00 0.  1.
          6    1    1    2  501    0  0.18916764670E+02  0.15458573361E+02 -0.31793375476E+01  0.17375534427E+03  0.17200000000E+03 0.  1.
         -6    1    1    2    0  503 -0.18916764670E+02 -0.15458573361E+02 -0.95145785753E+03  0.96718812344E+03  0.17200000000E+03 0.  1.
</event>
<event>
 4    1  0.1244074E+000  0.2536335E+03  0.7818608E-02  0.1111030E+00
         21   -1    0    0  501  502  0.00000000000E+00  0.00000000000E+00  0.32425288216E+03  0.32425288216E+03  0.00000000000E+00 0.  1.
         21   -1    0    0  502  503 -0.00000000000E+00 -0.00000000000E+00 -0.28048228234E+03  0.28048228234E+03  0.00000000000E+00 0.  1.
          6    1    1    2  501    0 -0.17602329465E+03 -0.61332945750E+02 -0.14169170240E+03  0.29052791436E+03  0.17200000000E+03 0. -1.
         -6    1    1    2    0  503  0.17602329465E+03  0.61332945750E+02  0.18546230222E+03  0.31420725014E+03  0.17200000000E+03 0. -1.
</event>
<event>
 4    1  0.1244074E+000  0.2188124E+03  0.7818608E-02  0.1134772E+00
         21   -1    0    0  503  502  0.00000000000E+00  0.00000000000E+00  0.22600185195E+03  0.22600185195E+03  0.00000000000E+00 0.  1.
         21   -1    0    0  501  503 -0.00000000000E+00 -0.00000000000E+00 -0.41159188316E+03  0.41159188316E+03  0.00000000000E+00 0.  1.
          6    1    1    2  501    0  0.97498065886E+02 -0.93749676028E+02 -0.31487702374E+03  0.38344023613E+03  0.17200000000E+03 0.  1.
         -6    1    1    2    0  502 -0.97498065886E+02  0.93749676028E+02  0.12928699253E+03  0.25415349898E+03  0.17200000000E+03 0.  1.
</event>
<event>
 4    1  0.1244074E+000  0.1759558E+03  0.7818608E-02  0.1171775E+00
         21   -1    0    0  503  502  0.00000000000E+00  0.00000000000E+00  0.22777404791E+03  0.22777404791E+03  0.00000000000E+00 0. -1.
         21   -1    0    0  501  503 -0.00000000000E+00 -0.00000000000E+00 -0.13754254657E+03  0.13754254657E+03  0.00000000000E+00 0. -1.
          6    1    1    2  501    0  0.18940633530E+01  0.37051952177E+02  0.64917499324E+02  0.18754923715E+03  0.17200000000E+03 0. -1.
         -6    1    1    2    0  502 -0.18940633530E+01 -0.37051952177E+02  0.25314002015E+02  0.17776735734E+03  0.17200000000E+03 0. -1.
</event>
<event>
 4    1  0.1244074E+000  0.2083351E+03  0.7818608E-02  0.1142891E+00
         21   -1    0    0  503  502  0.00000000000E+00  0.00000000000E+00  0.25890714155E+03  0.25890714155E+03  0.00000000000E+00 0. -1.
         21   -1    0    0  501  503 -0.00000000000E+00 -0.00000000000E+00 -0.16785034479E+03  0.16785034479E+03  0.00000000000E+00 0. -1.
          6    1    1    2  501    0  0.41805922184E+02  0.10987172935E+03  0.53058497206E+02  0.21498543245E+03  0.17200000000E+03 0. -1.
         -6    1    1    2    0  502 -0.41805922184E+02 -0.10987172935E+03  0.37998299551E+02  0.21177205389E+03  0.17200000000E+03 0. -1.
</event>
<event>
 4    1  0.1244074E+000  0.2784907E+03  0.7818608E-02  0.1096516E+00
         21   -1    0    0  501  502  0.00000000000E+00  0.00000000000E+00  0.88359646137E+02  0.88359646137E+02  0.00000000000E+00 0. -1.
         21   -1    0    0  502  503 -0.00000000000E+00 -0.00000000000E+00 -0.13555864111E+04  0.13555864111E+04  0.00000000000E+00 0.  1.
          6    1    1    2  501    0 -0.21477452070E+03 -0.42952939909E+02 -0.20496594850E+03  0.34578619092E+03  0.17200000000E+03 0. -1.
         -6    1    1    2    0  503  0.21477452070E+03  0.42952939909E+02 -0.10622608164E+04  0.10981598663E+04  0.17200000000E+03 0.  1.
</event>
<event>
 4    1  0.1244074E+000  0.1812385E+03  0.7818608E-02  0.1166610E+00
         21   -1    0    0  501  502  0.00000000000E+00  0.00000000000E+00  0.24432772054E+03  0.24432772054E+03  0.00000000000E+00 0.  1.
         21   -1    0    0  502  503 -0.00000000000E+00 -0.00000000000E+00 -0.13775253141E+03  0.13775253141E+03  0.00000000000E+00 0.  1.
          6    1    1    2  501    0 -0.11051471255E+02  0.56046813727E+02  0.82913054894E+02  0.19930367537E+03  0.17200000000E+03 0.  1.
         -6    1    1    2    0  503  0.11051471255E+02 -0.56046813727E+02  0.23662134239E+02  0.18277657657E+03  0.17200000000E+03 0.  1.
</event>
<event>
 4    1  0.1244074E+000  0.4297247E+03  0.7818608E-02  0.1033947E+00
         21   -1    0    0  501  502  0.00000000000E+00  0.00000000000E+00  0.20029290107E+03  0.20029290107E+03  0.00000000000E+00 0.  1.
         21   -1    0    0  502  503 -0.00000000000E+00 -0.00000000000E+00 -0.92196680308E+03  0.92196680308E+03  0.00000000000E+00 0. -1.
          6    1    1    2  501    0 -0.23051736090E+01 -0.39379435600E+03 -0.36043019204E+03  0.56086828398E+03  0.17200000000E+03 0. -1.
         -6    1    1    2    0  503  0.23051736090E+01  0.39379435600E+03 -0.36124370997E+03  0.56139142017E+03  0.17200000000E+03 0.  1.
</event>
<event>
 4    1  0.1244074E+000  0.1757544E+03  0.7818608E-02  0.1171976E+00
         21   -1    0    0  501  502  0.00000000000E+00  0.00000000000E+00  0.97587250922E+03  0.97587250922E+03  0.00000000000E+00 0.  1.
         21   -1    0    0  502  503 -0.00000000000E+00 -0.00000000000E+00 -0.97268071700E+02  0.97268071700E+02  0.00000000000E+00 0.  1.
          6    1    1    2  501    0  0.35663352836E+02  0.58070281287E+01  0.88000139931E+03  0.89738066566E+03  0.17200000000E+03 0.  1.
         -6    1    1    2    0  503 -0.35663352836E+02 -0.58070281287E+01 -0.13969617871E+01  0.17575991526E+03  0.17200000000E+03 0.  1.
</event>
<event>
 4    1  0.1244074E+000  0.1976594E+03  0.7818608E-02  0.1151729E+00
         21   -1    0    0  501  502  0.00000000000E+00  0.00000000000E+00  0.97673506893E+03  0.97673506893E+03  0.00000000000E+00 0. -1.
         21   -1    0    0  502  503 -0.00000000000E+00 -0.00000000000E+00 -0.71401514679E+02  0.71401514679E+02  0.00000000000E+00 0. -1.
          6    1    1    2  501    0 -0.13899227434E+02 -0.96395192187E+02  0.10512201092E+03  0.22387464970E+03  0.17200000000E+03 0. -1.
         -6    1    1    2    0  503  0.13899227434E+02  0.96395192187E+02  0.80021154333E+03  0.82426193391E+03  0.17200000000E+03 0. -1.
</event>
<event>
 4    1  0.1244074E+000  0.2054874E+03  0.7818608E-02  0.1145190E+00
         21   -1    0    0  503  502  0.00000000000E+00  0.00000000000E+00  0.70881702205E+02  0.70881702205E+02  0.00000000000E+00 0. -1.
         21   -1    0    0  501  503 -0.00000000000E+00 -0.00000000000E+00 -0.14989535091E+04  0.14989535091E+04  0.00000000000E+00 0. -1.
          6    1    1    2  501    0  0.10024911288E+03 -0.50903514734E+02 -0.13233370959E+04  0.13391960729E+04  0.17200000000E+03 0. -1.
         -6    1    1    2    0  502 -0.10024911288E+03  0.50903514734E+02 -0.10473471098E+03  0.23063913833E+03  0.17200000000E+03 0. -1.
</event>
<event>
 4    1  0.1244074E+000  0.1830400E+03  0.7818608E-02  0.1164893E+00
         21   -1    0    0  501  502  0.00000000000E+00  0.00000000000E+00  0.35836980286E+03  0.35836980286E+03  0.00000000000E+00 0. -1.
         21   -1    0    0  502  503 -0.00000000000E+00 -0.00000000000E+00 -0.18088411381E+03  0.18088411381E+03  0.00000000000E+00 0. -1.
          6    1    1    2  501    0  0.16550530009E+02 -0.60379832368E+02  0.27615882015E+03  0.33131154243E+03  0.17200000000E+03 0. -1.
         -6    1    1    2    0  503 -0.16550530009E+02  0.60379832368E+02 -0.98673131105E+02  0.20794237424E+03  0.17200000000E+03 0. -1.
</event>
<event>
 4    1  0.1244074E+000  0.1922353E+03  0.7818608E-02  0.1156461E+00
         21   -1    0    0  503  502  0.00000000000E+00  0.00000000000E+00  0.21197916837E+03  0.21197916837E+03  0.00000000000E+00 0. -1.
         21   -1    0    0  501  503 -0.00000000000E+00 -0.00000000000E+00 -0.20999047715E+03  0.20999047715E+03  0.00000000000E+00 0. -1.
          6    1    1    2  501    0  0.34949890175E+02 -0.78415136460E+02  0.87938846097E+02  0.21139458153E+03  0.17200000000E+03 0. -1.
         -6    1    1    2    0  502 -0.34949890175E+02  0.78415136460E+02 -0.85950154875E+02  0.21057506398E+03  0.17200000000E+03 0. -1.
</event>
<event>
 4    1  0.1244074E+000  0.1721475E+03  0.7818608E-02  0.1175627E+00
         21   -1    0    0  503  502  0.00000000000E+00  0.00000000000E+00  0.16262216397E+03  0.16262216397E+03  0.00000000000E+00 0.  1.
         21   -1    0    0  501  503 -0.00000000000E+00 -0.00000000000E+00 -0.18248832634E+03  0.18248832634E+03  0.00000000000E+00 0.  1.
          6    1    1    2  501    0 -0.63961201283E+01 -0.31372852592E+01 -0.16416359851E+02  0.17292845278E+03  0.17200000000E+03 0. -1.
         -6    1    1    2    0  502  0.63961201283E+01  0.31372852592E+01 -0.34498025185E+01  0.17218203753E+03  0.17200000000E+03 0. -1.
</event>
<event>
 4    1  0.1244074E+000  0.1843004E+03  0.7818608E-02  0.1163705E+00
         21   -1    0    0  503  502  0.00000000000E+00  0.00000000000E+00  0.97571329301E+02  0.97571329301E+02  0.00000000000E+00 0.  1.
         21   -1    0    0  501  503 -0.00000000000E+00 -0.00000000000E+00 -0.43172533453E+03  0.43172533453E+03  0.00000000000E+00 0.  1.
          6    1    1    2  501    0 -0.34561359253E+02 -0.56463856242E+02 -0.28353762364E+03  0.33817190693E+03  0.17200000000E+03 0.  1.
         -6    1    1    2    0  502  0.34561359253E+02  0.56463856242E+02 -0.50616381585E+02  0.19112475690E+03  0.17200000000E+03 0.  1.
</event>
<event>
 4    1  0.1244074E+000  0.1797192E+03  0.7818608E-02  0.1168075E+00
         21   -1    0    0  503  502  0.00000000000E+00  0.00000000000E+00  0.32611519081E+03  0.32611519081E+03  0.00000000000E+00 0.  1.
         21   -1    0    0  501  503 -0.00000000000E+00 -0.00000000000E+00 -0.16815205500E+03  0.16815205500E+03  0.00000000000E+00 0.  1.
          6    1    1    2  501    0 -0.85065589556E+01  0.51406399160E+02 -0.79453945065E+02  0.19649913182E+03  0.17200000000E+03 0.  1.
         -6    1    1    2    0  502  0.85065589556E+01 -0.51406399160E+02  0.23741708087E+03  0.29776811399E+03  0.17200000000E+03 0.  1.
</event>
<event>
 4    1  0.1244074E+000  0.1814673E+03  0.7818608E-02  0.1166391E+00
         21   -1    0    0  503  502  0.00000000000E+00  0.00000000000E+00  0.99704067061E+02  0.99704067061E+02  0.00000000000E+00 0.  1.
         21   -1    0    0  501  503 -0.00000000000E+00 -0.00000000000E+00 -0.34749072495E+03  0.34749072495E+03  0.00000000000E+00 0.  1.
          6    1    1    2  501    0 -0.57008672245E+02  0.98174714833E+01 -0.17365334567E+03  0.25116897881E+03  0.17200000000E+03 0.  1.
         -6    1    1    2    0  502  0.57008672245E+02 -0.98174714833E+01 -0.74133312220E+02  0.19602581319E+03  0.17200000000E+03 0.  1.
</event>
<event>
 4    1  0.1244074E+000  0.2008251E+03  0.7818608E-02  0.1149045E+00
         21   -1    0    0  501  502  0.00000000000E+00  0.00000000000E+00  0.14130983633E+03  0.14130983633E+03  0.00000000000E+00 0.  1.
         21   -1    0    0  502  503 -0.00000000000E+00 -0.00000000000E+00 -0.38684520782E+03  0.38684520782E+03  0.00000000000E+00 0.  1.
          6    1    1    2  501    0 -0.10167616040E+03  0.20215566239E+02  0.12459874098E+02  0.20121123024E+03  0.17200000000E+03 0.  1.
         -6    1    1    2    0  503  0.10167616040E+03 -0.20215566239E+02 -0.25799524558E+03  0.32694381391E+03  0.17200000000E+03 0.  1.
</event>
<event>
 4    1  0.1244074E+000  0.1864444E+03  0.7818608E-02  0.1161708E+00
         21   -1    0    0  501  502  0.00000000000E+00  0.00000000000E+00  0.91212688737E+03  0.91212688737E+03  0.00000000000E+00 0.  1.
         21   -1    0    0  502  503 -0.00000000000E+00 -0.00000000000E+00 -0.39659295391E+02  0.39659295391E+02  0.00000000000E+00 0.  1.
          6    1    1    2  501    0  0.33388676215E+02  0.63739448351E+02  0.53028143084E+03  0.56210311942E+03  0.17200000000E+03 0. -1.
         -6    1    1    2    0  503 -0.33388676215E+02 -0.63739448351E+02  0.34218616114E+03  0.38968306334E+03  0.17200000000E+03 0. -1.
</event>
<event>
 4    1  0.1244074E+000  0.2787583E+03  0.7818608E-02  0.1096369E+00
         21   -1    0    0  503  502  0.00000000000E+00  0.00000000000E+00  0.30825392549E+02  0.30825392549E+02  0.00000000000E+00 0.  1.
         21   -1    0    0  501  503 -0.00000000000E+00 -0.00000000000E+00 -0.28051108016E+04  0.28051108016E+04  0.00000000000E+00 0. -1.
          6    1    1    2  501    0 -0.19173570216E+03  0.10658146792E+03 -0.18385306820E+04  0.18595432928E+04  0.17200000000E+03 0. -1.
         -6    1    1    2    0  502  0.19173570216E+03 -0.10658146792E+03 -0.93575472701E+03  0.97639290141E+03  0.17200000000E+03 0.  1.
</event>
<event>
 4    1  0.1244074E+000  0.3909149E+03  0.7818608E-02  0.1046972E+00
         21   -1    0    0  503  502  0.00000000000E+00  0.00000000000E+00  0.12241486638E+03  0.12241486638E+03  0.00000000000E+00 0.  1.
         21   -1    0    0  501  503 -0.00000000000E+00 -0.00000000000E+00 -0.15266600085E+04  0.15266600085E+04  0.00000000000E+00 0. -1.
          6    1    1    2  501    0 -0.31784243726E+03 -0.14901906396E+03 -0.10541828466E+04  0.11243291201E+04  0.17200000000E+03 0.  1.
         -6    1    1    2    0  502  0.31784243726E+03  0.14901906396E+03 -0.35006229551E+03  0.52474575471E+03  0.17200000000E+03 0. -1.
</event>
<event>
 4    1  0.1244074E+000  0.1733146E+03  0.7818608E-02  0.1174435E+00
         21   -1    0    0  503  502  0.00000000000E+00  0.00000000000E+00  0.20602659020E+04  0.20602659020E+04  0.00000000000E+00 0. -1.
         21   -1    0    0  501  503 -0.00000000000E+00 -0.00000000000E+00 -0.15301589869E+02  0.15301589869E+02  0.00000000000E+00 0. -1.
          6    1    1    2  501    0  0.16776784511E+02  0.13132978620E+02  0.79706236758E+03  0.81568765679E+03  0.17200000000E+03 0.  1.
         -6    1    1    2    0  502 -0.16776784511E+02 -0.13132978620E+02  0.12479019446E+04  0.12598798351E+04  0.17200000000E+03 0.  1.
</event>
<event>
 4    1  0.1244074E+000  0.1746305E+03  0.7818608E-02  0.1173103E+00
         21   -1    0    0  501  502  0.00000000000E+00  0.00000000000E+00  0.69046437126E+03  0.69046437126E+03  0.00000000000E+00 0. -1.
         21   -1    0    0  502  503 -0.00000000000E+00 -0.00000000000E+00 -0.21179681254E+03  0.21179681254E+03  0.00000000000E+00 0. -1.
          6    1    1    2  501    0  0.90915704635E+01 -0.28795075243E+02 -0.16201140917E+03  0.23820896228E+03  0.17200000000E+03 0. -1.
         -6    1    1    2    0  503 -0.90915704635E+01  0.28795075243E+02  0.64067896788E+03  0.66405222151E+03  0.17200000000E+03 0. -1.
</event>
<event>
 4    1  0.1244074E+000  0.2886370E+03  0.7818608E-02  0.1091063E+00
         21   -1    0    0  501  502  0.00000000000E+00  0.00000000000E+00  0.67011508629E+03  0.67011508629E+03  0.00000000000E+00 0. -1.
         21   -1    0    0  502  503 -0.00000000000E+00 -0.00000000000E+00 -0.12443894919E+03  0.12443894919E+03  0.00000000000E+00 0. -1.
          6    1    1    2  501    0 -0.16655692416E+03 -0.16120201454E+03  0.26075658065E+03  0.38897981031E+03  0.17200000000E+03 0. -1.
         -6    1    1    2    0  503  0.16655692416E+03  0.16120201454E+03  0.28491955645E+03  0.40557422518E+03  0.17200000000E+03 0. -1.
</event>
<event>
 4    1  0.1244074E+000  0.2439426E+03  0.7818608E-02  0.1117194E+00
         21   -1    0    0  501  502  0.00000000000E+00  0.00000000000E+00  0.99900568812E+02  0.99900568812E+02  0.00000000000E+00 0.  1.
         21   -1    0    0  502  503 -0.00000000000E+00 -0.00000000000E+00 -0.64589603696E+03  0.64589603696E+03  0.00000000000E+00 0.  1.
          6    1    1    2  501    0 -0.28937151083E+01 -0.17296127413E+03 -0.16901416511E+03  0.29677224254E+03  0.17200000000E+03 0.  1.
         -6    1    1    2    0  503  0.28937151083E+01  0.17296127413E+03 -0.37698130304E+03  0.44902436323E+03  0.17200000000E+03 0.  1.
</event>
<event>
 4    1  0.1244074E+000  0.1791216E+03  0.7818608E-02  0.1168656E+00
         21   -1    0    0  501  502  0.00000000000E+00  0.00000000000E+00  0.51168760953E+03  0.51168760953E+03  0.00000000000E+00 0.  1.
         21   -1    0    0  502  503 -0.00000000000E+00 -0.00000000000E+00 -0.29450703810E+03  0.29450703810E+03  0.00000000000E+00 0.  1.
          6    1    1    2  501    0 -0.46281437876E+02  0.18936476967E+02  0.46621060261E+03  0.49943657018E+03  0.17200000000E+03 0.  1.
         -6    1    1    2    0  503  0.46281437876E+02 -0.18936476967E+02 -0.24903003118E+03  0.30675807745E+03  0.17200000000E+03 0.  1.
</event>
<event>
 4    1  0.1244074E+000  0.1795176E+03  0.7818608E-02  0.1168271E+00
         21   -1    0    0  501  502  0.00000000000E+00  0.00000000000E+00  0.83794135979E+02  0.83794135979E+02  0.00000000000E+00 0.  1.
         21   -1    0    0  502  503 -0.00000000000E+00 -0.00000000000E+00 -0.44812327461E+03  0.44812327461E+03  0.00000000000E+00 0.  1.
          6    1    1    2  501    0  0.17720599526E+02 -0.48254891687E+02 -0.82024186089E+02  0.19736899788E+03  0.17200000000E+03 0.  1.
         -6    1    1    2    0  503 -0.17720599526E+02  0.48254891687E+02 -0.28230495254E+03  0.33454841272E+03  0.17200000000E+03 0.  1.
</event>
<event>
 4    1  0.1244074E+000  0.2260235E+03  0.7818608E-02  0.1129470E+00
         21   -1    0    0  501  502  0.00000000000E+00  0.00000000000E+00  0.54985514968E+03  0.54985514968E+03  0.00000000000E+00 0. -1.
         21   -1    0    0  502  503 -0.00000000000E+00 -0.00000000000E+00 -0.23001510465E+03  0.23001510465E+03  0.00000000000E+00 0.  1.
          6    1    1    2  501    0  0.13125931010E+03  0.65372978344E+02  0.46097247741E+03  0.51340262730E+03  0.17200000000E+03 0.  1.
         -6    1    1    2    0  503 -0.13125931010E+03 -0.65372978344E+02 -0.14113243238E+03  0.26646762703E+03  0.17200000000E+03 0.  1.
</event>
<event>
 4    1  0.1244074E+000  0.1807199E+03  0.7818608E-02  0.1167108E+00
         21   -1    0    0  503  502  0.00000000000E+00  0.00000000000E+00  0.26174329690E+02  0.26174329690E+02  0.00000000000E+00 0.  1.
         21   -1    0    0  501  503 -0.00000000000E+00 -0.00000000000E+00 -0.13716230206E+04  0.13716230206E+04  0.00000000000E+00 0.  1.
          6    1    1    2  501    0  0.41413506785E+02 -0.36886368671E+02 -0.88273474411E+03  0.90104401180E+03  0.17200000000E+03 0. -1.
         -6    1    1    2    0  502 -0.41413506785E+02  0.36886368671E+02 -0.46271394676E+03  0.49675333845E+03  0.17200000000E+03 0. -1.
</event>
<event>
 4    1  0.1244074E+000  0.1862972E+03  0.7818608E-02  0.1161844E+00
         21   -1    0    0  503  502  0.00000000000E+00  0.00000000000E+00  0.40668775780E+03  0.40668775780E+03  0.00000000000E+00 0.  1.
         21   -1    0    0  501  503 -0.00000000000E+00 -0.00000000000E+00 -0.16890823827E+03  0.16890823827E+03  0.00000000000E+00 0.  1.
          6    1    1    2  501    0 -0.64825727330E+02 -0.30336019576E+02 -0.83544267021E+02  0.20417221545E+03  0.17200000000E+03 0.  1.
         -6    1    1    2    0  502  0.64825727330E+02  0.30336019576E+02  0.32132378655E+03  0.37142378062E+03  0.17200000000E+03 0.  1.
</event>
<event>
 4    1  0.1244074E+000  0.2231063E+03  0.7818608E-02  0.1131588E+00
         21   -1    0    0  501  502  0.00000000000E+00  0.00000000000E+00  0.11980384494E+03  0.11980384494E+03  0.00000000000E+00 0.  1.
         21   -1    0    0  502  503 -0.00000000000E+00 -0.00000000000E+00 -0.62832680919E+03  0.62832680919E+03  0.00000000000E+00 0. -1.
          6    1    1    2  501    0  0.11782647529E+03  0.79431456223E+02 -0.36547964274E+02  0.22608004823E+03  0.17200000000E+03 0.  1.
         -6    1    1    2    0  503 -0.11782647529E+03 -0.79431456223E+02 -0.47197499998E+03  0.52205060590E+03  0.17200000000E+03 0. -1.
</event>
<event>
 4    1  0.1244074E+000  0.1841022E+03  0.7818608E-02  0.1163891E+00
         21   -1    0    0  503  502  0.00000000000E+00  0.00000000000E+00  0.15546212180E+03  0.15546212180E+03  0.00000000000E+00 0. -1.
         21   -1    0    0  501  503 -0.00000000000E+00 -0.00000000000E+00 -0.23714755358E+03  0.23714755358E+03  0.00000000000E+00 0. -1.
          6    1    1    2  501    0 -0.63397773861E+02  0.17039216139E+02 -0.96595794906E+02  0.20790469021E+03  0.17200000000E+03 0. -1.
         -6    1    1    2    0  502  0.63397773861E+02 -0.17039216139E+02  0.14910363129E+02  0.18470498517E+03  0.17200000000E+03 0. -1.
</event>
<event>
 4    1  0.1244074E+000  0.1845008E+03  0.7818608E-02  0.1163517E+00
         21   -1    0    0  501  502  0.00000000000E+00  0.00000000000E+00  0.36770303661E+03  0.36770303661E+03  0.00000000000E+00 0.  1.
         21   -1    0    0  502  503 -0.00000000000E+00 -0.00000000000E+00 -0.12367468067E+03  0.12367468067E+03  0.00000000000E+00 0.  1.
          6    1    1    2  501    0  0.34811434026E+02 -0.56962355671E+02  0.24521531757E+03  0.30687309734E+03  0.17200000000E+03 0.  1.
         -6    1    1    2    0  503 -0.34811434026E+02  0.56962355671E+02 -0.11869616270E+01  0.18450461994E+03  0.17200000000E+03 0.  1.
</event>
<event>
 4    1  0.1244074E+000  0.1854340E+03  0.7818608E-02  0.1162645E+00
         21   -1    0    0  503  502  0.00000000000E+00  0.00000000000E+00  0.18898847175E+03  0.18898847175E+03  0.00000000000E+00 0.  1.
         21   -1    0    0  501  503 -0.00000000000E+00 -0.00000000000E+00 -0.35358216731E+03  0.35358216731E+03  0.00000000000E+00 0.  1.
          6    1    1    2  501    0 -0.47673730989E+02  0.50288882992E+02 -0.27130699442E+03  0.32862325176E+03  0.17200000000E+03 0. -1.
         -6    1    1    2    0  502  0.47673730989E+02 -0.50288882992E+02  0.10671329886E+03  0.21394738730E+03  0.17200000000E+03 0. -1.
</event>
<event>
 4    1  0.1244074E+000  0.2024156E+03  0.7818608E-02  0.1147717E+00
         21   -1    0    0  501  502  0.00000000000E+00  0.00000000000E+00  0.30386493821E+03  0.30386493821E+03  0.00000000000E+00 0.  1.
         21   -1    0    0  502  503 -0.00000000000E+00 -0.00000000000E+00 -0.20570546791E+03  0.20570546791E+03  0.00000000000E+00 0.  1.
          6    1    1    2  501    0 -0.67449816830E+02  0.82695772584E+02  0.19862735355E+03  0.28359283167E+03  0.17200000000E+03 0.  1.
         -6    1    1    2    0  503  0.67449816830E+02 -0.82695772584E+02 -0.10046788325E+03  0.22597757446E+03  0.17200000000E+03 0.  1.
</event>
<event>
 4    1  0.1244074E+000  0.2383297E+03  0.7818608E-02  0.1120911E+00
         21   -1    0    0  501  502  0.00000000000E+00  0.00000000000E+00  0.11022128673E+03  0.11022128673E+03  0.00000000000E+00 0.  1.
         21   -1    0    0  502  503 -0.00000000000E+00 -0.00000000000E+00 -0.52079949157E+03  0.52079949157E+03  0.00000000000E+00 0.  1.
          6    1    1    2  501    0  0.13035587831E+03 -0.10111567440E+03 -0.17297441428E+03  0.29448460505E+03  0.17200000000E+03 0.  1.
         -6    1    1    2    0  503 -0.13035587831E+03  0.10111567440E+03 -0.23760379055E+03  0.33653617325E+03  0.17200000000E+03 0.  1.
</event>
<event>
 4    1  0.1244074E+000  0.2032738E+03  0.7818608E-02  0.1147006E+00
         21   -1    0    0  503  502  0.00000000000E+00  0.00000000000E+00  0.41040701814E+03  0.41040701814E+03  0.00000000000E+00 0. -1.
         21   -1    0    0  501  503 -0.00000000000E+00 -0.00000000000E+00 -0.10374223008E+03  0.10374223008E+03  0.00000000000E+00 0. -1.
          6    1    1    2  501    0  0.19516493793E+02  0.10656153002E+03  0.10917348799E+03  0.23073600432E+03  0.17200000000E+03 0. -1.
         -6    1    1    2    0  502 -0.19516493793E+02 -0.10656153002E+03  0.19749130007E+03  0.28341324389E+03  0.17200000000E+03 0. -1.
</event>
<event>
 4    1  0.1244074E+000  0.2170474E+03  0.7818608E-02  0.1136104E+00
         21   -1    0    0  501  502  0.00000000000E+00  0.00000000000E+00  0.10757645827E+03  0.10757645827E+03  0.00000000000E+00 0.  1.
         21   -1    0    0  502  503 -0.00000000000E+00 -0.00000000000E+00 -0.75778376426E+03  0.75778376426E+03  0.00000000000E+00 0. -1.
          6    1    1    2  501    0  0.49497071477E+02  0.12278277927E+03 -0.43992049030E+02  0.22146076706E+03  0.17200000000E+03 0.  1.
         -6    1    1    2    0  503 -0.49497071477E+02 -0.12278277927E+03 -0.60621525697E+03  0.64389945547E+03  0.17200000000E+03 0. -1.
</event>
<event>
 4    1  0.1244074E+000  0.2861096E+03  0.7818608E-02  0.1092398E+00
         21   -1    0    0  503  502  0.00000000000E+00  0.00000000000E+00  0.64816148238E+02  0.64816148238E+02  0.00000000000E+00 0.  1.
         21   -1    0    0  501  503 -0.00000000000E+00 -0.00000000000E+00 -0.12671118565E+04  0.12671118565E+04  0.00000000000E+00 0. -1.
          6    1    1    2  501    0 -0.19733488532E+03  0.11547138099E+03 -0.63937537223E+03  0.70047095829E+03  0.17200000000E+03 0.  1.
         -6    1    1    2    0  502  0.19733488532E+03 -0.11547138099E+03 -0.56292033602E+03  0.63145704644E+03  0.17200000000E+03 0.  1.
</event>
<event>
 4    1  0.1244074E+000  0.1845693E+03  0.7818608E-02  0.1163453E+00
         21   -1    0    0  503  502  0.00000000000E+00  0.00000000000E+00  0.17864780062E+04  0.17864780062E+04  0.00000000000E+00 0. -1.
         21   -1    0    0  501  503 -0.00000000000E+00 -0.00000000000E+00 -0.19644086015E+02  0.19644086015E+02  0.00000000000E+00 0. -1.
          6    1    1    2  501    0 -0.66793280219E+02  0.45243397113E+01  0.72886265546E+03  0.75186872688E+03  0.17200000000E+03 0. -1.
         -6    1    1    2    0  502  0.66793280219E+02 -0.45243397113E+01  0.10379712648E+04  0.10542533654E+04  0.17200000000E+03 0. -1.
</event>
<event>
 4    1  0.1244074E+000  0.2040910E+03  0.7818608E-02  0.1146333E+00
         21   -1    0    0  503  502  0.00000000000E+00  0.00000000000E+00  0.10632149751E+03  0.10632149751E+03  0.00000000000E+00 0. -1.
         21   -1    0    0  501  503 -0.00000000000E+00 -0.00000000000E+00 -0.39196040199E+03  0.39196040199E+03  0.00000000000E+00 0. -1.
          6    1    1    2  501    0 -0.95833059532E+02 -0.53713692037E+02 -0.13726938671E+03  0.24595938799E+03  0.17200000000E+03 0. -1.
         -6    1    1    2    0  502  0.95833059532E+02  0.53713692037E+02 -0.14836951777E+03  0.25232251151E+03  0.17200000000E+03 0. -1.
</event>
<event>
 4    1  0.1244074E+000  0.1856483E+03  0.7818608E-02  0.1162446E+00
         21   -1    0    0  503  502  0.00000000000E+00  0.00000000000E+00  0.18610398296E+03  0.18610398296E+03  0.00000000000E+00 0. -1.
         21   -1    0    0  501  503 -0.00000000000E+00 -0.00000000000E+00 -0.21158762179E+03  0.21158762179E+03  0.00000000000E+00 0. -1.
          6    1    1    2  501    0  0.44912579955E+02 -0.53517637336E+02  0.57488332597E+02  0.19434553180E+03  0.17200000000E+03 0. -1.
         -6    1    1    2    0  502 -0.44912579955E+02  0.53517637336E+02 -0.82971971429E+02  0.20334607296E+03  0.17200000000E+03 0. -1.
</event>
<event>
 4    1  0.1244074E+000  0.3332848E+03  0.7818608E-02  0.1069693E+00
         21   -1    0    0  503  502  0.00000000000E+00  0.00000000000E+00  0.49670432108E+03  0.49670432108E+03  0.00000000000E+00 0.  1.
         21   -1    0    0  501  503 -0.00000000000E+00 -0.00000000000E+00 -0.27815719705E+03  0.27815719705E+03  0.00000000000E+00 0.  1.
          6    1    1    2  501    0  0.79136901809E+02 -0.27428470398E+03 -0.62260129540E+02  0.33905024966E+03  0.17200000000E+03 0.  1.
         -6    1    1    2    0  502 -0.79136901809E+02  0.27428470398E+03  0.28080725357E+03  0.43581126846E+03  0.17200000000E+03 0.  1.
</event>
<event>
 4    1  0.1244074E+000  0.1731662E+03  0.7818608E-02  0.1174586E+00
         21   -1    0    0  501  502  0.00000000000E+00  0.00000000000E+00  0.67525692916E+03  0.67525692916E+03  0.00000000000E+00 0.  1.
         21   -1    0    0  502  503 -0.00000000000E+00 -0.00000000000E+00 -0.58095091018E+02  0.58095091018E+02  0.00000000000E+00 0.  1.
          6    1    1    2  501    0 -0.17621485913E+02  0.95922989508E+01  0.13059938227E+03  0.21689335539E+03  0.17200000000E+03 0.  1.
         -6    1    1    2    0  503  0.17621485913E+02 -0.95922989508E+01  0.48656245587E+03  0.51645866478E+03  0.17200000000E+03 0.  1.
</event>
<event>
 4    1  0.1244074E+000  0.2553425E+03  0.7818608E-02  0.1109974E+00
         21   -1    0    0  501  502  0.00000000000E+00  0.00000000000E+00  0.68970656923E+03  0.68970656923E+03  0.00000000000E+00 0.  1.
         21   -1    0    0  502  503 -0.00000000000E+00 -0.00000000000E+00 -0.23750277623E+03  0.23750277623E+03  0.00000000000E+00 0. -1.
          6    1    1    2  501    0 -0.10665972399E+03  0.15569034734E+03  0.58579832769E+03  0.63903009452E+03  0.17200000000E+03 0.  1.
         -6    1    1    2    0  503  0.10665972399E+03 -0.15569034734E+03 -0.13359453468E+03  0.28817925094E+03  0.17200000000E+03 0. -1.
</event>
<event>
 4    1  0.1244074E+000  0.1861472E+03  0.7818608E-02  0.1161983E+00
         21   -1    0    0  503  502  0.00000000000E+00  0.00000000000E+00  0.95088737732E+02  0.95088737732E+02  0.00000000000E+00 0.  1.
         21   -1    0    0  501  503 -0.00000000000E+00 -0.00000000000E+00 -0.50106518214E+03  0.50106518214E+03  0.00000000000E+00 0.  1.
          6    1    1    2  501    0 -0.31455317445E+02 -0.63854008289E+02 -0.35865751884E+03  0.40408660853E+03  0.17200000000E+03 0.  1.
         -6    1    1    2    0  502  0.31455317445E+02  0.63854008289E+02 -0.47318925566E+02  0.19206731134E+03  0.17200000000E+03 0.  1.
</event>
<event>
 4    1  0.1244074E+000  0.1743093E+03  0.7818608E-02  0.1173427E+00
         21   -1    0    0  503  502  0.00000000000E+00  0.00000000000E+00  0.16941349980E+04  0.16941349980E+04  0.00000000000E+00 0. -1.
         21   -1    0    0  501  503 -0.00000000000E+00 -0.00000000000E+00 -0.36937739696E+02  0.36937739696E+02  0.00000000000E+00 0. -1.
          6    1    1    2  501    0 -0.24926667587E+02 -0.13356560613E+02  0.20778370433E+03  0.27121542038E+03  0.17200000000E+03 0.  1.
         -6    1    1    2    0  502  0.24926667587E+02  0.13356560613E+02  0.14494135540E+04  0.14598573173E+04  0.17200000000E+03 0.  1.
</event>
<event>
 4    1  0.1244074E+000  0.1795953E+03  0.7818608E-02  0.1168195E+00
         21   -1    0    0  503  502  0.00000000000E+00  0.00000000000E+00  0.40082236153E+03  0.40082236153E+03  0.00000000000E+00 0. -1.
         21   -1    0    0  501  503 -0.00000000000E+00 -0.00000000000E+00 -0.80753561810E+02  0.80753561810E+02  0.00000000000E+00 0. -1.
          6    1    1    2  501    0  0.20151060588E+02 -0.47585878161E+02  0.17428368678E+03  0.25025843546E+03  0.17200000000E+03 0. -1.
         -6    1    1    2    0  502 -0.20151060588E+02  0.47585878161E+02  0.14578511295E+03  0.23131748788E+03  0.17200000000E+03 0. -1.
</event>
<event>
 4    1  0.1244074E+000  0.1848229E+03  0.7818608E-02  0.1163215E+00
         21   -1    0    0  503  502  0.00000000000E+00  0.00000000000E+00  0.36513705972E+02  0.36513705972E+02  0.00000000000E+00 0.  1.
         21   -1    0    0  501  503 -0.00000000000E+00 -0.00000000000E+00 -0.10959733013E+04  0.10959733013E+04  0.00000000000E+00 0.  1.
          6    1    1    2  501    0  0.14256088223E+02 -0.66123150336E+02 -0.74638542861E+03  0.76892828996E+03  0.17200000000E+03 0. -1.
         -6    1    1    2    0  502 -0.14256088223E+02  0.66123150336E+02 -0.31307416668E+03  0.36355871727E+03  0.17200000000E+03 0. -1.
</event>
<event>
 4    1  0.1244074E+000  0.1845448E+03  0.7818608E-02  0.1163476E+00
         21   -1    0    0  503  502  0.00000000000E+00  0.00000000000E+00  0.37525756858E+03  0.37525756858E+03  0.00000000000E+00 0. -1.
         21   -1    0    0  501  503 -0.00000000000E+00 -0.00000000000E+00 -0.16061205968E+03  0.16061205968E+03  0.00000000000E+00 0. -1.
          6    1    1    2  501    0  0.87686665268E+01  0.66301407544E+02 -0.69379879496E+02  0.19715560817E+03  0.17200000000E+03 0. -1.
         -6    1    1    2    0  502 -0.87686665268E+01 -0.66301407544E+02  0.28402538840E+03  0.33871402010E+03  0.17200000000E+03 0. -1.
</event>
<event>
 4    1  0.1244074E+000  0.1921315E+03  0.7818608E-02  0.1156553E+00
         21   -1    0    0  501  502  0.00000000000E+00  0.00000000000E+00  0.27282388114E+02  0.27282388114E+02  0.00000000000E+00 0. -1.
         21   -1    0    0  502  503 -0.00000000000E+00 -0.00000000000E+00 -0.13630415492E+04  0.13630415492E+04  0.00000000000E+00 0. -1.
          6    1    1    2  501    0 -0.73634897618E+02 -0.43685318643E+02 -0.60836928266E+03  0.63798721719E+03  0.17200000000E+03 0. -1.
         -6    1    1    2    0  503  0.73634897618E+02  0.43685318643E+02 -0.72738987842E+03  0.75233672012E+03  0.17200000000E+03 0. -1.
</event>
<event>
 4    1  0.1244074E+000  0.1725383E+03  0.7818608E-02  0.1175226E+00
         21   -1    0    0  501  502  0.00000000000E+00  0.00000000000E+00  0.13693790752E+03  0.13693790752E+03  0.00000000000E+00 0. -1.
         21   -1    0    0  502  503 -0.00000000000E+00 -0.00000000000E+00 -0.37328900616E+03  0.37328900616E+03  0.00000000000E+00 0. -1.
          6    1    1    2  501    0 -0.53379943912E+01  0.12528828998E+02  0.46688897301E+02  0.17874372401E+03  0.17200000000E+03 0. -1.
         -6    1    1    2    0  503  0.53379943912E+01 -0.12528828998E+02 -0.28303999594E+03  0.33148318968E+03  0.17200000000E+03 0. -1.
</event>
<event>
 4    1  0.1244074E+000  0.2017750E+03  0.7818608E-02  0.1148250E+00
         21   -1    0    0  503  502  0.00000000000E+00  0.00000000000E+00  0.22312301620E+03  0.22312301620E+03  0.00000000000E+00 0.  1.
         21   -1    0    0  501  503 -0.00000000000E+00 -0.00000000000E+00 -0.18774304498E+03  0.18774304498E+03  0.00000000000E+00 0.  1.
          6    1    1    2  501    0 -0.48309988175E+01 -0.10538412507E+03 -0.16740119600E+02  0.20246822954E+03  0.17200000000E+03 0.  1.
         -6    1    1    2    0  502  0.48309988175E+01  0.10538412507E+03  0.52120090817E+02  0.20839783164E+03  0.17200000000E+03 0.  1.
</event>
<event>
 4    1  0.1244074E+000  0.1993363E+03  0.7818608E-02  0.1150300E+00
         21   -1    0    0  503  502  0.00000000000E+00  0.00000000000E+00  0.31338677306E+03  0.31338677306E+03  0.00000000000E+00 0. -1.
         21   -1    0    0  501  503 -0.00000000000E+00 -0.00000000000E+00 -0.20993923680E+03  0.20993923680E+03  0.00000000000E+00 0. -1.
          6    1    1    2  501    0 -0.60893016474E+02  0.80268210474E+02 -0.11294807641E+03  0.22911179156E+03  0.17200000000E+03 0. -1.
         -6    1    1    2    0  502  0.60893016474E+02 -0.80268210474E+02  0.21639561267E+03  0.29421421830E+03  0.17200000000E+03 0. -1.
</event>
<event>
 4    1  0.1244074E+000  0.1777413E+03  0.7818608E-02  0.1170007E+00
         21   -1    0    0  503  502  0.00000000000E+00  0.00000000000E+00  0.84815082588E+03  0.84815082588E+03  0.00000000000E+00 0.  1.
         21   -1    0    0  501  503 -0.00000000000E+00 -0.00000000000E+00 -0.38853089145E+02  0.38853089145E+02  0.00000000000E+00 0. -1.
          6    1    1    2  501    0  0.44279814621E+02  0.68752726516E+01  0.49479030257E+03  0.52574653101E+03  0.17200000000E+03 0.  1.
         -6    1    1    2    0  502 -0.44279814621E+02 -0.68752726516E+01  0.31450743417E+03  0.36125738401E+03  0.17200000000E+03 0. -1.
</event>
<event>
 4    1  0.1244074E+000  0.1998910E+03  0.7818608E-02  0.1149831E+00
         21   -1    0    0  503  502  0.00000000000E+00  0.00000000000E+00  0.93751439730E+03  0.93751439730E+03  0.00000000000E+00 0.  1.
         21   -1    0    0  501  503 -0.00000000000E+00 -0.00000000000E+00 -0.79181641547E+02  0.79181641547E+02  0.00000000000E+00 0.  1.
          6    1    1    2  501    0 -0.96851915907E+02 -0.31497808643E+02  0.83732736832E+02  0.21672004241E+03  0.17200000000E+03 0.  1.
         -6    1    1    2    0  502  0.96851915907E+02  0.31497808643E+02  0.77460001892E+03  0.79997599644E+03  0.17200000000E+03 0.  1.
</event>
<event>
 4    1  0.1244074E+000  0.1846881E+03  0.7818608E-02  0.1163341E+00
         21   -1    0    0  503  502  0.00000000000E+00  0.00000000000E+00  0.13926822398E+03  0.13926822398E+03  0.00000000000E+00 0. -1.
         21   -1    0    0  501  503 -0.00000000000E+00 -0.00000000000E+00 -0.24882352232E+03  0.24882352232E+03  0.00000000000E+00 0. -1.
          6    1    1    2  501    0  0.66751516332E+02  0.83630236187E+01 -0.30476074056E+02  0.18718572645E+03  0.17200000000E+03 0. -1.
         -6    1    1    2    0  502 -0.66751516332E+02 -0.83630236187E+01 -0.79079224286E+02  0.20090601985E+03  0.17200000000E+03 0. -1.
</event>
<event>
 4    1  0.1244074E+000  0.1823330E+03  0.7818608E-02  0.1165564E+00
         21   -1    0    0  501  502  0.00000000000E+00  0.00000000000E+00  0.84892035300E+02  0.84892035300E+02  0.00000000000E+00 0.  1.
         21   -1    0    0  502  503 -0.00000000000E+00 -0.00000000000E+00 -0.58117641027E+03  0.58117641027E+03  0.00000000000E+00 0.  1.
          6    1    1    2  501    0  0.38195513151E+02  0.46930197200E+02 -0.57944527906E+02  0.19131886720E+03  0.17200000000E+03 0.  1.
         -6    1    1    2    0  503 -0.38195513151E+02 -0.46930197200E+02 -0.43833984706E+03  0.47474957836E+03  0.17200000000E+03 0.  1.
</event>
<event>
 4    1  0.1244074E+000  0.1798732E+03  0.7818608E-02  0.1167926E+00
         21   -1    0    0  501  502  0.00000000000E+00  0.00000000000E+00  0.16763361265E+03  0.16763361265E+03  0.00000000000E+00 0.  1.
         21   -1    0    0  502  503 -0.00000000000E+00 -0.00000000000E+00 -0.54105959789E+03  0.54105959789E+03  0.00000000000E+00 0.  1.
          6    1    1    2  501    0 -0.52622867077E+02  0.11024715796E+01  0.97489876520E+02  0.20459388458E+03  0.17200000000E+03 0.  1.
         -6    1    1    2    0  503  0.52622867077E+02 -0.11024715796E+01 -0.47091586176E+03  0.50409932596E+03  0.17200000000E+03 0.  1.
</event>
<event>
 4    1  0.1244074E+000  0.2649060E+03  0.7818608E-02  0.1104231E+00
         21   -1    0    0  501  502  0.00000000000E+00  0.00000000000E+00  0.19912706903E+03  0.19912706903E+03  0.00000000000E+00 0.  1.
         21   -1    0    0  502  503 -0.00000000000E+00 -0.00000000000E+00 -0.51904017934E+03  0.51904017934E+03  0.00000000000E+00 0.  1.
          6    1    1    2  501    0 -0.60087823874E+02 -0.19230349789E+03  0.43497631348E+02  0.26845339598E+03  0.17200000000E+03 0.  1.
         -6    1    1    2    0  503  0.60087823874E+02  0.19230349789E+03 -0.36341074166E+03  0.44971385240E+03  0.17200000000E+03 0.  1.
</event>
<event>
 4    1  0.1244074E+000  0.1855432E+03  0.7818608E-02  0.1162544E+00
         21   -1    0    0  501  502  0.00000000000E+00  0.00000000000E+00  0.24440679582E+03  0.24440679582E+03  0.00000000000E+00 0.  1.
         21   -1    0    0  502  503 -0.00000000000E+00 -0.00000000000E+00 -0.14298191305E+03  0.14298191305E+03  0.00000000000E+00 0.  1.
          6    1    1    2  501    0 -0.54359212928E+02 -0.43443541544E+02  0.27096424386E+02  0.18751128378E+03  0.17200000000E+03 0. -1.
         -6    1    1    2    0  503  0.54359212928E+02  0.43443541544E+02  0.74328458392E+02  0.19987742509E+03  0.17200000000E+03 0. -1.
</event>
<event>
 4    1  0.1244074E+000  0.1836366E+03  0.7818608E-02  0.1164329E+00
         21   -1    0    0  501  502  0.00000000000E+00  0.00000000000E+00  0.47748568855E+03  0.47748568855E+03  0.00000000000E+00 0. -1.
         21   -1    0    0  502  503 -0.00000000000E+00 -0.00000000000E+00 -0.82547925376E+02  0.82547925376E+02  0.00000000000E+00 0. -1.
          6    1    1    2  501    0 -0.11510468776E+02  0.63292359518E+02  0.91048961195E+02  0.20496908791E+03  0.17200000000E+03 0. -1.
         -6    1    1    2    0  503  0.11510468776E+02 -0.63292359518E+02  0.30388880198E+03  0.35506452601E+03  0.17200000000E+03 0. -1.
</event>
<event>
 4    1  0.1244074E+000  0.1897535E+03  0.7818608E-02  0.1158684E+00
         21   -1    0    0  501  502  0.00000000000E+00  0.00000000000E+00  0.25538230156E+03  0.25538230156E+03  0.00000000000E+00 0. -1.
         21   -1    0    0  502  503 -0.00000000000E+00 -0.00000000000E+00 -0.26058942861E+03  0.26058942861E+03  0.00000000000E+00 0. -1.
          6    1    1    2  501    0  0.29971441703E+02 -0.74324212381E+02  0.17217247384E+03  0.25622204552E+03  0.17200000000E+03 0. -1.
         -6    1    1    2    0  503 -0.29971441703E+02  0.74324212381E+02 -0.17737960089E+03  0.25974968465E+03  0.17200000000E+03 0. -1.
</event>
<event>
 4    1  0.1244074E+000  0.1773046E+03  0.7818608E-02  0.1170437E+00
         21   -1    0    0  503  502  0.00000000000E+00  0.00000000000E+00  0.10238582124E+03  0.10238582124E+03  0.00000000000E+00 0. -1.
         21   -1    0    0  501  503 -0.00000000000E+00 -0.00000000000E+00 -0.16084551900E+04  0.16084551900E+04  0.00000000000E+00 0. -1.
          6    1    1    2  501    0  0.27683287484E+02  0.32962749284E+02 -0.15224884244E+04  0.15327778409E+04  0.17200000000E+03 0. -1.
         -6    1    1    2    0  502 -0.27683287484E+02 -0.32962749284E+02  0.16419055599E+02  0.17806317034E+03  0.17200000000E+03 0. -1.
</event>
<event>
 4    1  0.1244074E+000  0.2818901E+03  0.7818608E-02  0.1094661E+00
         21   -1    0    0  503  502  0.00000000000E+00  0.00000000000E+00  0.17147489048E+03  0.17147489048E+03  0.00000000000E+00 0.  1.
         21   -1    0    0  501  503 -0.00000000000E+00 -0.00000000000E+00 -0.46498323799E+03  0.46498323799E+03  0.00000000000E+00 0. -1.
          6    1    1    2  501    0  0.22121489254E+03 -0.30692238166E+02 -0.16530364592E+03  0.32678331891E+03  0.17200000000E+03 0. -1.
         -6    1    1    2    0  502 -0.22121489254E+03  0.30692238166E+02 -0.12820470159E+03  0.30967480956E+03  0.17200000000E+03 0.  1.
</event>
<event>
 4    1  0.1244074E+000  0.1861941E+03  0.7818608E-02  0.1161939E+00
         21   -1    0    0  503  502  0.00000000000E+00  0.00000000000E+00  0.76702394400E+02  0.76702394400E+02  0.00000000000E+00 0.  1.
         21   -1    0    0  501  503 -0.00000000000E+00 -0.00000000000E+00 -0.56646897236E+03  0.56646897236E+03  0.00000000000E+00 0.  1.
          6    1    1    2  501    0 -0.20244686533E+02  0.68369647836E+02 -0.38945484611E+03  0.43167503198E+03  0.17200000000E+03 0.  1.
         -6    1    1    2    0  502  0.20244686533E+02 -0.68369647836E+02 -0.10031173185E+03  0.21149633478E+03  0.17200000000E+03 0.  1.
</event>
<event>
 4    1  0.1244074E+000  0.2161156E+03  0.7818608E-02  0.1136813E+00
         21   -1    0    0  503  502  0.00000000000E+00  0.00000000000E+00  0.41056964338E+03  0.41056964338E+03  0.00000000000E+00 0. -1.
         21   -1    0    0  501  503 -0.00000000000E+00 -0.00000000000E+00 -0.20553735901E+03  0.20553735901E+03  0.00000000000E+00 0.  1.
          6    1    1    2  501    0 -0.11672240512E+03  0.59142656218E+02 -0.10333392519E+03  0.23954931379E+03  0.17200000000E+03 0.  1.
         -6    1    1    2    0  502  0.11672240512E+03 -0.59142656218E+02  0.30836620957E+03  0.37655768860E+03  0.17200000000E+03 0. -1.
</event>
<event>
 4    1  0.1244074E+000  0.1797486E+03  0.7818608E-02  0.1168047E+00
         21   -1    0    0  503  502  0.00000000000E+00  0.00000000000E+00  0.15836708111E+03  0.15836708111E+03  0.00000000000E+00 0.  1.
         21   -1    0    0  501  503 -0.00000000000E+00 -0.00000000000E+00 -0.27912907040E+03  0.27912907040E+03  0.00000000000E+00 0.  1.
          6    1    1    2  501    0 -0.52015021247E+02 -0.44702115517E+01 -0.17385519983E+03  0.25007034157E+03  0.17200000000E+03 0.  1.
         -6    1    1    2    0  502  0.52015021247E+02  0.44702115517E+01  0.53093210539E+02  0.18742580994E+03  0.17200000000E+03 0.  1.
</event>
<event>
 4    1  0.1244074E+000  0.2339305E+03  0.7818608E-02  0.1123903E+00
         21   -1    0    0  501  502  0.00000000000E+00  0.00000000000E+00  0.15076429491E+04  0.15076429491E+04  0.00000000000E+00 0.  1.
         21   -1    0    0  502  503 -0.00000000000E+00 -0.00000000000E+00 -0.11639186024E+03  0.11639186024E+03  0.00000000000E+00 0. -1.
          6    1    1    2  501    0  0.47232111686E+02  0.15135595491E+03  0.13692305594E+04  0.13890701286E+04  0.17200000000E+03 0.  1.
         -6    1    1    2    0  503 -0.47232111686E+02 -0.15135595491E+03  0.22020529460E+02  0.23496468070E+03  0.17200000000E+03 0. -1.
</event>
<event>
 4    1  0.1244074E+000  0.2906801E+03  0.7818608E-02  0.1089995E+00
         21   -1    0    0  501  502  0.00000000000E+00  0.00000000000E+00  0.17912022296E+04  0.17912022296E+04  0.00000000000E+00 0.  1.
         21   -1    0    0  502  503 -0.00000000000E+00 -0.00000000000E+00 -0.51134894459E+02  0.51134894459E+02  0.00000000000E+00 0. -1.
          6    1    1    2  501    0 -0.11416500062E+03  0.20463938893E+03  0.11264681487E+04  0.11633681347E+04  0.17200000000E+03 0.  1.
         -6    1    1    2    0  503  0.11416500062E+03 -0.20463938893E+03  0.61359918643E+03  0.67896898932E+03  0.17200000000E+03 0. -1.
</event>
<event>
 4    1  0.1244074E+000  0.2338910E+03  0.7818608E-02  0.1123931E+00
         21   -1    0    0  503  502  0.00000000000E+00  0.00000000000E+00  0.35061615137E+03  0.35061615137E+03  0.00000000000E+00 0.  1.
         21   -1    0    0  501  503 -0.00000000000E+00 -0.00000000000E+00 -0.18580352577E+03  0.18580352577E+03  0.00000000000E+00 0. -1.
          6    1    1    2  501    0 -0.50149762655E+02  0.15035296147E+03  0.18977970926E+03  0.30119985021E+03  0.17200000000E+03 0.  1.
         -6    1    1    2    0  502  0.50149762655E+02 -0.15035296147E+03 -0.24967083658E+02  0.23521982693E+03  0.17200000000E+03 0. -1.
</event>
<event>
 4    1  0.1244074E+000  0.2005013E+03  0.7818608E-02  0.1149317E+00
         21   -1    0    0  501  502  0.00000000000E+00  0.00000000000E+00  0.44824204950E+02  0.44824204950E+02  0.00000000000E+00 0. -1.
         21   -1    0    0  502  503 -0.00000000000E+00 -0.00000000000E+00 -0.11110261191E+04  0.11110261191E+04  0.00000000000E+00 0. -1.
          6    1    1    2  501    0 -0.59415522899E+02  0.84181678590E+02 -0.27935968086E+03  0.34386420381E+03  0.17200000000E+03 0. -1.
         -6    1    1    2    0  503  0.59415522899E+02 -0.84181678590E+02 -0.78684223328E+03  0.81198612023E+03  0.17200000000E+03 0. -1.
</event>
<event>
 4    1  0.1244074E+000  0.2020067E+03  0.7818608E-02  0.1148057E+00
         21   -1    0    0  501  502  0.00000000000E+00  0.00000000000E+00  0.23868318435E+03  0.23868318435E+03  0.00000000000E+00 0.  1.
         21   -1    0    0  502  503 -0.00000000000E+00 -0.00000000000E+00 -0.23767600862E+03  0.23767600862E+03  0.00000000000E+00 0.  1.
          6    1    1    2  501    0 -0.82580686775E+02 -0.66356065192E+02  0.12668853366E+03  0.23844639183E+03  0.17200000000E+03 0.  1.
         -6    1    1    2    0  503  0.82580686775E+02  0.66356065192E+02 -0.12568135792E+03  0.23791280114E+03  0.17200000000E+03 0.  1.
</event>
<event>
 4    1  0.1244074E+000  0.1945747E+03  0.7818608E-02  0.1154399E+00
         21   -1    0    0  503  502  0.00000000000E+00  0.00000000000E+00  0.60668308256E+03  0.60668308256E+03  0.00000000000E+00 0. -1.
         21   -1    0    0  501  503 -0.00000000000E+00 -0.00000000000E+00 -0.83964426918E+02  0.83964426918E+02  0.00000000000E+00 0. -1.
          6    1    1    2  501    0  0.49515889673E+02 -0.76311775799E+02  0.86370709151E+02  0.21288308964E+03  0.17200000000E+03 0. -1.
         -6    1    1    2    0  502 -0.49515889673E+02  0.76311775799E+02  0.43634794649E+03  0.47776441984E+03  0.17200000000E+03 0. -1.
</event>
<event>
 4    1  0.1244074E+000  0.1834560E+03  0.7818608E-02  0.1164500E+00
         21   -1    0    0  501  502  0.00000000000E+00  0.00000000000E+00  0.59088504833E+02  0.59088504833E+02  0.00000000000E+00 0. -1.
         21   -1    0    0  502  503 -0.00000000000E+00 -0.00000000000E+00 -0.61386167173E+03  0.61386167173E+03  0.00000000000E+00 0. -1.
          6    1    1    2  501    0  0.62869663060E+02  0.10932178607E+02 -0.18702369304E+03  0.26198085583E+03  0.17200000000E+03 0.  1.
         -6    1    1    2    0  503 -0.62869663060E+02 -0.10932178607E+02 -0.36774947385E+03  0.41096932073E+03  0.17200000000E+03 0.  1.
</event>
<event>
 4    1  0.1244074E+000  0.1721288E+03  0.7818608E-02  0.1175646E+00
         21   -1    0    0  503  502  0.00000000000E+00  0.00000000000E+00  0.11145493037E+03  0.11145493037E+03  0.00000000000E+00 0. -1.
         21   -1    0    0  501  503 -0.00000000000E+00 -0.00000000000E+00 -0.41041452899E+03  0.41041452899E+03  0.00000000000E+00 0. -1.
          6    1    1    2  501    0  0.41986996428E+01 -0.51665980629E+01 -0.30435359758E+03  0.34965616707E+03  0.17200000000E+03 0. -1.
         -6    1    1    2    0  502 -0.41986996428E+01  0.51665980629E+01  0.53939989543E+01  0.17221329228E+03  0.17200000000E+03 0. -1.
</event>
<event>
 4    1  0.1244074E+000  0.2758246E+03  0.7818608E-02  0.1097992E+00
         21   -1    0    0  501  502  0.00000000000E+00  0.00000000000E+00  0.54377412201E+03  0.54377412201E+03  0.00000000000E+00 0. -1.
         21   -1    0    0  502  503 -0.00000000000E+00 -0.00000000000E+00 -0.14076170978E+03  0.14076170978E+03  0.00000000000E+00 0.  1.
          6    1    1    2  501    0  0.14895495452E+03 -0.15590900686E+03  0.17487551243E+03  0.32658940850E+03  0.17200000000E+03 0.  1.
         -6    1    1    2    0  503 -0.14895495452E+03  0.15590900686E+03  0.22813689981E+03  0.35794642330E+03  0.17200000000E+03 0. -1.
</event>
<event>
 4    1  0.1244074E+000  0.1751656E+03  0.7818608E-02  0.1172566E+00
         21   -1    0    0  501  502  0.00000000000E+00  0.00000000000E+00  0.46864913618E+03  0.46864913618E+03  0.00000000000E+00 0.  1.
         21   -1    0    0  502  503 -0.00000000000E+00 -0.00000000000E+00 -0.74945088888E+02  0.74945088888E+02  0.00000000000E+00 0.  1.
          6    1    1    2  501    0  0.27314971455E+02 -0.18785374597E+02  0.10021611489E+03  0.20180750146E+03  0.17200000000E+03 0.  1.
         -6    1    1    2    0  503 -0.27314971455E+02  0.18785374597E+02  0.29348793241E+03  0.34178672361E+03  0.17200000000E+03 0.  1.
</event>
<event>
 4    1  0.1244074E+000  0.3287306E+03  0.7818608E-02  0.1071700E+00
         21   -1    0    0  501  502  0.00000000000E+00  0.00000000000E+00  0.88804301770E+02  0.88804301770E+02  0.00000000000E+00 0. -1.
         21   -1    0    0  502  503 -0.00000000000E+00 -0.00000000000E+00 -0.12332250038E+04  0.12332250038E+04  0.00000000000E+00 0. -1.
          6    1    1    2  501    0 -0.17045800048E+03  0.22231481615E+03 -0.49610100615E+03  0.59513025105E+03  0.17200000000E+03 0. -1.
         -6    1    1    2    0  503  0.17045800048E+03 -0.22231481615E+03 -0.64831969589E+03  0.72689905454E+03  0.17200000000E+03 0. -1.
</event>
<event>
 4    1  0.1244074E+000  0.1854703E+03  0.7818608E-02  0.1162611E+00
         21   -1    0    0  501  502  0.00000000000E+00  0.00000000000E+00  0.80737942151E+03  0.80737942151E+03  0.00000000000E+00 0.  1.
         21   -1    0    0  502  503 -0.00000000000E+00 -0.00000000000E+00 -0.70579696853E+02  0.70579696853E+02  0.00000000000E+00 0.  1.
          6    1    1    2  501    0  0.54117474640E+02  0.43434157702E+02  0.64476238509E+03  0.67090816089E+03  0.17200000000E+03 0.  1.
         -6    1    1    2    0  503 -0.54117474640E+02 -0.43434157702E+02  0.92037339562E+02  0.20705095747E+03  0.17200000000E+03 0.  1.
</event>
<event>
 4    1  0.1244074E+000  0.1826087E+03  0.7818608E-02  0.1165302E+00
         21   -1    0    0  503  502  0.00000000000E+00  0.00000000000E+00  0.47114119753E+03  0.47114119753E+03  0.00000000000E+00 0. -1.
         21   -1    0    0  501  503 -0.00000000000E+00 -0.00000000000E+00 -0.97674148478E+02  0.97674148478E+02  0.00000000000E+00 0. -1.
          6    1    1    2  501    0  0.60862492709E+02  0.75949069820E+01  0.37486661889E+02  0.18641667160E+03  0.17200000000E+03 0. -1.
         -6    1    1    2    0  502 -0.60862492709E+02 -0.75949069820E+01  0.33598038716E+03  0.38239867440E+03  0.17200000000E+03 0. -1.
</event>
<event>
 4    1  0.1244074E+000  0.2114645E+03  0.7818608E-02  0.1140411E+00
         21   -1    0    0  503  502  0.00000000000E+00  0.00000000000E+00  0.15521642039E+03  0.15521642039E+03  0.00000000000E+00 0.  1.
         21   -1    0    0  501  503 -0.00000000000E+00 -0.00000000000E+00 -0.96112915208E+03  0.96112915208E+03  0.00000000000E+00 0.  1.
          6    1    1    2  501    0 -0.95170397456E+02  0.77947738103E+02 -0.87004140938E+03  0.89537104514E+03  0.17200000000E+03 0.  1.
         -6    1    1    2    0  502  0.95170397456E+02 -0.77947738103E+02  0.64128677696E+02  0.22097452733E+03  0.17200000000E+03 0.  1.
</event>
<event>
 4    1  0.1244074E+000  0.1977974E+03  0.7818608E-02  0.1151611E+00
         21   -1    0    0  501  502  0.00000000000E+00  0.00000000000E+00  0.13691534962E+03  0.13691534962E+03  0.00000000000E+00 0.  1.
         21   -1    0    0  502  503 -0.00000000000E+00 -0.00000000000E+00 -0.69385224080E+03  0.69385224080E+03  0.00000000000E+00 0.  1.
          6    1    1    2  501    0  0.30810297789E+02 -0.92685043723E+02  0.40097718283E+02  0.20182075907E+03  0.17200000000E+03 0.  1.
         -6    1    1    2    0  503 -0.30810297789E+02  0.92685043723E+02 -0.59703460946E+03  0.62894683136E+03  0.17200000000E+03 0.  1.
</event>
<event>
 4    1  0.1244074E+000  0.1750321E+03  0.7818608E-02  0.1172700E+00
         21   -1    0    0  501  502  0.00000000000E+00  0.00000000000E+00  0.13965117095E+03  0.13965117095E+03  0.00000000000E+00 0.  1.
         21   -1    0    0  502  503 -0.00000000000E+00 -0.00000000000E+00 -0.26578118756E+03  0.26578118756E+03  0.00000000000E+00 0.  1.
          6    1    1    2  501    0 -0.30710517222E+02  0.10444539932E+02  0.21639379309E+02  0.17636464220E+03  0.17200000000E+03 0.  1.
         -6    1    1    2    0  503  0.30710517222E+02 -0.10444539932E+02 -0.14776939593E+03  0.22906771631E+03  0.17200000000E+03 0.  1.
</event>
<event>
 4    1  0.1244074E+000  0.1796789E+03  0.7818608E-02  0.1168114E+00
         21   -1    0    0  501  502  0.00000000000E+00  0.00000000000E+00  0.10638608770E+04  0.10638608770E+04  0.00000000000E+00 0. -1.
         21   -1    0    0  502  503 -0.00000000000E+00 -0.00000000000E+00 -0.11228722446E+03  0.11228722446E+03  0.00000000000E+00 0. -1.
          6    1    1    2  501    0  0.51640343174E+02  0.58130042105E+01  0.97814860331E+03  0.99451455808E+03  0.17200000000E+03 0. -1.
         -6    1    1    2    0  503 -0.51640343174E+02 -0.58130042105E+01 -0.26574950795E+02  0.18163354335E+03  0.17200000000E+03 0. -1.
</event>
<event>
 4    1  0.1244074E+000  0.2029079E+03  0.7818608E-02  0.1147309E+00
         21   -1    0    0  501  502  0.00000000000E+00  0.00000000000E+00  0.11511108695E+03  0.11511108695E+03  0.00000000000E+00 0. -1.
         21   -1    0    0  502  503 -0.00000000000E+00 -0.00000000000E+00 -0.50209009109E+03  0.50209009109E+03  0.00000000000E+00 0. -1.
          6    1    1    2  501    0  0.62170769080E+02  0.87877288186E+02 -0.27980422040E+02  0.20482804086E+03  0.17200000000E+03 0. -1.
         -6    1    1    2    0  503 -0.62170769080E+02 -0.87877288186E+02 -0.35899858211E+03  0.41237313717E+03  0.17200000000E+03 0. -1.
</event>
<event>
 4    1  0.1244074E+000  0.2262292E+03  0.7818608E-02  0.1129322E+00
         21   -1    0    0  503  502  0.00000000000E+00  0.00000000000E+00  0.20781676844E+03  0.20781676844E+03  0.00000000000E+00 0.  1.
         21   -1    0    0  501  503 -0.00000000000E+00 -0.00000000000E+00 -0.38510990973E+03  0.38510990973E+03  0.00000000000E+00 0.  1.
          6    1    1    2  501    0  0.14690382210E+03  0.38631887413E+01 -0.26665113223E+03  0.34968912407E+03  0.17200000000E+03 0. -1.
         -6    1    1    2    0  502 -0.14690382210E+03 -0.38631887413E+01  0.89357990952E+02  0.24323755409E+03  0.17200000000E+03 0. -1.
</event>
<event>
 4    1  0.1244074E+000  0.2031961E+03  0.7818608E-02  0.1147070E+00
         21   -1    0    0  503  502  0.00000000000E+00  0.00000000000E+00  0.74931079267E+02  0.74931079267E+02  0.00000000000E+00 0. -1.
         21   -1    0    0  501  503 -0.00000000000E+00 -0.00000000000E+00 -0.72759869213E+03  0.72759869213E+03  0.00000000000E+00 0.  1.
          6    1    1    2  501    0  0.49942540170E+02 -0.95970860190E+02 -0.52400894489E+03  0.56202672325E+03  0.17200000000E+03 0.  1.
         -6    1    1    2    0  502 -0.49942540170E+02  0.95970860190E+02 -0.12865866798E+03  0.24050304815E+03  0.17200000000E+03 0. -1.
</event>
<event>
 4    1  0.1244074E+000  0.2123671E+03  0.7818608E-02  0.1139705E+00
         21   -1    0    0  503  502  0.00000000000E+00  0.00000000000E+00  0.17480801945E+03  0.17480801945E+03  0.00000000000E+00 0. -1.
         21   -1    0    0  501  503 -0.00000000000E+00 -0.00000000000E+00 -0.26970666461E+03  0.26970666461E+03  0.00000000000E+00 0.  1.
          6    1    1    2  501    0 -0.42210551981E+02 -0.11719238291E+03 -0.93761948074E+02  0.23214454165E+03  0.17200000000E+03 0.  1.
         -6    1    1    2    0  502  0.42210551981E+02  0.11719238291E+03 -0.11366970859E+01  0.21237014242E+03  0.17200000000E+03 0. -1.
</event>
<event>
 4    1  0.1244074E+000  0.2792667E+03  0.7818608E-02  0.1096090E+00
         21   -1    0    0  503  502  0.00000000000E+00  0.00000000000E+00  0.49545350893E+03  0.49545350893E+03  0.00000000000E+00 0.  1.
         21   -1    0    0  501  503 -0.00000000000E+00 -0.00000000000E+00 -0.17857787592E+03  0.17857787592E+03  0.00000000000E+00 0.  1.
          6    1    1    2  501    0  0.21334350136E+03 -0.53762984124E+02  0.27446589781E+03  0.39156281373E+03  0.17200000000E+03 0.  1.
         -6    1    1    2    0  502 -0.21334350136E+03  0.53762984124E+02  0.42409735208E+02  0.28246857113E+03  0.17200000000E+03 0.  1.
</event>
<event>
 4    1  0.1244074E+000  0.1885404E+03  0.7818608E-02  0.1159784E+00
         21   -1    0    0  503  502  0.00000000000E+00  0.00000000000E+00  0.87161640354E+03  0.87161640354E+03  0.00000000000E+00 0.  1.
         21   -1    0    0  501  503 -0.00000000000E+00 -0.00000000000E+00 -0.41105412710E+02  0.41105412710E+02  0.00000000000E+00 0.  1.
          6    1    1    2  501    0 -0.68137776868E+02  0.36341678641E+02  0.37486304275E+03  0.41960669092E+03  0.17200000000E+03 0.  1.
         -6    1    1    2    0  502  0.68137776868E+02 -0.36341678641E+02  0.45564794808E+03  0.49311512534E+03  0.17200000000E+03 0.  1.
</event>
<event>
 4    1  0.1244074E+000  0.1847451E+03  0.7818608E-02  0.1163288E+00
         21   -1    0    0  501  502  0.00000000000E+00  0.00000000000E+00  0.19934830382E+03  0.19934830382E+03  0.00000000000E+00 0.  1.
         21   -1    0    0  502  503 -0.00000000000E+00 -0.00000000000E+00 -0.17702436225E+03  0.17702436225E+03  0.00000000000E+00 0.  1.
          6    1    1    2  501    0  0.22500683647E+02 -0.63564712215E+02 -0.22938526623E+02  0.18616371668E+03  0.17200000000E+03 0.  1.
         -6    1    1    2    0  503 -0.22500683647E+02  0.63564712215E+02  0.45262468197E+02  0.19020894940E+03  0.17200000000E+03 0.  1.
</event>
<event>
 4    1  0.1244074E+000  0.2041470E+03  0.7818608E-02  0.1146287E+00
         21   -1    0    0  501  502  0.00000000000E+00  0.00000000000E+00  0.36585190634E+03  0.36585190634E+03  0.00000000000E+00 0. -1.
         21   -1    0    0  502  503 -0.00000000000E+00 -0.00000000000E+00 -0.11731850746E+03  0.11731850746E+03  0.00000000000E+00 0. -1.
          6    1    1    2  501    0  0.10188263236E+03  0.41375353372E+02  0.83118055245E+02  0.22041915015E+03  0.17200000000E+03 0. -1.
         -6    1    1    2    0  503 -0.10188263236E+03 -0.41375353372E+02  0.16541534363E+03  0.26275126366E+03  0.17200000000E+03 0. -1.
</event>
<event>
 4    1  0.1244074E+000  0.2154285E+03  0.7818608E-02  0.1137338E+00
         21   -1    0    0  501  502  0.00000000000E+00  0.00000000000E+00  0.49496930286E+03  0.49496930286E+03  0.00000000000E+00 0. -1.
         21   -1    0    0  502  503 -0.00000000000E+00 -0.00000000000E+00 -0.29209054457E+03  0.29209054457E+03  0.00000000000E+00 0. -1.
          6    1    1    2  501    0 -0.12458194317E+03  0.36121535976E+02  0.42571281418E+03  0.47711720372E+03  0.17200000000E+03 0. -1.
         -6    1    1    2    0  503  0.12458194317E+03 -0.36121535976E+02 -0.22283405589E+03  0.30994264371E+03  0.17200000000E+03 0. -1.
</event>
<event>
 4    1  0.1244074E+000  0.1769443E+03  0.7818608E-02  0.1170794E+00
         21   -1    0    0  501  502  0.00000000000E+00  0.00000000000E+00  0.19023830718E+02  0.19023830718E+02  0.00000000000E+00 0.  1.
         21   -1    0    0  502  503 -0.00000000000E+00 -0.00000000000E+00 -0.17660236359E+04  0.17660236359E+04  0.00000000000E+00 0.  1.
          6    1    1    2  501    0  0.36417463397E+02 -0.19976538071E+02 -0.11063779187E+04  0.11204380361E+04  0.17200000000E+03 0. -1.
         -6    1    1    2    0  503 -0.36417463397E+02  0.19976538071E+02 -0.64062188639E+03  0.66460943045E+03  0.17200000000E+03 0. -1.
</event>
<event>
 4    1  0.1244074E+000  0.2810618E+03  0.7818608E-02  0.1095110E+00
         21   -1    0    0  501  502  0.00000000000E+00  0.00000000000E+00  0.35862240403E+03  0.35862240403E+03  0.00000000000E+00 0. -1.
         21   -1    0    0  502  503 -0.00000000000E+00 -0.00000000000E+00 -0.35868360764E+03  0.35868360764E+03  0.00000000000E+00 0.  1.
          6    1    1    2  501    0 -0.10033807608E+03  0.19835327448E+03  0.22276128990E+03  0.35863399628E+03  0.17200000000E+03 0. -1.
         -6    1    1    2    0  503  0.10033807608E+03 -0.19835327448E+03 -0.22282249352E+03  0.35867201539E+03  0.17200000000E+03 0.  1.
</event>
<event>
 4    1  0.1244074E+000  0.1924912E+03  0.7818608E-02  0.1156233E+00
         21   -1    0    0  503  502  0.00000000000E+00  0.00000000000E+00  0.22607127665E+03  0.22607127665E+03  0.00000000000E+00 0. -1.
         21   -1    0    0  501  503 -0.00000000000E+00 -0.00000000000E+00 -0.19863943472E+03  0.19863943472E+03  0.00000000000E+00 0. -1.
          6    1    1    2  501    0 -0.42041881088E+02 -0.75507226220E+02 -0.75091237576E+02  0.20661934793E+03  0.17200000000E+03 0. -1.
         -6    1    1    2    0  502  0.42041881088E+02  0.75507226220E+02  0.10252307950E+03  0.21809136344E+03  0.17200000000E+03 0. -1.
</event>
<event>
 4    1  0.1244074E+000  0.2048422E+03  0.7818608E-02  0.1145717E+00
         21   -1    0    0  503  502  0.00000000000E+00  0.00000000000E+00  0.27527775017E+02  0.27527775017E+02  0.00000000000E+00 0. -1.
         21   -1    0    0  501  503 -0.00000000000E+00 -0.00000000000E+00 -0.17948953907E+04  0.17948953907E+04  0.00000000000E+00 0.  1.
          6    1    1    2  501    0 -0.97332140089E+02  0.53877424912E+02 -0.12374917555E+04  0.12543309640E+04  0.17200000000E+03 0.  1.
         -6    1    1    2    0  502  0.97332140089E+02 -0.53877424912E+02 -0.52987586023E+03  0.56809220172E+03  0.17200000000E+03 0. -1.
</event>
<event>
 4    1  0.1244074E+000  0.2144626E+03  0.7818608E-02  0.1138080E+00
         21   -1    0    0  503  502  0.00000000000E+00  0.00000000000E+00  0.17652338490E+03  0.17652338490E+03  0.00000000000E+00 0.  1.
         21   -1    0    0  501  503 -0.00000000000E+00 -0.00000000000E+00 -0.79682071913E+03  0.79682071913E+03  0.00000000000E+00 0.  1.
          6    1    1    2  501    0 -0.11574576252E+03 -0.54891789055E+02 -0.70939946756E+03  0.74110849046E+03  0.17200000000E+03 0.  1.
         -6    1    1    2    0  502  0.11574576252E+03  0.54891789055E+02  0.89102133331E+02  0.23223561357E+03  0.17200000000E+03 0.  1.
</event>
<event>
 4    1  0.1244074E+000  0.1762058E+03  0.7818608E-02  0.1171526E+00
         21   -1    0    0  503  502  0.00000000000E+00  0.00000000000E+00  0.18286327250E+03  0.18286327250E+03  0.00000000000E+00 0.  1.
         21   -1    0    0  501  503 -0.00000000000E+00 -0.00000000000E+00 -0.28118387676E+03  0.28118387676E+03  0.00000000000E+00 0.  1.
          6    1    1    2  501    0  0.29278456817E+02  0.24642420859E+02 -0.19519843307E+03  0.26296559701E+03  0.17200000000E+03 0.  1.
         -6    1    1    2    0  502 -0.29278456817E+02 -0.24642420859E+02  0.96877828813E+02  0.20108155225E+03  0.17200000000E+03 0.  1.
</event>
<event>
 4    1  0.1244074E+000  0.2577488E+03  0.7818608E-02  0.1108503E+00
         21   -1    0    0  503  502  0.00000000000E+00  0.00000000000E+00  0.20317005607E+03  0.20317005607E+03  0.00000000000E+00 0. -1.
         21   -1    0    0  501  503 -0.00000000000E+00 -0.00000000000E+00 -0.33431008312E+03  0.33431008312E+03  0.00000000000E+00 0. -1.
          6    1    1    2  501    0  0.18770460581E+03 -0.40217097222E+02 -0.25801759320E+02  0.25903699491E+03  0.17200000000E+03 0. -1.
         -6    1    1    2    0  502 -0.18770460581E+03  0.40217097222E+02 -0.10533826773E+03  0.27844314428E+03  0.17200000000E+03 0. -1.
</event>
<event>
 4    1  0.1244074E+000  0.2074379E+03  0.7818608E-02  0.1143611E+00
         21   -1    0    0  501  502  0.00000000000E+00  0.00000000000E+00  0.15774990930E+03  0.15774990930E+03  0.00000000000E+00 0. -1.
         21   -1    0    0  502  503 -0.00000000000E+00 -0.00000000000E+00 -0.47023438071E+03  0.47023438071E+03  0.00000000000E+00 0.  1.
          6    1    1    2  501    0 -0.10768775336E+03  0.43009713730E+02  0.47226971787E+02  0.21274603301E+03  0.17200000000E+03 0. -1.
         -6    1    1    2    0  503  0.10768775336E+03 -0.43009713730E+02 -0.35971144320E+03  0.41523825699E+03  0.17200000000E+03 0.  1.
</event>
<event>
 4    1  0.1244074E+000  0.1892080E+03  0.7818608E-02  0.1159178E+00
         21   -1    0    0  501  502  0.00000000000E+00  0.00000000000E+00  0.11704577936E+04  0.11704577936E+04  0.00000000000E+00 0.  1.
         21   -1    0    0  502  503 -0.00000000000E+00 -0.00000000000E+00 -0.30788837546E+02  0.30788837546E+02  0.00000000000E+00 0.  1.
          6    1    1    2  501    0 -0.72136896085E+02 -0.31810811422E+02  0.52108774870E+03  0.55437541553E+03  0.17200000000E+03 0.  1.
         -6    1    1    2    0  503  0.72136896085E+02  0.31810811422E+02  0.61858120739E+03  0.64687121565E+03  0.17200000000E+03 0.  1.
</event>
<event>
 4    1  0.1244074E+000  0.1779309E+03  0.7818608E-02  0.1169821E+00
         21   -1    0    0  503  502  0.00000000000E+00  0.00000000000E+00  0.65406248673E+02  0.65406248673E+02  0.00000000000E+00 0. -1.
         21   -1    0    0  501  503 -0.00000000000E+00 -0.00000000000E+00 -0.50316736671E+03  0.50316736671E+03  0.00000000000E+00 0. -1.
          6    1    1    2  501    0 -0.26438584911E+02 -0.37099964962E+02 -0.27430474535E+03  0.32695947684E+03  0.17200000000E+03 0.  1.
         -6    1    1    2    0  502  0.26438584911E+02  0.37099964962E+02 -0.16345637268E+03  0.24161413854E+03  0.17200000000E+03 0.  1.
</event>
<event>
 4    1  0.1244074E+000  0.2050837E+03  0.7818608E-02  0.1145519E+00
         21   -1    0    0  503  502  0.00000000000E+00  0.00000000000E+00  0.21717411689E+03  0.21717411689E+03  0.00000000000E+00 0. -1.
         21   -1    0    0  501  503 -0.00000000000E+00 -0.00000000000E+00 -0.20989850244E+03  0.20989850244E+03  0.00000000000E+00 0. -1.
          6    1    1    2  501    0  0.36702678191E+02 -0.10549041092E+03 -0.55744276976E+02  0.21252467574E+03  0.17200000000E+03 0. -1.
         -6    1    1    2    0  502 -0.36702678191E+02  0.10549041092E+03  0.63019891427E+02  0.21454794359E+03  0.17200000000E+03 0. -1.
</event>
<event>
 4    1  0.1244074E+000  0.2184570E+03  0.7818608E-02  0.1135039E+00
         21   -1    0    0  501  502  0.00000000000E+00  0.00000000000E+00  0.64478021068E+03  0.64478021068E+03  0.00000000000E+00 0. -1.
         21   -1    0    0  502  503 -0.00000000000E+00 -0.00000000000E+00 -0.10198938426E+03  0.10198938426E+03  0.00000000000E+00 0. -1.
          6    1    1    2  501    0  0.90585372692E+02 -0.99668299697E+02  0.46694573853E+03  0.51552090398E+03  0.17200000000E+03 0.  1.
         -6    1    1    2    0  503 -0.90585372692E+02  0.99668299697E+02  0.75845087891E+02  0.23124869095E+03  0.17200000000E+03 0.  1.
</event>
<event>
 4    1  0.1244074E+000  0.1950766E+03  0.7818608E-02  0.1153961E+00
         21   -1    0    0  501  502  0.00000000000E+00  0.00000000000E+00  0.13848347594E+03  0.13848347594E+03  0.00000000000E+00 0.  1.
         21   -1    0    0  502  503 -0.00000000000E+00 -0.00000000000E+00 -0.59827493864E+03  0.59827493864E+03  0.00000000000E+00 0. -1.
          6    1    1    2  501    0 -0.65996346318E+02 -0.64151089248E+02  0.40977981932E+02  0.19933407883E+03  0.17200000000E+03 0.  1.
         -6    1    1    2    0  503  0.65996346318E+02  0.64151089248E+02 -0.50076944464E+03  0.53742433576E+03  0.17200000000E+03 0. -1.
</event>
<event>
 4    1  0.1244074E+000  0.1865135E+03  0.7818608E-02  0.1161644E+00
         21   -1    0    0  501  502  0.00000000000E+00  0.00000000000E+00  0.17081208761E+03  0.17081208761E+03  0.00000000000E+00 0.  1.
         21   -1    0    0  502  503 -0.00000000000E+00 -0.00000000000E+00 -0.22689938497E+03  0.22689938497E+03  0.00000000000E+00 0. -1.
          6    1    1    2  501    0  0.68090459518E+02 -0.23811557060E+02  0.35599195335E+02  0.18988049830E+03  0.17200000000E+03 0.  1.
         -6    1    1    2    0  503 -0.68090459518E+02  0.23811557060E+02 -0.91686492694E+02  0.20783097428E+03  0.17200000000E+03 0. -1.
</event>
<event>
 4    1  0.1244074E+000  0.4242815E+03  0.7818608E-02  0.1035682E+00
         21   -1    0    0  503  502  0.00000000000E+00  0.00000000000E+00  0.25806476185E+03  0.25806476185E+03  0.00000000000E+00 0.  1.
         21   -1    0    0  501  503 -0.00000000000E+00 -0.00000000000E+00 -0.84250062899E+03  0.84250062899E+03  0.00000000000E+00 0.  1.
          6    1    1    2  501    0  0.38465628186E+03  0.49702249604E+02 -0.52046276734E+03  0.67148809444E+03  0.17200000000E+03 0.  1.
         -6    1    1    2    0  502 -0.38465628186E+03 -0.49702249604E+02 -0.63973099798E+02  0.42907729640E+03  0.17200000000E+03 0.  1.
</event>
<event>
 4    1  0.1244074E+000  0.2362883E+03  0.7818608E-02  0.1122290E+00
         21   -1    0    0  503  502  0.00000000000E+00  0.00000000000E+00  0.38239374066E+03  0.38239374066E+03  0.00000000000E+00 0.  1.
         21   -1    0    0  501  503 -0.00000000000E+00 -0.00000000000E+00 -0.19738249332E+03  0.19738249332E+03  0.00000000000E+00 0. -1.
          6    1    1    2  501    0  0.59712545169E+02  0.15060733384E+03 -0.55389605611E+02  0.24269356288E+03  0.17200000000E+03 0.  1.
         -6    1    1    2    0  502 -0.59712545169E+02 -0.15060733384E+03  0.24040085295E+03  0.33708267110E+03  0.17200000000E+03 0.  1.
</event>
<event>
 4    1  0.1244074E+000  0.1988926E+03  0.7818608E-02  0.1150677E+00
         21   -1    0    0  501  502  0.00000000000E+00  0.00000000000E+00  0.14410109587E+03  0.14410109587E+03  0.00000000000E+00 0. -1.
         21   -1    0    0  502  503 -0.00000000000E+00 -0.00000000000E+00 -0.33859084761E+03  0.33859084761E+03  0.00000000000E+00 0.  1.
          6    1    1    2  501    0 -0.99855408199E+02 -0.17813992029E+01  0.77434658204E+01  0.19904330482E+03  0.17200000000E+03 0. -1.
         -6    1    1    2    0  503  0.99855408199E+02  0.17813992029E+01 -0.20223321757E+03  0.28364863866E+03  0.17200000000E+03 0.  1.
</event>
<event>
 4    1  0.1244074E+000  0.2359288E+03  0.7818608E-02  0.1122535E+00
         21   -1    0    0  503  502  0.00000000000E+00  0.00000000000E+00  0.24433575917E+04  0.24433575917E+04  0.00000000000E+00 0.  1.
         21   -1    0    0  501  503 -0.00000000000E+00 -0.00000000000E+00 -0.24110704270E+02  0.24110704270E+02  0.00000000000E+00 0.  1.
          6    1    1    2  501    0  0.13299589497E+02 -0.16093949500E+03  0.91990505136E+03  0.94967768408E+03  0.17200000000E+03 0. -1.
         -6    1    1    2    0  502 -0.13299589497E+02  0.16093949500E+03  0.14993418361E+04  0.15177906119E+04  0.17200000000E+03 0. -1.
</event>
<event>
 4    1  0.1244074E+000  0.1769682E+03  0.7818608E-02  0.1170770E+00
         21   -1    0    0  501  502  0.00000000000E+00  0.00000000000E+00  0.50918228627E+02  0.50918228627E+02  0.00000000000E+00 0. -1.
         21   -1    0    0  502  503 -0.00000000000E+00 -0.00000000000E+00 -0.72704775717E+03  0.72704775717E+03  0.00000000000E+00 0. -1.
          6    1    1    2  501    0  0.41571731644E+02 -0.23536999061E+01 -0.18540131804E+03  0.25630333105E+03  0.17200000000E+03 0. -1.
         -6    1    1    2    0  503 -0.41571731644E+02  0.23536999061E+01 -0.49072821051E+03  0.52166265475E+03  0.17200000000E+03 0. -1.
</event>
<event>
 4    1  0.1244074E+000  0.1764083E+03  0.7818608E-02  0.1171325E+00
         21   -1    0    0  503  502  0.00000000000E+00  0.00000000000E+00  0.36025970261E+02  0.36025970261E+02  0.00000000000E+00 0. -1.
         21   -1    0    0  501  503 -0.00000000000E+00 -0.00000000000E+00 -0.11523448170E+04  0.11523448170E+04  0.00000000000E+00 0. -1.
          6    1    1    2  501    0 -0.39182036422E+02 -0.80840432480E+00 -0.26083967551E+03  0.31489239720E+03  0.17200000000E+03 0.  1.
         -6    1    1    2    0  502  0.39182036422E+02  0.80840432480E+00 -0.85547917128E+03  0.87347839011E+03  0.17200000000E+03 0.  1.
</event>
<event>
 4    1  0.1244074E+000  0.2844351E+03  0.7818608E-02  0.1093291E+00
         21   -1    0    0  501  502  0.00000000000E+00  0.00000000000E+00  0.15656448164E+04  0.15656448164E+04  0.00000000000E+00 0. -1.
         21   -1    0    0  502  503 -0.00000000000E+00 -0.00000000000E+00 -0.53851039685E+02  0.53851039685E+02  0.00000000000E+00 0.  1.
          6    1    1    2  501    0  0.50007532020E+02  0.22094928159E+03  0.91870375458E+03  0.96172757420E+03  0.17200000000E+03 0. -1.
         -6    1    1    2    0  503 -0.50007532020E+02 -0.22094928159E+03  0.59309002211E+03  0.65776828186E+03  0.17200000000E+03 0. -1.
</event>
<event>
 4    1  0.1244074E+000  0.2195602E+03  0.7818608E-02  0.1134211E+00
         21   -1    0    0  501  502  0.00000000000E+00  0.00000000000E+00  0.19958481867E+03  0.19958481867E+03  0.00000000000E+00 0.  1.
         21   -1    0    0  502  503 -0.00000000000E+00 -0.00000000000E+00 -0.32207273386E+03  0.32207273386E+03  0.00000000000E+00 0. -1.
          6    1    1    2  501    0 -0.11869816721E+03  0.67330864426E+02  0.69186339336E+02  0.23020306200E+03  0.17200000000E+03 0.  1.
         -6    1    1    2    0  503  0.11869816721E+03 -0.67330864426E+02 -0.19167425453E+03  0.29145449054E+03  0.17200000000E+03 0.  1.
</event>
<event>
 4    1  0.1244074E+000  0.3086993E+03  0.7818608E-02  0.1080971E+00
         21   -1    0    0  501  502  0.00000000000E+00  0.00000000000E+00  0.13202121017E+04  0.13202121017E+04  0.00000000000E+00 0. -1.
         21   -1    0    0  502  503 -0.00000000000E+00 -0.00000000000E+00 -0.20622392643E+03  0.20622392643E+03  0.00000000000E+00 0.  1.
          6    1    1    2  501    0 -0.25629512274E+03  0.49077980068E+01  0.11723122759E+04  0.12122752776E+04  0.17200000000E+03 0. -1.
         -6    1    1    2    0  503  0.25629512274E+03 -0.49077980068E+01 -0.58324100697E+02  0.31416075049E+03  0.17200000000E+03 0.  1.
</event>
<event>
 4    1  0.1244074E+000  0.1815467E+03  0.7818608E-02  0.1166315E+00
         21   -1    0    0  501  502  0.00000000000E+00  0.00000000000E+00  0.31606172995E+03  0.31606172995E+03  0.00000000000E+00 0. -1.
         21   -1    0    0  502  503 -0.00000000000E+00 -0.00000000000E+00 -0.10707918064E+03  0.10707918064E+03  0.00000000000E+00 0. -1.
          6    1    1    2  501    0  0.22586240773E+02  0.53526174143E+02  0.70289306601E+02  0.19467864858E+03  0.17200000000E+03 0. -1.
         -6    1    1    2    0  503 -0.22586240773E+02 -0.53526174143E+02  0.13869324270E+03  0.22846226201E+03  0.17200000000E+03 0. -1.
</event>
<event>
 4    1  0.1244074E+000  0.2623883E+03  0.7818608E-02  0.1105717E+00
         21   -1    0    0  501  502  0.00000000000E+00  0.00000000000E+00  0.49574917370E+03  0.49574917370E+03  0.00000000000E+00 0.  1.
         21   -1    0    0  502  503 -0.00000000000E+00 -0.00000000000E+00 -0.14460712876E+03  0.14460712876E+03  0.00000000000E+00 0.  1.
          6    1    1    2  501    0 -0.17070341711E+03 -0.10061780244E+03  0.23931244834E+03  0.35513102753E+03  0.17200000000E+03 0. -1.
         -6    1    1    2    0  503  0.17070341711E+03  0.10061780244E+03  0.11182959660E+03  0.28522527493E+03  0.17200000000E+03 0. -1.
</event>
<event>
 4    1  0.1244074E+000  0.2641995E+03  0.7818608E-02  0.1104646E+00
         21   -1    0    0  503  502  0.00000000000E+00  0.00000000000E+00  0.44640212298E+03  0.44640212298E+03  0.00000000000E+00 0. -1.
         21   -1    0    0  501  503 -0.00000000000E+00 -0.00000000000E+00 -0.19177614773E+03  0.19177614773E+03  0.00000000000E+00 0. -1.
          6    1    1    2  501    0  0.18002771662E+03  0.88359510769E+02  0.26442915108E+03  0.37379694733E+03  0.17200000000E+03 0. -1.
         -6    1    1    2    0  502 -0.18002771662E+03 -0.88359510769E+02 -0.98031758310E+01  0.26438132338E+03  0.17200000000E+03 0. -1.
</event>
<event>
 4    1  0.1244074E+000  0.1728044E+03  0.7818608E-02  0.1174954E+00
         21   -1    0    0  503  502  0.00000000000E+00  0.00000000000E+00  0.29919884040E+03  0.29919884040E+03  0.00000000000E+00 0. -1.
         21   -1    0    0  501  503 -0.00000000000E+00 -0.00000000000E+00 -0.14481205111E+03  0.14481205111E+03  0.00000000000E+00 0. -1.
          6    1    1    2  501    0 -0.91441498853E+01 -0.13919195953E+02 -0.46573492933E+02  0.17897052757E+03  0.17200000000E+03 0. -1.
         -6    1    1    2    0  502  0.91441498853E+01  0.13919195953E+02  0.20096028222E+03  0.26504036395E+03  0.17200000000E+03 0. -1.
</event>
<event>
 4    1  0.1244074E+000  0.1979107E+03  0.7818608E-02  0.1151514E+00
         21   -1    0    0  501  502  0.00000000000E+00  0.00000000000E+00  0.11667173116E+03  0.11667173116E+03  0.00000000000E+00 0. -1.
         21   -1    0    0  502  503 -0.00000000000E+00 -0.00000000000E+00 -0.33961713331E+03  0.33961713331E+03  0.00000000000E+00 0. -1.
          6    1    1    2  501    0 -0.22922058855E+02  0.95179863284E+02 -0.87022540074E+02  0.21619794087E+03  0.17200000000E+03 0.  1.
         -6    1    1    2    0  503  0.22922058855E+02 -0.95179863284E+02 -0.13592286208E+03  0.24009092359E+03  0.17200000000E+03 0.  1.
</event>
<event>
 4    1  0.1244074E+000  0.1763913E+03  0.7818608E-02  0.1171342E+00
         21   -1    0    0  501  502  0.00000000000E+00  0.00000000000E+00  0.40695410565E+03  0.40695410565E+03  0.00000000000E+00 0. -1.
         21   -1    0    0  502  503 -0.00000000000E+00 -0.00000000000E+00 -0.95643304252E+02  0.95643304252E+02  0.00000000000E+00 0. -1.
          6    1    1    2  501    0  0.18873434163E+02  0.34259206178E+02  0.43097743406E+02  0.18158005180E+03  0.17200000000E+03 0. -1.
         -6    1    1    2    0  503 -0.18873434163E+02 -0.34259206178E+02  0.26821305799E+03  0.32101735810E+03  0.17200000000E+03 0. -1.
</event>
<event>
 4    1  0.1244074E+000  0.2013776E+03  0.7818608E-02  0.1148582E+00
         21   -1    0    0  501  502  0.00000000000E+00  0.00000000000E+00  0.19212812240E+04  0.19212812240E+04  0.00000000000E+00 0. -1.
         21   -1    0    0  502  503 -0.00000000000E+00 -0.00000000000E+00 -0.24601614409E+02  0.24601614409E+02  0.00000000000E+00 0. -1.
          6    1    1    2  501    0  0.98157861731E+02  0.36523404965E+02  0.13150223356E+04  0.13303520843E+04  0.17200000000E+03 0. -1.
         -6    1    1    2    0  503 -0.98157861731E+02 -0.36523404965E+02  0.58165727392E+03  0.61553075410E+03  0.17200000000E+03 0. -1.
</event>
<event>
 4    1  0.1244074E+000  0.1982791E+03  0.7818608E-02  0.1151199E+00
         21   -1    0    0  501  502  0.00000000000E+00  0.00000000000E+00  0.31767341069E+03  0.31767341069E+03  0.00000000000E+00 0.  1.
         21   -1    0    0  502  503 -0.00000000000E+00 -0.00000000000E+00 -0.13325409007E+03  0.13325409007E+03  0.00000000000E+00 0. -1.
          6    1    1    2  501    0  0.98453055917E+02  0.61310040911E+01  0.15239783973E+03  0.25007937737E+03  0.17200000000E+03 0.  1.
         -6    1    1    2    0  503 -0.98453055917E+02 -0.61310040911E+01  0.32021480892E+02  0.20084812339E+03  0.17200000000E+03 0. -1.
</event>
<event>
 4    1  0.1244074E+000  0.1838130E+03  0.7818608E-02  0.1164163E+00
         21   -1    0    0  501  502  0.00000000000E+00  0.00000000000E+00  0.44339849406E+02  0.44339849406E+02  0.00000000000E+00 0. -1.
         21   -1    0    0  502  503 -0.00000000000E+00 -0.00000000000E+00 -0.11118270023E+04  0.11118270023E+04  0.00000000000E+00 0. -1.
          6    1    1    2  501    0 -0.25712461723E+02  0.59515535241E+02 -0.20948246087E+03  0.27869361499E+03  0.17200000000E+03 0.  1.
         -6    1    1    2    0  503  0.25712461723E+02 -0.59515535241E+02 -0.85800469201E+03  0.87747323670E+03  0.17200000000E+03 0.  1.
</event>
<event>
 4    1  0.1244074E+000  0.1766007E+03  0.7818608E-02  0.1171134E+00
         21   -1    0    0  503  502  0.00000000000E+00  0.00000000000E+00  0.38136703747E+04  0.38136703747E+04  0.00000000000E+00 0.  1.
         21   -1    0    0  501  503 -0.00000000000E+00 -0.00000000000E+00 -0.12997168738E+02  0.12997168738E+02  0.00000000000E+00 0.  1.
          6    1    1    2  501    0  0.46171343171E+01  0.39780608570E+02  0.73525342077E+03  0.75616493406E+03  0.17200000000E+03 0.  1.
         -6    1    1    2    0  502 -0.46171343171E+01 -0.39780608570E+02  0.30654197852E+04  0.30705026094E+04  0.17200000000E+03 0.  1.
</event>
<event>
 4    1  0.1244074E+000  0.1936595E+03  0.7818608E-02  0.1155202E+00
         21   -1    0    0  503  502  0.00000000000E+00  0.00000000000E+00  0.81664244394E+02  0.81664244394E+02  0.00000000000E+00 0.  1.
         21   -1    0    0  501  503 -0.00000000000E+00 -0.00000000000E+00 -0.10256859426E+04  0.10256859426E+04  0.00000000000E+00 0.  1.
          6    1    1    2  501    0  0.78816842966E+02  0.41326732735E+02 -0.88346802978E+03  0.90444444452E+03  0.17200000000E+03 0.  1.
         -6    1    1    2    0  502 -0.78816842966E+02 -0.41326732735E+02 -0.60553668437E+02  0.20290574249E+03  0.17200000000E+03 0.  1.
</event>
<event>
 4    1  0.1244074E+000  0.1906551E+03  0.7818608E-02  0.1157872E+00
         21   -1    0    0  501  502  0.00000000000E+00  0.00000000000E+00  0.13083016172E+04  0.13083016172E+04  0.00000000000E+00 0. -1.
         21   -1    0    0  502  503 -0.00000000000E+00 -0.00000000000E+00 -0.28319180029E+02  0.28319180029E+02  0.00000000000E+00 0. -1.
          6    1    1    2  501    0 -0.82236368493E+02  0.15985329406E+01  0.54808697490E+03  0.58030053220E+03  0.17200000000E+03 0.  1.
         -6    1    1    2    0  503  0.82236368493E+02 -0.15985329406E+01  0.73189546229E+03  0.75632026506E+03  0.17200000000E+03 0.  1.
</event>
<event>
 4    1  0.1244074E+000  0.2880642E+03  0.7818608E-02  0.1091364E+00
         21   -1    0    0  503  502  0.00000000000E+00  0.00000000000E+00  0.76544364161E+03  0.76544364161E+03  0.00000000000E+00 0. -1.
         21   -1    0    0  501  503 -0.00000000000E+00 -0.00000000000E+00 -0.11662932181E+03  0.11662932181E+03  0.00000000000E+00 0.  1.
          6    1    1    2  501    0  0.22832013900E+03 -0.35593270211E+02  0.20731832139E+03  0.35491104962E+03  0.17200000000E+03 0. -1.
         -6    1    1    2    0  502 -0.22832013900E+03  0.35593270211E+02  0.44149599840E+03  0.52716191380E+03  0.17200000000E+03 0. -1.
</event>
<event>
 4    1  0.1244074E+000  0.1848738E+03  0.7818608E-02  0.1163168E+00
         21   -1    0    0  501  502  0.00000000000E+00  0.00000000000E+00  0.46086638880E+03  0.46086638880E+03  0.00000000000E+00 0. -1.
         21   -1    0    0  502  503 -0.00000000000E+00 -0.00000000000E+00 -0.21187094971E+03  0.21187094971E+03  0.00000000000E+00 0.  1.
          6    1    1    2  501    0  0.34372364901E+02  0.58419671530E+02  0.39568072671E+03  0.43673968789E+03  0.17200000000E+03 0. -1.
         -6    1    1    2    0  503 -0.34372364901E+02 -0.58419671530E+02 -0.14668528762E+03  0.23599765061E+03  0.17200000000E+03 0.  1.
</event>
<event>
 4    1  0.1244074E+000  0.1804530E+03  0.7818608E-02  0.1167365E+00
         21   -1    0    0  501  502  0.00000000000E+00  0.00000000000E+00  0.11121036971E+04  0.11121036971E+04  0.00000000000E+00 0.  1.
         21   -1    0    0  502  503 -0.00000000000E+00 -0.00000000000E+00 -0.45281697461E+02  0.45281697461E+02  0.00000000000E+00 0.  1.
          6    1    1    2  501    0 -0.13124810021E+02 -0.52981518788E+02  0.87741114658E+03  0.89577543063E+03  0.17200000000E+03 0.  1.
         -6    1    1    2    0  503  0.13124810021E+02  0.52981518788E+02  0.18941085304E+03  0.26160996392E+03  0.17200000000E+03 0.  1.
</event>
<event>
 4    1  0.1244074E+000  0.2872044E+03  0.7818608E-02  0.1091818E+00
         21   -1    0    0  503  502  0.00000000000E+00  0.00000000000E+00  0.98440912261E+03  0.98440912261E+03  0.00000000000E+00 0. -1.
         21   -1    0    0  501  503 -0.00000000000E+00 -0.00000000000E+00 -0.18561743214E+03  0.18561743214E+03  0.00000000000E+00 0.  1.
          6    1    1    2  501    0  0.91093916723E+02 -0.21119724632E+03 -0.33898286329E+02  0.28919798120E+03  0.17200000000E+03 0.  1.
         -6    1    1    2    0  502 -0.91093916723E+02  0.21119724632E+03  0.83268997680E+03  0.88082857354E+03  0.17200000000E+03 0. -1.
</event>
<event>
 4    1  0.1244074E+000  0.1761270E+03  0.7818608E-02  0.1171605E+00
         21   -1    0    0  501  502  0.00000000000E+00  0.00000000000E+00  0.14245171032E+03  0.14245171032E+03  0.00000000000E+00 0. -1.
         21   -1    0    0  502  503 -0.00000000000E+00 -0.00000000000E+00 -0.22492815389E+03  0.22492815389E+03  0.00000000000E+00 0.  1.
          6    1    1    2  501    0  0.20117581749E+02 -0.32124890347E+02 -0.84533679149E+01  0.17632976239E+03  0.17200000000E+03 0. -1.
         -6    1    1    2    0  503 -0.20117581749E+02  0.32124890347E+02 -0.74023075651E+02  0.19105010182E+03  0.17200000000E+03 0.  1.
</event>
<event>
 4    1  0.1244074E+000  0.1881957E+03  0.7818608E-02  0.1160099E+00
         21   -1    0    0  501  502  0.00000000000E+00  0.00000000000E+00  0.11205194659E+03  0.11205194659E+03  0.00000000000E+00 0.  1.
         21   -1    0    0  502  503 -0.00000000000E+00 -0.00000000000E+00 -0.44291988245E+03  0.44291988245E+03  0.00000000000E+00 0.  1.
          6    1    1    2  501    0  0.74727052568E+02  0.15795194517E+02 -0.16942129610E+02  0.18895675778E+03  0.17200000000E+03 0.  1.
         -6    1    1    2    0  503 -0.74727052568E+02 -0.15795194517E+02 -0.31392580625E+03  0.36601507125E+03  0.17200000000E+03 0.  1.
</event>
<event>
 4    1  0.1244074E+000  0.1832516E+03  0.7818608E-02  0.1164693E+00
         21   -1    0    0  503  502  0.00000000000E+00  0.00000000000E+00  0.42996020470E+03  0.42996020470E+03  0.00000000000E+00 0. -1.
         21   -1    0    0  501  503 -0.00000000000E+00 -0.00000000000E+00 -0.10823540353E+03  0.10823540353E+03  0.00000000000E+00 0. -1.
          6    1    1    2  501    0  0.53007881310E+01 -0.63000312604E+02  0.18877189792E+02  0.18422129637E+03  0.17200000000E+03 0. -1.
         -6    1    1    2    0  502 -0.53007881310E+01  0.63000312604E+02  0.30284761137E+03  0.35397431186E+03  0.17200000000E+03 0. -1.
</event>
<event>
 4    1  0.1244074E+000  0.1886953E+03  0.7818608E-02  0.1159643E+00
         21   -1    0    0  503  502  0.00000000000E+00  0.00000000000E+00  0.11032031188E+03  0.11032031188E+03  0.00000000000E+00 0.  1.
         21   -1    0    0  501  503 -0.00000000000E+00 -0.00000000000E+00 -0.39181206452E+03  0.39181206452E+03  0.00000000000E+00 0. -1.
          6    1    1    2  501    0  0.41531780014E+02 -0.65551760394E+02 -0.24615250565E+03  0.31015637682E+03  0.17200000000E+03 0. -1.
         -6    1    1    2    0  502 -0.41531780014E+02  0.65551760394E+02 -0.35339246988E+02  0.19197599959E+03  0.17200000000E+03 0.  1.
</event>
<event>
 4    1  0.1244074E+000  0.2019737E+03  0.7818608E-02  0.1148084E+00
         21   -1    0    0  501  502  0.00000000000E+00  0.00000000000E+00  0.95952288156E+03  0.95952288156E+03  0.00000000000E+00 0. -1.
         21   -1    0    0  502  503 -0.00000000000E+00 -0.00000000000E+00 -0.44876969085E+02  0.44876969085E+02  0.00000000000E+00 0. -1.
          6    1    1    2  501    0 -0.94859213443E+02  0.47022458137E+02  0.57255472920E+03  0.60713449900E+03  0.17200000000E+03 0. -1.
         -6    1    1    2    0  503  0.94859213443E+02 -0.47022458137E+02  0.34209118327E+03  0.39726535165E+03  0.17200000000E+03 0. -1.
</event>
<event>
 4    1  0.1244074E+000  0.2086850E+03  0.7818608E-02  0.1142612E+00
         21   -1    0    0  503  502  0.00000000000E+00  0.00000000000E+00  0.12309245528E+03  0.12309245528E+03  0.00000000000E+00 0.  1.
         21   -1    0    0  501  503 -0.00000000000E+00 -0.00000000000E+00 -0.19247693253E+04  0.19247693253E+04  0.00000000000E+00 0. -1.
          6    1    1    2  501    0 -0.58553603382E+02  0.10264945141E+03  0.24213067268E+02  0.21008499939E+03  0.17200000000E+03 0.  1.
         -6    1    1    2    0  502  0.58553603382E+02 -0.10264945141E+03 -0.18258899373E+04  0.18377767812E+04  0.17200000000E+03 0. -1.
</event>
<event>
 4    1  0.1244074E+000  0.1844076E+03  0.7818608E-02  0.1163604E+00
         21   -1    0    0  501  502  0.00000000000E+00  0.00000000000E+00  0.49558017070E+02  0.49558017070E+02  0.00000000000E+00 0. -1.
         21   -1    0    0  502  503 -0.00000000000E+00 -0.00000000000E+00 -0.95605306378E+03  0.95605306378E+03  0.00000000000E+00 0. -1.
          6    1    1    2  501    0  0.58205978964E+02 -0.32159596517E+02 -0.18611213144E+03  0.26199981127E+03  0.17200000000E+03 0. -1.
         -6    1    1    2    0  503 -0.58205978964E+02  0.32159596517E+02 -0.72038291528E+03  0.74361126959E+03  0.17200000000E+03 0. -1.
</event>
<event>
 4    1  0.1244074E+000  0.1808387E+03  0.7818608E-02  0.1166994E+00
         21   -1    0    0  503  502  0.00000000000E+00  0.00000000000E+00  0.13642459576E+03  0.13642459576E+03  0.00000000000E+00 0. -1.
         21   -1    0    0  501  503 -0.00000000000E+00 -0.00000000000E+00 -0.41264853473E+03  0.41264853473E+03  0.00000000000E+00 0. -1.
          6    1    1    2  501    0  0.11198345620E+02 -0.54710566416E+02 -0.31583883606E+03  0.36394617650E+03  0.17200000000E+03 0. -1.
         -6    1    1    2    0  502 -0.11198345620E+02  0.54710566416E+02  0.39614897095E+02  0.18512695399E+03  0.17200000000E+03 0. -1.
</event>
<event>
 4    1  0.1244074E+000  0.2460927E+03  0.7818608E-02  0.1115799E+00
         21   -1    0    0  501  502  0.00000000000E+00  0.00000000000E+00  0.36790291527E+03  0.36790291527E+03  0.00000000000E+00 0.  1.
         21   -1    0    0  502  503 -0.00000000000E+00 -0.00000000000E+00 -0.17424981672E+03  0.17424981672E+03  0.00000000000E+00 0.  1.
          6    1    1    2  501    0  0.11388151316E+03 -0.13419620313E+03  0.33077865102E+02  0.24830578957E+03  0.17200000000E+03 0.  1.
         -6    1    1    2    0  503 -0.11388151316E+03  0.13419620313E+03  0.16057523345E+03  0.29384694242E+03  0.17200000000E+03 0.  1.
</event>
<event>
 4    1  0.1244074E+000  0.3022017E+03  0.7818608E-02  0.1084145E+00
         21   -1    0    0  503  502  0.00000000000E+00  0.00000000000E+00  0.76084301997E+02  0.76084301997E+02  0.00000000000E+00 0. -1.
         21   -1    0    0  501  503 -0.00000000000E+00 -0.00000000000E+00 -0.18119995106E+04  0.18119995106E+04  0.00000000000E+00 0. -1.
          6    1    1    2  501    0  0.21800472013E+03  0.11923002996E+03 -0.14164524804E+04  0.14483312768E+04  0.17200000000E+03 0. -1.
         -6    1    1    2    0  502 -0.21800472013E+03 -0.11923002996E+03 -0.31946272817E+03  0.43975253579E+03  0.17200000000E+03 0. -1.
</event>
<event>
 4    1  0.1244074E+000  0.2079572E+03  0.7818608E-02  0.1143194E+00
         21   -1    0    0  501  502  0.00000000000E+00  0.00000000000E+00  0.24235098162E+02  0.24235098162E+02  0.00000000000E+00 0.  1.
         21   -1    0    0  502  503 -0.00000000000E+00 -0.00000000000E+00 -0.18052657626E+04  0.18052657626E+04  0.00000000000E+00 0. -1.
          6    1    1    2  501    0 -0.10216597177E+03 -0.56782964656E+02 -0.98875438941E+03  0.10103867742E+04  0.17200000000E+03 0.  1.
         -6    1    1    2    0  503  0.10216597177E+03  0.56782964656E+02 -0.79227627501E+03  0.81911408656E+03  0.17200000000E+03 0.  1.
</event>
<event>
 4    1  0.1244074E+000  0.2149380E+03  0.7818608E-02  0.1137714E+00
         21   -1    0    0  503  502  0.00000000000E+00  0.00000000000E+00  0.10041260213E+04  0.10041260213E+04  0.00000000000E+00 0. -1.
         21   -1    0    0  501  503 -0.00000000000E+00 -0.00000000000E+00 -0.52217415783E+02  0.52217415783E+02  0.00000000000E+00 0. -1.
          6    1    1    2  501    0  0.68175697138E+02  0.10939119089E+03  0.29382726468E+03  0.36405057313E+03  0.17200000000E+03 0. -1.
         -6    1    1    2    0  502 -0.68175697138E+02 -0.10939119089E+03  0.65808134084E+03  0.69229286396E+03  0.17200000000E+03 0. -1.
</event>
<event>
 4    1  0.1244074E+000  0.1769649E+03  0.7818608E-02  0.1170773E+00
         21   -1    0    0  503  502  0.00000000000E+00  0.00000000000E+00  0.37777037128E+03  0.37777037128E+03  0.00000000000E+00 0. -1.
         21   -1    0    0  501  503 -0.00000000000E+00 -0.00000000000E+00 -0.12301122845E+03  0.12301122845E+03  0.00000000000E+00 0. -1.
          6    1    1    2  501    0  0.39777209753E+02  0.12261823872E+02 -0.15604399781E+02  0.17765155792E+03  0.17200000000E+03 0.  1.
         -6    1    1    2    0  502 -0.39777209753E+02 -0.12261823872E+02  0.27036354261E+03  0.32313004180E+03  0.17200000000E+03 0.  1.
</event>
<event>
 4    1  0.1244074E+000  0.2041143E+03  0.7818608E-02  0.1146313E+00
         21   -1    0    0  501  502  0.00000000000E+00  0.00000000000E+00  0.20876561528E+03  0.20876561528E+03  0.00000000000E+00 0. -1.
         21   -1    0    0  502  503 -0.00000000000E+00 -0.00000000000E+00 -0.27057058020E+03  0.27057058020E+03  0.00000000000E+00 0. -1.
          6    1    1    2  501    0  0.53916748538E+02  0.95768718726E+02 -0.15367778358E+03  0.25549858008E+03  0.17200000000E+03 0. -1.
         -6    1    1    2    0  503 -0.53916748538E+02 -0.95768718726E+02  0.91872818654E+02  0.22383761540E+03  0.17200000000E+03 0. -1.
</event>
<event>
 4    1  0.1244074E+000  0.1722269E+03  0.7818608E-02  0.1175545E+00
         21   -1    0    0  503  502  0.00000000000E+00  0.00000000000E+00  0.46522542952E+02  0.46522542952E+02  0.00000000000E+00 0.  1.
         21   -1    0    0  501  503 -0.00000000000E+00 -0.00000000000E+00 -0.26364683143E+04  0.26364683143E+04  0.00000000000E+00 0.  1.
          6    1    1    2  501    0  0.25391503968E+01 -0.84649782256E+01 -0.24630501637E+04  0.24690642381E+04  0.17200000000E+03 0.  1.
         -6    1    1    2    0  502 -0.25391503968E+01  0.84649782256E+01 -0.12689560774E+03  0.21392661920E+03  0.17200000000E+03 0.  1.
</event>
<event>
 4    1  0.1244074E+000  0.2120157E+03  0.7818608E-02  0.1139980E+00
         21   -1    0    0  503  502  0.00000000000E+00  0.00000000000E+00  0.14666553479E+04  0.14666553479E+04  0.00000000000E+00 0. -1.
         21   -1    0    0  501  503 -0.00000000000E+00 -0.00000000000E+00 -0.31217045373E+02  0.31217045373E+02  0.00000000000E+00 0. -1.
          6    1    1    2  501    0  0.36334598053E+02  0.11851772955E+03  0.81879924829E+03  0.84580308833E+03  0.17200000000E+03 0. -1.
         -6    1    1    2    0  502 -0.36334598053E+02 -0.11851772955E+03  0.61663905422E+03  0.65206930492E+03  0.17200000000E+03 0. -1.
</event>
<event>
 4    1  0.1244074E+000  0.2366098E+03  0.7818608E-02  0.1122072E+00
         21   -1    0    0  503  502  0.00000000000E+00  0.00000000000E+00  0.71959875345E+02  0.71959875345E+02  0.00000000000E+00 0. -1.
         21   -1    0    0  501  503 -0.00000000000E+00 -0.00000000000E+00 -0.83509532156E+03  0.83509532156E+03  0.00000000000E+00 0.  1.
          6    1    1    2  501    0  0.34208995894E+02  0.15883938500E+03 -0.50016274805E+03  0.55330550347E+03  0.17200000000E+03 0.  1.
         -6    1    1    2    0  502 -0.34208995894E+02 -0.15883938500E+03 -0.26297269816E+03  0.35374969344E+03  0.17200000000E+03 0. -1.
</event>
<event>
 4    1  0.1244074E+000  0.1782422E+03  0.7818608E-02  0.1169515E+00
         21   -1    0    0  501  502  0.00000000000E+00  0.00000000000E+00  0.89883645499E+03  0.89883645499E+03  0.00000000000E+00 0.  1.
         21   -1    0    0  502  503 -0.00000000000E+00 -0.00000000000E+00 -0.60812460317E+02  0.60812460317E+02  0.00000000000E+00 0.  1.
          6    1    1    2  501    0 -0.45563161973E+01 -0.46535331536E+02  0.72951811489E+03  0.75097734789E+03  0.17200000000E+03 0.  1.
         -6    1    1    2    0  503  0.45563161973E+01  0.46535331536E+02  0.10850587978E+03  0.20867156741E+03  0.17200000000E+03 0.  1.
</event>
<event>
 4    1  0.1244074E+000  0.2217832E+03  0.7818608E-02  0.1132561E+00
         21   -1    0    0  501  502  0.00000000000E+00  0.00000000000E+00  0.11772048985E+03  0.11772048985E+03  0.00000000000E+00 0. -1.
         21   -1    0    0  502  503 -0.00000000000E+00 -0.00000000000E+00 -0.43620154267E+03  0.43620154267E+03  0.00000000000E+00 0. -1.
          6    1    1    2  501    0  0.98461074141E+02 -0.99545006346E+02 -0.10240973863E+03  0.24428578750E+03  0.17200000000E+03 0. -1.
         -6    1    1    2    0  503 -0.98461074141E+02  0.99545006346E+02 -0.21607131420E+03  0.30963624502E+03  0.17200000000E+03 0. -1.
</event>
<event>
 4    1  0.1244074E+000  0.2365063E+03  0.7818608E-02  0.1122142E+00
         21   -1    0    0  501  502  0.00000000000E+00  0.00000000000E+00  0.70640375814E+03  0.70640375814E+03  0.00000000000E+00 0.  1.
         21   -1    0    0  502  503 -0.00000000000E+00 -0.00000000000E+00 -0.89714560996E+02  0.89714560996E+02  0.00000000000E+00 0.  1.
          6    1    1    2  501    0 -0.12868885692E+03 -0.98946380523E+02  0.44472795654E+03  0.50370444056E+03  0.17200000000E+03 0. -1.
         -6    1    1    2    0  503  0.12868885692E+03  0.98946380523E+02  0.17196124061E+03  0.29241387858E+03  0.17200000000E+03 0. -1.
</event>
<event>
 4    1  0.1244074E+000  0.2556017E+03  0.7818608E-02  0.1109815E+00
         21   -1    0    0  501  502  0.00000000000E+00  0.00000000000E+00  0.65771482429E+03  0.65771482429E+03  0.00000000000E+00 0.  1.
         21   -1    0    0  502  503 -0.00000000000E+00 -0.00000000000E+00 -0.11146894601E+03  0.11146894601E+03  0.00000000000E+00 0.  1.
          6    1    1    2  501    0  0.18819980832E+03 -0.18140212558E+02  0.40002684504E+03  0.47471434771E+03  0.17200000000E+03 0.  1.
         -6    1    1    2    0  503 -0.18819980832E+03  0.18140212558E+02  0.14621903323E+03  0.29446942259E+03  0.17200000000E+03 0.  1.
</event>
<event>
 4    1  0.1244074E+000  0.1858291E+03  0.7818608E-02  0.1162278E+00
         21   -1    0    0  501  502  0.00000000000E+00  0.00000000000E+00  0.45203208445E+02  0.45203208445E+02  0.00000000000E+00 0.  1.
         21   -1    0    0  502  503 -0.00000000000E+00 -0.00000000000E+00 -0.78106103348E+03  0.78106103348E+03  0.00000000000E+00 0. -1.
          6    1    1    2  501    0  0.61468995425E+02 -0.34205531143E+02 -0.30675942584E+03  0.35865554660E+03  0.17200000000E+03 0.  1.
         -6    1    1    2    0  503 -0.61468995425E+02  0.34205531143E+02 -0.42909839919E+03  0.46760869533E+03  0.17200000000E+03 0.  1.
</event>
<event>
 4    1  0.1244074E+000  0.1774801E+03  0.7818608E-02  0.1170264E+00
         21   -1    0    0  503  502  0.00000000000E+00  0.00000000000E+00  0.16057712318E+04  0.16057712318E+04  0.00000000000E+00 0. -1.
         21   -1    0    0  501  503 -0.00000000000E+00 -0.00000000000E+00 -0.19714328658E+02  0.19714328658E+02  0.00000000000E+00 0. -1.
          6    1    1    2  501    0  0.33692820996E+02  0.27928357170E+02  0.85035608340E+03  0.86867984200E+03  0.17200000000E+03 0. -1.
         -6    1    1    2    0  502 -0.33692820996E+02 -0.27928357170E+02  0.73570081972E+03  0.75680571844E+03  0.17200000000E+03 0. -1.
</event>
<event>
 4    1  0.1244074E+000  0.1904618E+03  0.7818608E-02  0.1158046E+00
         21   -1    0    0  501  502  0.00000000000E+00  0.00000000000E+00  0.54368071809E+02  0.54368071809E+02  0.00000000000E+00 0.  1.
         21   -1    0    0  502  503 -0.00000000000E+00 -0.00000000000E+00 -0.69798222017E+03  0.69798222017E+03  0.00000000000E+00 0.  1.
          6    1    1    2  501    0 -0.76926584964E+02  0.27820488847E+02 -0.24283947335E+03  0.30862062292E+03  0.17200000000E+03 0.  1.
         -6    1    1    2    0  503  0.76926584964E+02 -0.27820488847E+02 -0.40077467502E+03  0.44372966907E+03  0.17200000000E+03 0.  1.
</event>
<event>
 4    1  0.1244074E+000  0.1788141E+03  0.7818608E-02  0.1168956E+00
         21   -1    0    0  501  502  0.00000000000E+00  0.00000000000E+00  0.59158196505E+02  0.59158196505E+02  0.00000000000E+00 0.  1.
         21   -1    0    0  502  503 -0.00000000000E+00 -0.00000000000E+00 -0.90600742322E+03  0.90600742322E+03  0.00000000000E+00 0.  1.
          6    1    1    2  501    0 -0.99238570556E+01  0.47874749826E+02 -0.11690420242E+03  0.21363770069E+03  0.17200000000E+03 0.  1.
         -6    1    1    2    0  503  0.99238570556E+01 -0.47874749826E+02 -0.72994502429E+03  0.75152791904E+03  0.17200000000E+03 0.  1.
</event>
<event>
 4    1  0.1244074E+000  0.2067031E+03  0.7818608E-02  0.1144204E+00
         21   -1    0    0  501  502  0.00000000000E+00  0.00000000000E+00  0.11060575683E+04  0.11060575683E+04  0.00000000000E+00 0.  1.
         21   -1    0    0  502  503 -0.00000000000E+00 -0.00000000000E+00 -0.41729136238E+02  0.41729136238E+02  0.00000000000E+00 0.  1.
          6    1    1    2  501    0 -0.85258858470E+02  0.76636115611E+02  0.68858153147E+03  0.71893719659E+03  0.17200000000E+03 0. -1.
         -6    1    1    2    0  503  0.85258858470E+02 -0.76636115611E+02  0.37574690062E+03  0.42884950797E+03  0.17200000000E+03 0. -1.
</event>
<event>
 4    1  0.1244074E+000  0.2264775E+03  0.7818608E-02  0.1129144E+00
         21   -1    0    0  501  502  0.00000000000E+00  0.00000000000E+00  0.17992598184E+03  0.17992598184E+03  0.00000000000E+00 0.  1.
         21   -1    0    0  502  503 -0.00000000000E+00 -0.00000000000E+00 -0.28798823013E+03  0.28798823013E+03  0.00000000000E+00 0.  1.
          6    1    1    2  501    0  0.22548702536E+02 -0.14560084401E+03 -0.30492503365E+02  0.22852098924E+03  0.17200000000E+03 0. -1.
         -6    1    1    2    0  503 -0.22548702536E+02  0.14560084401E+03 -0.77569744926E+02  0.23939322273E+03  0.17200000000E+03 0. -1.
</event>
<event>
 4    1  0.1244074E+000  0.3907753E+03  0.7818608E-02  0.1047022E+00
         21   -1    0    0  501  502  0.00000000000E+00  0.00000000000E+00  0.55179204722E+03  0.55179204722E+03  0.00000000000E+00 0. -1.
         21   -1    0    0  502  503 -0.00000000000E+00 -0.00000000000E+00 -0.82793579751E+03  0.82793579751E+03  0.00000000000E+00 0.  1.
          6    1    1    2  501    0 -0.30209792348E+03  0.17848849294E+03 -0.70095258106E+03  0.80252091460E+03  0.17200000000E+03 0.  1.
         -6    1    1    2    0  503  0.30209792348E+03 -0.17848849294E+03  0.42480883077E+03  0.57720693012E+03  0.17200000000E+03 0. -1.
</event>
<event>
 4    1  0.1244074E+000  0.2699095E+03  0.7818608E-02  0.1101331E+00
         21   -1    0    0  503  502  0.00000000000E+00  0.00000000000E+00  0.35080737029E+03  0.35080737029E+03  0.00000000000E+00 0. -1.
         21   -1    0    0  501  503 -0.00000000000E+00 -0.00000000000E+00 -0.26109212350E+03  0.26109212350E+03  0.00000000000E+00 0. -1.
          6    1    1    2  501    0  0.16244631667E+03 -0.12991668427E+03 -0.93539020200E+02  0.28565836055E+03  0.17200000000E+03 0. -1.
         -6    1    1    2    0  502 -0.16244631667E+03  0.12991668427E+03  0.18325426699E+03  0.32624113324E+03  0.17200000000E+03 0. -1.
</event>
<event>
 4    1  0.1244074E+000  0.2700414E+03  0.7818608E-02  0.1101256E+00
         21   -1    0    0  503  502  0.00000000000E+00  0.00000000000E+00  0.38733986004E+03  0.38733986004E+03  0.00000000000E+00 0.  1.
         21   -1    0    0  501  503 -0.00000000000E+00 -0.00000000000E+00 -0.25167129017E+03  0.25167129017E+03  0.00000000000E+00 0. -1.
          6    1    1    2  501    0 -0.17004283400E+03 -0.12009900786E+03  0.22820665884E+03  0.35355426206E+03  0.17200000000E+03 0.  1.
         -6    1    1    2    0  502  0.17004283400E+03  0.12009900786E+03 -0.92538088964E+02  0.28545688815E+03  0.17200000000E+03 0.  1.
</event>
<event>
 4    1  0.1244074E+000  0.2056431E+03  0.7818608E-02  0.1145063E+00
         21   -1    0    0  503  502  0.00000000000E+00  0.00000000000E+00  0.82789942442E+03  0.82789942442E+03  0.00000000000E+00 0.  1.
         21   -1    0    0  501  503 -0.00000000000E+00 -0.00000000000E+00 -0.92816418612E+02  0.92816418612E+02  0.00000000000E+00 0.  1.
          6    1    1    2  501    0  0.81129281021E+02  0.78250516041E+02  0.58838537499E+02  0.21389501395E+03  0.17200000000E+03 0.  1.
         -6    1    1    2    0  502 -0.81129281021E+02 -0.78250516041E+02  0.67624446830E+03  0.70682082907E+03  0.17200000000E+03 0.  1.
</event>
<event>
 4    1  0.1244074E+000  0.1739063E+03  0.7818608E-02  0.1173834E+00
         21   -1    0    0  501  502  0.00000000000E+00  0.00000000000E+00  0.69009663582E+03  0.69009663582E+03  0.00000000000E+00 0.  1.
         21   -1    0    0  502  503 -0.00000000000E+00 -0.00000000000E+00 -0.16545707892E+03  0.16545707892E+03  0.00000000000E+00 0.  1.
          6    1    1    2  501    0  0.13704534626E+02 -0.21716444642E+02  0.62909403630E+03  0.65268884221E+03  0.17200000000E+03 0.  1.
         -6    1    1    2    0  503 -0.13704534626E+02  0.21716444642E+02 -0.10445447940E+03  0.20286487253E+03  0.17200000000E+03 0.  1.
</event>
<event>
 4    1  0.1244074E+000  0.2962131E+03  0.7818608E-02  0.1087149E+00
         21   -1    0    0  501  502  0.00000000000E+00  0.00000000000E+00  0.67319095612E+02  0.67319095612E+02  0.00000000000E+00 0. -1.
         21   -1    0    0  502  503 -0.00000000000E+00 -0.00000000000E+00 -0.17058263891E+04  0.17058263891E+04  0.00000000000E+00 0.  1.
          6    1    1    2  501    0  0.14755778402E+03  0.19074823883E+03 -0.38862555096E+03  0.48864302829E+03  0.17200000000E+03 0.  1.
         -6    1    1    2    0  503 -0.14755778402E+03 -0.19074823883E+03 -0.12498817425E+04  0.12845024564E+04  0.17200000000E+03 0.  1.
</event>
<event>
 4    1  0.1244074E+000  0.2987022E+03  0.7818608E-02  0.1085891E+00
         21   -1    0    0  503  502  0.00000000000E+00  0.00000000000E+00  0.17812245409E+03  0.17812245409E+03  0.00000000000E+00 0. -1.
         21   -1    0    0  501  503 -0.00000000000E+00 -0.00000000000E+00 -0.66404014996E+03  0.66404014996E+03  0.00000000000E+00 0.  1.
          6    1    1    2  501    0 -0.24188316477E+03 -0.33638097435E+02 -0.45166650490E+03  0.54150311047E+03  0.17200000000E+03 0. -1.
         -6    1    1    2    0  502  0.24188316477E+03  0.33638097435E+02 -0.34251190971E+02  0.30065949358E+03  0.17200000000E+03 0. -1.
</event>
<event>
 4    1  0.1244074E+000  0.1989871E+03  0.7818608E-02  0.1150596E+00
         21   -1    0    0  501  502  0.00000000000E+00  0.00000000000E+00  0.53350940437E+03  0.53350940437E+03  0.00000000000E+00 0. -1.
         21   -1    0    0  502  503 -0.00000000000E+00 -0.00000000000E+00 -0.10020133606E+03  0.10020133606E+03  0.00000000000E+00 0. -1.
          6    1    1    2  501    0 -0.83445012299E+02  0.55216052264E+02  0.37800576441E+03  0.42718174169E+03  0.17200000000E+03 0. -1.
         -6    1    1    2    0  503  0.83445012299E+02 -0.55216052264E+02  0.55302303904E+02  0.20652899874E+03  0.17200000000E+03 0. -1.
</event>
<event>
 4    1  0.1244074E+000  0.3090695E+03  0.7818608E-02  0.1080793E+00
         21   -1    0    0  503  502  0.00000000000E+00  0.00000000000E+00  0.81191417647E+03  0.81191417647E+03  0.00000000000E+00 0. -1.
         21   -1    0    0  501  503 -0.00000000000E+00 -0.00000000000E+00 -0.12166203173E+03  0.12166203173E+03  0.00000000000E+00 0.  1.
          6    1    1    2  501    0  0.17998024139E+03 -0.18315853778E+03  0.26038861536E+03  0.40413632386E+03  0.17200000000E+03 0.  1.
         -6    1    1    2    0  502 -0.17998024139E+03  0.18315853778E+03  0.42986352937E+03  0.52943988434E+03  0.17200000000E+03 0. -1.
</event>
<event>
 4    1  0.1244074E+000  0.4975552E+03  0.7818608E-02  0.1014419E+00
         21   -1    0    0  503  502  0.00000000000E+00  0.00000000000E+00  0.23766388256E+03  0.23766388256E+03  0.00000000000E+00 0.  1.
         21   -1    0    0  501  503 -0.00000000000E+00 -0.00000000000E+00 -0.10510302933E+04  0.10510302933E+04  0.00000000000E+00 0. -1.
          6    1    1    2  501    0 -0.34793683630E+03  0.31131516507E+03 -0.46757484670E+03  0.68277918196E+03  0.17200000000E+03 0.  1.
         -6    1    1    2    0  502  0.34793683630E+03 -0.31131516507E+03 -0.34579156403E+03  0.60591499388E+03  0.17200000000E+03 0.  1.
</event>
<event>
 4    1  0.1244074E+000  0.1840419E+03  0.7818608E-02  0.1163948E+00
         21   -1    0    0  501  502  0.00000000000E+00  0.00000000000E+00  0.11721831175E+03  0.11721831175E+03  0.00000000000E+00 0.  1.
         21   -1    0    0  502  503 -0.00000000000E+00 -0.00000000000E+00 -0.34600680308E+03  0.34600680308E+03  0.00000000000E+00 0.  1.
          6    1    1    2  501    0  0.59097034723E+02  0.28194975384E+02 -0.20349394489E+02  0.18516347914E+03  0.17200000000E+03 0.  1.
         -6    1    1    2    0  503 -0.59097034723E+02 -0.28194975384E+02 -0.20843909684E+03  0.27806163569E+03  0.17200000000E+03 0.  1.
</event>
<event>
 4    1  0.1244074E+000  0.1805303E+03  0.7818608E-02  0.1167291E+00
         21   -1    0    0  501  502  0.00000000000E+00  0.00000000000E+00  0.14040376529E+04  0.14040376529E+04  0.00000000000E+00 0. -1.
         21   -1    0    0  502  503 -0.00000000000E+00 -0.00000000000E+00 -0.30521736046E+02  0.30521736046E+02  0.00000000000E+00 0. -1.
          6    1    1    2  501    0  0.32850045490E+02  0.43909813071E+02  0.10377687608E+04  0.10533542605E+04  0.17200000000E+03 0. -1.
         -6    1    1    2    0  503 -0.32850045490E+02 -0.43909813071E+02  0.33574715604E+03  0.38120512846E+03  0.17200000000E+03 0. -1.
</event>
<event>
 4    1  0.1244074E+000  0.1863709E+03  0.7818608E-02  0.1161776E+00
         21   -1    0    0  501  502  0.00000000000E+00  0.00000000000E+00  0.65361097483E+03  0.65361097483E+03  0.00000000000E+00 0.  1.
         21   -1    0    0  502  503 -0.00000000000E+00 -0.00000000000E+00 -0.16780313262E+03  0.16780313262E+03  0.00000000000E+00 0.  1.
          6    1    1    2  501    0 -0.16283625103E+02 -0.69892356668E+02  0.58240450290E+03  0.61149742678E+03  0.17200000000E+03 0.  1.
         -6    1    1    2    0  503  0.16283625103E+02  0.69892356668E+02 -0.96596660682E+02  0.20991668067E+03  0.17200000000E+03 0.  1.
</event>
<event>
 4    1  0.1244074E+000  0.2068494E+03  0.7818608E-02  0.1144086E+00
         21   -1    0    0  503  502  0.00000000000E+00  0.00000000000E+00  0.29742567557E+02  0.29742567557E+02  0.00000000000E+00 0.  1.
         21   -1    0    0  501  503 -0.00000000000E+00 -0.00000000000E+00 -0.18005726274E+04  0.18005726274E+04  0.00000000000E+00 0.  1.
          6    1    1    2  501    0 -0.34457032644E+02 -0.10961466097E+03 -0.12957594524E+04  0.13121658506E+04  0.17200000000E+03 0.  1.
         -6    1    1    2    0  502  0.34457032644E+02  0.10961466097E+03 -0.47507060743E+03  0.51814934434E+03  0.17200000000E+03 0.  1.
</event>
<event>
 4    1  0.1244074E+000  0.1943433E+03  0.7818608E-02  0.1154601E+00
         21   -1    0    0  501  502  0.00000000000E+00  0.00000000000E+00  0.17336501515E+03  0.17336501515E+03  0.00000000000E+00 0. -1.
         21   -1    0    0  502  503 -0.00000000000E+00 -0.00000000000E+00 -0.46036959326E+03  0.46036959326E+03  0.00000000000E+00 0. -1.
          6    1    1    2  501    0  0.80613879587E+02 -0.41069833680E+02  0.86476846635E+02  0.21271477105E+03  0.17200000000E+03 0. -1.
         -6    1    1    2    0  503 -0.80613879587E+02  0.41069833680E+02 -0.37348142475E+03  0.42101983736E+03  0.17200000000E+03 0. -1.
</event>
<event>
 4    1  0.1244074E+000  0.1818742E+03  0.7818608E-02  0.1166001E+00
         21   -1    0    0  503  502  0.00000000000E+00  0.00000000000E+00  0.10705696441E+03  0.10705696441E+03  0.00000000000E+00 0. -1.
         21   -1    0    0  501  503 -0.00000000000E+00 -0.00000000000E+00 -0.35873748818E+03  0.35873748818E+03  0.00000000000E+00 0. -1.
          6    1    1    2  501    0  0.13844303552E+02  0.57467792757E+02 -0.21257944061E+03  0.27976459840E+03  0.17200000000E+03 0.  1.
         -6    1    1    2    0  502 -0.13844303552E+02 -0.57467792757E+02 -0.39101083162E+02  0.18602985419E+03  0.17200000000E+03 0.  1.
</event>
<event>
 4    1  0.1244074E+000  0.2593827E+03  0.7818608E-02  0.1107515E+00
         21   -1    0    0  503  502  0.00000000000E+00  0.00000000000E+00  0.11646801908E+04  0.11646801908E+04  0.00000000000E+00 0.  1.
         21   -1    0    0  501  503 -0.00000000000E+00 -0.00000000000E+00 -0.19540898813E+03  0.19540898813E+03  0.00000000000E+00 0. -1.
          6    1    1    2  501    0  0.19334073474E+03 -0.17740880550E+02 -0.86108643833E+02  0.27330217177E+03  0.17200000000E+03 0. -1.
         -6    1    1    2    0  502 -0.19334073474E+03  0.17740880550E+02  0.10553798465E+04  0.10867870072E+04  0.17200000000E+03 0.  1.
</event>
<event>
 4    1  0.1244074E+000  0.2009117E+03  0.7818608E-02  0.1148972E+00
         21   -1    0    0  503  502  0.00000000000E+00  0.00000000000E+00  0.51005068452E+03  0.51005068452E+03  0.00000000000E+00 0. -1.
         21   -1    0    0  501  503 -0.00000000000E+00 -0.00000000000E+00 -0.10208046177E+03  0.10208046177E+03  0.00000000000E+00 0.  1.
          6    1    1    2  501    0 -0.17988537733E+02  0.10226389878E+03  0.58893355034E+02  0.20936551710E+03  0.17200000000E+03 0.  1.
         -6    1    1    2    0  502  0.17988537733E+02 -0.10226389878E+03  0.34907686772E+03  0.40276562919E+03  0.17200000000E+03 0. -1.
</event>
<event>
 4    1  0.1244074E+000  0.1978387E+03  0.7818608E-02  0.1151575E+00
         21   -1    0    0  503  502  0.00000000000E+00  0.00000000000E+00  0.26792196268E+03  0.26792196268E+03  0.00000000000E+00 0.  1.
         21   -1    0    0  501  503 -0.00000000000E+00 -0.00000000000E+00 -0.18531250190E+03  0.18531250190E+03  0.00000000000E+00 0.  1.
          6    1    1    2  501    0  0.67747195084E+02 -0.70473273129E+02 -0.62955740724E+02  0.20761404085E+03  0.17200000000E+03 0.  1.
         -6    1    1    2    0  502 -0.67747195084E+02  0.70473273129E+02  0.14556520151E+03  0.24562042374E+03  0.17200000000E+03 0.  1.
</event>
<event>
 4    1  0.1244074E+000  0.2221438E+03  0.7818608E-02  0.1132295E+00
         21   -1    0    0  503  502  0.00000000000E+00  0.00000000000E+00  0.24241279536E+03  0.24241279536E+03  0.00000000000E+00 0. -1.
         21   -1    0    0  501  503 -0.00000000000E+00 -0.00000000000E+00 -0.21379628786E+03  0.21379628786E+03  0.00000000000E+00 0. -1.
          6    1    1    2  501    0 -0.87777636708E+02  0.10981326267E+03  0.64196954663E+02  0.23123389706E+03  0.17200000000E+03 0. -1.
         -6    1    1    2    0  502  0.87777636708E+02 -0.10981326267E+03 -0.35580447164E+02  0.22497518615E+03  0.17200000000E+03 0. -1.
</event>
<event>
 4    1  0.1244074E+000  0.1766621E+03  0.7818608E-02  0.1171073E+00
         21   -1    0    0  503  502  0.00000000000E+00  0.00000000000E+00  0.76797280127E+03  0.76797280127E+03  0.00000000000E+00 0.  1.
         21   -1    0    0  501  503 -0.00000000000E+00 -0.00000000000E+00 -0.64699625782E+02  0.64699625782E+02  0.00000000000E+00 0.  1.
          6    1    1    2  501    0  0.35831739641E+02 -0.18481604155E+02  0.97744782624E+02  0.20189979145E+03  0.17200000000E+03 0.  1.
         -6    1    1    2    0  502 -0.35831739641E+02  0.18481604155E+02  0.60552839286E+03  0.63077263560E+03  0.17200000000E+03 0.  1.
</event>
<event>
 4    1  0.1244074E+000  0.2110632E+03  0.7818608E-02  0.1140727E+00
         21   -1    0    0  501  502  0.00000000000E+00  0.00000000000E+00  0.55749039227E+03  0.55749039227E+03  0.00000000000E+00 0. -1.
         21   -1    0    0  502  503 -0.00000000000E+00 -0.00000000000E+00 -0.14482609265E+03  0.14482609265E+03  0.00000000000E+00 0. -1.
          6    1    1    2  501    0  0.94383532811E+02  0.77816587557E+02  0.44143828034E+03  0.48930095842E+03  0.17200000000E+03 0. -1.
         -6    1    1    2    0  503 -0.94383532811E+02 -0.77816587557E+02 -0.28773980717E+02  0.21301552650E+03  0.17200000000E+03 0. -1.
</event>
<event>
 4    1  0.1244074E+000  0.3258787E+03  0.7818608E-02  0.1072975E+00
         21   -1    0    0  503  502  0.00000000000E+00  0.00000000000E+00  0.74939135577E+03  0.74939135577E+03  0.00000000000E+00 0. -1.
         21   -1    0    0  501  503 -0.00000000000E+00 -0.00000000000E+00 -0.19187385887E+03  0.19187385887E+03  0.00000000000E+00 0. -1.
          6    1    1    2  501    0 -0.15223133820E+03  0.23116776006E+03  0.38119901305E+02  0.32810065604E+03  0.17200000000E+03 0. -1.
         -6    1    1    2    0  502  0.15223133820E+03 -0.23116776006E+03  0.51939759559E+03  0.61316455860E+03  0.17200000000E+03 0. -1.
</event>
<event>
 4    1  0.1244074E+000  0.2155264E+03  0.7818608E-02  0.1137263E+00
         21   -1    0    0  501  502  0.00000000000E+00  0.00000000000E+00  0.12362793419E+04  0.12362793419E+04  0.00000000000E+00 0. -1.
         21   -1    0    0  502  503 -0.00000000000E+00 -0.00000000000E+00 -0.22042811765E+03  0.22042811765E+03  0.00000000000E+00 0.  1.
          6    1    1    2  501    0 -0.11416313764E+03 -0.61922573517E+02  0.11713043452E+04  0.11909683019E+04  0.17200000000E+03 0. -1.
         -6    1    1    2    0  503  0.11416313764E+03  0.61922573517E+02 -0.15545312091E+03  0.26573915765E+03  0.17200000000E+03 0.  1.
</event>
<event>
 4    1  0.1244074E+000  0.1867918E+03  0.7818608E-02  0.1161387E+00
         21   -1    0    0  501  502  0.00000000000E+00  0.00000000000E+00  0.18151471655E+03  0.18151471655E+03  0.00000000000E+00 0. -1.
         21   -1    0    0  502  503 -0.00000000000E+00 -0.00000000000E+00 -0.24090175615E+03  0.24090175615E+03  0.00000000000E+00 0. -1.
          6    1    1    2  501    0  0.35143623207E+00 -0.72849405835E+02  0.65249740325E+02  0.19786027406E+03  0.17200000000E+03 0. -1.
         -6    1    1    2    0  503 -0.35143623207E+00  0.72849405835E+02 -0.12463677993E+03  0.22455619864E+03  0.17200000000E+03 0. -1.
</event>
<event>
 4    1  0.1244074E+000  0.1988522E+03  0.7818608E-02  0.1150711E+00
         21   -1    0    0  501  502  0.00000000000E+00  0.00000000000E+00  0.18660250660E+03  0.18660250660E+03  0.00000000000E+00 0.  1.
         21   -1    0    0  502  503 -0.00000000000E+00 -0.00000000000E+00 -0.21192786425E+03  0.21192786425E+03  0.00000000000E+00 0.  1.
          6    1    1    2  501    0  0.77861992388E+02  0.62415536725E+02 -0.14687068577E+02  0.19939382906E+03  0.17200000000E+03 0. -1.
         -6    1    1    2    0  503 -0.77861992388E+02 -0.62415536725E+02 -0.10638289069E+02  0.19913654179E+03  0.17200000000E+03 0. -1.
</event>
<event>
 4    1  0.1244074E+000  0.2144534E+03  0.7818608E-02  0.1138087E+00
         21   -1    0    0  501  502  0.00000000000E+00  0.00000000000E+00  0.16244090355E+04  0.16244090355E+04  0.00000000000E+00 0.  1.
         21   -1    0    0  502  503 -0.00000000000E+00 -0.00000000000E+00 -0.28808771545E+02  0.28808771545E+02  0.00000000000E+00 0. -1.
          6    1    1    2  501    0 -0.91270722420E+02 -0.89866083825E+02  0.68925284425E+03  0.72184467934E+03  0.17200000000E+03 0. -1.
         -6    1    1    2    0  503  0.91270722420E+02  0.89866083825E+02  0.90634741971E+03  0.93137312770E+03  0.17200000000E+03 0.  1.
</event>
<event>
 4    1  0.1244074E+000  0.2819133E+03  0.7818608E-02  0.1094649E+00
         21   -1    0    0  503  502  0.00000000000E+00  0.00000000000E+00  0.38113489662E+03  0.38113489662E+03  0.00000000000E+00 0.  1.
         21   -1    0    0  501  503 -0.00000000000E+00 -0.00000000000E+00 -0.21859662432E+03  0.21859662432E+03  0.00000000000E+00 0. -1.
          6    1    1    2  501    0  0.20631897478E+03 -0.85577914753E+02  0.14564374622E+03  0.31731246376E+03  0.17200000000E+03 0. -1.
         -6    1    1    2    0  502 -0.20631897478E+03  0.85577914753E+02  0.16894526074E+02  0.28241905718E+03  0.17200000000E+03 0. -1.
</event>
<event>
 4    1  0.1244074E+000  0.2797405E+03  0.7818608E-02  0.1095831E+00
         21   -1    0    0  501  502  0.00000000000E+00  0.00000000000E+00  0.25579357322E+03  0.25579357322E+03  0.00000000000E+00 0. -1.
         21   -1    0    0  502  503 -0.00000000000E+00 -0.00000000000E+00 -0.34028692360E+03  0.34028692360E+03  0.00000000000E+00 0. -1.
          6    1    1    2  501    0  0.82289584828E+02 -0.20469292615E+03  0.52456235374E+02  0.28461627926E+03  0.17200000000E+03 0. -1.
         -6    1    1    2    0  503 -0.82289584828E+02  0.20469292615E+03 -0.13694958574E+03  0.31146421756E+03  0.17200000000E+03 0. -1.
</event>
<event>
 4    1  0.1244074E+000  0.2163444E+03  0.7818608E-02  0.1136638E+00
         21   -1    0    0  501  502  0.00000000000E+00  0.00000000000E+00  0.36003000597E+02  0.36003000597E+02  0.00000000000E+00 0. -1.
         21   -1    0    0  502  503 -0.00000000000E+00 -0.00000000000E+00 -0.13617230179E+04  0.13617230179E+04  0.00000000000E+00 0. -1.
          6    1    1    2  501    0 -0.11776525040E+03  0.57898674249E+02 -0.51410467929E+03  0.55777103900E+03  0.17200000000E+03 0. -1.
         -6    1    1    2    0  503  0.11776525040E+03 -0.57898674249E+02 -0.81161533798E+03  0.83995497946E+03  0.17200000000E+03 0. -1.
</event>
<event>
 4    1  0.1244074E+000  0.1730745E+03  0.7818608E-02  0.1174679E+00
         21   -1    0    0  503  502  0.00000000000E+00  0.00000000000E+00  0.61493292252E+02  0.61493292252E+02  0.00000000000E+00 0. -1.
         21   -1    0    0  501  503 -0.00000000000E+00 -0.00000000000E+00 -0.56644854435E+03  0.56644854435E+03  0.00000000000E+00 0. -1.
          6    1    1    2  501    0 -0.32590365463E+01  0.18977969482E+02 -0.36997178349E+03  0.40845306368E+03  0.17200000000E+03 0. -1.
         -6    1    1    2    0  502  0.32590365463E+01 -0.18977969482E+02 -0.13498346861E+03  0.21948877293E+03  0.17200000000E+03 0. -1.
</event>
<event>
 4    1  0.1244074E+000  0.1747281E+03  0.7818608E-02  0.1173005E+00
         21   -1    0    0  501  502  0.00000000000E+00  0.00000000000E+00  0.30715264293E+02  0.30715264293E+02  0.00000000000E+00 0. -1.
         21   -1    0    0  502  503 -0.00000000000E+00 -0.00000000000E+00 -0.10745312283E+04  0.10745312283E+04  0.00000000000E+00 0. -1.
          6    1    1    2  501    0 -0.29776688659E+02 -0.76972119271E+01 -0.37058806519E+03  0.40971381758E+03  0.17200000000E+03 0. -1.
         -6    1    1    2    0  503  0.29776688659E+02  0.76972119271E+01 -0.67322789886E+03  0.69553267505E+03  0.17200000000E+03 0. -1.
</event>
<event>
 4    1  0.1244074E+000  0.1917256E+03  0.7818608E-02  0.1156914E+00
         21   -1    0    0  501  502  0.00000000000E+00  0.00000000000E+00  0.50451029863E+02  0.50451029863E+02  0.00000000000E+00 0. -1.
         21   -1    0    0  502  503 -0.00000000000E+00 -0.00000000000E+00 -0.11342303703E+04  0.11342303703E+04  0.00000000000E+00 0. -1.
          6    1    1    2  501    0  0.77652071432E+01  0.84346926779E+02 -0.18765970313E+03  0.26828132003E+03  0.17200000000E+03 0. -1.
         -6    1    1    2    0  503 -0.77652071432E+01 -0.84346926779E+02 -0.89611963730E+03  0.91640008012E+03  0.17200000000E+03 0. -1.
</event>
<event>
 4    1  0.1244074E+000  0.2167816E+03  0.7818608E-02  0.1136305E+00
         21   -1    0    0  501  502  0.00000000000E+00  0.00000000000E+00  0.15223058644E+03  0.15223058644E+03  0.00000000000E+00 0.  1.
         21   -1    0    0  502  503 -0.00000000000E+00 -0.00000000000E+00 -0.40204389161E+03  0.40204389161E+03  0.00000000000E+00 0.  1.
          6    1    1    2  501    0 -0.11592704994E+03 -0.63017296443E+02  0.86270017930E+01  0.21695318785E+03  0.17200000000E+03 0.  1.
         -6    1    1    2    0  503  0.11592704994E+03  0.63017296443E+02 -0.25844030696E+03  0.33732129020E+03  0.17200000000E+03 0.  1.
</event>
<event>
 4    1  0.1244074E+000  0.1903091E+03  0.7818608E-02  0.1158183E+00
         21   -1    0    0  503  502  0.00000000000E+00  0.00000000000E+00  0.16063257272E+03  0.16063257272E+03  0.00000000000E+00 0. -1.
         21   -1    0    0  501  503 -0.00000000000E+00 -0.00000000000E+00 -0.23596641175E+03  0.23596641175E+03  0.00000000000E+00 0. -1.
          6    1    1    2  501    0 -0.58346730168E+02  0.56826052884E+02 -0.79493622693E+02  0.20624445994E+03  0.17200000000E+03 0.  1.
         -6    1    1    2    0  502  0.58346730168E+02 -0.56826052884E+02  0.41597836652E+01  0.19035452453E+03  0.17200000000E+03 0.  1.
</event>
<event>
 4    1  0.1244074E+000  0.1807507E+03  0.7818608E-02  0.1167078E+00
         21   -1    0    0  503  502  0.00000000000E+00  0.00000000000E+00  0.13305256081E+04  0.13305256081E+04  0.00000000000E+00 0.  1.
         21   -1    0    0  501  503 -0.00000000000E+00 -0.00000000000E+00 -0.64214630575E+02  0.64214630575E+02  0.00000000000E+00 0. -1.
          6    1    1    2  501    0  0.50792802920E+02 -0.22514966794E+02  0.85103707356E+02  0.19978356680E+03  0.17200000000E+03 0. -1.
         -6    1    1    2    0  502 -0.50792802920E+02  0.22514966794E+02  0.11812072702E+04  0.11949566719E+04  0.17200000000E+03 0.  1.
</event>
<event>
 4    1  0.1244074E+000  0.1940484E+03  0.7818608E-02  0.1154860E+00
         21   -1    0    0  503  502  0.00000000000E+00  0.00000000000E+00  0.76451240860E+02  0.76451240860E+02  0.00000000000E+00 0. -1.
         21   -1    0    0  501  503 -0.00000000000E+00 -0.00000000000E+00 -0.61659382635E+03  0.61659382635E+03  0.00000000000E+00 0. -1.
          6    1    1    2  501    0 -0.84145425426E+02  0.31469718966E+02 -0.42550613864E+03  0.46766469810E+03  0.17200000000E+03 0. -1.
         -6    1    1    2    0  502  0.84145425426E+02 -0.31469718966E+02 -0.11463644685E+03  0.22538036910E+03  0.17200000000E+03 0. -1.
</event>
<event>
 4    1  0.1244074E+000  0.2471022E+03  0.7818608E-02  0.1115150E+00
         21   -1    0    0  503  502  0.00000000000E+00  0.00000000000E+00  0.57155861372E+03  0.57155861372E+03  0.00000000000E+00 0.  1.
         21   -1    0    0  501  503 -0.00000000000E+00 -0.00000000000E+00 -0.16099598927E+03  0.16099598927E+03  0.00000000000E+00 0.  1.
          6    1    1    2  501    0 -0.16665890571E+03  0.60830141637E+02 -0.71735068932E+01  0.24720630288E+03  0.17200000000E+03 0.  1.
         -6    1    1    2    0  502  0.16665890571E+03 -0.60830141637E+02  0.41773613135E+03  0.48534830011E+03  0.17200000000E+03 0.  1.
</event>
<event>
 4    1  0.1244074E+000  0.3048698E+03  0.7818608E-02  0.1082831E+00
         21   -1    0    0  503  502  0.00000000000E+00  0.00000000000E+00  0.12341040484E+03  0.12341040484E+03  0.00000000000E+00 0. -1.
         21   -1    0    0  501  503 -0.00000000000E+00 -0.00000000000E+00 -0.11837095876E+04  0.11837095876E+04  0.00000000000E+00 0.  1.
          6    1    1    2  501    0  0.16015445604E+03  0.19419611002E+03 -0.92431949838E+03  0.97329960137E+03  0.17200000000E+03 0. -1.
         -6    1    1    2    0  502 -0.16015445604E+03 -0.19419611002E+03 -0.13597968438E+03  0.33382039108E+03  0.17200000000E+03 0. -1.
</event>
<event>
 4    1  0.1244074E+000  0.1931277E+03  0.7818608E-02  0.1155670E+00
         21   -1    0    0  503  502  0.00000000000E+00  0.00000000000E+00  0.13455712047E+04  0.13455712047E+04  0.00000000000E+00 0.  1.
         21   -1    0    0  501  503 -0.00000000000E+00 -0.00000000000E+00 -0.27940431733E+02  0.27940431733E+02  0.00000000000E+00 0.  1.
          6    1    1    2  501    0 -0.16648905480E+02  0.86238800340E+02  0.59772214119E+03  0.62814813126E+03  0.17200000000E+03 0.  1.
         -6    1    1    2    0  502  0.16648905480E+02 -0.86238800340E+02  0.71990863179E+03  0.74536350519E+03  0.17200000000E+03 0.  1.
</event>
<event>
 4    1  0.1244074E+000  0.1835596E+03  0.7818608E-02  0.1164402E+00
         21   -1    0    0  501  502  0.00000000000E+00  0.00000000000E+00  0.37062232495E+03  0.37062232495E+03  0.00000000000E+00 0. -1.
         21   -1    0    0  502  503 -0.00000000000E+00 -0.00000000000E+00 -0.12319127219E+03  0.12319127219E+03  0.00000000000E+00 0. -1.
          6    1    1    2  501    0 -0.14397239367E+02 -0.62472785414E+02  0.25010267071E+03  0.31023454887E+03  0.17200000000E+03 0. -1.
         -6    1    1    2    0  503  0.14397239367E+02  0.62472785414E+02 -0.26716179531E+01  0.18357904826E+03  0.17200000000E+03 0. -1.
</event>
<event>
 4    1  0.1244074E+000  0.2312295E+03  0.7818608E-02  0.1125777E+00
         21   -1    0    0  501  502  0.00000000000E+00  0.00000000000E+00  0.19154039852E+03  0.19154039852E+03  0.00000000000E+00 0.  1.
         21   -1    0    0  502  503 -0.00000000000E+00 -0.00000000000E+00 -0.31181482203E+03  0.31181482203E+03  0.00000000000E+00 0.  1.
          6    1    1    2  501    0  0.14577489859E+03 -0.51310300603E+02 -0.14160503719E+03  0.27114397387E+03  0.17200000000E+03 0. -1.
         -6    1    1    2    0  503 -0.14577489859E+03  0.51310300603E+02  0.21330613685E+02  0.23221124668E+03  0.17200000000E+03 0. -1.
</event>
<event>
 4    1  0.1244074E+000  0.4296655E+03  0.7818608E-02  0.1033966E+00
         21   -1    0    0  501  502  0.00000000000E+00  0.00000000000E+00  0.55686230242E+03  0.55686230242E+03  0.00000000000E+00 0.  1.
         21   -1    0    0  502  503 -0.00000000000E+00 -0.00000000000E+00 -0.34089878231E+03  0.34089878231E+03  0.00000000000E+00 0.  1.
          6    1    1    2  501    0  0.21011927194E+01  0.39373091110E+03  0.33537574191E+02  0.43097240544E+03  0.17200000000E+03 0.  1.
         -6    1    1    2    0  503 -0.21011927194E+01 -0.39373091110E+03  0.18242594593E+03  0.46678867929E+03  0.17200000000E+03 0.  1.
</event>
<event>
 4    1  0.1244074E+000  0.3015438E+03  0.7818608E-02  0.1084471E+00
         21   -1    0    0  503  502  0.00000000000E+00  0.00000000000E+00  0.14084701278E+03  0.14084701278E+03  0.00000000000E+00 0.  1.
         21   -1    0    0  501  503 -0.00000000000E+00 -0.00000000000E+00 -0.64589190401E+03  0.64589190401E+03  0.00000000000E+00 0. -1.
          6    1    1    2  501    0  0.22329849140E+03 -0.10715630214E+03 -0.26110012103E+03  0.39887587362E+03  0.17200000000E+03 0. -1.
         -6    1    1    2    0  502 -0.22329849140E+03  0.10715630214E+03 -0.24394477020E+03  0.38786304317E+03  0.17200000000E+03 0. -1.
</event>
<event>
 4    1  0.1244074E+000  0.2095790E+03  0.7818608E-02  0.1141900E+00
         21   -1    0    0  503  502  0.00000000000E+00  0.00000000000E+00  0.45362851365E+03  0.45362851365E+03  0.00000000000E+00 0.  1.
         21   -1    0    0  501  503 -0.00000000000E+00 -0.00000000000E+00 -0.11754322855E+03  0.11754322855E+03  0.00000000000E+00 0.  1.
          6    1    1    2  501    0 -0.45968922885E+02 -0.11057230401E+03  0.28793619824E+03  0.35613288327E+03  0.17200000000E+03 0.  1.
         -6    1    1    2    0  502  0.45968922885E+02  0.11057230401E+03  0.48149086862E+02  0.21503885893E+03  0.17200000000E+03 0.  1.
</event>
<event>
 4    1  0.1244074E+000  0.2140627E+03  0.7818608E-02  0.1138389E+00
         21   -1    0    0  501  502  0.00000000000E+00  0.00000000000E+00  0.12869413869E+03  0.12869413869E+03  0.00000000000E+00 0. -1.
         21   -1    0    0  502  503 -0.00000000000E+00 -0.00000000000E+00 -0.70801418176E+03  0.70801418176E+03  0.00000000000E+00 0. -1.
          6    1    1    2  501    0 -0.83440973029E+02 -0.96314196907E+02  0.53020998475E+01  0.21412830912E+03  0.17200000000E+03 0. -1.
         -6    1    1    2    0  503  0.83440973029E+02  0.96314196907E+02 -0.58462214292E+03  0.62258001132E+03  0.17200000000E+03 0. -1.
</event>
<event>
 4    1  0.1244074E+000  0.4061321E+03  0.7818608E-02  0.1041677E+00
         21   -1    0    0  501  502  0.00000000000E+00  0.00000000000E+00  0.29583654320E+03  0.29583654320E+03  0.00000000000E+00 0. -1.
         21   -1    0    0  502  503 -0.00000000000E+00 -0.00000000000E+00 -0.56719480972E+03  0.56719480972E+03  0.00000000000E+00 0.  1.
          6    1    1    2  501    0 -0.26594192879E+03 -0.25423250576E+03 -0.19195300888E+03  0.44920956590E+03  0.17200000000E+03 0.  1.
         -6    1    1    2    0  503  0.26594192879E+03  0.25423250576E+03 -0.79405257640E+02  0.41382178703E+03  0.17200000000E+03 0.  1.
</event>
<event>
 4    1  0.1244074E+000  0.2074769E+03  0.7818608E-02  0.1143580E+00
         21   -1    0    0  503  502  0.00000000000E+00  0.00000000000E+00  0.10027461401E+04  0.10027461401E+04  0.00000000000E+00 0.  1.
         21   -1    0    0  501  503 -0.00000000000E+00 -0.00000000000E+00 -0.18460892073E+03  0.18460892073E+03  0.00000000000E+00 0. -1.
          6    1    1    2  501    0  0.20272090751E+02 -0.11424406662E+03 -0.11102170502E+03  0.23531358526E+03  0.17200000000E+03 0. -1.
         -6    1    1    2    0  502 -0.20272090751E+02  0.11424406662E+03  0.92915892435E+03  0.95204147552E+03  0.17200000000E+03 0.  1.
</event>
<event>
 4    1  0.1244074E+000  0.2196646E+03  0.7818608E-02  0.1134133E+00
         21   -1    0    0  503  502  0.00000000000E+00  0.00000000000E+00  0.92142098001E+02  0.92142098001E+02  0.00000000000E+00 0. -1.
         21   -1    0    0  501  503 -0.00000000000E+00 -0.00000000000E+00 -0.53808240235E+03  0.53808240235E+03  0.00000000000E+00 0. -1.
          6    1    1    2  501    0 -0.51875548553E+02 -0.12640207433E+03 -0.17140852948E+03  0.27862778201E+03  0.17200000000E+03 0. -1.
         -6    1    1    2    0  502  0.51875548553E+02  0.12640207433E+03 -0.27453177487E+03  0.35159671834E+03  0.17200000000E+03 0. -1.
</event>
<event>
 4    1  0.1244074E+000  0.1894150E+03  0.7818608E-02  0.1158990E+00
         21   -1    0    0  503  502  0.00000000000E+00  0.00000000000E+00  0.51794852439E+02  0.51794852439E+02  0.00000000000E+00 0. -1.
         21   -1    0    0  501  503 -0.00000000000E+00 -0.00000000000E+00 -0.74457594575E+03  0.74457594575E+03  0.00000000000E+00 0. -1.
          6    1    1    2  501    0 -0.47921595657E+02  0.63226283519E+02 -0.24128292458E+03  0.30674988501E+03  0.17200000000E+03 0. -1.
         -6    1    1    2    0  502  0.47921595657E+02 -0.63226283519E+02 -0.45149816873E+03  0.48962091318E+03  0.17200000000E+03 0. -1.
</event>
<event>
 4    1  0.1244074E+000  0.2176006E+03  0.7818608E-02  0.1135685E+00
         21   -1    0    0  503  502  0.00000000000E+00  0.00000000000E+00  0.27215135056E+03  0.27215135056E+03  0.00000000000E+00 0. -1.
         21   -1    0    0  501  503 -0.00000000000E+00 -0.00000000000E+00 -0.22270966171E+03  0.22270966171E+03  0.00000000000E+00 0. -1.
          6    1    1    2  501    0  0.11954863735E+03  0.58941970347E+02 -0.91013361440E+02  0.23586747237E+03  0.17200000000E+03 0.  1.
         -6    1    1    2    0  502 -0.11954863735E+03 -0.58941970347E+02  0.14045505029E+03  0.25899353990E+03  0.17200000000E+03 0.  1.
</event>
<event>
 4    1  0.1244074E+000  0.2326519E+03  0.7818608E-02  0.1124787E+00
         21   -1    0    0  501  502  0.00000000000E+00  0.00000000000E+00  0.12435789218E+04  0.12435789218E+04  0.00000000000E+00 0.  1.
         21   -1    0    0  502  503 -0.00000000000E+00 -0.00000000000E+00 -0.54930912784E+02  0.54930912784E+02  0.00000000000E+00 0.  1.
          6    1    1    2  501    0  0.18019277736E+01 -0.15665145877E+03  0.89017259646E+03  0.92007291992E+03  0.17200000000E+03 0. -1.
         -6    1    1    2    0  503 -0.18019277736E+01  0.15665145877E+03  0.29847541253E+03  0.37843691464E+03  0.17200000000E+03 0. -1.
</event>
<event>
 4    1  0.1244074E+000  0.1919770E+03  0.7818608E-02  0.1156690E+00
         21   -1    0    0  501  502  0.00000000000E+00  0.00000000000E+00  0.70928679843E+03  0.70928679843E+03  0.00000000000E+00 0.  1.
         21   -1    0    0  502  503 -0.00000000000E+00 -0.00000000000E+00 -0.92285800820E+02  0.92285800820E+02  0.00000000000E+00 0.  1.
          6    1    1    2  501    0 -0.45692333243E+02  0.71995805686E+02  0.57343104880E+03  0.60471344708E+03  0.17200000000E+03 0.  1.
         -6    1    1    2    0  503  0.45692333243E+02 -0.71995805686E+02  0.43569948811E+02  0.19685915217E+03  0.17200000000E+03 0.  1.
</event>
<event>
 4    1  0.1244074E+000  0.1842502E+03  0.7818608E-02  0.1163752E+00
         21   -1    0    0  503  502  0.00000000000E+00  0.00000000000E+00  0.10788404046E+03  0.10788404046E+03  0.00000000000E+00 0. -1.
         21   -1    0    0  501  503 -0.00000000000E+00 -0.00000000000E+00 -0.61246866693E+03  0.61246866693E+03  0.00000000000E+00 0. -1.
          6    1    1    2  501    0  0.63707537799E+02  0.17478522869E+02 -0.50344206551E+03  0.53609892973E+03  0.17200000000E+03 0. -1.
         -6    1    1    2    0  502 -0.63707537799E+02 -0.17478522869E+02 -0.11425609611E+01  0.18425377765E+03  0.17200000000E+03 0. -1.
</event>
<event>
 4    1  0.1244074E+000  0.2493388E+03  0.7818608E-02  0.1113723E+00
         21   -1    0    0  503  502  0.00000000000E+00  0.00000000000E+00  0.64331526462E+02  0.64331526462E+02  0.00000000000E+00 0. -1.
         21   -1    0    0  501  503 -0.00000000000E+00 -0.00000000000E+00 -0.12626050780E+04  0.12626050780E+04  0.00000000000E+00 0.  1.
          6    1    1    2  501    0  0.64957049207E+02 -0.16842326786E+03 -0.92049144926E+03  0.95366363229E+03  0.17200000000E+03 0.  1.
         -6    1    1    2    0  502 -0.64957049207E+02  0.16842326786E+03 -0.27778210224E+03  0.37327297213E+03  0.17200000000E+03 0.  1.
</event>
<event>
 4    1  0.1244074E+000  0.2228850E+03  0.7818608E-02  0.1131750E+00
         21   -1    0    0  503  502  0.00000000000E+00  0.00000000000E+00  0.19674665687E+03  0.19674665687E+03  0.00000000000E+00 0.  1.
         21   -1    0    0  501  503 -0.00000000000E+00 -0.00000000000E+00 -0.34336724114E+03  0.34336724114E+03  0.00000000000E+00 0. -1.
          6    1    1    2  501    0 -0.49127133631E+02  0.13296712417E+03 -0.21223814032E+03  0.30777062819E+03  0.17200000000E+03 0. -1.
         -6    1    1    2    0  502  0.49127133631E+02 -0.13296712417E+03  0.65617556051E+02  0.23234326982E+03  0.17200000000E+03 0. -1.
</event>
<event>
 4    1  0.1244074E+000  0.2431161E+03  0.7818608E-02  0.1117734E+00
         21   -1    0    0  501  502  0.00000000000E+00  0.00000000000E+00  0.14817888900E+04  0.14817888900E+04  0.00000000000E+00 0.  1.
         21   -1    0    0  502  503 -0.00000000000E+00 -0.00000000000E+00 -0.52174917483E+02  0.52174917483E+02  0.00000000000E+00 0.  1.
          6    1    1    2  501    0  0.16021692408E+03  0.62064167350E+02  0.10870081695E+04  0.11138636291E+04  0.17200000000E+03 0.  1.
         -6    1    1    2    0  503 -0.16021692408E+03 -0.62064167350E+02  0.34260580301E+03  0.42010017839E+03  0.17200000000E+03 0.  1.
</event>
<event>
 4    1  0.1244074E+000  0.2018188E+03  0.7818608E-02  0.1148213E+00
         21   -1    0    0  503  502  0.00000000000E+00  0.00000000000E+00  0.45541665379E+03  0.45541665379E+03  0.00000000000E+00 0. -1.
         21   -1    0    0  501  503 -0.00000000000E+00 -0.00000000000E+00 -0.35031024016E+03  0.35031024016E+03  0.00000000000E+00 0.  1.
          6    1    1    2  501    0  0.10389395220E+03 -0.18785324264E+02 -0.29510035634E+03  0.35751232430E+03  0.17200000000E+03 0.  1.
         -6    1    1    2    0  502 -0.10389395220E+03  0.18785324264E+02  0.40020676997E+03  0.44821456965E+03  0.17200000000E+03 0. -1.
</event>
<event>
 4    1  0.1244074E+000  0.2064170E+03  0.7818608E-02  0.1144435E+00
         21   -1    0    0  501  502  0.00000000000E+00  0.00000000000E+00  0.10188333359E+03  0.10188333359E+03  0.00000000000E+00 0. -1.
         21   -1    0    0  502  503 -0.00000000000E+00 -0.00000000000E+00 -0.42346012325E+03  0.42346012325E+03  0.00000000000E+00 0.  1.
          6    1    1    2  501    0 -0.59060588479E+02  0.97651604926E+02 -0.13152319908E+03  0.24475771888E+03  0.17200000000E+03 0.  1.
         -6    1    1    2    0  503  0.59060588479E+02 -0.97651604926E+02 -0.19005359058E+03  0.28058573796E+03  0.17200000000E+03 0.  1.
</event>
<event>
 4    1  0.1244074E+000  0.2012453E+03  0.7818608E-02  0.1148693E+00
         21   -1    0    0  503  502  0.00000000000E+00  0.00000000000E+00  0.74272609928E+02  0.74272609928E+02  0.00000000000E+00 0.  1.
         21   -1    0    0  501  503 -0.00000000000E+00 -0.00000000000E+00 -0.56933208305E+03  0.56933208305E+03  0.00000000000E+00 0.  1.
          6    1    1    2  501    0  0.24084285316E+02 -0.10166432964E+03 -0.31366663533E+03  0.37267471988E+03  0.17200000000E+03 0.  1.
         -6    1    1    2    0  502 -0.24084285316E+02  0.10166432964E+03 -0.18139283779E+03  0.27092997309E+03  0.17200000000E+03 0.  1.
</event>
<event>
 4    1  0.1244074E+000  0.1791704E+03  0.7818608E-02  0.1168608E+00
         21   -1    0    0  501  502  0.00000000000E+00  0.00000000000E+00  0.53489059074E+03  0.53489059074E+03  0.00000000000E+00 0.  1.
         21   -1    0    0  502  503 -0.00000000000E+00 -0.00000000000E+00 -0.76223351356E+02  0.76223351356E+02  0.00000000000E+00 0.  1.
          6    1    1    2  501    0 -0.46726806225E+02  0.18292734388E+02  0.37023121379E+03  0.41130666201E+03  0.17200000000E+03 0.  1.
         -6    1    1    2    0  503  0.46726806225E+02 -0.18292734388E+02  0.88436025593E+02  0.19980728008E+03  0.17200000000E+03 0.  1.
</event>
<event>
 4    1  0.1244074E+000  0.1940750E+03  0.7818608E-02  0.1154836E+00
         21   -1    0    0  503  502  0.00000000000E+00  0.00000000000E+00  0.15472653733E+03  0.15472653733E+03  0.00000000000E+00 0.  1.
         21   -1    0    0  501  503 -0.00000000000E+00 -0.00000000000E+00 -0.29736836745E+03  0.29736836745E+03  0.00000000000E+00 0.  1.
          6    1    1    2  501    0 -0.72234099793E+02  0.53510145132E+02 -0.16759305280E+03  0.25642256560E+03  0.17200000000E+03 0. -1.
         -6    1    1    2    0  502  0.72234099793E+02 -0.53510145132E+02  0.24951222682E+02  0.19567233918E+03  0.17200000000E+03 0. -1.
</event>
<event>
 4    1  0.1244074E+000  0.1834175E+03  0.7818608E-02  0.1164536E+00
         21   -1    0    0  501  502  0.00000000000E+00  0.00000000000E+00  0.56024497103E+02  0.56024497103E+02  0.00000000000E+00 0. -1.
         21   -1    0    0  502  503 -0.00000000000E+00 -0.00000000000E+00 -0.24795654778E+04  0.24795654778E+04  0.00000000000E+00 0. -1.
          6    1    1    2  501    0  0.61269956969E+02 -0.17434828614E+02 -0.10811455901E+03  0.21291016590E+03  0.17200000000E+03 0. -1.
         -6    1    1    2    0  503 -0.61269956969E+02  0.17434828614E+02 -0.23154264217E+04  0.23226798090E+04  0.17200000000E+03 0. -1.
</event>
<event>
 4    1  0.1244074E+000  0.4760446E+03  0.7818608E-02  0.1020228E+00
         21   -1    0    0  503  502  0.00000000000E+00  0.00000000000E+00  0.17515903020E+04  0.17515903020E+04  0.00000000000E+00 0.  1.
         21   -1    0    0  501  503 -0.00000000000E+00 -0.00000000000E+00 -0.14870271345E+03  0.14870271345E+03  0.00000000000E+00 0.  1.
          6    1    1    2  501    0  0.33708163899E+03  0.28880857795E+03  0.45892838292E+03  0.66123648318E+03  0.17200000000E+03 0.  1.
         -6    1    1    2    0  502 -0.33708163899E+03 -0.28880857795E+03  0.11439592057E+04  0.12390565323E+04  0.17200000000E+03 0.  1.
</event>
<event>
 4    1  0.1244074E+000  0.2730476E+03  0.7818608E-02  0.1099548E+00
         21   -1    0    0  501  502  0.00000000000E+00  0.00000000000E+00  0.49729049072E+03  0.49729049072E+03  0.00000000000E+00 0.  1.
         21   -1    0    0  502  503 -0.00000000000E+00 -0.00000000000E+00 -0.20540038849E+03  0.20540038849E+03  0.00000000000E+00 0.  1.
          6    1    1    2  501    0 -0.54723459923E+02 -0.20488123461E+03  0.32854224318E+03  0.42719431517E+03  0.17200000000E+03 0.  1.
         -6    1    1    2    0  503  0.54723459923E+02  0.20488123461E+03 -0.36652140956E+02  0.27549656404E+03  0.17200000000E+03 0.  1.
</event>
<event>
 4    1  0.1244074E+000  0.2860024E+03  0.7818608E-02  0.1092455E+00
         21   -1    0    0  501  502  0.00000000000E+00  0.00000000000E+00  0.97070435239E+03  0.97070435239E+03  0.00000000000E+00 0.  1.
         21   -1    0    0  502  503 -0.00000000000E+00 -0.00000000000E+00 -0.85032112441E+02  0.85032112441E+02  0.00000000000E+00 0.  1.
          6    1    1    2  501    0  0.16812512692E+03 -0.15474912282E+03  0.49294182799E+03  0.56990261896E+03  0.17200000000E+03 0.  1.
         -6    1    1    2    0  503 -0.16812512692E+03  0.15474912282E+03  0.39273041196E+03  0.48583384587E+03  0.17200000000E+03 0.  1.
</event>
<event>
 4    1  0.1244074E+000  0.1992613E+03  0.7818608E-02  0.1150364E+00
         21   -1    0    0  503  502  0.00000000000E+00  0.00000000000E+00  0.12946100922E+04  0.12946100922E+04  0.00000000000E+00 0. -1.
         21   -1    0    0  501  503 -0.00000000000E+00 -0.00000000000E+00 -0.38830389089E+02  0.38830389089E+02  0.00000000000E+00 0. -1.
          6    1    1    2  501    0 -0.18299042405E+02  0.98925282156E+02  0.32223868995E+03  0.37887047880E+03  0.17200000000E+03 0. -1.
         -6    1    1    2    0  502  0.18299042405E+02 -0.98925282156E+02  0.93354101315E+03  0.95457000248E+03  0.17200000000E+03 0. -1.
</event>
<event>
 4    1  0.1244074E+000  0.2243215E+03  0.7818608E-02  0.1130702E+00
         21   -1    0    0  501  502  0.00000000000E+00  0.00000000000E+00  0.38500587885E+03  0.38500587885E+03  0.00000000000E+00 0.  1.
         21   -1    0    0  502  503 -0.00000000000E+00 -0.00000000000E+00 -0.18959309029E+03  0.18959309029E+03  0.00000000000E+00 0.  1.
          6    1    1    2  501    0 -0.78898386794E+02  0.12046243841E+03  0.25783055128E+03  0.34175539159E+03  0.17200000000E+03 0.  1.
         -6    1    1    2    0  503  0.78898386794E+02 -0.12046243841E+03 -0.62417762709E+02  0.23284357755E+03  0.17200000000E+03 0.  1.
</event>
<event>
 4    1  0.1244074E+000  0.2903284E+03  0.7818608E-02  0.1090178E+00
         21   -1    0    0  503  502  0.00000000000E+00  0.00000000000E+00  0.28038050114E+03  0.28038050114E+03  0.00000000000E+00 0.  1.
         21   -1    0    0  501  503 -0.00000000000E+00 -0.00000000000E+00 -0.44409980439E+03  0.44409980439E+03  0.00000000000E+00 0. -1.
          6    1    1    2  501    0 -0.22794159548E+03  0.52433167553E+02 -0.28775073233E+03  0.40876777266E+03  0.17200000000E+03 0. -1.
         -6    1    1    2    0  502  0.22794159548E+03 -0.52433167553E+02  0.12403142909E+03  0.31571253287E+03  0.17200000000E+03 0.  1.
</event>
<event>
 4    1  0.1244074E+000  0.1919280E+03  0.7818608E-02  0.1156734E+00
         21   -1    0    0  501  502  0.00000000000E+00  0.00000000000E+00  0.23913343755E+03  0.23913343755E+03  0.00000000000E+00 0.  1.
         21   -1    0    0  502  503 -0.00000000000E+00 -0.00000000000E+00 -0.23016292307E+03  0.23016292307E+03  0.00000000000E+00 0.  1.
          6    1    1    2  501    0 -0.12827325103E+02  0.84189117633E+02  0.13942952974E+03  0.23722761551E+03  0.17200000000E+03 0.  1.
         -6    1    1    2    0  503  0.12827325103E+02 -0.84189117633E+02 -0.13045901525E+03  0.23206874511E+03  0.17200000000E+03 0.  1.
</event>
<event>
 4    1  0.1244074E+000  0.4558474E+03  0.7818608E-02  0.1025992E+00
         21   -1    0    0  503  502  0.00000000000E+00  0.00000000000E+00  0.12715118758E+03  0.12715118758E+03  0.00000000000E+00 0. -1.
         21   -1    0    0  501  503 -0.00000000000E+00 -0.00000000000E+00 -0.19007411334E+04  0.19007411334E+04  0.00000000000E+00 0.  1.
          6    1    1    2  501    0  0.33807024712E+03 -0.25282679467E+03 -0.50713530940E+03  0.68189669462E+03  0.17200000000E+03 0. -1.
         -6    1    1    2    0  502 -0.33807024712E+03  0.25282679467E+03 -0.12664546364E+04  0.13459956264E+04  0.17200000000E+03 0. -1.
</event>
<event>
 4    1  0.1244074E+000  0.1790648E+03  0.7818608E-02  0.1168711E+00
         21   -1    0    0  503  502  0.00000000000E+00  0.00000000000E+00  0.35760061526E+03  0.35760061526E+03  0.00000000000E+00 0. -1.
         21   -1    0    0  501  503 -0.00000000000E+00 -0.00000000000E+00 -0.96250936328E+02  0.96250936328E+02  0.00000000000E+00 0. -1.
          6    1    1    2  501    0 -0.40339001742E+02 -0.29205835734E+02  0.71314811041E+02  0.19274339983E+03  0.17200000000E+03 0. -1.
         -6    1    1    2    0  502  0.40339001742E+02  0.29205835734E+02  0.19003486789E+03  0.26110815176E+03  0.17200000000E+03 0. -1.
</event>
<event>
 4    1  0.1244074E+000  0.2023137E+03  0.7818608E-02  0.1147802E+00
         21   -1    0    0  501  502  0.00000000000E+00  0.00000000000E+00  0.12952073463E+03  0.12952073463E+03  0.00000000000E+00 0.  1.
         21   -1    0    0  502  503 -0.00000000000E+00 -0.00000000000E+00 -0.41200937510E+03  0.41200937510E+03  0.00000000000E+00 0.  1.
          6    1    1    2  501    0 -0.85755175613E+02  0.63189228194E+02 -0.10550176422E+02  0.20258858538E+03  0.17200000000E+03 0. -1.
         -6    1    1    2    0  503  0.85755175613E+02 -0.63189228194E+02 -0.27193846405E+03  0.33894152436E+03  0.17200000000E+03 0. -1.
</event>
<event>
 4    1  0.1244074E+000  0.1789709E+03  0.7818608E-02  0.1168803E+00
         21   -1    0    0  501  502  0.00000000000E+00  0.00000000000E+00  0.10342436483E+03  0.10342436483E+03  0.00000000000E+00 0.  1.
         21   -1    0    0  502  503 -0.00000000000E+00 -0.00000000000E+00 -0.45487974980E+03  0.45487974980E+03  0.00000000000E+00 0.  1.
          6    1    1    2  501    0  0.47789194951E+02 -0.12758855156E+02 -0.18023026035E+02  0.17987613796E+03  0.17200000000E+03 0.  1.
         -6    1    1    2    0  503 -0.47789194951E+02  0.12758855156E+02 -0.33343235894E+03  0.37842797667E+03  0.17200000000E+03 0.  1.
</event>
<event>
 4    1  0.1244074E+000  0.1750991E+03  0.7818608E-02  0.1172632E+00
         21   -1    0    0  503  502  0.00000000000E+00  0.00000000000E+00  0.72517596407E+03  0.72517596407E+03  0.00000000000E+00 0. -1.
         21   -1    0    0  501  503 -0.00000000000E+00 -0.00000000000E+00 -0.15631627775E+03  0.15631627775E+03  0.00000000000E+00 0. -1.
          6    1    1    2  501    0 -0.32661260279E+02 -0.29871173268E+01 -0.92022414178E+02  0.19780749608E+03  0.17200000000E+03 0. -1.
         -6    1    1    2    0  502  0.32661260279E+02  0.29871173268E+01  0.66088210050E+03  0.68368474574E+03  0.17200000000E+03 0. -1.
</event>
<event>
 4    1  0.1244074E+000  0.1846543E+03  0.7818608E-02  0.1163373E+00
         21   -1    0    0  501  502  0.00000000000E+00  0.00000000000E+00  0.74892256986E+03  0.74892256986E+03  0.00000000000E+00 0.  1.
         21   -1    0    0  502  503 -0.00000000000E+00 -0.00000000000E+00 -0.48237268745E+02  0.48237268745E+02  0.00000000000E+00 0. -1.
          6    1    1    2  501    0  0.63487908744E+02 -0.21965392583E+02  0.44479738827E+03  0.48160347761E+03  0.17200000000E+03 0. -1.
         -6    1    1    2    0  503 -0.63487908744E+02  0.21965392583E+02  0.25588791284E+03  0.31555636100E+03  0.17200000000E+03 0.  1.
</event>
<event>
 4    1  0.1244074E+000  0.1882079E+03  0.7818608E-02  0.1160088E+00
         21   -1    0    0  503  502  0.00000000000E+00  0.00000000000E+00  0.43370335110E+03  0.43370335110E+03  0.00000000000E+00 0. -1.
         21   -1    0    0  501  503 -0.00000000000E+00 -0.00000000000E+00 -0.11171437202E+03  0.11171437202E+03  0.00000000000E+00 0. -1.
          6    1    1    2  501    0 -0.65272053237E+02 -0.39721308887E+02  0.19578522004E+02  0.18922352348E+03  0.17200000000E+03 0. -1.
         -6    1    1    2    0  502  0.65272053237E+02  0.39721308887E+02  0.30241045708E+03  0.35619419965E+03  0.17200000000E+03 0. -1.
</event>
<event>
 4    1  0.1244074E+000  0.1847571E+03  0.7818608E-02  0.1163277E+00
         21   -1    0    0  503  502  0.00000000000E+00  0.00000000000E+00  0.14057536916E+03  0.14057536916E+03  0.00000000000E+00 0.  1.
         21   -1    0    0  501  503 -0.00000000000E+00 -0.00000000000E+00 -0.27384199768E+03  0.27384199768E+03  0.00000000000E+00 0.  1.
          6    1    1    2  501    0  0.25250499904E+02  0.62558700143E+02 -0.13636972024E+03  0.22963422939E+03  0.17200000000E+03 0.  1.
         -6    1    1    2    0  502 -0.25250499904E+02 -0.62558700143E+02  0.31030917232E+01  0.18478313745E+03  0.17200000000E+03 0.  1.
</event>
<event>
 4    1  0.1244074E+000  0.2060312E+03  0.7818608E-02  0.1144748E+00
         21   -1    0    0  503  502  0.00000000000E+00  0.00000000000E+00  0.95729555367E+03  0.95729555367E+03  0.00000000000E+00 0. -1.
         21   -1    0    0  501  503 -0.00000000000E+00 -0.00000000000E+00 -0.45241586834E+02  0.45241586834E+02  0.00000000000E+00 0. -1.
          6    1    1    2  501    0 -0.10034950998E+03  0.52866161804E+02  0.38536136733E+03  0.43698082183E+03  0.17200000000E+03 0. -1.
         -6    1    1    2    0  502  0.10034950998E+03 -0.52866161804E+02  0.52669259951E+03  0.56555631868E+03  0.17200000000E+03 0. -1.
</event>
<event>
 4    1  0.1244074E+000  0.2477018E+03  0.7818608E-02  0.1114766E+00
         21   -1    0    0  501  502  0.00000000000E+00  0.00000000000E+00  0.58173314385E+02  0.58173314385E+02  0.00000000000E+00 0. -1.
         21   -1    0    0  502  503 -0.00000000000E+00 -0.00000000000E+00 -0.11075558548E+04  0.11075558548E+04  0.00000000000E+00 0.  1.
          6    1    1    2  501    0  0.17823185132E+03 -0.23588684709E+01 -0.39737686341E+03  0.46825690455E+03  0.17200000000E+03 0.  1.
         -6    1    1    2    0  503 -0.17823185132E+03  0.23588684709E+01 -0.65200567698E+03  0.69747226461E+03  0.17200000000E+03 0.  1.
</event>
<event>
 4    1  0.1244074E+000  0.1786411E+03  0.7818608E-02  0.1169125E+00
         21   -1    0    0  501  502  0.00000000000E+00  0.00000000000E+00  0.78806589901E+02  0.78806589901E+02  0.00000000000E+00 0. -1.
         21   -1    0    0  502  503 -0.00000000000E+00 -0.00000000000E+00 -0.42059341825E+03  0.42059341825E+03  0.00000000000E+00 0.  1.
          6    1    1    2  501    0 -0.45462751647E+02  0.16179838109E+02 -0.12273555552E+03  0.21674101028E+03  0.17200000000E+03 0. -1.
         -6    1    1    2    0  503  0.45462751647E+02 -0.16179838109E+02 -0.21905127283E+03  0.28265899787E+03  0.17200000000E+03 0.  1.
</event>
<event>
 4    1  0.1244074E+000  0.3292931E+03  0.7818608E-02  0.1071450E+00
         21   -1    0    0  501  502  0.00000000000E+00  0.00000000000E+00  0.87805361354E+03  0.87805361354E+03  0.00000000000E+00 0.  1.
         21   -1    0    0  502  503 -0.00000000000E+00 -0.00000000000E+00 -0.12507460047E+03  0.12507460047E+03  0.00000000000E+00 0. -1.
          6    1    1    2  501    0  0.21490295955E+03 -0.18073915987E+03  0.43288179811E+03  0.54389390240E+03  0.17200000000E+03 0. -1.
         -6    1    1    2    0  503 -0.21490295955E+03  0.18073915987E+03  0.32009721496E+03  0.45923431160E+03  0.17200000000E+03 0.  1.
</event>
<event>
 4    1  0.1244074E+000  0.2314763E+03  0.7818608E-02  0.1125605E+00
         21   -1    0    0  501  502  0.00000000000E+00  0.00000000000E+00  0.22858335119E+03  0.22858335119E+03  0.00000000000E+00 0.  1.
         21   -1    0    0  502  503 -0.00000000000E+00 -0.00000000000E+00 -0.56339646931E+03  0.56339646931E+03  0.00000000000E+00 0. -1.
          6    1    1    2  501    0 -0.14622105800E+03 -0.51153690130E+02  0.13519332032E+03  0.26806441703E+03  0.17200000000E+03 0.  1.
         -6    1    1    2    0  503  0.14622105800E+03  0.51153690130E+02 -0.47000643844E+03  0.52391540347E+03  0.17200000000E+03 0. -1.
</event>
<event>
 4    1  0.1244074E+000  0.1730481E+03  0.7818608E-02  0.1174706E+00
         21   -1    0    0  501  502  0.00000000000E+00  0.00000000000E+00  0.33136079517E+03  0.33136079517E+03  0.00000000000E+00 0.  1.
         21   -1    0    0  502  503 -0.00000000000E+00 -0.00000000000E+00 -0.14820757816E+03  0.14820757816E+03  0.00000000000E+00 0.  1.
          6    1    1    2  501    0  0.17507977079E+02  0.74234924588E+01  0.24136701882E+03  0.29699103568E+03  0.17200000000E+03 0.  1.
         -6    1    1    2    0  503 -0.17507977079E+02 -0.74234924588E+01 -0.58213801812E+02  0.18257733765E+03  0.17200000000E+03 0.  1.
</event>
<event>
 4    1  0.1244074E+000  0.2137143E+03  0.7818608E-02  0.1138658E+00
         21   -1    0    0  503  502  0.00000000000E+00  0.00000000000E+00  0.66561571211E+02  0.66561571211E+02  0.00000000000E+00 0. -1.
         21   -1    0    0  501  503 -0.00000000000E+00 -0.00000000000E+00 -0.69580744133E+03  0.69580744133E+03  0.00000000000E+00 0.  1.
          6    1    1    2  501    0 -0.83167692687E+02  0.95775557406E+02 -0.35943980522E+03  0.41817555653E+03  0.17200000000E+03 0.  1.
         -6    1    1    2    0  502  0.83167692687E+02 -0.95775557406E+02 -0.26980606490E+03  0.34419345601E+03  0.17200000000E+03 0. -1.
</event>
<event>
 4    1  0.1244074E+000  0.1784332E+03  0.7818608E-02  0.1169328E+00
         21   -1    0    0  501  502  0.00000000000E+00  0.00000000000E+00  0.31288567651E+03  0.31288567651E+03  0.00000000000E+00 0.  1.
         21   -1    0    0  502  503 -0.00000000000E+00 -0.00000000000E+00 -0.10897759106E+03  0.10897759106E+03  0.00000000000E+00 0.  1.
          6    1    1    2  501    0 -0.13163997739E+02  0.45619424709E+02  0.15624761777E+03  0.23717449443E+03  0.17200000000E+03 0.  1.
         -6    1    1    2    0  503  0.13163997739E+02 -0.45619424709E+02  0.47660467679E+02  0.18468877315E+03  0.17200000000E+03 0.  1.
</event>
<event>
 4    1  0.1244074E+000  0.2334604E+03  0.7818608E-02  0.1124228E+00
         21   -1    0    0  501  502  0.00000000000E+00  0.00000000000E+00  0.21604346561E+04  0.21604346561E+04  0.00000000000E+00 0.  1.
         21   -1    0    0  502  503 -0.00000000000E+00 -0.00000000000E+00 -0.25251766884E+02  0.25251766884E+02  0.00000000000E+00 0.  1.
          6    1    1    2  501    0  0.14524906996E+03  0.61826043878E+02  0.11010184851E+04  0.11254978705E+04  0.17200000000E+03 0.  1.
         -6    1    1    2    0  503 -0.14524906996E+03 -0.61826043878E+02  0.10341644042E+04  0.10601885525E+04  0.17200000000E+03 0.  1.
</event>
<event>
 4    1  0.1244074E+000  0.1915233E+03  0.7818608E-02  0.1157095E+00
         21   -1    0    0  501  502  0.00000000000E+00  0.00000000000E+00  0.13939816967E+04  0.13939816967E+04  0.00000000000E+00 0.  1.
         21   -1    0    0  502  503 -0.00000000000E+00 -0.00000000000E+00 -0.26349386056E+02  0.26349386056E+02  0.00000000000E+00 0.  1.
          6    1    1    2  501    0  0.50471023078E+02  0.67452595114E+02  0.70985632954E+03  0.73523954283E+03  0.17200000000E+03 0. -1.
         -6    1    1    2    0  503 -0.50471023078E+02 -0.67452595114E+02  0.65777598114E+03  0.68509153996E+03  0.17200000000E+03 0. -1.
</event>
<event>
 4    1  0.1244074E+000  0.2283316E+03  0.7818608E-02  0.1127820E+00
         21   -1    0    0  501  502  0.00000000000E+00  0.00000000000E+00  0.81178672967E+03  0.81178672967E+03  0.00000000000E+00 0.  1.
         21   -1    0    0  502  503 -0.00000000000E+00 -0.00000000000E+00 -0.79682950607E+02  0.79682950607E+02  0.00000000000E+00 0.  1.
          6    1    1    2  501    0 -0.81579700771E+02 -0.12607956260E+03  0.56238757103E+03  0.60697206174E+03  0.17200000000E+03 0. -1.
         -6    1    1    2    0  503  0.81579700771E+02  0.12607956260E+03  0.16971620803E+03  0.28449761853E+03  0.17200000000E+03 0. -1.
</event>
<event>
 4    1  0.1244074E+000  0.2727342E+03  0.7818608E-02  0.1099725E+00
         21   -1    0    0  503  502  0.00000000000E+00  0.00000000000E+00  0.32613173828E+03  0.32613173828E+03  0.00000000000E+00 0.  1.
         21   -1    0    0  501  503 -0.00000000000E+00 -0.00000000000E+00 -0.22911201064E+03  0.22911201064E+03  0.00000000000E+00 0. -1.
          6    1    1    2  501    0 -0.17059775128E+03  0.12528498326E+03  0.67148125810E+02  0.28087860469E+03  0.17200000000E+03 0. -1.
         -6    1    1    2    0  502  0.17059775128E+03 -0.12528498326E+03  0.29871601826E+02  0.27436514423E+03  0.17200000000E+03 0.  1.
</event>
<event>
 4    1  0.1244074E+000  0.2468591E+03  0.7818608E-02  0.1115306E+00
         21   -1    0    0  503  502  0.00000000000E+00  0.00000000000E+00  0.15818866856E+03  0.15818866856E+03  0.00000000000E+00 0.  1.
         21   -1    0    0  501  503 -0.00000000000E+00 -0.00000000000E+00 -0.53936922910E+03  0.53936922910E+03  0.00000000000E+00 0. -1.
          6    1    1    2  501    0  0.16868206590E+03 -0.53868022055E+02 -0.37703941287E+03  0.45066409000E+03  0.17200000000E+03 0. -1.
         -6    1    1    2    0  502 -0.16868206590E+03  0.53868022055E+02 -0.41411476731E+01  0.24689380766E+03  0.17200000000E+03 0.  1.
</event>
<event>
 4    1  0.1244074E+000  0.2818478E+03  0.7818608E-02  0.1094684E+00
         21   -1    0    0  501  502  0.00000000000E+00  0.00000000000E+00  0.50138472215E+02  0.50138472215E+02  0.00000000000E+00 0.  1.
         21   -1    0    0  502  503 -0.00000000000E+00 -0.00000000000E+00 -0.15845586517E+04  0.15845586517E+04  0.00000000000E+00 0.  1.
          6    1    1    2  501    0 -0.11057463413E+03 -0.19397791250E+03 -0.77599110472E+03  0.82559092465E+03  0.17200000000E+03 0.  1.
         -6    1    1    2    0  503  0.11057463413E+03  0.19397791250E+03 -0.75842907477E+03  0.80910619927E+03  0.17200000000E+03 0.  1.
</event>
<event>
 4    1  0.1244074E+000  0.2078009E+03  0.7818608E-02  0.1143319E+00
         21   -1    0    0  503  502  0.00000000000E+00  0.00000000000E+00  0.65175328286E+03  0.65175328286E+03  0.00000000000E+00 0. -1.
         21   -1    0    0  501  503 -0.00000000000E+00 -0.00000000000E+00 -0.66410758783E+02  0.66410758783E+02  0.00000000000E+00 0.  1.
          6    1    1    2  501    0 -0.11656193987E+03 -0.32449895926E+01  0.27522153691E+03  0.34485955136E+03  0.17200000000E+03 0. -1.
         -6    1    1    2    0  502  0.11656193987E+03  0.32449895926E+01  0.31012098716E+03  0.37330449028E+03  0.17200000000E+03 0.  1.
</event>
<event>
 4    1  0.1244074E+000  0.2974219E+03  0.7818608E-02  0.1086537E+00
         21   -1    0    0  501  502  0.00000000000E+00  0.00000000000E+00  0.31519148424E+03  0.31519148424E+03  0.00000000000E+00 0.  1.
         21   -1    0    0  502  503 -0.00000000000E+00 -0.00000000000E+00 -0.32295757015E+03  0.32295757015E+03  0.00000000000E+00 0.  1.
          6    1    1    2  501    0 -0.23418426450E+03 -0.63509882050E+02  0.11159715476E+03  0.31766916723E+03  0.17200000000E+03 0.  1.
         -6    1    1    2    0  503  0.23418426450E+03  0.63509882050E+02 -0.11936324067E+03  0.32047988717E+03  0.17200000000E+03 0.  1.
</event>
<event>
 4    1  0.1244074E+000  0.2338579E+03  0.7818608E-02  0.1123953E+00
         21   -1    0    0  501  502  0.00000000000E+00  0.00000000000E+00  0.29405121045E+03  0.29405121045E+03  0.00000000000E+00 0. -1.
         21   -1    0    0  502  503 -0.00000000000E+00 -0.00000000000E+00 -0.18691411996E+03  0.18691411996E+03  0.00000000000E+00 0. -1.
          6    1    1    2  501    0  0.15813814827E+03  0.98924639527E+01  0.36626563076E+02  0.23670876600E+03  0.17200000000E+03 0. -1.
         -6    1    1    2    0  503 -0.15813814827E+03 -0.98924639527E+01  0.70510527406E+02  0.24425656441E+03  0.17200000000E+03 0. -1.
</event>
<event>
 4    1  0.1244074E+000  0.1738576E+03  0.7818608E-02  0.1173884E+00
         21   -1    0    0  503  502  0.00000000000E+00  0.00000000000E+00  0.31416121285E+03  0.31416121285E+03  0.00000000000E+00 0.  1.
         21   -1    0    0  501  503 -0.00000000000E+00 -0.00000000000E+00 -0.11042381018E+03  0.11042381018E+03  0.00000000000E+00 0.  1.
          6    1    1    2  501    0  0.62228549408E+01  0.24571178346E+02  0.17802557945E+03  0.24883643959E+03  0.17200000000E+03 0.  1.
         -6    1    1    2    0  502 -0.62228549408E+01 -0.24571178346E+02  0.25711823225E+02  0.17574858344E+03  0.17200000000E+03 0.  1.
</event>
<event>
 4    1  0.1244074E+000  0.1883189E+03  0.7818608E-02  0.1159986E+00
         21   -1    0    0  501  502  0.00000000000E+00  0.00000000000E+00  0.16712096445E+04  0.16712096445E+04  0.00000000000E+00 0.  1.
         21   -1    0    0  502  503 -0.00000000000E+00 -0.00000000000E+00 -0.68625462309E+02  0.68625462309E+02  0.00000000000E+00 0.  1.
          6    1    1    2  501    0 -0.41497991006E+02 -0.64482009946E+02  0.15243066754E+04  0.15358954566E+04  0.17200000000E+03 0.  1.
         -6    1    1    2    0  503  0.41497991006E+02  0.64482009946E+02  0.78277506778E+02  0.20393965022E+03  0.17200000000E+03 0.  1.
</event>
<event>
 4    1  0.1244074E+000  0.1943706E+03  0.7818608E-02  0.1154577E+00
         21   -1    0    0  503  502  0.00000000000E+00  0.00000000000E+00  0.18093945592E+03  0.18093945592E+03  0.00000000000E+00 0. -1.
         21   -1    0    0  501  503 -0.00000000000E+00 -0.00000000000E+00 -0.20884158316E+03  0.20884158316E+03  0.00000000000E+00 0. -1.
          6    1    1    2  501    0  0.89590460181E+02  0.13017823953E+02 -0.16745369372E+02  0.19509054742E+03  0.17200000000E+03 0.  1.
         -6    1    1    2    0  502 -0.89590460181E+02 -0.13017823953E+02 -0.11156757869E+02  0.19469049166E+03  0.17200000000E+03 0.  1.
</event>
<event>
 4    1  0.1244074E+000  0.2064313E+03  0.7818608E-02  0.1144424E+00
         21   -1    0    0  501  502  0.00000000000E+00  0.00000000000E+00  0.13340142038E+04  0.13340142038E+04  0.00000000000E+00 0.  1.
         21   -1    0    0  502  503 -0.00000000000E+00 -0.00000000000E+00 -0.32295592393E+02  0.32295592393E+02  0.00000000000E+00 0. -1.
          6    1    1    2  501    0 -0.14936099782E+02  0.11316714244E+03  0.72212864117E+03  0.75105503367E+03  0.17200000000E+03 0.  1.
         -6    1    1    2    0  503  0.14936099782E+02 -0.11316714244E+03  0.57958997019E+03  0.61525476247E+03  0.17200000000E+03 0. -1.
</event>
<event>
 4    1  0.1244074E+000  0.2054244E+03  0.7818608E-02  0.1145241E+00
         21   -1    0    0  503  502  0.00000000000E+00  0.00000000000E+00  0.84667880664E+03  0.84667880664E+03  0.00000000000E+00 0. -1.
         21   -1    0    0  501  503 -0.00000000000E+00 -0.00000000000E+00 -0.51494090493E+02  0.51494090493E+02  0.00000000000E+00 0.  1.
          6    1    1    2  501    0  0.11231609599E+03 -0.52669015438E+00  0.31712484075E+03  0.37784566616E+03  0.17200000000E+03 0. -1.
         -6    1    1    2    0  502 -0.11231609599E+03  0.52669015438E+00  0.47805987540E+03  0.52032723097E+03  0.17200000000E+03 0. -1.
</event>
<event>
 4    1  0.1244074E+000  0.1722766E+03  0.7818608E-02  0.1175494E+00
         21   -1    0    0  501  502  0.00000000000E+00  0.00000000000E+00  0.12555313177E+03  0.12555313177E+03  0.00000000000E+00 0. -1.
         21   -1    0    0  502  503 -0.00000000000E+00 -0.00000000000E+00 -0.27504265904E+03  0.27504265904E+03  0.00000000000E+00 0. -1.
          6    1    1    2  501    0  0.50987499953E+01  0.83213217223E+01 -0.14983402293E+03  0.22831880359E+03  0.17200000000E+03 0. -1.
         -6    1    1    2    0  503 -0.50987499953E+01 -0.83213217223E+01  0.34449566273E+00  0.17227698722E+03  0.17200000000E+03 0. -1.
</event>
<event>
 4    1  0.1244074E+000  0.1931669E+03  0.7818608E-02  0.1155636E+00
         21   -1    0    0  501  502  0.00000000000E+00  0.00000000000E+00  0.10452794946E+03  0.10452794946E+03  0.00000000000E+00 0.  1.
         21   -1    0    0  502  503 -0.00000000000E+00 -0.00000000000E+00 -0.40178813328E+03  0.40178813328E+03  0.00000000000E+00 0.  1.
          6    1    1    2  501    0  0.53503408856E+02 -0.69762726224E+02 -0.64079835520E+02  0.20351824992E+03  0.17200000000E+03 0. -1.
         -6    1    1    2    0  503 -0.53503408856E+02  0.69762726224E+02 -0.23318034830E+03  0.30279783282E+03  0.17200000000E+03 0. -1.
</event>
<event>
 4    1  0.1244074E+000  0.2060439E+03  0.7818608E-02  0.1144738E+00
         21   -1    0    0  501  502  0.00000000000E+00  0.00000000000E+00  0.83221093886E+03  0.83221093886E+03  0.00000000000E+00 0. -1.
         21   -1    0    0  502  503 -0.00000000000E+00 -0.00000000000E+00 -0.52266534051E+02  0.52266534051E+02  0.00000000000E+00 0.  1.
          6    1    1    2  501    0  0.45901362613E+02  0.10374556315E+03  0.45844354204E+03  0.50261770582E+03  0.17200000000E+03 0.  1.
         -6    1    1    2    0  503 -0.45901362613E+02 -0.10374556315E+03  0.32150086276E+03  0.38185976709E+03  0.17200000000E+03 0.  1.
</event>
<event>
 4    1  0.1244074E+000  0.1782983E+03  0.7818608E-02  0.1169460E+00
         21   -1    0    0  501  502  0.00000000000E+00  0.00000000000E+00  0.18654150522E+03  0.18654150522E+03  0.00000000000E+00 0. -1.
         21   -1    0    0  502  503 -0.00000000000E+00 -0.00000000000E+00 -0.17718792273E+03  0.17718792273E+03  0.00000000000E+00 0. -1.
          6    1    1    2  501    0  0.57236210379E+01  0.46620951179E+02  0.40222035878E+02  0.18277878733E+03  0.17200000000E+03 0. -1.
         -6    1    1    2    0  503 -0.57236210379E+01 -0.46620951179E+02 -0.30868453386E+02  0.18095064062E+03  0.17200000000E+03 0. -1.
</event>
<event>
 4    1  0.1244074E+000  0.1918971E+03  0.7818608E-02  0.1156761E+00
         21   -1    0    0  503  502  0.00000000000E+00  0.00000000000E+00  0.84403449301E+03  0.84403449301E+03  0.00000000000E+00 0. -1.
         21   -1    0    0  501  503 -0.00000000000E+00 -0.00000000000E+00 -0.50073787511E+02  0.50073787511E+02  0.00000000000E+00 0. -1.
          6    1    1    2  501    0  0.56093092204E+02  0.63984928017E+02  0.55736182925E+03  0.58947155547E+03  0.17200000000E+03 0. -1.
         -6    1    1    2    0  502 -0.56093092204E+02 -0.63984928017E+02  0.23659887625E+03  0.30463672505E+03  0.17200000000E+03 0. -1.
</event>
<event>
 4    1  0.1244074E+000  0.3076716E+03  0.7818608E-02  0.1081467E+00
         21   -1    0    0  503  502  0.00000000000E+00  0.00000000000E+00  0.69940786542E+03  0.69940786542E+03  0.00000000000E+00 0. -1.
         21   -1    0    0  501  503 -0.00000000000E+00 -0.00000000000E+00 -0.15207359775E+03  0.15207359775E+03  0.00000000000E+00 0.  1.
          6    1    1    2  501    0 -0.18426074874E+03 -0.17642507807E+03  0.13246564992E+03  0.33497608886E+03  0.17200000000E+03 0. -1.
         -6    1    1    2    0  502  0.18426074874E+03  0.17642507807E+03  0.41486861775E+03  0.51650537431E+03  0.17200000000E+03 0. -1.
</event>
<event>
 4    1  0.1244074E+000  0.2727138E+03  0.7818608E-02  0.1099736E+00
         21   -1    0    0  501  502  0.00000000000E+00  0.00000000000E+00  0.96652597416E+02  0.96652597416E+02  0.00000000000E+00 0. -1.
         21   -1    0    0  502  503 -0.00000000000E+00 -0.00000000000E+00 -0.11732022460E+04  0.11732022460E+04  0.00000000000E+00 0.  1.
          6    1    1    2  501    0 -0.17193390599E+03 -0.12340001930E+03 -0.16581821406E+03  0.31916847104E+03  0.17200000000E+03 0.  1.
         -6    1    1    2    0  503  0.17193390599E+03  0.12340001930E+03 -0.91073143448E+03  0.95068637233E+03  0.17200000000E+03 0.  1.
</event>
<event>
 4    1  0.1244074E+000  0.1815090E+03  0.7818608E-02  0.1166351E+00
         21   -1    0    0  501  502  0.00000000000E+00  0.00000000000E+00  0.12295865307E+03  0.12295865307E+03  0.00000000000E+00 0. -1.
         21   -1    0    0  502  503 -0.00000000000E+00 -0.00000000000E+00 -0.32978955645E+03  0.32978955645E+03  0.00000000000E+00 0.  1.
          6    1    1    2  501    0  0.42673791854E+02  0.39248637601E+02 -0.53812659281E+01  0.18158872787E+03  0.17200000000E+03 0. -1.
         -6    1    1    2    0  503 -0.42673791854E+02 -0.39248637601E+02 -0.20144963744E+03  0.27115948165E+03  0.17200000000E+03 0.  1.
</event>
<event>
 4    1  0.1244074E+000  0.1747276E+03  0.7818608E-02  0.1173005E+00
         21   -1    0    0  503  502  0.00000000000E+00  0.00000000000E+00  0.32999643431E+03  0.32999643431E+03  0.00000000000E+00 0.  1.
         21   -1    0    0  501  503 -0.00000000000E+00 -0.00000000000E+00 -0.13608336509E+03  0.13608336509E+03  0.00000000000E+00 0.  1.
          6    1    1    2  501    0 -0.30718464186E+02 -0.14529201168E+01 -0.34903037146E+02  0.17817956398E+03  0.17200000000E+03 0.  1.
         -6    1    1    2    0  502  0.30718464186E+02  0.14529201168E+01  0.22881610637E+03  0.28790023542E+03  0.17200000000E+03 0.  1.
</event>
<event>
 4    1  0.1244074E+000  0.1823545E+03  0.7818608E-02  0.1165544E+00
         21   -1    0    0  501  502  0.00000000000E+00  0.00000000000E+00  0.21487410918E+03  0.21487410918E+03  0.00000000000E+00 0. -1.
         21   -1    0    0  502  503 -0.00000000000E+00 -0.00000000000E+00 -0.19476411925E+03  0.19476411925E+03  0.00000000000E+00 0. -1.
          6    1    1    2  501    0 -0.59896334274E+01  0.60276729816E+02  0.10288481186E+03  0.20937632239E+03  0.17200000000E+03 0. -1.
         -6    1    1    2    0  503  0.59896334274E+01 -0.60276729816E+02 -0.82774821927E+02  0.20026190604E+03  0.17200000000E+03 0. -1.
</event>
<event>
 4    1  0.1244074E+000  0.1828950E+03  0.7818608E-02  0.1165030E+00
         21   -1    0    0  501  502  0.00000000000E+00  0.00000000000E+00  0.19520839720E+03  0.19520839720E+03  0.00000000000E+00 0.  1.
         21   -1    0    0  502  503 -0.00000000000E+00 -0.00000000000E+00 -0.18008137258E+03  0.18008137258E+03  0.00000000000E+00 0.  1.
          6    1    1    2  501    0 -0.21850852446E+02 -0.58216197495E+02  0.48862201931E+02  0.18930953537E+03  0.17200000000E+03 0.  1.
         -6    1    1    2    0  503  0.21850852446E+02  0.58216197495E+02 -0.33735177317E+02  0.18598023441E+03  0.17200000000E+03 0.  1.
</event>
<event>
 4    1  0.1244074E+000  0.1744743E+03  0.7818608E-02  0.1173261E+00
         21   -1    0    0  503  502  0.00000000000E+00  0.00000000000E+00  0.62336186514E+02  0.62336186514E+02  0.00000000000E+00 0.  1.
         21   -1    0    0  501  503 -0.00000000000E+00 -0.00000000000E+00 -0.48842204511E+03  0.48842204511E+03  0.00000000000E+00 0.  1.
          6    1    1    2  501    0 -0.70780502119E+01 -0.28410665365E+02 -0.21660806500E+03  0.27813722966E+03  0.17200000000E+03 0.  1.
         -6    1    1    2    0  502  0.70780502119E+01  0.28410665365E+02 -0.20947779360E+03  0.27262100197E+03  0.17200000000E+03 0.  1.
</event>
<event>
 4    1  0.1244074E+000  0.1884915E+03  0.7818608E-02  0.1159829E+00
         21   -1    0    0  501  502  0.00000000000E+00  0.00000000000E+00  0.12036879562E+03  0.12036879562E+03  0.00000000000E+00 0.  1.
         21   -1    0    0  502  503 -0.00000000000E+00 -0.00000000000E+00 -0.34136228051E+03  0.34136228051E+03  0.00000000000E+00 0. -1.
          6    1    1    2  501    0 -0.69153973335E+02 -0.34099480972E+02 -0.25570036929E+02  0.19021796292E+03  0.17200000000E+03 0.  1.
         -6    1    1    2    0  503  0.69153973335E+02  0.34099480972E+02 -0.19542344797E+03  0.27151311321E+03  0.17200000000E+03 0. -1.
</event>
<event>
 4    1  0.1244074E+000  0.1897618E+03  0.7818608E-02  0.1158676E+00
         21   -1    0    0  503  502  0.00000000000E+00  0.00000000000E+00  0.45544513543E+02  0.45544513543E+02  0.00000000000E+00 0.  1.
         21   -1    0    0  501  503 -0.00000000000E+00 -0.00000000000E+00 -0.12229384535E+04  0.12229384535E+04  0.00000000000E+00 0.  1.
          6    1    1    2  501    0 -0.84635466984E+01  0.79711391003E+02 -0.96578411031E+03  0.98425021474E+03  0.17200000000E+03 0.  1.
         -6    1    1    2    0  502  0.84635466984E+01 -0.79711391003E+02 -0.21160982963E+03  0.28423275229E+03  0.17200000000E+03 0.  1.
</event>
<event>
 4    1  0.1244074E+000  0.2654256E+03  0.7818608E-02  0.1103927E+00
         21   -1    0    0  501  502  0.00000000000E+00  0.00000000000E+00  0.45016982236E+02  0.45016982236E+02  0.00000000000E+00 0.  1.
         21   -1    0    0  502  503 -0.00000000000E+00 -0.00000000000E+00 -0.23722415949E+04  0.23722415949E+04  0.00000000000E+00 0. -1.
          6    1    1    2  501    0 -0.10844353309E+03 -0.17060695133E+03 -0.45856140194E+03  0.52983892936E+03  0.17200000000E+03 0.  1.
         -6    1    1    2    0  503  0.10844353309E+03  0.17060695133E+03 -0.18686632107E+04  0.18874196478E+04  0.17200000000E+03 0.  1.
</event>
<event>
 4    1  0.1244074E+000  0.1726601E+03  0.7818608E-02  0.1175102E+00
         21   -1    0    0  503  502  0.00000000000E+00  0.00000000000E+00  0.12346052358E+03  0.12346052358E+03  0.00000000000E+00 0.  1.
         21   -1    0    0  501  503 -0.00000000000E+00 -0.00000000000E+00 -0.24484458491E+03  0.24484458491E+03  0.00000000000E+00 0.  1.
          6    1    1    2  501    0 -0.51573981037E+00 -0.15074965735E+02 -0.82324145572E+02  0.19128195295E+03  0.17200000000E+03 0.  1.
         -6    1    1    2    0  502  0.51573981037E+00  0.15074965735E+02 -0.39059915761E+02  0.17702315554E+03  0.17200000000E+03 0.  1.
</event>
<event>
 4    1  0.1244074E+000  0.1921629E+03  0.7818608E-02  0.1156525E+00
         21   -1    0    0  503  502  0.00000000000E+00  0.00000000000E+00  0.14735601389E+03  0.14735601389E+03  0.00000000000E+00 0. -1.
         21   -1    0    0  501  503 -0.00000000000E+00 -0.00000000000E+00 -0.36658179052E+03  0.36658179052E+03  0.00000000000E+00 0.  1.
          6    1    1    2  501    0  0.79146560013E+02 -0.32839260996E+02 -0.25415702319E+03  0.31862577965E+03  0.17200000000E+03 0.  1.
         -6    1    1    2    0  502 -0.79146560013E+02  0.32839260996E+02  0.34931246558E+02  0.19531202475E+03  0.17200000000E+03 0. -1.
</event>
<event>
 4    1  0.1244074E+000  0.1961494E+03  0.7818608E-02  0.1153029E+00
         21   -1    0    0  503  502  0.00000000000E+00  0.00000000000E+00  0.15990602134E+04  0.15990602134E+04  0.00000000000E+00 0. -1.
         21   -1    0    0  501  503 -0.00000000000E+00 -0.00000000000E+00 -0.51737691938E+02  0.51737691938E+02  0.00000000000E+00 0. -1.
          6    1    1    2  501    0 -0.65542917936E+02  0.67784236825E+02  0.16996359812E+03  0.25954229239E+03  0.17200000000E+03 0. -1.
         -6    1    1    2    0  502  0.65542917936E+02 -0.67784236825E+02  0.13773589233E+04  0.13912556130E+04  0.17200000000E+03 0. -1.
</event>
<event>
 4    1  0.1244074E+000  0.2984304E+03  0.7818608E-02  0.1086028E+00
         21   -1    0    0  501  502  0.00000000000E+00  0.00000000000E+00  0.20553683957E+03  0.20553683957E+03  0.00000000000E+00 0. -1.
         21   -1    0    0  502  503 -0.00000000000E+00 -0.00000000000E+00 -0.43744383242E+03  0.43744383242E+03  0.00000000000E+00 0. -1.
          6    1    1    2  501    0 -0.13134998472E+03 -0.20548456570E+03 -0.14721402565E+03  0.33276522441E+03  0.17200000000E+03 0. -1.
         -6    1    1    2    0  503  0.13134998472E+03  0.20548456570E+03 -0.84692967198E+02  0.31021544758E+03  0.17200000000E+03 0. -1.
</event>
<event>
 4    1  0.1244074E+000  0.1876926E+03  0.7818608E-02  0.1160559E+00
         21   -1    0    0  501  502  0.00000000000E+00  0.00000000000E+00  0.18589455264E+03  0.18589455264E+03  0.00000000000E+00 0.  1.
         21   -1    0    0  502  503 -0.00000000000E+00 -0.00000000000E+00 -0.19790258831E+03  0.19790258831E+03  0.00000000000E+00 0.  1.
          6    1    1    2  501    0 -0.30069440107E+02 -0.68850070566E+02  0.33518618242E+02  0.19066200779E+03  0.17200000000E+03 0.  1.
         -6    1    1    2    0  503  0.30069440107E+02  0.68850070566E+02 -0.45526653910E+02  0.19313513316E+03  0.17200000000E+03 0.  1.
</event>
<event>
 4    1  0.1244074E+000  0.1770829E+03  0.7818608E-02  0.1170656E+00
         21   -1    0    0  501  502  0.00000000000E+00  0.00000000000E+00  0.15711202972E+04  0.15711202972E+04  0.00000000000E+00 0. -1.
         21   -1    0    0  502  503 -0.00000000000E+00 -0.00000000000E+00 -0.22225320715E+02  0.22225320715E+02  0.00000000000E+00 0. -1.
          6    1    1    2  501    0 -0.18293956630E+02 -0.37943064513E+02  0.10288345451E+04  0.10439630579E+04  0.17200000000E+03 0. -1.
         -6    1    1    2    0  503  0.18293956630E+02  0.37943064513E+02  0.52006043136E+03  0.54938256002E+03  0.17200000000E+03 0. -1.
</event>
<event>
 4    1  0.1244074E+000  0.2042692E+03  0.7818608E-02  0.1146186E+00
         21   -1    0    0  501  502  0.00000000000E+00  0.00000000000E+00  0.28291670548E+03  0.28291670548E+03  0.00000000000E+00 0. -1.
         21   -1    0    0  502  503 -0.00000000000E+00 -0.00000000000E+00 -0.20955976180E+03  0.20955976180E+03  0.00000000000E+00 0. -1.
          6    1    1    2  501    0  0.57763957563E+02 -0.93836115391E+02  0.17069551947E+03  0.26620077331E+03  0.17200000000E+03 0.  1.
         -6    1    1    2    0  503 -0.57763957563E+02  0.93836115391E+02 -0.97338575793E+02  0.22627569397E+03  0.17200000000E+03 0.  1.
</event>
<event>
 4    1  0.1244074E+000  0.1793677E+03  0.7818608E-02  0.1168416E+00
         21   -1    0    0  503  502  0.00000000000E+00  0.00000000000E+00  0.62663124040E+03  0.62663124040E+03  0.00000000000E+00 0.  1.
         21   -1    0    0  501  503 -0.00000000000E+00 -0.00000000000E+00 -0.82134257180E+02  0.82134257180E+02  0.00000000000E+00 0.  1.
          6    1    1    2  501    0  0.14900250307E+02  0.48649340933E+02  0.55264308751E+02  0.18768835780E+03  0.17200000000E+03 0.  1.
         -6    1    1    2    0  502 -0.14900250307E+02 -0.48649340933E+02  0.48923267447E+03  0.52107713978E+03  0.17200000000E+03 0.  1.
</event>
<event>
 4    1  0.1244074E+000  0.1727866E+03  0.7818608E-02  0.1174973E+00
         21   -1    0    0  503  502  0.00000000000E+00  0.00000000000E+00  0.17623899725E+02  0.17623899725E+02  0.00000000000E+00 0. -1.
         21   -1    0    0  501  503 -0.00000000000E+00 -0.00000000000E+00 -0.16943069573E+04  0.16943069573E+04  0.00000000000E+00 0. -1.
          6    1    1    2  501    0  0.23070216165E+01  0.16306347948E+02 -0.82718073539E+03  0.84503443027E+03  0.17200000000E+03 0. -1.
         -6    1    1    2    0  502 -0.23070216165E+01 -0.16306347948E+02 -0.84950232217E+03  0.86689642675E+03  0.17200000000E+03 0. -1.
</event>
<event>
 4    1  0.1244074E+000  0.3202666E+03  0.7818608E-02  0.1075527E+00
         21   -1    0    0  503  502  0.00000000000E+00  0.00000000000E+00  0.56335348201E+03  0.56335348201E+03  0.00000000000E+00 0.  1.
         21   -1    0    0  501  503 -0.00000000000E+00 -0.00000000000E+00 -0.10309595920E+04  0.10309595920E+04  0.00000000000E+00 0. -1.
          6    1    1    2  501    0 -0.18439367363E+03  0.19744795721E+03 -0.95715218120E+03  0.10093121522E+04  0.17200000000E+03 0. -1.
         -6    1    1    2    0  502  0.18439367363E+03 -0.19744795721E+03  0.48954607118E+03  0.58500092179E+03  0.17200000000E+03 0.  1.
</event>
<event>
 4    1  0.1244074E+000  0.1742401E+03  0.7818608E-02  0.1173497E+00
         21   -1    0    0  501  502  0.00000000000E+00  0.00000000000E+00  0.59679447769E+03  0.59679447769E+03  0.00000000000E+00 0. -1.
         21   -1    0    0  502  503 -0.00000000000E+00 -0.00000000000E+00 -0.54942272181E+02  0.54942272181E+02  0.00000000000E+00 0. -1.
          6    1    1    2  501    0 -0.16607418744E+02  0.22356634390E+02  0.35963059448E+03  0.39961705412E+03  0.17200000000E+03 0. -1.
         -6    1    1    2    0  503  0.16607418744E+02 -0.22356634390E+02  0.18222161103E+03  0.25211969575E+03  0.17200000000E+03 0. -1.
</event>
<event>
 4    1  0.1244074E+000  0.2851327E+03  0.7818608E-02  0.1092918E+00
         21   -1    0    0  501  502  0.00000000000E+00  0.00000000000E+00  0.72273060736E+03  0.72273060736E+03  0.00000000000E+00 0.  1.
         21   -1    0    0  502  503 -0.00000000000E+00 -0.00000000000E+00 -0.12833008164E+03  0.12833008164E+03  0.00000000000E+00 0.  1.
          6    1    1    2  501    0  0.18698661672E+03 -0.12943209079E+03  0.14770348730E+03  0.32111832884E+03  0.17200000000E+03 0.  1.
         -6    1    1    2    0  503 -0.18698661672E+03  0.12943209079E+03  0.44669703841E+03  0.52994236016E+03  0.17200000000E+03 0.  1.
</event>
<event>
 4    1  0.1244074E+000  0.1802156E+03  0.7818608E-02  0.1167595E+00
         21   -1    0    0  503  502  0.00000000000E+00  0.00000000000E+00  0.33433367932E+02  0.33433367932E+02  0.00000000000E+00 0.  1.
         21   -1    0    0  501  503 -0.00000000000E+00 -0.00000000000E+00 -0.18835870981E+04  0.18835870981E+04  0.00000000000E+00 0.  1.
          6    1    1    2  501    0  0.53776197031E+02  0.13398943810E+01 -0.15921021471E+04  0.16022693037E+04  0.17200000000E+03 0.  1.
         -6    1    1    2    0  502 -0.53776197031E+02 -0.13398943810E+01 -0.25805158307E+03  0.31475116236E+03  0.17200000000E+03 0.  1.
</event>
<event>
 4    1  0.1244074E+000  0.1724606E+03  0.7818608E-02  0.1175306E+00
         21   -1    0    0  501  502  0.00000000000E+00  0.00000000000E+00  0.16830476038E+03  0.16830476038E+03  0.00000000000E+00 0.  1.
         21   -1    0    0  502  503 -0.00000000000E+00 -0.00000000000E+00 -0.40197463180E+03  0.40197463180E+03  0.00000000000E+00 0.  1.
          6    1    1    2  501    0 -0.12441286433E+02  0.19659578086E+01  0.96615073989E+02  0.19767934419E+03  0.17200000000E+03 0.  1.
         -6    1    1    2    0  503  0.12441286433E+02 -0.19659578086E+01 -0.33028494540E+03  0.37260004799E+03  0.17200000000E+03 0.  1.
</event>
<event>
 4    1  0.1244074E+000  0.2284343E+03  0.7818608E-02  0.1127747E+00
         21   -1    0    0  501  502  0.00000000000E+00  0.00000000000E+00  0.53782854739E+03  0.53782854739E+03  0.00000000000E+00 0.  1.
         21   -1    0    0  502  503 -0.00000000000E+00 -0.00000000000E+00 -0.37170001438E+03  0.37170001438E+03  0.00000000000E+00 0.  1.
          6    1    1    2  501    0 -0.80479504943E+02  0.12696968542E+03 -0.30786705061E+03  0.38335932567E+03  0.17200000000E+03 0.  1.
         -6    1    1    2    0  503  0.80479504943E+02 -0.12696968542E+03  0.47399558361E+03  0.52616923609E+03  0.17200000000E+03 0.  1.
</event>
<event>
 4    1  0.1244074E+000  0.2009671E+03  0.7818608E-02  0.1148926E+00
         21   -1    0    0  501  502  0.00000000000E+00  0.00000000000E+00  0.22776480867E+03  0.22776480867E+03  0.00000000000E+00 0. -1.
         21   -1    0    0  502  503 -0.00000000000E+00 -0.00000000000E+00 -0.22843182326E+03  0.22843182326E+03  0.00000000000E+00 0. -1.
          6    1    1    2  501    0  0.60155500508E+02  0.84764987302E+02  0.10755981081E+03  0.22794056290E+03  0.17200000000E+03 0. -1.
         -6    1    1    2    0  503 -0.60155500508E+02 -0.84764987302E+02 -0.10822682540E+03  0.22825606903E+03  0.17200000000E+03 0. -1.
</event>
<event>
 4    1  0.1244074E+000  0.2543452E+03  0.7818608E-02  0.1110589E+00
         21   -1    0    0  501  502  0.00000000000E+00  0.00000000000E+00  0.27235316113E+03  0.27235316113E+03  0.00000000000E+00 0. -1.
         21   -1    0    0  502  503 -0.00000000000E+00 -0.00000000000E+00 -0.29720409580E+03  0.29720409580E+03  0.00000000000E+00 0. -1.
          6    1    1    2  501    0 -0.53674269273E+02 -0.17951753205E+03  0.11518332635E+03  0.27921079880E+03  0.17200000000E+03 0. -1.
         -6    1    1    2    0  503  0.53674269273E+02  0.17951753205E+03 -0.14003426102E+03  0.29034645814E+03  0.17200000000E+03 0. -1.
</event>
<event>
 4    1  0.1244074E+000  0.2731676E+03  0.7818608E-02  0.1099480E+00
         21   -1    0    0  503  502  0.00000000000E+00  0.00000000000E+00  0.22648511585E+03  0.22648511585E+03  0.00000000000E+00 0. -1.
         21   -1    0    0  501  503 -0.00000000000E+00 -0.00000000000E+00 -0.46476452809E+03  0.46476452809E+03  0.00000000000E+00 0. -1.
          6    1    1    2  501    0 -0.17819500471E+03  0.11525224529E+03 -0.30561662773E+03  0.40990494373E+03  0.17200000000E+03 0. -1.
         -6    1    1    2    0  502  0.17819500471E+03 -0.11525224529E+03  0.67337215497E+02  0.28134470021E+03  0.17200000000E+03 0. -1.
</event>
<event>
 4    1  0.1244074E+000  0.2041385E+03  0.7818608E-02  0.1146294E+00
         21   -1    0    0  503  502  0.00000000000E+00  0.00000000000E+00  0.18500970619E+02  0.18500970619E+02  0.00000000000E+00 0.  1.
         21   -1    0    0  501  503 -0.00000000000E+00 -0.00000000000E+00 -0.22927687364E+04  0.22927687364E+04  0.00000000000E+00 0.  1.
          6    1    1    2  501    0  0.74000929864E+02 -0.81316542109E+02 -0.98388683838E+03  0.10048411956E+04  0.17200000000E+03 0. -1.
         -6    1    1    2    0  502 -0.74000929864E+02  0.81316542109E+02 -0.12903809274E+04  0.13064285114E+04  0.17200000000E+03 0. -1.
</event>
<event>
 4    1  0.1244074E+000  0.2040121E+03  0.7818608E-02  0.1146397E+00
         21   -1    0    0  503  502  0.00000000000E+00  0.00000000000E+00  0.11443002800E+04  0.11443002800E+04  0.00000000000E+00 0. -1.
         21   -1    0    0  501  503 -0.00000000000E+00 -0.00000000000E+00 -0.42952829074E+02  0.42952829074E+02  0.00000000000E+00 0.  1.
          6    1    1    2  501    0 -0.36758862311E+02 -0.10337175062E+03  0.78302494896E+03  0.80916562179E+03  0.17200000000E+03 0. -1.
         -6    1    1    2    0  502  0.36758862311E+02  0.10337175062E+03  0.31832250196E+03  0.37808748728E+03  0.17200000000E+03 0.  1.
</event>
<event>
 4    1  0.1244074E+000  0.2070045E+03  0.7818608E-02  0.1143960E+00
         21   -1    0    0  501  502  0.00000000000E+00  0.00000000000E+00  0.78391670053E+02  0.78391670053E+02  0.00000000000E+00 0.  1.
         21   -1    0    0  502  503 -0.00000000000E+00 -0.00000000000E+00 -0.54960595217E+03  0.54960595217E+03  0.00000000000E+00 0.  1.
          6    1    1    2  501    0 -0.10690459008E+03 -0.42874846916E+02 -0.25873217417E+03  0.33135054222E+03  0.17200000000E+03 0.  1.
         -6    1    1    2    0  503  0.10690459008E+03  0.42874846916E+02 -0.21248210794E+03  0.29664708000E+03  0.17200000000E+03 0.  1.
</event>
<event>
 4    1  0.1244074E+000  0.1936572E+03  0.7818608E-02  0.1155204E+00
         21   -1    0    0  501  502  0.00000000000E+00  0.00000000000E+00  0.11039551678E+04  0.11039551678E+04  0.00000000000E+00 0.  1.
         21   -1    0    0  502  503 -0.00000000000E+00 -0.00000000000E+00 -0.97034670984E+02  0.97034670984E+02  0.00000000000E+00 0.  1.
          6    1    1    2  501    0 -0.76380034273E+02  0.45663857675E+02  0.98755849208E+03  0.10063671660E+04  0.17200000000E+03 0.  1.
         -6    1    1    2    0  503  0.76380034273E+02 -0.45663857675E+02  0.19362004738E+02  0.19462267278E+03  0.17200000000E+03 0.  1.
</event>
<event>
 4    1  0.1244074E+000  0.1819508E+03  0.7818608E-02  0.1165928E+00
         21   -1    0    0  501  502  0.00000000000E+00  0.00000000000E+00  0.20618262360E+03  0.20618262360E+03  0.00000000000E+00 0.  1.
         21   -1    0    0  502  503 -0.00000000000E+00 -0.00000000000E+00 -0.17577430905E+03  0.17577430905E+03  0.00000000000E+00 0.  1.
          6    1    1    2  501    0 -0.15879217052E+02  0.57183375480E+02  0.71378173425E+02  0.19545058610E+03  0.17200000000E+03 0.  1.
         -6    1    1    2    0  503  0.15879217052E+02 -0.57183375480E+02 -0.40969858878E+02  0.18650634655E+03  0.17200000000E+03 0.  1.
</event>
<event>
 4    1  0.1244074E+000  0.2482276E+03  0.7818608E-02  0.1114430E+00
         21   -1    0    0  501  502  0.00000000000E+00  0.00000000000E+00  0.13868745728E+03  0.13868745728E+03  0.00000000000E+00 0.  1.
         21   -1    0    0  502  503 -0.00000000000E+00 -0.00000000000E+00 -0.54775056058E+03  0.54775056058E+03  0.00000000000E+00 0.  1.
          6    1    1    2  501    0  0.63774458582E+02 -0.16722969277E+03 -0.55363822634E+02  0.25432676731E+03  0.17200000000E+03 0. -1.
         -6    1    1    2    0  503 -0.63774458582E+02  0.16722969277E+03 -0.35369928066E+03  0.43211125055E+03  0.17200000000E+03 0. -1.
</event>
<event>
 4    1  0.1244074E+000  0.1770478E+03  0.7818608E-02  0.1170691E+00
         21   -1    0    0  501  502  0.00000000000E+00  0.00000000000E+00  0.11804976271E+03  0.11804976271E+03  0.00000000000E+00 0.  1.
         21   -1    0    0  502  503 -0.00000000000E+00 -0.00000000000E+00 -0.74201994564E+03  0.74201994564E+03  0.00000000000E+00 0.  1.
          6    1    1    2  501    0 -0.17627327835E+02 -0.38094576601E+02  0.32620322809E+02  0.18002778928E+03  0.17200000000E+03 0.  1.
         -6    1    1    2    0  503  0.17627327835E+02  0.38094576601E+02 -0.65659050574E+03  0.68004191906E+03  0.17200000000E+03 0.  1.
</event>
<event>
 4    1  0.1244074E+000  0.1753800E+03  0.7818608E-02  0.1172351E+00
         21   -1    0    0  501  502  0.00000000000E+00  0.00000000000E+00  0.46030696847E+03  0.46030696847E+03  0.00000000000E+00 0.  1.
         21   -1    0    0  502  503 -0.00000000000E+00 -0.00000000000E+00 -0.15256839122E+03  0.15256839122E+03  0.00000000000E+00 0.  1.
          6    1    1    2  501    0  0.30840847833E+02  0.14933048990E+02  0.38360073114E+03  0.42179103212E+03  0.17200000000E+03 0.  1.
         -6    1    1    2    0  503 -0.30840847833E+02 -0.14933048990E+02 -0.75862153890E+02  0.19108432756E+03  0.17200000000E+03 0.  1.
</event>
<event>
 4    1  0.1244074E+000  0.3827770E+03  0.7818608E-02  0.1049912E+00
         21   -1    0    0  501  502  0.00000000000E+00  0.00000000000E+00  0.10849910606E+04  0.10849910606E+04  0.00000000000E+00 0.  1.
         21   -1    0    0  502  503 -0.00000000000E+00 -0.00000000000E+00 -0.16575143024E+03  0.16575143024E+03  0.00000000000E+00 0. -1.
          6    1    1    2  501    0 -0.28625984198E+03  0.18705496493E+03  0.72880574260E+03  0.82321082809E+03  0.17200000000E+03 0.  1.
         -6    1    1    2    0  503  0.28625984198E+03 -0.18705496493E+03  0.19043388773E+03  0.42753166272E+03  0.17200000000E+03 0. -1.
</event>
<event>
 4    1  0.1244074E+000  0.2711856E+03  0.7818608E-02  0.1100603E+00
         21   -1    0    0  503  502  0.00000000000E+00  0.00000000000E+00  0.39398711527E+03  0.39398711527E+03  0.00000000000E+00 0.  1.
         21   -1    0    0  501  503 -0.00000000000E+00 -0.00000000000E+00 -0.22786755927E+03  0.22786755927E+03  0.00000000000E+00 0.  1.
          6    1    1    2  501    0  0.76704431761E+02  0.19512569358E+03 -0.49163064224E+02  0.27560590166E+03  0.17200000000E+03 0.  1.
         -6    1    1    2    0  502 -0.76704431761E+02 -0.19512569358E+03  0.21528262022E+03  0.34624877288E+03  0.17200000000E+03 0.  1.
</event>
<event>
 4    1  0.1244074E+000  0.2001985E+03  0.7818608E-02  0.1149572E+00
         21   -1    0    0  501  502  0.00000000000E+00  0.00000000000E+00  0.37119072536E+03  0.37119072536E+03  0.00000000000E+00 0.  1.
         21   -1    0    0  502  503 -0.00000000000E+00 -0.00000000000E+00 -0.11130240971E+03  0.11130240971E+03  0.00000000000E+00 0.  1.
          6    1    1    2  501    0  0.70904270284E+02  0.73946111049E+02  0.17165415329E+03  0.26371308505E+03  0.17200000000E+03 0.  1.
         -6    1    1    2    0  503 -0.70904270284E+02 -0.73946111049E+02  0.88234162363E+02  0.21878005003E+03  0.17200000000E+03 0.  1.
</event>
<event>
 4    1  0.1244074E+000  0.1810046E+03  0.7818608E-02  0.1166834E+00
         21   -1    0    0  501  502  0.00000000000E+00  0.00000000000E+00  0.20331447862E+03  0.20331447862E+03  0.00000000000E+00 0.  1.
         21   -1    0    0  502  503 -0.00000000000E+00 -0.00000000000E+00 -0.16624907066E+03  0.16624907066E+03  0.00000000000E+00 0.  1.
          6    1    1    2  501    0  0.29000891678E+02 -0.48349013142E+02  0.50916549501E+02  0.18802971521E+03  0.17200000000E+03 0. -1.
         -6    1    1    2    0  503 -0.29000891678E+02  0.48349013142E+02 -0.13851141540E+02  0.18153383407E+03  0.17200000000E+03 0. -1.
</event>
<event>
 4    1  0.1244074E+000  0.2051229E+03  0.7818608E-02  0.1145487E+00
         21   -1    0    0  503  502  0.00000000000E+00  0.00000000000E+00  0.87632202019E+02  0.87632202019E+02  0.00000000000E+00 0.  1.
         21   -1    0    0  501  503 -0.00000000000E+00 -0.00000000000E+00 -0.70507992365E+03  0.70507992365E+03  0.00000000000E+00 0. -1.
          6    1    1    2  501    0  0.13536005469E+02  0.11094232631E+03 -0.53259748648E+03  0.57073242926E+03  0.17200000000E+03 0.  1.
         -6    1    1    2    0  502 -0.13536005469E+02 -0.11094232631E+03 -0.84850235157E+02  0.22197969641E+03  0.17200000000E+03 0.  1.
</event>
<event>
 4    1  0.1244074E+000  0.3290238E+03  0.7818608E-02  0.1071570E+00
         21   -1    0    0  501  502  0.00000000000E+00  0.00000000000E+00  0.82649806977E+03  0.82649806977E+03  0.00000000000E+00 0. -1.
         21   -1    0    0  502  503 -0.00000000000E+00 -0.00000000000E+00 -0.13526512608E+03  0.13526512608E+03  0.00000000000E+00 0.  1.
          6    1    1    2  501    0  0.12517840021E+03 -0.25100404024E+03  0.43118378229E+03  0.54238004592E+03  0.17200000000E+03 0.  1.
         -6    1    1    2    0  503 -0.12517840021E+03  0.25100404024E+03  0.26004916141E+03  0.41938314993E+03  0.17200000000E+03 0.  1.
</event>
<event>
 4    1  0.1244074E+000  0.1991181E+03  0.7818608E-02  0.1150485E+00
         21   -1    0    0  503  502  0.00000000000E+00  0.00000000000E+00  0.97608147540E+02  0.97608147540E+02  0.00000000000E+00 0. -1.
         21   -1    0    0  501  503 -0.00000000000E+00 -0.00000000000E+00 -0.42213916949E+03  0.42213916949E+03  0.00000000000E+00 0. -1.
          6    1    1    2  501    0  0.72172032124E+02 -0.69679236854E+02 -0.21276970716E+03  0.29140855608E+03  0.17200000000E+03 0.  1.
         -6    1    1    2    0  502 -0.72172032124E+02  0.69679236854E+02 -0.11176131479E+03  0.22833876095E+03  0.17200000000E+03 0.  1.
</event>
<event>
 4    1  0.1244074E+000  0.1975260E+03  0.7818608E-02  0.1151843E+00
         21   -1    0    0  503  502  0.00000000000E+00  0.00000000000E+00  0.22629153862E+04  0.22629153862E+04  0.00000000000E+00 0.  1.
         21   -1    0    0  501  503 -0.00000000000E+00 -0.00000000000E+00 -0.24288254644E+02  0.24288254644E+02  0.00000000000E+00 0.  1.
          6    1    1    2  501    0  0.87950321953E+02 -0.41197877732E+02  0.50333602474E+03  0.54070664695E+03  0.17200000000E+03 0.  1.
         -6    1    1    2    0  502 -0.87950321953E+02  0.41197877732E+02  0.17352911068E+04  0.17464969939E+04  0.17200000000E+03 0.  1.
</event>
<event>
 4    1  0.1244074E+000  0.2549201E+03  0.7818608E-02  0.1110234E+00
         21   -1    0    0  503  502  0.00000000000E+00  0.00000000000E+00  0.59376912466E+03  0.59376912466E+03  0.00000000000E+00 0. -1.
         21   -1    0    0  501  503 -0.00000000000E+00 -0.00000000000E+00 -0.11071035258E+03  0.11071035258E+03  0.00000000000E+00 0. -1.
          6    1    1    2  501    0 -0.15519783515E+03 -0.10636665012E+03  0.20385123054E+03  0.32640397744E+03  0.17200000000E+03 0. -1.
         -6    1    1    2    0  502  0.15519783515E+03  0.10636665012E+03  0.27920754154E+03  0.37807549980E+03  0.17200000000E+03 0. -1.
</event>
<event>
 4    1  0.1244074E+000  0.1788401E+03  0.7818608E-02  0.1168930E+00
         21   -1    0    0  501  502  0.00000000000E+00  0.00000000000E+00  0.11732757940E+03  0.11732757940E+03  0.00000000000E+00 0. -1.
         21   -1    0    0  502  503 -0.00000000000E+00 -0.00000000000E+00 -0.27311935307E+03  0.27311935307E+03  0.00000000000E+00 0. -1.
          6    1    1    2  501    0 -0.14003432445E+02  0.46943595749E+02 -0.86388051790E+02  0.19861191504E+03  0.17200000000E+03 0. -1.
         -6    1    1    2    0  503  0.14003432445E+02 -0.46943595749E+02 -0.69403721886E+02  0.19183501743E+03  0.17200000000E+03 0. -1.
</event>
<event>
 4    1  0.1244074E+000  0.1973754E+03  0.7818608E-02  0.1151972E+00
         21   -1    0    0  503  502  0.00000000000E+00  0.00000000000E+00  0.11397001809E+03  0.11397001809E+03  0.00000000000E+00 0. -1.
         21   -1    0    0  501  503 -0.00000000000E+00 -0.00000000000E+00 -0.34186134695E+03  0.34186134695E+03  0.00000000000E+00 0. -1.
          6    1    1    2  501    0 -0.64223066384E+02  0.72446178311E+02 -0.11139157211E+03  0.22663877282E+03  0.17200000000E+03 0. -1.
         -6    1    1    2    0  502  0.64223066384E+02 -0.72446178311E+02 -0.11649975675E+03  0.22919259222E+03  0.17200000000E+03 0. -1.
</event>
<event>
 4    1  0.1244074E+000  0.1757799E+03  0.7818608E-02  0.1171951E+00
         21   -1    0    0  501  502  0.00000000000E+00  0.00000000000E+00  0.75023212942E+02  0.75023212942E+02  0.00000000000E+00 0. -1.
         21   -1    0    0  502  503 -0.00000000000E+00 -0.00000000000E+00 -0.88161866776E+03  0.88161866776E+03  0.00000000000E+00 0. -1.
          6    1    1    2  501    0  0.34445174486E+02  0.11318524543E+02 -0.54141837212E+02  0.18392911020E+03  0.17200000000E+03 0. -1.
         -6    1    1    2    0  503 -0.34445174486E+02 -0.11318524543E+02 -0.75245361761E+03  0.77271277050E+03  0.17200000000E+03 0. -1.
</event>
<event>
 4    1  0.1244074E+000  0.1722515E+03  0.7818608E-02  0.1175520E+00
         21   -1    0    0  501  502  0.00000000000E+00  0.00000000000E+00  0.44282346073E+03  0.44282346073E+03  0.00000000000E+00 0.  1.
         21   -1    0    0  502  503 -0.00000000000E+00 -0.00000000000E+00 -0.67371395910E+02  0.67371395910E+02  0.00000000000E+00 0.  1.
          6    1    1    2  501    0 -0.78774228739E+01 -0.49535716166E+01  0.20658440074E+03  0.26897528937E+03  0.17200000000E+03 0. -1.
         -6    1    1    2    0  503  0.78774228739E+01  0.49535716166E+01  0.16886766409E+03  0.24121956728E+03  0.17200000000E+03 0. -1.
</event>
<event>
 4    1  0.1244074E+000  0.1813913E+03  0.7818608E-02  0.1166463E+00
         21   -1    0    0  503  502  0.00000000000E+00  0.00000000000E+00  0.69991755292E+03  0.69991755292E+03  0.00000000000E+00 0. -1.
         21   -1    0    0  501  503 -0.00000000000E+00 -0.00000000000E+00 -0.11080312526E+03  0.11080312526E+03  0.00000000000E+00 0. -1.
          6    1    1    2  501    0  0.91935881946E+01 -0.56870859533E+02 -0.13019664027E+02  0.18185798959E+03  0.17200000000E+03 0. -1.
         -6    1    1    2    0  502 -0.91935881946E+01  0.56870859533E+02  0.60213409168E+03  0.62886268859E+03  0.17200000000E+03 0. -1.
</event>
<event>
 4    1  0.1244074E+000  0.2433671E+03  0.7818608E-02  0.1117570E+00
         21   -1    0    0  501  502  0.00000000000E+00  0.00000000000E+00  0.14836163285E+04  0.14836163285E+04  0.00000000000E+00 0. -1.
         21   -1    0    0  502  503 -0.00000000000E+00 -0.00000000000E+00 -0.88841699894E+02  0.88841699894E+02  0.00000000000E+00 0.  1.
          6    1    1    2  501    0  0.12608251462E+03 -0.11724658617E+03  0.12808144484E+04  0.13037304988E+04  0.17200000000E+03 0. -1.
         -6    1    1    2    0  503 -0.12608251462E+03  0.11724658617E+03  0.11396018024E+03  0.26872752955E+03  0.17200000000E+03 0.  1.
</event>
<event>
 4    1  0.1244074E+000  0.1798801E+03  0.7818608E-02  0.1167919E+00
         21   -1    0    0  503  502  0.00000000000E+00  0.00000000000E+00  0.18001936952E+04  0.18001936952E+04  0.00000000000E+00 0. -1.
         21   -1    0    0  501  503 -0.00000000000E+00 -0.00000000000E+00 -0.18099590225E+02  0.18099590225E+02  0.00000000000E+00 0. -1.
          6    1    1    2  501    0 -0.24093434050E+02  0.46822643112E+02  0.81534420256E+03  0.83495091000E+03  0.17200000000E+03 0. -1.
         -6    1    1    2    0  502  0.24093434050E+02 -0.46822643112E+02  0.96674990237E+03  0.98334237538E+03  0.17200000000E+03 0. -1.
</event>
<event>
 4    1  0.1244074E+000  0.2917864E+03  0.7818608E-02  0.1089420E+00
         21   -1    0    0  503  502  0.00000000000E+00  0.00000000000E+00  0.85740288733E+02  0.85740288733E+02  0.00000000000E+00 0. -1.
         21   -1    0    0  501  503 -0.00000000000E+00 -0.00000000000E+00 -0.15092597329E+04  0.15092597329E+04  0.00000000000E+00 0.  1.
          6    1    1    2  501    0  0.21228807746E+03  0.10241630103E+03 -0.11781899183E+04  0.12137836752E+04  0.17200000000E+03 0.  1.
         -6    1    1    2    0  502 -0.21228807746E+03 -0.10241630103E+03 -0.24532952589E+03  0.38121634648E+03  0.17200000000E+03 0. -1.
</event>
<event>
 4    1  0.1244074E+000  0.2368174E+03  0.7818608E-02  0.1121931E+00
         21   -1    0    0  503  502  0.00000000000E+00  0.00000000000E+00  0.53203043127E+02  0.53203043127E+02  0.00000000000E+00 0. -1.
         21   -1    0    0  501  503 -0.00000000000E+00 -0.00000000000E+00 -0.13654709452E+04  0.13654709452E+04  0.00000000000E+00 0. -1.
          6    1    1    2  501    0  0.67565925630E+02 -0.14809902842E+03 -0.99484967836E+03  0.10226477199E+04  0.17200000000E+03 0.  1.
         -6    1    1    2    0  502 -0.67565925630E+02  0.14809902842E+03 -0.31741822372E+03  0.39602626841E+03  0.17200000000E+03 0.  1.
</event>
<event>
 4    1  0.1244074E+000  0.2082457E+03  0.7818608E-02  0.1142963E+00
         21   -1    0    0  503  502  0.00000000000E+00  0.00000000000E+00  0.25443296802E+03  0.25443296802E+03  0.00000000000E+00 0. -1.
         21   -1    0    0  501  503 -0.00000000000E+00 -0.00000000000E+00 -0.17046741301E+03  0.17046741301E+03  0.00000000000E+00 0.  1.
          6    1    1    2  501    0 -0.65522288502E+02 -0.97412100194E+02  0.39434060118E+02  0.21194653253E+03  0.17200000000E+03 0. -1.
         -6    1    1    2    0  502  0.65522288502E+02  0.97412100194E+02  0.44531494888E+02  0.21295384850E+03  0.17200000000E+03 0. -1.
</event>
<event>
 4    1  0.1244074E+000  0.2055878E+03  0.7818608E-02  0.1145108E+00
         21   -1    0    0  501  502  0.00000000000E+00  0.00000000000E+00  0.16727700421E+03  0.16727700421E+03  0.00000000000E+00 0. -1.
         21   -1    0    0  502  503 -0.00000000000E+00 -0.00000000000E+00 -0.32155558489E+03  0.32155558489E+03  0.00000000000E+00 0. -1.
          6    1    1    2  501    0 -0.64748099219E+02 -0.92141290890E+02  0.35985493418E+02  0.20871341494E+03  0.17200000000E+03 0. -1.
         -6    1    1    2    0  503  0.64748099219E+02  0.92141290890E+02 -0.19026407409E+03  0.28011917416E+03  0.17200000000E+03 0. -1.
</event>
<event>
 4    1  0.1244074E+000  0.1787902E+03  0.7818608E-02  0.1168979E+00
         21   -1    0    0  503  502  0.00000000000E+00  0.00000000000E+00  0.71720041749E+03  0.71720041749E+03  0.00000000000E+00 0. -1.
         21   -1    0    0  501  503 -0.00000000000E+00 -0.00000000000E+00 -0.65394090242E+02  0.65394090242E+02  0.00000000000E+00 0. -1.
          6    1    1    2  501    0 -0.42734693303E+02  0.23573035176E+02  0.10509459441E+03  0.20739049104E+03  0.17200000000E+03 0. -1.
         -6    1    1    2    0  502  0.42734693303E+02 -0.23573035176E+02  0.54671173283E+03  0.57520401669E+03  0.17200000000E+03 0. -1.
</event>
<event>
 4    1  0.1244074E+000  0.1738913E+03  0.7818608E-02  0.1173850E+00
         21   -1    0    0  503  502  0.00000000000E+00  0.00000000000E+00  0.54313311307E+02  0.54313311307E+02  0.00000000000E+00 0.  1.
         21   -1    0    0  501  503 -0.00000000000E+00 -0.00000000000E+00 -0.68247079849E+03  0.68247079849E+03  0.00000000000E+00 0.  1.
          6    1    1    2  501    0  0.24671450708E+02 -0.67463633817E+01 -0.47220186697E+03  0.50320254080E+03  0.17200000000E+03 0.  1.
         -6    1    1    2    0  502 -0.24671450708E+02  0.67463633817E+01 -0.15595562022E+03  0.23358156900E+03  0.17200000000E+03 0.  1.
</event>
<event>
 4    1  0.1244074E+000  0.1861269E+03  0.7818608E-02  0.1162002E+00
         21   -1    0    0  503  502  0.00000000000E+00  0.00000000000E+00  0.36894013824E+03  0.36894013824E+03  0.00000000000E+00 0.  1.
         21   -1    0    0  501  503 -0.00000000000E+00 -0.00000000000E+00 -0.11761517853E+03  0.11761517853E+03  0.00000000000E+00 0.  1.
          6    1    1    2  501    0  0.58550102649E+02  0.40387109871E+02  0.23490452969E+03  0.29970547415E+03  0.17200000000E+03 0. -1.
         -6    1    1    2    0  502 -0.58550102649E+02 -0.40387109871E+02  0.16420430022E+02  0.18684984262E+03  0.17200000000E+03 0. -1.
</event>
<event>
 4    1  0.1244074E+000  0.2450376E+03  0.7818608E-02  0.1116482E+00
         21   -1    0    0  503  502  0.00000000000E+00  0.00000000000E+00  0.17450800954E+03  0.17450800954E+03  0.00000000000E+00 0. -1.
         21   -1    0    0  501  503 -0.00000000000E+00 -0.00000000000E+00 -0.38854188134E+03  0.38854188134E+03  0.00000000000E+00 0. -1.
          6    1    1    2  501    0  0.14060992761E+03  0.10338400455E+03 -0.11774917488E+02  0.24532030658E+03  0.17200000000E+03 0. -1.
         -6    1    1    2    0  502 -0.14060992761E+03 -0.10338400455E+03 -0.20225895431E+03  0.31772958430E+03  0.17200000000E+03 0. -1.
</event>
<event>
 4    1  0.1244074E+000  0.2903611E+03  0.7818608E-02  0.1090161E+00
         21   -1    0    0  501  502  0.00000000000E+00  0.00000000000E+00  0.28079977841E+03  0.28079977841E+03  0.00000000000E+00 0.  1.
         21   -1    0    0  502  503 -0.00000000000E+00 -0.00000000000E+00 -0.53249774002E+03  0.53249774002E+03  0.00000000000E+00 0.  1.
          6    1    1    2  501    0  0.22492692750E+02 -0.23285107995E+03  0.14270912757E+03  0.32353584307E+03  0.17200000000E+03 0.  1.
         -6    1    1    2    0  503 -0.22492692750E+02  0.23285107995E+03 -0.39440708917E+03  0.48976167536E+03  0.17200000000E+03 0.  1.
</event>
<event>
 4    1  0.1244074E+000  0.2053114E+03  0.7818608E-02  0.1145334E+00
         21   -1    0    0  503  502  0.00000000000E+00  0.00000000000E+00  0.20029710276E+04  0.20029710276E+04  0.00000000000E+00 0. -1.
         21   -1    0    0  501  503 -0.00000000000E+00 -0.00000000000E+00 -0.28216177768E+02  0.28216177768E+02  0.00000000000E+00 0. -1.
          6    1    1    2  501    0  0.41135788332E+02  0.10429109916E+03  0.47538662039E+03  0.51782740879E+03  0.17200000000E+03 0. -1.
         -6    1    1    2    0  502 -0.41135788332E+02 -0.10429109916E+03  0.14993682294E+04  0.15133597966E+04  0.17200000000E+03 0. -1.
</event>
<event>
 4    1  0.1244074E+000  0.1769380E+03  0.7818608E-02  0.1170800E+00
         21   -1    0    0  501  502  0.00000000000E+00  0.00000000000E+00  0.24859678769E+03  0.24859678769E+03  0.00000000000E+00 0. -1.
         21   -1    0    0  502  503 -0.00000000000E+00 -0.00000000000E+00 -0.15206788250E+03  0.15206788250E+03  0.00000000000E+00 0. -1.
          6    1    1    2  501    0 -0.29096664033E+02  0.29604836846E+02  0.13131167290E+03  0.22034023160E+03  0.17200000000E+03 0. -1.
         -6    1    1    2    0  503  0.29096664033E+02 -0.29604836846E+02 -0.34782767702E+02  0.18032443859E+03  0.17200000000E+03 0. -1.
</event>
<event>
 4    1  0.1244074E+000  0.1895328E+03  0.7818608E-02  0.1158883E+00
         21   -1    0    0  501  502  0.00000000000E+00  0.00000000000E+00  0.36205022647E+02  0.36205022647E+02  0.00000000000E+00 0. -1.
         21   -1    0    0  502  503 -0.00000000000E+00 -0.00000000000E+00 -0.10351052080E+04  0.10351052080E+04  0.00000000000E+00 0. -1.
          6    1    1    2  501    0 -0.56605942483E+02  0.55986164788E+02 -0.39039658427E+03  0.43397255257E+03  0.17200000000E+03 0.  1.
         -6    1    1    2    0  503  0.56605942483E+02 -0.55986164788E+02 -0.60850360111E+03  0.63733767811E+03  0.17200000000E+03 0.  1.
</event>
<event>
 4    1  0.1244074E+000  0.2591905E+03  0.7818608E-02  0.1107631E+00
         21   -1    0    0  503  502  0.00000000000E+00  0.00000000000E+00  0.16788225745E+04  0.16788225745E+04  0.00000000000E+00 0.  1.
         21   -1    0    0  501  503 -0.00000000000E+00 -0.00000000000E+00 -0.47109170469E+02  0.47109170469E+02  0.00000000000E+00 0.  1.
          6    1    1    2  501    0  0.17919015697E+03 -0.74071501626E+02  0.48099747820E+03  0.54638656073E+03  0.17200000000E+03 0.  1.
         -6    1    1    2    0  502 -0.17919015697E+03  0.74071501626E+02  0.11507159258E+04  0.11795451842E+04  0.17200000000E+03 0.  1.
</event>
<event>
 4    1  0.1244074E+000  0.3211349E+03  0.7818608E-02  0.1075128E+00
         21   -1    0    0  503  502  0.00000000000E+00  0.00000000000E+00  0.24982480504E+03  0.24982480504E+03  0.00000000000E+00 0. -1.
         21   -1    0    0  501  503 -0.00000000000E+00 -0.00000000000E+00 -0.47840460256E+03  0.47840460256E+03  0.00000000000E+00 0. -1.
          6    1    1    2  501    0  0.15375615987E+03  0.22338908463E+03  0.20546834696E+02  0.32179156646E+03  0.17200000000E+03 0. -1.
         -6    1    1    2    0  502 -0.15375615987E+03 -0.22338908463E+03 -0.24912663222E+03  0.40643784113E+03  0.17200000000E+03 0. -1.
</event>
<event>
 4    1  0.1244074E+000  0.1881964E+03  0.7818608E-02  0.1160098E+00
         21   -1    0    0  503  502  0.00000000000E+00  0.00000000000E+00  0.40928574294E+03  0.40928574294E+03  0.00000000000E+00 0. -1.
         21   -1    0    0  501  503 -0.00000000000E+00 -0.00000000000E+00 -0.15673752065E+03  0.15673752065E+03  0.00000000000E+00 0.  1.
          6    1    1    2  501    0 -0.75729974445E+02 -0.99427632923E+01 -0.63130932085E+02  0.19850290214E+03  0.17200000000E+03 0. -1.
         -6    1    1    2    0  502  0.75729974445E+02  0.99427632923E+01  0.31567915438E+03  0.36752036145E+03  0.17200000000E+03 0.  1.
</event>
<event>
 4    1  0.1244074E+000  0.1940141E+03  0.7818608E-02  0.1154890E+00
         21   -1    0    0  501  502  0.00000000000E+00  0.00000000000E+00  0.46446518263E+02  0.46446518263E+02  0.00000000000E+00 0.  1.
         21   -1    0    0  502  503 -0.00000000000E+00 -0.00000000000E+00 -0.81421592181E+03  0.81421592181E+03  0.00000000000E+00 0.  1.
          6    1    1    2  501    0 -0.85197581315E+02  0.28263611152E+02 -0.41324470641E+03  0.45652234004E+03  0.17200000000E+03 0. -1.
         -6    1    1    2    0  503  0.85197581315E+02 -0.28263611152E+02 -0.35452469714E+03  0.40414010004E+03  0.17200000000E+03 0. -1.
</event>
<event>
 4    1  0.1244074E+000  0.2661356E+03  0.7818608E-02  0.1103512E+00
         21   -1    0    0  503  502  0.00000000000E+00  0.00000000000E+00  0.30994417804E+03  0.30994417804E+03  0.00000000000E+00 0.  1.
         21   -1    0    0  501  503 -0.00000000000E+00 -0.00000000000E+00 -0.30360409267E+03  0.30360409267E+03  0.00000000000E+00 0.  1.
          6    1    1    2  501    0 -0.58852821320E+02 -0.19437213939E+03 -0.14939018504E+03  0.30519765815E+03  0.17200000000E+03 0.  1.
         -6    1    1    2    0  502  0.58852821320E+02  0.19437213939E+03  0.15573027042E+03  0.30835061257E+03  0.17200000000E+03 0.  1.
</event>
<event>
 4    1  0.1244074E+000  0.2382665E+03  0.7818608E-02  0.1120953E+00
         21   -1    0    0  503  502  0.00000000000E+00  0.00000000000E+00  0.19206185680E+04  0.19206185680E+04  0.00000000000E+00 0. -1.
         21   -1    0    0  501  503 -0.00000000000E+00 -0.00000000000E+00 -0.45730323700E+02  0.45730323700E+02  0.00000000000E+00 0. -1.
          6    1    1    2  501    0 -0.15715553037E+03  0.49890705529E+02  0.15221070692E+04  0.15406430065E+04  0.17200000000E+03 0. -1.
         -6    1    1    2    0  502  0.15715553037E+03 -0.49890705529E+02  0.35278117508E+03  0.42570588523E+03  0.17200000000E+03 0. -1.
</event>
<event>
 4    1  0.1244074E+000  0.2423260E+03  0.7818608E-02  0.1118253E+00
         21   -1    0    0  503  502  0.00000000000E+00  0.00000000000E+00  0.67731689951E+03  0.67731689951E+03  0.00000000000E+00 0.  1.
         21   -1    0    0  501  503 -0.00000000000E+00 -0.00000000000E+00 -0.37101254881E+03  0.37101254881E+03  0.00000000000E+00 0.  1.
          6    1    1    2  501    0  0.11376255723E+03 -0.12726332169E+03 -0.30570042716E+03  0.39009565960E+03  0.17200000000E+03 0.  1.
         -6    1    1    2    0  502 -0.11376255723E+03  0.12726332169E+03  0.61200477786E+03  0.65823378871E+03  0.17200000000E+03 0.  1.
</event>
<event>
 4    1  0.1244074E+000  0.2041246E+03  0.7818608E-02  0.1146305E+00
         21   -1    0    0  503  502  0.00000000000E+00  0.00000000000E+00  0.93262191849E+02  0.93262191849E+02  0.00000000000E+00 0. -1.
         21   -1    0    0  501  503 -0.00000000000E+00 -0.00000000000E+00 -0.44746189196E+03  0.44746189196E+03  0.00000000000E+00 0. -1.
          6    1    1    2  501    0  0.31401656592E+02  0.10534130230E+03 -0.18772254471E+03  0.27732040639E+03  0.17200000000E+03 0. -1.
         -6    1    1    2    0  502 -0.31401656592E+02 -0.10534130230E+03 -0.16647715540E+03  0.26340367742E+03  0.17200000000E+03 0. -1.
</event>
<event>
 4    1  0.1244074E+000  0.2107228E+03  0.7818608E-02  0.1140995E+00
         21   -1    0    0  503  502  0.00000000000E+00  0.00000000000E+00  0.75917239844E+02  0.75917239844E+02  0.00000000000E+00 0.  1.
         21   -1    0    0  501  503 -0.00000000000E+00 -0.00000000000E+00 -0.92286853528E+03  0.92286853528E+03  0.00000000000E+00 0. -1.
          6    1    1    2  501    0  0.12151403980E+03  0.73790015369E+01 -0.72568616186E+03  0.75566164191E+03  0.17200000000E+03 0. -1.
         -6    1    1    2    0  502 -0.12151403980E+03 -0.73790015369E+01 -0.12126513357E+03  0.24312413322E+03  0.17200000000E+03 0.  1.
</event>
<event>
 4    1  0.1244074E+000  0.3113736E+03  0.7818608E-02  0.1079689E+00
         21   -1    0    0  501  502  0.00000000000E+00  0.00000000000E+00  0.80390202257E+02  0.80390202257E+02  0.00000000000E+00 0. -1.
         21   -1    0    0  502  503 -0.00000000000E+00 -0.00000000000E+00 -0.15112278888E+04  0.15112278888E+04  0.00000000000E+00 0.  1.
          6    1    1    2  501    0  0.11460321391E+03 -0.23288545520E+03 -0.35779216592E+03  0.47430872422E+03  0.17200000000E+03 0. -1.
         -6    1    1    2    0  503 -0.11460321391E+03  0.23288545520E+03 -0.10730455207E+04  0.11173093669E+04  0.17200000000E+03 0.  1.
</event>
<event>
 4    1  0.1244074E+000  0.1998696E+03  0.7818608E-02  0.1149849E+00
         21   -1    0    0  501  502  0.00000000000E+00  0.00000000000E+00  0.10858285642E+04  0.10858285642E+04  0.00000000000E+00 0.  1.
         21   -1    0    0  502  503 -0.00000000000E+00 -0.00000000000E+00 -0.89541542254E+02  0.89541542254E+02  0.00000000000E+00 0.  1.
          6    1    1    2  501    0 -0.32318942605E+02 -0.96536657841E+02  0.94921892269E+03  0.97003319713E+03  0.17200000000E+03 0.  1.
         -6    1    1    2    0  503  0.32318942605E+02  0.96536657841E+02  0.47068099250E+02  0.20533690931E+03  0.17200000000E+03 0.  1.
</event>
<event>
 4    1  0.1244074E+000  0.2054002E+03  0.7818608E-02  0.1145261E+00
         21   -1    0    0  503  502  0.00000000000E+00  0.00000000000E+00  0.27964658653E+03  0.27964658653E+03  0.00000000000E+00 0. -1.
         21   -1    0    0  501  503 -0.00000000000E+00 -0.00000000000E+00 -0.15800115530E+03  0.15800115530E+03  0.00000000000E+00 0.  1.
          6    1    1    2  501    0  0.11225883735E+03 -0.17898747452E+01  0.14322317465E+02  0.20589895335E+03  0.17200000000E+03 0. -1.
         -6    1    1    2    0  502 -0.11225883735E+03  0.17898747452E+01  0.10732311376E+03  0.23174878848E+03  0.17200000000E+03 0. -1.
</event>
<event>
 4    1  0.1244074E+000  0.1764332E+03  0.7818608E-02  0.1171300E+00
         21   -1    0    0  503  502  0.00000000000E+00  0.00000000000E+00  0.11839091511E+03  0.11839091511E+03  0.00000000000E+00 0.  1.
         21   -1    0    0  501  503 -0.00000000000E+00 -0.00000000000E+00 -0.26378453060E+03  0.26378453060E+03  0.00000000000E+00 0.  1.
          6    1    1    2  501    0  0.36240646653E+02 -0.15208114064E+02 -0.83564923695E+02  0.19522235445E+03  0.17200000000E+03 0.  1.
         -6    1    1    2    0  502 -0.36240646653E+02  0.15208114064E+02 -0.61828691793E+02  0.18695309126E+03  0.17200000000E+03 0.  1.
</event>
<event>
 4    1  0.1244074E+000  0.1754980E+03  0.7818608E-02  0.1172233E+00
         21   -1    0    0  503  502  0.00000000000E+00  0.00000000000E+00  0.86602976527E+03  0.86602976527E+03  0.00000000000E+00 0. -1.
         21   -1    0    0  501  503 -0.00000000000E+00 -0.00000000000E+00 -0.43553603566E+02  0.43553603566E+02  0.00000000000E+00 0. -1.
          6    1    1    2  501    0 -0.16387298512E+02 -0.30773211461E+02  0.21645040904E+03  0.27865805868E+03  0.17200000000E+03 0. -1.
         -6    1    1    2    0  502  0.16387298512E+02  0.30773211461E+02  0.60602575266E+03  0.63092531015E+03  0.17200000000E+03 0. -1.
</event>
<event>
 4    1  0.1244074E+000  0.2006171E+03  0.7818608E-02  0.1149219E+00
         21   -1    0    0  503  502  0.00000000000E+00  0.00000000000E+00  0.98764604290E+02  0.98764604290E+02  0.00000000000E+00 0. -1.
         21   -1    0    0  501  503 -0.00000000000E+00 -0.00000000000E+00 -0.40960270094E+03  0.40960270094E+03  0.00000000000E+00 0. -1.
          6    1    1    2  501    0 -0.87647847659E+02  0.54599124722E+02 -0.17360314301E+03  0.26530220671E+03  0.17200000000E+03 0.  1.
         -6    1    1    2    0  502  0.87647847659E+02 -0.54599124722E+02 -0.13723495364E+03  0.24306509852E+03  0.17200000000E+03 0.  1.
</event>
<event>
 4    1  0.1244074E+000  0.2256399E+03  0.7818608E-02  0.1129747E+00
         21   -1    0    0  503  502  0.00000000000E+00  0.00000000000E+00  0.55901405155E+03  0.55901405155E+03  0.00000000000E+00 0. -1.
         21   -1    0    0  501  503 -0.00000000000E+00 -0.00000000000E+00 -0.10447597113E+03  0.10447597113E+03  0.00000000000E+00 0.  1.
          6    1    1    2  501    0 -0.90191137621E+02  0.11486918692E+03  0.10846519201E+03  0.25035588526E+03  0.17200000000E+03 0.  1.
         -6    1    1    2    0  502  0.90191137621E+02 -0.11486918692E+03  0.34607288841E+03  0.41313413742E+03  0.17200000000E+03 0. -1.
</event>
<event>
 4    1  0.1244074E+000  0.1939723E+03  0.7818608E-02  0.1154927E+00
         21   -1    0    0  503  502  0.00000000000E+00  0.00000000000E+00  0.35791559487E+03  0.35791559487E+03  0.00000000000E+00 0.  1.
         21   -1    0    0  501  503 -0.00000000000E+00 -0.00000000000E+00 -0.12229425545E+03  0.12229425545E+03  0.00000000000E+00 0.  1.
          6    1    1    2  501    0 -0.81309451723E+02 -0.37815934852E+02  0.20778013721E+03  0.28424963903E+03  0.17200000000E+03 0.  1.
         -6    1    1    2    0  502  0.81309451723E+02  0.37815934852E+02  0.27841202206E+02  0.19596021129E+03  0.17200000000E+03 0.  1.
</event>
<event>
 4    1  0.1244074E+000  0.1791632E+03  0.7818608E-02  0.1168615E+00
         21   -1    0    0  503  502  0.00000000000E+00  0.00000000000E+00  0.10905222603E+04  0.10905222603E+04  0.00000000000E+00 0. -1.
         21   -1    0    0  501  503 -0.00000000000E+00 -0.00000000000E+00 -0.33580675787E+02  0.33580675787E+02  0.00000000000E+00 0. -1.
          6    1    1    2  501    0 -0.25215519758E+02 -0.43354851503E+02  0.33098685237E+03  0.37636652618E+03  0.17200000000E+03 0.  1.
         -6    1    1    2    0  502  0.25215519758E+02  0.43354851503E+02  0.72595473218E+03  0.74773640994E+03  0.17200000000E+03 0.  1.
</event>
<event>
 4    1  0.1244074E+000  0.1759145E+03  0.7818608E-02  0.1171817E+00
         21   -1    0    0  501  502  0.00000000000E+00  0.00000000000E+00  0.37399629462E+03  0.37399629462E+03  0.00000000000E+00 0. -1.
         21   -1    0    0  502  503 -0.00000000000E+00 -0.00000000000E+00 -0.83618910693E+02  0.83618910693E+02  0.00000000000E+00 0. -1.
          6    1    1    2  501    0  0.35435062022E+02  0.10308815939E+02  0.16859444863E+03  0.24365960563E+03  0.17200000000E+03 0. -1.
         -6    1    1    2    0  503 -0.35435062022E+02 -0.10308815939E+02  0.12178293529E+03  0.21395559968E+03  0.17200000000E+03 0. -1.
</event>
<event>
 4    1  0.1244074E+000  0.1855570E+03  0.7818608E-02  0.1162531E+00
         21   -1    0    0  503  502  0.00000000000E+00  0.00000000000E+00  0.37123796060E+03  0.37123796060E+03  0.00000000000E+00 0.  1.
         21   -1    0    0  501  503 -0.00000000000E+00 -0.00000000000E+00 -0.92855166912E+02  0.92855166912E+02  0.00000000000E+00 0.  1.
          6    1    1    2  501    0 -0.62832940999E+02  0.29990209394E+02  0.14709312375E+03  0.23678635558E+03  0.17200000000E+03 0.  1.
         -6    1    1    2    0  502  0.62832940999E+02 -0.29990209394E+02  0.13128966994E+03  0.22730677193E+03  0.17200000000E+03 0.  1.
</event>
<event>
 4    1  0.1244074E+000  0.1739735E+03  0.7818608E-02  0.1173766E+00
         21   -1    0    0  501  502  0.00000000000E+00  0.00000000000E+00  0.57723077285E+03  0.57723077285E+03  0.00000000000E+00 0.  1.
         21   -1    0    0  502  503 -0.00000000000E+00 -0.00000000000E+00 -0.78586663834E+02  0.78586663834E+02  0.00000000000E+00 0.  1.
          6    1    1    2  501    0 -0.69390985872E+01 -0.25191641602E+02  0.43848361356E+03  0.47173578331E+03  0.17200000000E+03 0.  1.
         -6    1    1    2    0  503  0.69390985872E+01  0.25191641602E+02  0.60160495460E+02  0.18408165338E+03  0.17200000000E+03 0.  1.
</event>
<event>
 4    1  0.1244074E+000  0.2049617E+03  0.7818608E-02  0.1145619E+00
         21   -1    0    0  503  502  0.00000000000E+00  0.00000000000E+00  0.61370330996E+03  0.61370330996E+03  0.00000000000E+00 0. -1.
         21   -1    0    0  501  503 -0.00000000000E+00 -0.00000000000E+00 -0.27104611710E+03  0.27104611710E+03  0.00000000000E+00 0. -1.
          6    1    1    2  501    0  0.59792425493E+02 -0.94075408005E+02 -0.21112781351E+03  0.29425205212E+03  0.17200000000E+03 0. -1.
         -6    1    1    2    0  502 -0.59792425493E+02  0.94075408005E+02  0.55378500637E+03  0.59049737494E+03  0.17200000000E+03 0. -1.
</event>
<event>
 4    1  0.1244074E+000  0.1726974E+03  0.7818608E-02  0.1175064E+00
         21   -1    0    0  503  502  0.00000000000E+00  0.00000000000E+00  0.98354538548E+02  0.98354538548E+02  0.00000000000E+00 0.  1.
         21   -1    0    0  501  503 -0.00000000000E+00 -0.00000000000E+00 -0.30327636826E+03  0.30327636826E+03  0.00000000000E+00 0.  1.
          6    1    1    2  501    0  0.36003302746E+01  0.15080974600E+02 -0.10007544343E+03  0.19959832803E+03  0.17200000000E+03 0.  1.
         -6    1    1    2    0  502 -0.36003302746E+01 -0.15080974600E+02 -0.10484638628E+03  0.20203257878E+03  0.17200000000E+03 0.  1.
</event>
<event>
 4    1  0.1244074E+000  0.2262303E+03  0.7818608E-02  0.1129321E+00
         21   -1    0    0  503  502  0.00000000000E+00  0.00000000000E+00  0.11360211997E+04  0.11360211997E+04  0.00000000000E+00 0.  1.
         21   -1    0    0  501  503 -0.00000000000E+00 -0.00000000000E+00 -0.14428969934E+03  0.14428969934E+03  0.00000000000E+00 0. -1.
          6    1    1    2  501    0 -0.31164962025E+02 -0.14361376017E+03 -0.35025853617E+02  0.22892570277E+03  0.17200000000E+03 0. -1.
         -6    1    1    2    0  502  0.31164962025E+02  0.14361376017E+03  0.10267573540E+04  0.10513851962E+04  0.17200000000E+03 0.  1.
</event>
<event>
 4    1  0.1244074E+000  0.1981173E+03  0.7818608E-02  0.1151337E+00
         21   -1    0    0  503  502  0.00000000000E+00  0.00000000000E+00  0.66339806409E+02  0.66339806409E+02  0.00000000000E+00 0.  1.
         21   -1    0    0  501  503 -0.00000000000E+00 -0.00000000000E+00 -0.69054134495E+03  0.69054134495E+03  0.00000000000E+00 0. -1.
          6    1    1    2  501    0 -0.76966356894E+00 -0.98315248720E+02 -0.45530779186E+03  0.49654371997E+03  0.17200000000E+03 0. -1.
         -6    1    1    2    0  502  0.76966356894E+00  0.98315248720E+02 -0.16889374667E+03  0.26033743138E+03  0.17200000000E+03 0.  1.
</event>
<event>
 4    1  0.1244074E+000  0.2575581E+03  0.7818608E-02  0.1108619E+00
         21   -1    0    0  501  502  0.00000000000E+00  0.00000000000E+00  0.21051978248E+03  0.21051978248E+03  0.00000000000E+00 0.  1.
         21   -1    0    0  502  503 -0.00000000000E+00 -0.00000000000E+00 -0.33611542285E+03  0.33611542285E+03  0.00000000000E+00 0.  1.
          6    1    1    2  501    0  0.64858282138E+02 -0.18040392748E+03  0.55341899754E+01  0.25761754806E+03  0.17200000000E+03 0.  1.
         -6    1    1    2    0  503 -0.64858282138E+02  0.18040392748E+03 -0.13112983034E+03  0.28901765727E+03  0.17200000000E+03 0.  1.
</event>
<event>
 4    1  0.1244074E+000  0.2091082E+03  0.7818608E-02  0.1142274E+00
         21   -1    0    0  503  502  0.00000000000E+00  0.00000000000E+00  0.51506155555E+03  0.51506155555E+03  0.00000000000E+00 0. -1.
         21   -1    0    0  501  503 -0.00000000000E+00 -0.00000000000E+00 -0.85769051841E+02  0.85769051841E+02  0.00000000000E+00 0.  1.
          6    1    1    2  501    0  0.69896264644E+01 -0.11871560420E+03  0.18432286667E+03  0.27874929370E+03  0.17200000000E+03 0. -1.
         -6    1    1    2    0  502 -0.69896264644E+01  0.11871560420E+03  0.24496963704E+03  0.32208131369E+03  0.17200000000E+03 0. -1.
</event>
<event>
 4    1  0.1244074E+000  0.1786236E+03  0.7818608E-02  0.1169142E+00
         21   -1    0    0  503  502  0.00000000000E+00  0.00000000000E+00  0.13241482391E+03  0.13241482391E+03  0.00000000000E+00 0. -1.
         21   -1    0    0  501  503 -0.00000000000E+00 -0.00000000000E+00 -0.57187533059E+03  0.57187533059E+03  0.00000000000E+00 0. -1.
          6    1    1    2  501    0  0.13688541485E+02  0.46206288970E+02 -0.48760437814E+03  0.51929223650E+03  0.17200000000E+03 0.  1.
         -6    1    1    2    0  502 -0.13688541485E+02 -0.46206288970E+02  0.48143871457E+02  0.18499791801E+03  0.17200000000E+03 0.  1.
</event>
<event>
 4    1  0.1244074E+000  0.1762969E+03  0.7818608E-02  0.1171436E+00
         21   -1    0    0  501  502  0.00000000000E+00  0.00000000000E+00  0.10332547953E+03  0.10332547953E+03  0.00000000000E+00 0.  1.
         21   -1    0    0  502  503 -0.00000000000E+00 -0.00000000000E+00 -0.35412784261E+03  0.35412784261E+03  0.00000000000E+00 0.  1.
          6    1    1    2  501    0 -0.37722600408E+02  0.85784437123E+01 -0.36644159059E+02  0.18006492904E+03  0.17200000000E+03 0. -1.
         -6    1    1    2    0  503  0.37722600408E+02 -0.85784437123E+01 -0.21415820401E+03  0.27738839310E+03  0.17200000000E+03 0. -1.
</event>
<event>
 4    1  0.1244074E+000  0.2103652E+03  0.7818608E-02  0.1141277E+00
         21   -1    0    0  503  502  0.00000000000E+00  0.00000000000E+00  0.63874072942E+02  0.63874072942E+02  0.00000000000E+00 0. -1.
         21   -1    0    0  501  503 -0.00000000000E+00 -0.00000000000E+00 -0.10685027616E+04  0.10685027616E+04  0.00000000000E+00 0. -1.
          6    1    1    2  501    0 -0.28119193706E+02  0.11780839340E+03 -0.83803752892E+03  0.86403727147E+03  0.17200000000E+03 0. -1.
         -6    1    1    2    0  502  0.28119193706E+02 -0.11780839340E+03 -0.16659115976E+03  0.26833956309E+03  0.17200000000E+03 0. -1.
</event>
<event>
 4    1  0.1244074E+000  0.1953332E+03  0.7818608E-02  0.1153737E+00
         21   -1    0    0  503  502  0.00000000000E+00  0.00000000000E+00  0.59840395450E+03  0.59840395450E+03  0.00000000000E+00 0. -1.
         21   -1    0    0  501  503 -0.00000000000E+00 -0.00000000000E+00 -0.96925932479E+02  0.96925932479E+02  0.00000000000E+00 0. -1.
          6    1    1    2  501    0 -0.83813611285E+02 -0.39323391017E+02  0.47373125150E+02  0.20099568031E+03  0.17200000000E+03 0. -1.
         -6    1    1    2    0  502  0.83813611285E+02  0.39323391017E+02  0.45410489687E+03  0.49433420666E+03  0.17200000000E+03 0. -1.
</event>
<event>
 4    1  0.1244074E+000  0.1875135E+03  0.7818608E-02  0.1160723E+00
         21   -1    0    0  503  502  0.00000000000E+00  0.00000000000E+00  0.13090017056E+03  0.13090017056E+03  0.00000000000E+00 0. -1.
         21   -1    0    0  501  503 -0.00000000000E+00 -0.00000000000E+00 -0.27342033970E+03  0.27342033970E+03  0.00000000000E+00 0.  1.
          6    1    1    2  501    0 -0.57824998409E+02 -0.47260746985E+02 -0.98069940903E+02  0.21161054311E+03  0.17200000000E+03 0.  1.
         -6    1    1    2    0  502  0.57824998409E+02  0.47260746985E+02 -0.44450228236E+02  0.19270996714E+03  0.17200000000E+03 0. -1.
</event>
<event>
 4    1  0.1244074E+000  0.1839123E+03  0.7818608E-02  0.1164070E+00
         21   -1    0    0  501  502  0.00000000000E+00  0.00000000000E+00  0.51751053949E+03  0.51751053949E+03  0.00000000000E+00 0. -1.
         21   -1    0    0  502  503 -0.00000000000E+00 -0.00000000000E+00 -0.67768227309E+02  0.67768227309E+02  0.00000000000E+00 0.  1.
          6    1    1    2  501    0 -0.36464441538E+02 -0.53945226603E+02  0.28005327476E+03  0.33504265352E+03  0.17200000000E+03 0. -1.
         -6    1    1    2    0  503  0.36464441538E+02  0.53945226603E+02  0.16968903741E+03  0.25023611328E+03  0.17200000000E+03 0.  1.
</event>
<event>
 4    1  0.1244074E+000  0.2084276E+03  0.7818608E-02  0.1142817E+00
         21   -1    0    0  501  502  0.00000000000E+00  0.00000000000E+00  0.31494293899E+03  0.31494293899E+03  0.00000000000E+00 0. -1.
         21   -1    0    0  502  503 -0.00000000000E+00 -0.00000000000E+00 -0.17459592449E+03  0.17459592449E+03  0.00000000000E+00 0. -1.
          6    1    1    2  501    0  0.11397437507E+03 -0.29459982425E+02  0.18233258159E+03  0.27692457285E+03  0.17200000000E+03 0. -1.
         -6    1    1    2    0  503 -0.11397437507E+03  0.29459982425E+02 -0.41985567085E+02  0.21261429063E+03  0.17200000000E+03 0. -1.
</event>
<event>
 4    1  0.1244074E+000  0.5459235E+03  0.7818608E-02  0.1002442E+00
         21   -1    0    0  501  502  0.00000000000E+00  0.00000000000E+00  0.24010198299E+04  0.24010198299E+04  0.00000000000E+00 0. -1.
         21   -1    0    0  502  503 -0.00000000000E+00 -0.00000000000E+00 -0.13782078395E+03  0.13782078395E+03  0.00000000000E+00 0.  1.
          6    1    1    2  501    0  0.49458190912E+03 -0.15439315754E+03  0.15317307069E+04  0.16261093045E+04  0.17200000000E+03 0. -1.
         -6    1    1    2    0  503 -0.49458190912E+03  0.15439315754E+03  0.73146833910E+03  0.91273130933E+03  0.17200000000E+03 0.  1.
</event>
<event>
 4    1  0.1244074E+000  0.1797560E+03  0.7818608E-02  0.1168039E+00
         21   -1    0    0  501  502  0.00000000000E+00  0.00000000000E+00  0.19251427088E+03  0.19251427088E+03  0.00000000000E+00 0. -1.
         21   -1    0    0  502  503 -0.00000000000E+00 -0.00000000000E+00 -0.33533295750E+03  0.33533295750E+03  0.00000000000E+00 0. -1.
          6    1    1    2  501    0 -0.16067015885E+02  0.49699856756E+02  0.11511441873E+03  0.21345621134E+03  0.17200000000E+03 0. -1.
         -6    1    1    2    0  503  0.16067015885E+02 -0.49699856756E+02 -0.25793310535E+03  0.31439101705E+03  0.17200000000E+03 0. -1.
</event>
<event>
 4    1  0.1244074E+000  0.2015535E+03  0.7818608E-02  0.1148435E+00
         21   -1    0    0  503  502  0.00000000000E+00  0.00000000000E+00  0.24851581708E+03  0.24851581708E+03  0.00000000000E+00 0.  1.
         21   -1    0    0  501  503 -0.00000000000E+00 -0.00000000000E+00 -0.17836227355E+03  0.17836227355E+03  0.00000000000E+00 0.  1.
          6    1    1    2  501    0 -0.67279592177E+02 -0.80704747272E+02 -0.26606340849E+02  0.20330198506E+03  0.17200000000E+03 0.  1.
         -6    1    1    2    0  502  0.67279592177E+02  0.80704747272E+02  0.96759884375E+02  0.22357610557E+03  0.17200000000E+03 0.  1.
</event>
<event>
 4    1  0.1244074E+000  0.2304567E+03  0.7818608E-02  0.1126319E+00
         21   -1    0    0  501  502  0.00000000000E+00  0.00000000000E+00  0.43542807415E+02  0.43542807415E+02  0.00000000000E+00 0. -1.
         21   -1    0    0  502  503 -0.00000000000E+00 -0.00000000000E+00 -0.12233593343E+04  0.12233593343E+04  0.00000000000E+00 0.  1.
          6    1    1    2  501    0 -0.52983694500E+02  0.14394096313E+03 -0.55538448388E+03  0.60130042215E+03  0.17200000000E+03 0. -1.
         -6    1    1    2    0  503  0.52983694500E+02 -0.14394096313E+03 -0.62443204304E+03  0.66560171960E+03  0.17200000000E+03 0. -1.
</event>
<event>
 4    1  0.1244074E+000  0.1951111E+03  0.7818608E-02  0.1153931E+00
         21   -1    0    0  503  502  0.00000000000E+00  0.00000000000E+00  0.31252921769E+03  0.31252921769E+03  0.00000000000E+00 0. -1.
         21   -1    0    0  501  503 -0.00000000000E+00 -0.00000000000E+00 -0.19902113102E+03  0.19902113102E+03  0.00000000000E+00 0. -1.
          6    1    1    2  501    0  0.86293207612E+02 -0.32215317304E+02 -0.10256082438E+03  0.22042474237E+03  0.17200000000E+03 0. -1.
         -6    1    1    2    0  502 -0.86293207612E+02  0.32215317304E+02  0.21606891105E+03  0.29112560635E+03  0.17200000000E+03 0. -1.
</event>
<event>
 4    1  0.1244074E+000  0.2008928E+03  0.7818608E-02  0.1148988E+00
         21   -1    0    0  501  502  0.00000000000E+00  0.00000000000E+00  0.10240075001E+03  0.10240075001E+03  0.00000000000E+00 0.  1.
         21   -1    0    0  502  503 -0.00000000000E+00 -0.00000000000E+00 -0.50812134279E+03  0.50812134279E+03  0.00000000000E+00 0.  1.
          6    1    1    2  501    0  0.10357058162E+03 -0.68598288962E+01 -0.58267216777E+02  0.20917215680E+03  0.17200000000E+03 0.  1.
         -6    1    1    2    0  503 -0.10357058162E+03  0.68598288962E+01 -0.34745337601E+03  0.40134993600E+03  0.17200000000E+03 0.  1.
</event>
<event>
 4    1  0.1244074E+000  0.2064536E+03  0.7818608E-02  0.1144406E+00
         21   -1    0    0  501  502  0.00000000000E+00  0.00000000000E+00  0.60130147057E+03  0.60130147057E+03  0.00000000000E+00 0.  1.
         21   -1    0    0  502  503 -0.00000000000E+00 -0.00000000000E+00 -0.99537448296E+02  0.99537448296E+02  0.00000000000E+00 0. -1.
          6    1    1    2  501    0 -0.97478473467E+02  0.59472853941E+02  0.43889078683E+03  0.48502391272E+03  0.17200000000E+03 0. -1.
         -6    1    1    2    0  503  0.97478473467E+02 -0.59472853941E+02  0.62873235451E+02  0.21581500615E+03  0.17200000000E+03 0. -1.
</event>
<event>
 4    1  0.1244074E+000  0.1942456E+03  0.7818608E-02  0.1154687E+00
         21   -1    0    0  501  502  0.00000000000E+00  0.00000000000E+00  0.71424976241E+02  0.71424976241E+02  0.00000000000E+00 0.  1.
         21   -1    0    0  502  503 -0.00000000000E+00 -0.00000000000E+00 -0.57823723260E+03  0.57823723260E+03  0.00000000000E+00 0.  1.
          6    1    1    2  501    0 -0.68878968849E+02  0.58335744601E+02 -0.15791444923E+03  0.25033646303E+03  0.17200000000E+03 0.  1.
         -6    1    1    2    0  503  0.68878968849E+02 -0.58335744601E+02 -0.34889780712E+03  0.39932574581E+03  0.17200000000E+03 0.  1.
</event>
<event>
 4    1  0.1244074E+000  0.2406749E+03  0.7818608E-02  0.1119344E+00
         21   -1    0    0  503  502  0.00000000000E+00  0.00000000000E+00  0.11149885487E+04  0.11149885487E+04  0.00000000000E+00 0. -1.
         21   -1    0    0  501  503 -0.00000000000E+00 -0.00000000000E+00 -0.26619299186E+03  0.26619299186E+03  0.00000000000E+00 0.  1.
          6    1    1    2  501    0  0.13664450067E+03  0.98329506000E+02 -0.19515040202E+03  0.30985172377E+03  0.17200000000E+03 0.  1.
         -6    1    1    2    0  502 -0.13664450067E+03 -0.98329506000E+02  0.10439459589E+04  0.10713298168E+04  0.17200000000E+03 0. -1.
</event>
<event>
 4    1  0.1244074E+000  0.1733132E+03  0.7818608E-02  0.1174436E+00
         21   -1    0    0  501  502  0.00000000000E+00  0.00000000000E+00  0.55664303766E+03  0.55664303766E+03  0.00000000000E+00 0. -1.
         21   -1    0    0  502  503 -0.00000000000E+00 -0.00000000000E+00 -0.79060398938E+02  0.79060398938E+02  0.00000000000E+00 0. -1.
          6    1    1    2  501    0  0.20646260151E+02  0.52138013661E+01  0.41788074109E+03  0.45239558526E+03  0.17200000000E+03 0. -1.
         -6    1    1    2    0  503 -0.20646260151E+02 -0.52138013661E+01  0.59701897628E+02  0.18330785134E+03  0.17200000000E+03 0. -1.
</event>
<event>
 4    1  0.1244074E+000  0.3224307E+03  0.7818608E-02  0.1074536E+00
         21   -1    0    0  503  502  0.00000000000E+00  0.00000000000E+00  0.16275273565E+03  0.16275273565E+03  0.00000000000E+00 0. -1.
         21   -1    0    0  501  503 -0.00000000000E+00 -0.00000000000E+00 -0.74558250283E+03  0.74558250283E+03  0.00000000000E+00 0.  1.
          6    1    1    2  501    0 -0.62057821316E+02  0.26556809644E+03 -0.46331615282E+03  0.56446739897E+03  0.17200000000E+03 0.  1.
         -6    1    1    2    0  502  0.62057821316E+02 -0.26556809644E+03 -0.11951361436E+03  0.34386783952E+03  0.17200000000E+03 0.  1.
</event>
<event>
 4    1  0.1244074E+000  0.2439246E+03  0.7818608E-02  0.1117206E+00
         21   -1    0    0  503  502  0.00000000000E+00  0.00000000000E+00  0.35191028308E+03  0.35191028308E+03  0.00000000000E+00 0. -1.
         21   -1    0    0  501  503 -0.00000000000E+00 -0.00000000000E+00 -0.17054727376E+03  0.17054727376E+03  0.00000000000E+00 0.  1.
          6    1    1    2  501    0  0.14436889124E+03  0.95251396937E+02  0.66409608723E+02  0.25280316752E+03  0.17200000000E+03 0.  1.
         -6    1    1    2    0  502 -0.14436889124E+03 -0.95251396937E+02  0.11495340060E+03  0.26965438933E+03  0.17200000000E+03 0. -1.
</event>
<event>
 4    1  0.1244074E+000  0.2192555E+03  0.7818608E-02  0.1134439E+00
         21   -1    0    0  503  502  0.00000000000E+00  0.00000000000E+00  0.29668298905E+03  0.29668298905E+03  0.00000000000E+00 0.  1.
         21   -1    0    0  501  503 -0.00000000000E+00 -0.00000000000E+00 -0.22808449998E+03  0.22808449998E+03  0.00000000000E+00 0. -1.
          6    1    1    2  501    0 -0.33461800779E+02 -0.13179260315E+03 -0.10689737969E+03  0.24392628424E+03  0.17200000000E+03 0.  1.
         -6    1    1    2    0  502  0.33461800779E+02  0.13179260315E+03  0.17549586877E+03  0.28084120480E+03  0.17200000000E+03 0.  1.
</event>
<event>
 4    1  0.1244074E+000  0.2164729E+03  0.7818608E-02  0.1136540E+00
         21   -1    0    0  503  502  0.00000000000E+00  0.00000000000E+00  0.58118372189E+02  0.58118372189E+02  0.00000000000E+00 0.  1.
         21   -1    0    0  501  503 -0.00000000000E+00 -0.00000000000E+00 -0.80790965516E+03  0.80790965516E+03  0.00000000000E+00 0.  1.
          6    1    1    2  501    0 -0.12584911253E+03 -0.37927517836E+02 -0.39425953540E+03  0.44977892012E+03  0.17200000000E+03 0. -1.
         -6    1    1    2    0  502  0.12584911253E+03  0.37927517836E+02 -0.35553174757E+03  0.41624910723E+03  0.17200000000E+03 0. -1.
</event>
<event>
 4    1  0.1244074E+000  0.1785532E+03  0.7818608E-02  0.1169211E+00
         21   -1    0    0  501  502  0.00000000000E+00  0.00000000000E+00  0.53291561928E+03  0.53291561928E+03  0.00000000000E+00 0.  1.
         21   -1    0    0  502  503 -0.00000000000E+00 -0.00000000000E+00 -0.61528121383E+02  0.61528121383E+02  0.00000000000E+00 0.  1.
          6    1    1    2  501    0 -0.19655142320E+02  0.43714249098E+02  0.28515515014E+03  0.33644422992E+03  0.17200000000E+03 0.  1.
         -6    1    1    2    0  503  0.19655142320E+02 -0.43714249098E+02  0.18623234776E+03  0.25799951075E+03  0.17200000000E+03 0.  1.
</event>
<event>
 4    1  0.1244074E+000  0.1764351E+03  0.7818608E-02  0.1171298E+00
         21   -1    0    0  503  502  0.00000000000E+00  0.00000000000E+00  0.65241320803E+02  0.65241320803E+02  0.00000000000E+00 0. -1.
         21   -1    0    0  501  503 -0.00000000000E+00 -0.00000000000E+00 -0.50224319578E+03  0.50224319578E+03  0.00000000000E+00 0. -1.
          6    1    1    2  501    0  0.14957719701E+02  0.36353948074E+02 -0.28193439084E+03  0.33259035413E+03  0.17200000000E+03 0. -1.
         -6    1    1    2    0  502 -0.14957719701E+02 -0.36353948074E+02 -0.15506748413E+03  0.23489416245E+03  0.17200000000E+03 0. -1.
</event>
<event>
 4    1  0.1244074E+000  0.1729876E+03  0.7818608E-02  0.1174768E+00
         21   -1    0    0  501  502  0.00000000000E+00  0.00000000000E+00  0.17912357340E+03  0.17912357340E+03  0.00000000000E+00 0.  1.
         21   -1    0    0  502  503 -0.00000000000E+00 -0.00000000000E+00 -0.18896245796E+03  0.18896245796E+03  0.00000000000E+00 0.  1.
          6    1    1    2  501    0 -0.82828246356E+01  0.16495639246E+02 -0.67575042835E+02  0.18571779051E+03  0.17200000000E+03 0.  1.
         -6    1    1    2    0  503  0.82828246356E+01 -0.16495639246E+02  0.57736158269E+02  0.18236824085E+03  0.17200000000E+03 0.  1.
</event>
<event>
 4    1  0.1244074E+000  0.1953414E+03  0.7818608E-02  0.1153730E+00
         21   -1    0    0  503  502  0.00000000000E+00  0.00000000000E+00  0.27104344289E+03  0.27104344289E+03  0.00000000000E+00 0. -1.
         21   -1    0    0  501  503 -0.00000000000E+00 -0.00000000000E+00 -0.14682504626E+03  0.14682504626E+03  0.00000000000E+00 0. -1.
          6    1    1    2  501    0  0.13237072131E+02  0.91646295433E+02  0.19724645359E+02  0.19633472739E+03  0.17200000000E+03 0.  1.
         -6    1    1    2    0  502 -0.13237072131E+02 -0.91646295433E+02  0.10449375127E+03  0.22153376176E+03  0.17200000000E+03 0.  1.
</event>
<event>
 4    1  0.1244074E+000  0.1972936E+03  0.7818608E-02  0.1152043E+00
         21   -1    0    0  503  502  0.00000000000E+00  0.00000000000E+00  0.48624696858E+03  0.48624696858E+03  0.00000000000E+00 0.  1.
         21   -1    0    0  501  503 -0.00000000000E+00 -0.00000000000E+00 -0.20499334091E+03  0.20499334091E+03  0.00000000000E+00 0.  1.
          6    1    1    2  501    0 -0.70725616337E+02 -0.65868448338E+02 -0.12919885056E+03  0.23583279729E+03  0.17200000000E+03 0.  1.
         -6    1    1    2    0  502  0.70725616337E+02  0.65868448338E+02  0.41045247822E+03  0.45540751220E+03  0.17200000000E+03 0.  1.
</event>
<event>
 4    1  0.1244074E+000  0.3229620E+03  0.7818608E-02  0.1074294E+00
         21   -1    0    0  503  502  0.00000000000E+00  0.00000000000E+00  0.27255233484E+03  0.27255233484E+03  0.00000000000E+00 0. -1.
         21   -1    0    0  501  503 -0.00000000000E+00 -0.00000000000E+00 -0.40409806656E+03  0.40409806656E+03  0.00000000000E+00 0.  1.
          6    1    1    2  501    0 -0.96069445523E+02 -0.25591233750E+03 -0.14363516271E+03  0.35346219432E+03  0.17200000000E+03 0. -1.
         -6    1    1    2    0  502  0.96069445523E+02  0.25591233750E+03  0.12089430997E+02  0.32318820707E+03  0.17200000000E+03 0. -1.
</event>
<event>
 4    1  0.1244074E+000  0.1986658E+03  0.7818608E-02  0.1150870E+00
         21   -1    0    0  503  502  0.00000000000E+00  0.00000000000E+00  0.59121910778E+02  0.59121910778E+02  0.00000000000E+00 0.  1.
         21   -1    0    0  501  503 -0.00000000000E+00 -0.00000000000E+00 -0.71561062295E+03  0.71561062295E+03  0.00000000000E+00 0.  1.
          6    1    1    2  501    0  0.80966404573E+02  0.57693503337E+02 -0.22787960222E+03  0.30231971835E+03  0.17200000000E+03 0.  1.
         -6    1    1    2    0  502 -0.80966404573E+02 -0.57693503337E+02 -0.42860910996E+03  0.47241281538E+03  0.17200000000E+03 0.  1.
</event>
<event>
 4    1  0.1244074E+000  0.1850395E+03  0.7818608E-02  0.1163013E+00
         21   -1    0    0  501  502  0.00000000000E+00  0.00000000000E+00  0.36715218870E+02  0.36715218870E+02  0.00000000000E+00 0.  1.
         21   -1    0    0  502  503 -0.00000000000E+00 -0.00000000000E+00 -0.93388994728E+03  0.93388994728E+03  0.00000000000E+00 0.  1.
          6    1    1    2  501    0  0.61779772139E+02 -0.28963458249E+02 -0.46681151774E+03  0.50214800134E+03  0.17200000000E+03 0.  1.
         -6    1    1    2    0  503 -0.61779772139E+02  0.28963458249E+02 -0.43036321067E+03  0.46845716481E+03  0.17200000000E+03 0.  1.
</event>
<event>
 4    1  0.1244074E+000  0.1822317E+03  0.7818608E-02  0.1165661E+00
         21   -1    0    0  501  502  0.00000000000E+00  0.00000000000E+00  0.11618887165E+03  0.11618887165E+03  0.00000000000E+00 0.  1.
         21   -1    0    0  502  503 -0.00000000000E+00 -0.00000000000E+00 -0.44824477310E+03  0.44824477310E+03  0.00000000000E+00 0. -1.
          6    1    1    2  501    0  0.43970655060E+02  0.41121467246E+02 -0.33591472925E+03  0.38216109025E+03  0.17200000000E+03 0. -1.
         -6    1    1    2    0  503 -0.43970655060E+02 -0.41121467246E+02  0.38588277997E+01  0.18227255451E+03  0.17200000000E+03 0.  1.
</event>
<event>
 4    1  0.1244074E+000  0.2150477E+03  0.7818608E-02  0.1137630E+00
         21   -1    0    0  501  502  0.00000000000E+00  0.00000000000E+00  0.98208256335E+03  0.98208256335E+03  0.00000000000E+00 0.  1.
         21   -1    0    0  502  503 -0.00000000000E+00 -0.00000000000E+00 -0.48964036077E+02  0.48964036077E+02  0.00000000000E+00 0. -1.
          6    1    1    2  501    0  0.11879356421E+03 -0.50493662473E+02  0.56743501716E+03  0.60681794597E+03  0.17200000000E+03 0.  1.
         -6    1    1    2    0  503 -0.11879356421E+03  0.50493662473E+02  0.36568351011E+03  0.42422865346E+03  0.17200000000E+03 0. -1.
</event>
<event>
 4    1  0.1244074E+000  0.2031615E+03  0.7818608E-02  0.1147099E+00
         21   -1    0    0  501  502  0.00000000000E+00  0.00000000000E+00  0.12721016773E+03  0.12721016773E+03  0.00000000000E+00 0.  1.
         21   -1    0    0  502  503 -0.00000000000E+00 -0.00000000000E+00 -0.61865026780E+03  0.61865026780E+03  0.00000000000E+00 0.  1.
          6    1    1    2  501    0 -0.33583252396E+02  0.10277519432E+03  0.11449372445E+02  0.20348381640E+03  0.17200000000E+03 0.  1.
         -6    1    1    2    0  503  0.33583252396E+02 -0.10277519432E+03 -0.50288947251E+03  0.54237661912E+03  0.17200000000E+03 0.  1.
</event>
<event>
 4    1  0.1244074E+000  0.2025214E+03  0.7818608E-02  0.1147629E+00
         21   -1    0    0  503  502  0.00000000000E+00  0.00000000000E+00  0.33413937079E+03  0.33413937079E+03  0.00000000000E+00 0. -1.
         21   -1    0    0  501  503 -0.00000000000E+00 -0.00000000000E+00 -0.14930449152E+03  0.14930449152E+03  0.00000000000E+00 0.  1.
          6    1    1    2  501    0  0.93341140292E+02 -0.52137882765E+02 -0.95274045361E+01  0.20274540371E+03  0.17200000000E+03 0.  1.
         -6    1    1    2    0  502 -0.93341140292E+02  0.52137882765E+02  0.19436228381E+03  0.28069845860E+03  0.17200000000E+03 0.  1.
</event>
<event>
 4    1  0.1244074E+000  0.1990908E+03  0.7818608E-02  0.1150508E+00
         21   -1    0    0  501  502  0.00000000000E+00  0.00000000000E+00  0.88458506398E+03  0.88458506398E+03  0.00000000000E+00 0.  1.
         21   -1    0    0  502  503 -0.00000000000E+00 -0.00000000000E+00 -0.75195044905E+02  0.75195044905E+02  0.00000000000E+00 0.  1.
          6    1    1    2  501    0 -0.93230468009E+02  0.36895035898E+02  0.70975546075E+03  0.73714990192E+03  0.17200000000E+03 0.  1.
         -6    1    1    2    0  503  0.93230468009E+02 -0.36895035898E+02  0.99634558324E+02  0.22263020696E+03  0.17200000000E+03 0.  1.
</event>
<event>
 4    1  0.1244074E+000  0.3277632E+03  0.7818608E-02  0.1072131E+00
         21   -1    0    0  503  502  0.00000000000E+00  0.00000000000E+00  0.31473099812E+03  0.31473099812E+03  0.00000000000E+00 0.  1.
         21   -1    0    0  501  503 -0.00000000000E+00 -0.00000000000E+00 -0.46209790039E+03  0.46209790039E+03  0.00000000000E+00 0.  1.
          6    1    1    2  501    0 -0.15441147217E+03  0.23238283719E+03  0.12487814662E+03  0.35074668532E+03  0.17200000000E+03 0.  1.
         -6    1    1    2    0  502  0.15441147217E+03 -0.23238283719E+03 -0.27224504890E+03  0.42608221320E+03  0.17200000000E+03 0.  1.
</event>
<event>
 4    1  0.1244074E+000  0.1825687E+03  0.7818608E-02  0.1165340E+00
         21   -1    0    0  501  502  0.00000000000E+00  0.00000000000E+00  0.27327913189E+03  0.27327913189E+03  0.00000000000E+00 0.  1.
         21   -1    0    0  502  503 -0.00000000000E+00 -0.00000000000E+00 -0.12872190726E+03  0.12872190726E+03  0.00000000000E+00 0. -1.
          6    1    1    2  501    0  0.52454601600E+02 -0.31557098657E+02  0.26237546312E+02  0.18444442128E+03  0.17200000000E+03 0. -1.
         -6    1    1    2    0  503 -0.52454601600E+02  0.31557098657E+02  0.11831967832E+03  0.21755661788E+03  0.17200000000E+03 0.  1.
</event>
<event>
 4    1  0.1244074E+000  0.1924784E+03  0.7818608E-02  0.1156245E+00
         21   -1    0    0  503  502  0.00000000000E+00  0.00000000000E+00  0.20910672354E+03  0.20910672354E+03  0.00000000000E+00 0. -1.
         21   -1    0    0  501  503 -0.00000000000E+00 -0.00000000000E+00 -0.19984625998E+03  0.19984625998E+03  0.00000000000E+00 0. -1.
          6    1    1    2  501    0  0.81268660770E+02 -0.29314795612E+02 -0.64244121675E+02  0.20291687863E+03  0.17200000000E+03 0.  1.
         -6    1    1    2    0  502 -0.81268660770E+02  0.29314795612E+02  0.73504585238E+02  0.20603610488E+03  0.17200000000E+03 0.  1.
</event>
<event>
 4    1  0.1244074E+000  0.2236090E+03  0.7818608E-02  0.1131221E+00
         21   -1    0    0  503  502  0.00000000000E+00  0.00000000000E+00  0.16666298594E+03  0.16666298594E+03  0.00000000000E+00 0. -1.
         21   -1    0    0  501  503 -0.00000000000E+00 -0.00000000000E+00 -0.39463046314E+03  0.39463046314E+03  0.00000000000E+00 0. -1.
          6    1    1    2  501    0 -0.11330337815E+02  0.14243815743E+03 -0.25140410784E+03  0.33645955283E+03  0.17200000000E+03 0.  1.
         -6    1    1    2    0  502  0.11330337815E+02 -0.14243815743E+03  0.23436630649E+02  0.22483389625E+03  0.17200000000E+03 0.  1.
</event>
<event>
 4    1  0.1244074E+000  0.1796658E+03  0.7818608E-02  0.1168127E+00
         21   -1    0    0  501  502  0.00000000000E+00  0.00000000000E+00  0.39114600897E+02  0.39114600897E+02  0.00000000000E+00 0.  1.
         21   -1    0    0  502  503 -0.00000000000E+00 -0.00000000000E+00 -0.96529478071E+03  0.96529478071E+03  0.00000000000E+00 0.  1.
          6    1    1    2  501    0  0.45715220506E+02 -0.24615585258E+02 -0.27181207269E+03  0.32582450995E+03  0.17200000000E+03 0.  1.
         -6    1    1    2    0  503 -0.45715220506E+02  0.24615585258E+02 -0.65436810713E+03  0.67858487166E+03  0.17200000000E+03 0.  1.
</event>
<event>
 4    1  0.1244074E+000  0.1766484E+03  0.7818608E-02  0.1171087E+00
         21   -1    0    0  503  502  0.00000000000E+00  0.00000000000E+00  0.22261901516E+02  0.22261901516E+02  0.00000000000E+00 0.  1.
         21   -1    0    0  501  503 -0.00000000000E+00 -0.00000000000E+00 -0.17623150934E+04  0.17623150934E+04  0.00000000000E+00 0.  1.
          6    1    1    2  501    0  0.25532021744E+02 -0.31125071859E+02 -0.46639840517E+03  0.49873051499E+03  0.17200000000E+03 0. -1.
         -6    1    1    2    0  502 -0.25532021744E+02  0.31125071859E+02 -0.12736547867E+04  0.12858464800E+04  0.17200000000E+03 0. -1.
</event>
<event>
 4    1  0.1244074E+000  0.2069325E+03  0.7818608E-02  0.1144018E+00
         21   -1    0    0  501  502  0.00000000000E+00  0.00000000000E+00  0.43957547081E+03  0.43957547081E+03  0.00000000000E+00 0. -1.
         21   -1    0    0  502  503 -0.00000000000E+00 -0.00000000000E+00 -0.12634271629E+03  0.12634271629E+03  0.00000000000E+00 0. -1.
          6    1    1    2  501    0 -0.53011246669E+02 -0.10211212740E+03  0.29201319408E+03  0.35790052298E+03  0.17200000000E+03 0. -1.
         -6    1    1    2    0  503  0.53011246669E+02  0.10211212740E+03  0.21219560442E+02  0.20801766411E+03  0.17200000000E+03 0. -1.
</event>
<event>
 4    1  0.1244074E+000  0.2455577E+03  0.7818608E-02  0.1116145E+00
         21   -1    0    0  503  502  0.00000000000E+00  0.00000000000E+00  0.16274270091E+04  0.16274270091E+04  0.00000000000E+00 0.  1.
         21   -1    0    0  501  503 -0.00000000000E+00 -0.00000000000E+00 -0.40781175160E+02  0.40781175160E+02  0.00000000000E+00 0.  1.
          6    1    1    2  501    0  0.10971496478E+03 -0.13666455500E+03  0.54107520374E+03  0.59418932184E+03  0.17200000000E+03 0. -1.
         -6    1    1    2    0  502 -0.10971496478E+03  0.13666455500E+03  0.10455706302E+04  0.10740188624E+04  0.17200000000E+03 0. -1.
</event>
<event>
 4    1  0.1244074E+000  0.1744946E+03  0.7818608E-02  0.1173240E+00
         21   -1    0    0  501  502  0.00000000000E+00  0.00000000000E+00  0.42173273937E+03  0.42173273937E+03  0.00000000000E+00 0. -1.
         21   -1    0    0  502  503 -0.00000000000E+00 -0.00000000000E+00 -0.72198456041E+02  0.72198456041E+02  0.00000000000E+00 0. -1.
          6    1    1    2  501    0  0.24264945929E+02 -0.16600725890E+02  0.17516980829E+03  0.24725054790E+03  0.17200000000E+03 0.  1.
         -6    1    1    2    0  503 -0.24264945929E+02  0.16600725890E+02  0.17436447504E+03  0.24668064751E+03  0.17200000000E+03 0.  1.
</event>
<event>
 4    1  0.1244074E+000  0.2249746E+03  0.7818608E-02  0.1130228E+00
         21   -1    0    0  503  502  0.00000000000E+00  0.00000000000E+00  0.57647449048E+03  0.57647449048E+03  0.00000000000E+00 0. -1.
         21   -1    0    0  501  503 -0.00000000000E+00 -0.00000000000E+00 -0.96699192147E+02  0.96699192147E+02  0.00000000000E+00 0. -1.
          6    1    1    2  501    0 -0.82822354689E+02 -0.11903797102E+03  0.13777060928E+03  0.26380735730E+03  0.17200000000E+03 0. -1.
         -6    1    1    2    0  502  0.82822354689E+02  0.11903797102E+03  0.34200468905E+03  0.40936632533E+03  0.17200000000E+03 0. -1.
</event>
<event>
 4    1  0.1244074E+000  0.2370041E+03  0.7818608E-02  0.1121805E+00
         21   -1    0    0  501  502  0.00000000000E+00  0.00000000000E+00  0.22844657613E+03  0.22844657613E+03  0.00000000000E+00 0. -1.
         21   -1    0    0  502  503 -0.00000000000E+00 -0.00000000000E+00 -0.12473298784E+04  0.12473298784E+04  0.00000000000E+00 0.  1.
          6    1    1    2  501    0 -0.12744452373E+03  0.10170962990E+03  0.15172972326E+03  0.28141226762E+03  0.17200000000E+03 0. -1.
         -6    1    1    2    0  503  0.12744452373E+03 -0.10170962990E+03 -0.11706130255E+04  0.11943641869E+04  0.17200000000E+03 0. -1.
</event>
<event>
 4    1  0.1244074E+000  0.1753869E+03  0.7818608E-02  0.1172344E+00
         21   -1    0    0  503  502  0.00000000000E+00  0.00000000000E+00  0.17944632048E+03  0.17944632048E+03  0.00000000000E+00 0. -1.
         21   -1    0    0  501  503 -0.00000000000E+00 -0.00000000000E+00 -0.23387423031E+03  0.23387423031E+03  0.00000000000E+00 0. -1.
          6    1    1    2  501    0  0.17421933998E+02  0.29547111433E+02 -0.13400856123E+03  0.22072346967E+03  0.17200000000E+03 0. -1.
         -6    1    1    2    0  502 -0.17421933998E+02 -0.29547111433E+02  0.79580651404E+02  0.19259708112E+03  0.17200000000E+03 0. -1.
</event>
<event>
 4    1  0.1244074E+000  0.2070838E+03  0.7818608E-02  0.1143896E+00
         21   -1    0    0  501  502  0.00000000000E+00  0.00000000000E+00  0.87688380279E+03  0.87688380279E+03  0.00000000000E+00 0. -1.
         21   -1    0    0  502  503 -0.00000000000E+00 -0.00000000000E+00 -0.57835622771E+02  0.57835622771E+02  0.00000000000E+00 0. -1.
          6    1    1    2  501    0  0.10555310288E+03  0.46456697355E+02  0.59317932553E+03  0.62828766859E+03  0.17200000000E+03 0. -1.
         -6    1    1    2    0  503 -0.10555310288E+03 -0.46456697355E+02  0.22586885448E+03  0.30643175697E+03  0.17200000000E+03 0. -1.
</event>
<event>
 4    1  0.1244074E+000  0.2401468E+03  0.7818608E-02  0.1119695E+00
         21   -1    0    0  501  502  0.00000000000E+00  0.00000000000E+00  0.10088711619E+03  0.10088711619E+03  0.00000000000E+00 0. -1.
         21   -1    0    0  502  503 -0.00000000000E+00 -0.00000000000E+00 -0.95541956742E+03  0.95541956742E+03  0.00000000000E+00 0.  1.
          6    1    1    2  501    0  0.13671348929E+03  0.96932400193E+02 -0.92526315282E+02  0.25735498320E+03  0.17200000000E+03 0. -1.
         -6    1    1    2    0  503 -0.13671348929E+03 -0.96932400193E+02 -0.76200613595E+03  0.79895170041E+03  0.17200000000E+03 0.  1.
</event>
<event>
 4    1  0.1244074E+000  0.1965994E+03  0.7818608E-02  0.1152640E+00
         21   -1    0    0  503  502  0.00000000000E+00  0.00000000000E+00  0.50491068102E+03  0.50491068102E+03  0.00000000000E+00 0. -1.
         21   -1    0    0  501  503 -0.00000000000E+00 -0.00000000000E+00 -0.12596304675E+03  0.12596304675E+03  0.00000000000E+00 0. -1.
          6    1    1    2  501    0 -0.50432700016E+02  0.80770381761E+02 -0.80903646328E+01  0.19676576379E+03  0.17200000000E+03 0. -1.
         -6    1    1    2    0  502  0.50432700016E+02 -0.80770381761E+02  0.38703799890E+03  0.43410796399E+03  0.17200000000E+03 0. -1.
</event>
<event>
 4    1  0.1244074E+000  0.2388095E+03  0.7818608E-02  0.1120588E+00
         21   -1    0    0  501  502  0.00000000000E+00  0.00000000000E+00  0.95169118500E+03  0.95169118500E+03  0.00000000000E+00 0.  1.
         21   -1    0    0  502  503 -0.00000000000E+00 -0.00000000000E+00 -0.82176300315E+02  0.82176300315E+02  0.00000000000E+00 0. -1.
          6    1    1    2  501    0 -0.80290029596E+02  0.14491203910E+03  0.70375006980E+03  0.74316495388E+03  0.17200000000E+03 0.  1.
         -6    1    1    2    0  503  0.80290029596E+02 -0.14491203910E+03  0.16576481488E+03  0.29070253144E+03  0.17200000000E+03 0. -1.
</event>
<event>
 4    1  0.1244074E+000  0.1938637E+03  0.7818608E-02  0.1155022E+00
         21   -1    0    0  503  502  0.00000000000E+00  0.00000000000E+00  0.62478193261E+03  0.62478193261E+03  0.00000000000E+00 0.  1.
         21   -1    0    0  501  503 -0.00000000000E+00 -0.00000000000E+00 -0.60170300805E+02  0.60170300805E+02  0.00000000000E+00 0.  1.
          6    1    1    2  501    0  0.56621569755E+02 -0.69232436337E+02  0.27666887972E+03  0.33782954491E+03  0.17200000000E+03 0.  1.
         -6    1    1    2    0  502 -0.56621569755E+02  0.69232436337E+02  0.28794275207E+03  0.34712268851E+03  0.17200000000E+03 0.  1.
</event>
<event>
 4    1  0.1244074E+000  0.3111870E+03  0.7818608E-02  0.1079778E+00
         21   -1    0    0  501  502  0.00000000000E+00  0.00000000000E+00  0.16318291956E+04  0.16318291956E+04  0.00000000000E+00 0. -1.
         21   -1    0    0  502  503 -0.00000000000E+00 -0.00000000000E+00 -0.75097263068E+02  0.75097263068E+02  0.00000000000E+00 0.  1.
          6    1    1    2  501    0 -0.24247223853E+03 -0.91981277006E+02  0.11692737563E+04  0.12099745695E+04  0.17200000000E+03 0.  1.
         -6    1    1    2    0  503  0.24247223853E+03  0.91981277006E+02  0.38745817626E+03  0.49695188915E+03  0.17200000000E+03 0.  1.
</event>
<event>
 4    1  0.1244074E+000  0.1847644E+03  0.7818608E-02  0.1163270E+00
         21   -1    0    0  501  502  0.00000000000E+00  0.00000000000E+00  0.52738910287E+02  0.52738910287E+02  0.00000000000E+00 0. -1.
         21   -1    0    0  502  503 -0.00000000000E+00 -0.00000000000E+00 -0.65070955603E+03  0.65070955603E+03  0.00000000000E+00 0. -1.
          6    1    1    2  501    0  0.64357553251E+02  0.20297951262E+02 -0.32444493303E+03  0.37336632957E+03  0.17200000000E+03 0.  1.
         -6    1    1    2    0  503 -0.64357553251E+02 -0.20297951262E+02 -0.27352571271E+03  0.33008213675E+03  0.17200000000E+03 0.  1.
</event>
<event>
 4    1  0.1244074E+000  0.2034681E+03  0.7818608E-02  0.1146846E+00
         21   -1    0    0  503  502  0.00000000000E+00  0.00000000000E+00  0.18938090225E+03  0.18938090225E+03  0.00000000000E+00 0.  1.
         21   -1    0    0  501  503 -0.00000000000E+00 -0.00000000000E+00 -0.24285001883E+03  0.24285001883E+03  0.00000000000E+00 0.  1.
          6    1    1    2  501    0  0.10651337283E+03 -0.21683235703E+02 -0.95022593930E+02  0.22456303048E+03  0.17200000000E+03 0.  1.
         -6    1    1    2    0  502 -0.10651337283E+03  0.21683235703E+02  0.41553477352E+02  0.20766789059E+03  0.17200000000E+03 0.  1.
</event>
<event>
 4    1  0.1244074E+000  0.2670292E+03  0.7818608E-02  0.1102992E+00
         21   -1    0    0  501  502  0.00000000000E+00  0.00000000000E+00  0.48726204253E+03  0.48726204253E+03  0.00000000000E+00 0. -1.
         21   -1    0    0  502  503 -0.00000000000E+00 -0.00000000000E+00 -0.23016514316E+03  0.23016514316E+03  0.00000000000E+00 0. -1.
          6    1    1    2  501    0  0.13832580191E+03  0.15028819937E+03  0.34503076445E+03  0.43629210256E+03  0.17200000000E+03 0. -1.
         -6    1    1    2    0  503 -0.13832580191E+03 -0.15028819937E+03 -0.87933865079E+02  0.28113508314E+03  0.17200000000E+03 0. -1.
</event>
<event>
 4    1  0.1244074E+000  0.1945251E+03  0.7818608E-02  0.1154442E+00
         21   -1    0    0  501  502  0.00000000000E+00  0.00000000000E+00  0.12352182044E+03  0.12352182044E+03  0.00000000000E+00 0.  1.
         21   -1    0    0  502  503 -0.00000000000E+00 -0.00000000000E+00 -0.49760441135E+03  0.49760441135E+03  0.00000000000E+00 0.  1.
          6    1    1    2  501    0  0.86122176593E+02  0.28965082095E+02  0.54990771730E+01  0.19460278809E+03  0.17200000000E+03 0.  1.
         -6    1    1    2    0  503 -0.86122176593E+02 -0.28965082095E+02 -0.37958166808E+03  0.42652344370E+03  0.17200000000E+03 0.  1.
</event>
<event>
 4    1  0.1244074E+000  0.2056804E+03  0.7818608E-02  0.1145033E+00
         21   -1    0    0  503  502  0.00000000000E+00  0.00000000000E+00  0.12401074312E+03  0.12401074312E+03  0.00000000000E+00 0. -1.
         21   -1    0    0  501  503 -0.00000000000E+00 -0.00000000000E+00 -0.37550044724E+03  0.37550044724E+03  0.00000000000E+00 0.  1.
          6    1    1    2  501    0 -0.84225505889E+02 -0.75009937081E+02 -0.20130101491E+03  0.28779597827E+03  0.17200000000E+03 0. -1.
         -6    1    1    2    0  502  0.84225505889E+02  0.75009937081E+02 -0.50188689207E+02  0.21171521208E+03  0.17200000000E+03 0. -1.
</event>
<event>
 4    1  0.1244074E+000  0.2163806E+03  0.7818608E-02  0.1136611E+00
         21   -1    0    0  503  502  0.00000000000E+00  0.00000000000E+00  0.80284834326E+03  0.80284834326E+03  0.00000000000E+00 0. -1.
         21   -1    0    0  501  503 -0.00000000000E+00 -0.00000000000E+00 -0.67562541099E+02  0.67562541099E+02  0.00000000000E+00 0. -1.
          6    1    1    2  501    0  0.12156406062E+03 -0.49585573260E+02  0.20665885757E+03  0.29921302332E+03  0.17200000000E+03 0. -1.
         -6    1    1    2    0  502 -0.12156406062E+03  0.49585573260E+02  0.52862694459E+03  0.57119786104E+03  0.17200000000E+03 0. -1.
</event>
<event>
 4    1  0.1244074E+000  0.1721980E+03  0.7818608E-02  0.1175575E+00
         21   -1    0    0  501  502  0.00000000000E+00  0.00000000000E+00  0.12684597177E+04  0.12684597177E+04  0.00000000000E+00 0. -1.
         21   -1    0    0  502  503 -0.00000000000E+00 -0.00000000000E+00 -0.29916799872E+02  0.29916799872E+02  0.00000000000E+00 0. -1.
          6    1    1    2  501    0 -0.69640280358E+01 -0.44320108806E+01  0.92280880536E+03  0.93873757337E+03  0.17200000000E+03 0. -1.
         -6    1    1    2    0  503  0.69640280358E+01  0.44320108806E+01  0.31573411243E+03  0.35963894417E+03  0.17200000000E+03 0. -1.
</event>
<event>
 4    1  0.1244074E+000  0.1726839E+03  0.7818608E-02  0.1175078E+00
         21   -1    0    0  503  502  0.00000000000E+00  0.00000000000E+00  0.58839545619E+02  0.58839545619E+02  0.00000000000E+00 0.  1.
         21   -1    0    0  501  503 -0.00000000000E+00 -0.00000000000E+00 -0.59587332688E+03  0.59587332688E+03  0.00000000000E+00 0.  1.
          6    1    1    2  501    0 -0.20772730558E+00 -0.15351877674E+02 -0.39508500552E+03  0.43117500494E+03  0.17200000000E+03 0. -1.
         -6    1    1    2    0  502  0.20772730558E+00  0.15351877674E+02 -0.14194877575E+03  0.22353786756E+03  0.17200000000E+03 0. -1.
</event>
<event>
 4    1  0.1244074E+000  0.1755069E+03  0.7818608E-02  0.1172224E+00
         21   -1    0    0  503  502  0.00000000000E+00  0.00000000000E+00  0.98101239070E+03  0.98101239070E+03  0.00000000000E+00 0.  1.
         21   -1    0    0  501  503 -0.00000000000E+00 -0.00000000000E+00 -0.10904401713E+03  0.10904401713E+03  0.00000000000E+00 0.  1.
          6    1    1    2  501    0  0.14584562107E+02  0.31716673061E+02 -0.23928385423E+02  0.17713052936E+03  0.17200000000E+03 0.  1.
         -6    1    1    2    0  502 -0.14584562107E+02 -0.31716673061E+02  0.89589675899E+03  0.91292587847E+03  0.17200000000E+03 0.  1.
</event>
<event>
 4    1  0.1244074E+000  0.2500382E+03  0.7818608E-02  0.1113281E+00
         21   -1    0    0  503  502  0.00000000000E+00  0.00000000000E+00  0.77961490156E+02  0.77961490156E+02  0.00000000000E+00 0. -1.
         21   -1    0    0  501  503 -0.00000000000E+00 -0.00000000000E+00 -0.13188831627E+04  0.13188831627E+04  0.00000000000E+00 0.  1.
          6    1    1    2  501    0 -0.97598596700E+02 -0.15300193031E+03 -0.10577247936E+04  0.10868766332E+04  0.17200000000E+03 0.  1.
         -6    1    1    2    0  502  0.97598596700E+02  0.15300193031E+03 -0.18319687890E+03  0.30996801963E+03  0.17200000000E+03 0. -1.
</event>
<event>
 4    1  0.1244074E+000  0.2078597E+03  0.7818608E-02  0.1143272E+00
         21   -1    0    0  501  502  0.00000000000E+00  0.00000000000E+00  0.14749611159E+03  0.14749611159E+03  0.00000000000E+00 0.  1.
         21   -1    0    0  502  503 -0.00000000000E+00 -0.00000000000E+00 -0.32408936617E+03  0.32408936617E+03  0.00000000000E+00 0.  1.
          6    1    1    2  501    0  0.43955823231E+02  0.10811825712E+03 -0.16141214236E+03  0.26317209506E+03  0.17200000000E+03 0.  1.
         -6    1    1    2    0  503 -0.43955823231E+02 -0.10811825712E+03 -0.15181112217E+02  0.20841338269E+03  0.17200000000E+03 0.  1.
</event>
<event>
 4    1  0.1244074E+000  0.1802262E+03  0.7818608E-02  0.1167584E+00
         21   -1    0    0  501  502  0.00000000000E+00  0.00000000000E+00  0.64499664384E+03  0.64499664384E+03  0.00000000000E+00 0.  1.
         21   -1    0    0  502  503 -0.00000000000E+00 -0.00000000000E+00 -0.57958690171E+02  0.57958690171E+02  0.00000000000E+00 0. -1.
          6    1    1    2  501    0  0.46520844525E+02 -0.27079599873E+02  0.42079061250E+03  0.45776220167E+03  0.17200000000E+03 0.  1.
         -6    1    1    2    0  503 -0.46520844525E+02  0.27079599873E+02  0.16624734117E+03  0.24519313235E+03  0.17200000000E+03 0. -1.
</event>
<event>
 4    1  0.1244074E+000  0.2605048E+03  0.7818608E-02  0.1106840E+00
         21   -1    0    0  501  502  0.00000000000E+00  0.00000000000E+00  0.84906273362E+02  0.84906273362E+02  0.00000000000E+00 0.  1.
         21   -1    0    0  502  503 -0.00000000000E+00 -0.00000000000E+00 -0.14094967414E+04  0.14094967414E+04  0.00000000000E+00 0.  1.
          6    1    1    2  501    0 -0.16907760186E+03  0.98445392503E+02 -0.17064912897E+03  0.31142231129E+03  0.17200000000E+03 0.  1.
         -6    1    1    2    0  503  0.16907760186E+03 -0.98445392503E+02 -0.11539413391E+04  0.11829807035E+04  0.17200000000E+03 0.  1.
</event>
<event>
 4    1  0.1244074E+000  0.3434956E+03  0.7818608E-02  0.1065317E+00
         21   -1    0    0  501  502  0.00000000000E+00  0.00000000000E+00  0.16852980355E+03  0.16852980355E+03  0.00000000000E+00 0. -1.
         21   -1    0    0  502  503 -0.00000000000E+00 -0.00000000000E+00 -0.70012549701E+03  0.70012549701E+03  0.00000000000E+00 0. -1.
          6    1    1    2  501    0  0.23885023226E+03 -0.17707557811E+03 -0.26792066303E+03  0.43562676168E+03  0.17200000000E+03 0.  1.
         -6    1    1    2    0  503 -0.23885023226E+03  0.17707557811E+03 -0.26367503043E+03  0.43302853888E+03  0.17200000000E+03 0.  1.
</event>
<event>
 4    1  0.1244074E+000  0.1720965E+03  0.7818608E-02  0.1175679E+00
         21   -1    0    0  503  502  0.00000000000E+00  0.00000000000E+00  0.13234018232E+03  0.13234018232E+03  0.00000000000E+00 0.  1.
         21   -1    0    0  501  503 -0.00000000000E+00 -0.00000000000E+00 -0.26649494911E+03  0.26649494911E+03  0.00000000000E+00 0.  1.
          6    1    1    2  501    0 -0.78580367409E+00  0.57094742651E+01  0.12745432839E+02  0.17256784649E+03  0.17200000000E+03 0.  1.
         -6    1    1    2    0  502  0.78580367409E+00 -0.57094742651E+01 -0.14690019963E+03  0.22626728494E+03  0.17200000000E+03 0.  1.
</event>
<event>
 4    1  0.1244074E+000  0.2085828E+03  0.7818608E-02  0.1142693E+00
         21   -1    0    0  503  502  0.00000000000E+00  0.00000000000E+00  0.59514196771E+02  0.59514196771E+02  0.00000000000E+00 0. -1.
         21   -1    0    0  501  503 -0.00000000000E+00 -0.00000000000E+00 -0.73105984238E+03  0.73105984238E+03  0.00000000000E+00 0. -1.
          6    1    1    2  501    0  0.18072117074E+02 -0.11660269868E+03 -0.33333962316E+03  0.39322016114E+03  0.17200000000E+03 0. -1.
         -6    1    1    2    0  502 -0.18072117074E+02  0.11660269868E+03 -0.33820602244E+03  0.39735387801E+03  0.17200000000E+03 0. -1.
</event>
<event>
 4    1  0.1244074E+000  0.1759763E+03  0.7818608E-02  0.1171755E+00
         21   -1    0    0  503  502  0.00000000000E+00  0.00000000000E+00  0.62419750827E+02  0.62419750827E+02  0.00000000000E+00 0. -1.
         21   -1    0    0  501  503 -0.00000000000E+00 -0.00000000000E+00 -0.60810225218E+03  0.60810225218E+03  0.00000000000E+00 0. -1.
          6    1    1    2  501    0 -0.35971731753E+02  0.94710586900E+01 -0.41671115768E+03  0.45234484122E+03  0.17200000000E+03 0. -1.
         -6    1    1    2    0  502  0.35971731753E+02 -0.94710586900E+01 -0.12897134367E+03  0.21817716179E+03  0.17200000000E+03 0. -1.
</event>
<event>
 4    1  0.1244074E+000  0.1822247E+03  0.7818608E-02  0.1165667E+00
         21   -1    0    0  503  502  0.00000000000E+00  0.00000000000E+00  0.13696634418E+04  0.13696634418E+04  0.00000000000E+00 0.  1.
         21   -1    0    0  501  503 -0.00000000000E+00 -0.00000000000E+00 -0.27133435324E+02  0.27133435324E+02  0.00000000000E+00 0.  1.
          6    1    1    2  501    0  0.50873135694E+02 -0.32152451648E+02  0.89917945510E+03  0.91745819990E+03  0.17200000000E+03 0. -1.
         -6    1    1    2    0  502 -0.50873135694E+02  0.32152451648E+02  0.44335055138E+03  0.47933867723E+03  0.17200000000E+03 0. -1.
</event>
<event>
 4    1  0.1244074E+000  0.1918060E+03  0.7818608E-02  0.1156842E+00
         21   -1    0    0  501  502  0.00000000000E+00  0.00000000000E+00  0.38266414730E+03  0.38266414730E+03  0.00000000000E+00 0. -1.
         21   -1    0    0  502  503 -0.00000000000E+00 -0.00000000000E+00 -0.99128120522E+02  0.99128120522E+02  0.00000000000E+00 0.  1.
          6    1    1    2  501    0 -0.23154193749E+02  0.81666633046E+02  0.18358837728E+03  0.26550752892E+03  0.17200000000E+03 0.  1.
         -6    1    1    2    0  503  0.23154193749E+02 -0.81666633046E+02  0.99947649497E+02  0.21628473890E+03  0.17200000000E+03 0.  1.
</event>
<event>
 4    1  0.1244074E+000  0.2617909E+03  0.7818608E-02  0.1106072E+00
         21   -1    0    0  503  502  0.00000000000E+00  0.00000000000E+00  0.88854600495E+02  0.88854600495E+02  0.00000000000E+00 0.  1.
         21   -1    0    0  501  503 -0.00000000000E+00 -0.00000000000E+00 -0.78033965129E+03  0.78033965129E+03  0.00000000000E+00 0.  1.
          6    1    1    2  501    0  0.15860720899E+03 -0.11744882880E+03 -0.39249146673E+03  0.47178811514E+03  0.17200000000E+03 0.  1.
         -6    1    1    2    0  502 -0.15860720899E+03  0.11744882880E+03 -0.29899358406E+03  0.39740613664E+03  0.17200000000E+03 0.  1.
</event>
<event>
 4    1  0.1244074E+000  0.2225388E+03  0.7818608E-02  0.1132004E+00
         21   -1    0    0  501  502  0.00000000000E+00  0.00000000000E+00  0.82083583113E+02  0.82083583113E+02  0.00000000000E+00 0.  1.
         21   -1    0    0  502  503 -0.00000000000E+00 -0.00000000000E+00 -0.65864033352E+03  0.65864033352E+03  0.00000000000E+00 0. -1.
          6    1    1    2  501    0 -0.14108029316E+03  0.59904117540E+01 -0.39560393230E+03  0.45390087618E+03  0.17200000000E+03 0.  1.
         -6    1    1    2    0  503  0.14108029316E+03 -0.59904117540E+01 -0.18095281811E+03  0.28682304045E+03  0.17200000000E+03 0.  1.
</event>
<event>
 4    1  0.1244074E+000  0.1751095E+03  0.7818608E-02  0.1172622E+00
         21   -1    0    0  501  502  0.00000000000E+00  0.00000000000E+00  0.56289782830E+03  0.56289782830E+03  0.00000000000E+00 0.  1.
         21   -1    0    0  502  503 -0.00000000000E+00 -0.00000000000E+00 -0.75584017267E+02  0.75584017267E+02  0.00000000000E+00 0.  1.
          6    1    1    2  501    0  0.38326163560E+01 -0.32628846162E+02  0.41236939757E+03  0.44800876175E+03  0.17200000000E+03 0.  1.
         -6    1    1    2    0  503 -0.38326163560E+01  0.32628846162E+02  0.74944413462E+02  0.19047308382E+03  0.17200000000E+03 0.  1.
</event>
<event>
 4    1  0.1244074E+000  0.1747456E+03  0.7818608E-02  0.1172987E+00
         21   -1    0    0  503  502  0.00000000000E+00  0.00000000000E+00  0.50656933566E+02  0.50656933566E+02  0.00000000000E+00 0. -1.
         21   -1    0    0  501  503 -0.00000000000E+00 -0.00000000000E+00 -0.74232677023E+03  0.74232677023E+03  0.00000000000E+00 0. -1.
          6    1    1    2  501    0  0.29375829470E+02 -0.94386096470E+01 -0.17393936519E+03  0.24655816651E+03  0.17200000000E+03 0. -1.
         -6    1    1    2    0  502 -0.29375829470E+02  0.94386096470E+01 -0.51773047147E+03  0.54642553729E+03  0.17200000000E+03 0. -1.
</event>
<event>
 4    1  0.1244074E+000  0.1910543E+03  0.7818608E-02  0.1157514E+00
         21   -1    0    0  503  502  0.00000000000E+00  0.00000000000E+00  0.33819104575E+03  0.33819104575E+03  0.00000000000E+00 0.  1.
         21   -1    0    0  501  503 -0.00000000000E+00 -0.00000000000E+00 -0.17940783931E+03  0.17940783931E+03  0.00000000000E+00 0.  1.
          6    1    1    2  501    0 -0.57517311788E+02 -0.60079070608E+02 -0.83959233279E+02  0.20868849689E+03  0.17200000000E+03 0.  1.
         -6    1    1    2    0  502  0.57517311788E+02  0.60079070608E+02  0.24274243971E+03  0.30891038817E+03  0.17200000000E+03 0.  1.
</event>
<event>
 4    1  0.1244074E+000  0.3974899E+03  0.7818608E-02  0.1044652E+00
         21   -1    0    0  501  502  0.00000000000E+00  0.00000000000E+00  0.16598688715E+04  0.16598688715E+04  0.00000000000E+00 0. -1.
         21   -1    0    0  502  503 -0.00000000000E+00 -0.00000000000E+00 -0.97353694563E+02  0.97353694563E+02  0.00000000000E+00 0.  1.
          6    1    1    2  501    0 -0.28946266037E+03  0.21124769667E+03  0.91232729502E+03  0.99515793437E+03  0.17200000000E+03 0.  1.
         -6    1    1    2    0  503  0.28946266037E+03 -0.21124769667E+03  0.65018788193E+03  0.76206463171E+03  0.17200000000E+03 0. -1.
</event>
<event>
 4    1  0.1244074E+000  0.1795646E+03  0.7818608E-02  0.1168225E+00
         21   -1    0    0  503  502  0.00000000000E+00  0.00000000000E+00  0.98429353129E+02  0.98429353129E+02  0.00000000000E+00 0. -1.
         21   -1    0    0  501  503 -0.00000000000E+00 -0.00000000000E+00 -0.35517804498E+03  0.35517804498E+03  0.00000000000E+00 0. -1.
          6    1    1    2  501    0  0.31282794359E+02  0.40997847065E+02 -0.19159664690E+03  0.26258848374E+03  0.17200000000E+03 0. -1.
         -6    1    1    2    0  502 -0.31282794359E+02 -0.40997847065E+02 -0.65152044948E+02  0.19101891437E+03  0.17200000000E+03 0. -1.
</event>
<event>
 4    1  0.1244074E+000  0.3213180E+03  0.7818608E-02  0.1075044E+00
         21   -1    0    0  501  502  0.00000000000E+00  0.00000000000E+00  0.57932854320E+03  0.57932854320E+03  0.00000000000E+00 0.  1.
         21   -1    0    0  502  503 -0.00000000000E+00 -0.00000000000E+00 -0.20286823637E+03  0.20286823637E+03  0.00000000000E+00 0.  1.
          6    1    1    2  501    0  0.25702833081E+03  0.87164641782E+02  0.32456689508E+03  0.45671534570E+03  0.17200000000E+03 0.  1.
         -6    1    1    2    0  503 -0.25702833081E+03 -0.87164641782E+02  0.51893411744E+02  0.32548143387E+03  0.17200000000E+03 0.  1.
</event>
<event>
 4    1  0.1244074E+000  0.2944048E+03  0.7818608E-02  0.1088072E+00
         21   -1    0    0  501  502  0.00000000000E+00  0.00000000000E+00  0.29349148537E+02  0.29349148537E+02  0.00000000000E+00 0.  1.
         21   -1    0    0  502  503 -0.00000000000E+00 -0.00000000000E+00 -0.40034021259E+04  0.40034021259E+04  0.00000000000E+00 0. -1.
          6    1    1    2  501    0  0.13982153472E+03  0.19375272035E+03 -0.30197673454E+04  0.30340845404E+04  0.17200000000E+03 0. -1.
         -6    1    1    2    0  503 -0.13982153472E+03 -0.19375272035E+03 -0.95428563198E+03  0.99866673401E+03  0.17200000000E+03 0.  1.
</event>
<event>
 4    1  0.1244074E+000  0.2322950E+03  0.7818608E-02  0.1125035E+00
         21   -1    0    0  503  502  0.00000000000E+00  0.00000000000E+00  0.12180423517E+04  0.12180423517E+04  0.00000000000E+00 0.  1.
         21   -1    0    0  501  503 -0.00000000000E+00 -0.00000000000E+00 -0.44534389358E+02  0.44534389358E+02  0.00000000000E+00 0. -1.
          6    1    1    2  501    0 -0.54763376396E+02 -0.14621197193E+03  0.63241633183E+03  0.67372945972E+03  0.17200000000E+03 0.  1.
         -6    1    1    2    0  502  0.54763376396E+02  0.14621197193E+03  0.54109163054E+03  0.58884728137E+03  0.17200000000E+03 0. -1.
</event>
<event>
 4    1  0.1244074E+000  0.2064360E+03  0.7818608E-02  0.1144420E+00
         21   -1    0    0  501  502  0.00000000000E+00  0.00000000000E+00  0.72656314805E+02  0.72656314805E+02  0.00000000000E+00 0.  1.
         21   -1    0    0  502  503 -0.00000000000E+00 -0.00000000000E+00 -0.59253214326E+03  0.59253214326E+03  0.00000000000E+00 0.  1.
          6    1    1    2  501    0 -0.81580056603E+02 -0.79853147640E+02 -0.29338450620E+03  0.35873430182E+03  0.17200000000E+03 0.  1.
         -6    1    1    2    0  503  0.81580056603E+02  0.79853147640E+02 -0.22649132225E+03  0.30645415624E+03  0.17200000000E+03 0.  1.
</event>
<event>
 4    1  0.1244074E+000  0.2002733E+03  0.7818608E-02  0.1149509E+00
         21   -1    0    0  501  502  0.00000000000E+00  0.00000000000E+00  0.10165598163E+04  0.10165598163E+04  0.00000000000E+00 0. -1.
         21   -1    0    0  502  503 -0.00000000000E+00 -0.00000000000E+00 -0.11154985092E+03  0.11154985092E+03  0.00000000000E+00 0. -1.
          6    1    1    2  501    0 -0.77428900773E+02  0.67306593967E+02  0.90596171774E+03  0.92783406183E+03  0.17200000000E+03 0. -1.
         -6    1    1    2    0  503  0.77428900773E+02 -0.67306593967E+02 -0.95175241337E+00  0.20027560535E+03  0.17200000000E+03 0. -1.
</event>
<event>
 4    1  0.1244074E+000  0.2245517E+03  0.7818608E-02  0.1130534E+00
         21   -1    0    0  501  502  0.00000000000E+00  0.00000000000E+00  0.18781960872E+03  0.18781960872E+03  0.00000000000E+00 0.  1.
         21   -1    0    0  502  503 -0.00000000000E+00 -0.00000000000E+00 -0.32624934101E+03  0.32624934101E+03  0.00000000000E+00 0.  1.
          6    1    1    2  501    0 -0.10153942650E+03  0.10261189393E+03  0.38956506574E+02  0.22790582554E+03  0.17200000000E+03 0.  1.
         -6    1    1    2    0  503  0.10153942650E+03 -0.10261189393E+03 -0.17738623886E+03  0.28616312419E+03  0.17200000000E+03 0.  1.
</event>
<event>
 4    1  0.1244074E+000  0.1983979E+03  0.7818608E-02  0.1151098E+00
         21   -1    0    0  503  502  0.00000000000E+00  0.00000000000E+00  0.70288165828E+02  0.70288165828E+02  0.00000000000E+00 0. -1.
         21   -1    0    0  501  503 -0.00000000000E+00 -0.00000000000E+00 -0.56006179201E+03  0.56006179201E+03  0.00000000000E+00 0. -1.
          6    1    1    2  501    0 -0.61769385929E+01  0.98689227923E+02 -0.24171063432E+03  0.31270712979E+03  0.17200000000E+03 0. -1.
         -6    1    1    2    0  502  0.61769385929E+01 -0.98689227923E+02 -0.24806299186E+03  0.31764282805E+03  0.17200000000E+03 0. -1.
</event>
<event>
 4    1  0.1244074E+000  0.1990728E+03  0.7818608E-02  0.1150524E+00
         21   -1    0    0  501  502  0.00000000000E+00  0.00000000000E+00  0.14642608540E+03  0.14642608540E+03  0.00000000000E+00 0. -1.
         21   -1    0    0  502  503 -0.00000000000E+00 -0.00000000000E+00 -0.30014474054E+03  0.30014474054E+03  0.00000000000E+00 0.  1.
          6    1    1    2  501    0  0.84560114900E+02 -0.53810554675E+02 -0.68624130168E+01  0.19919106792E+03  0.17200000000E+03 0. -1.
         -6    1    1    2    0  503 -0.84560114900E+02  0.53810554675E+02 -0.14685624213E+03  0.24737975802E+03  0.17200000000E+03 0.  1.
</event>
<event>
 4    1  0.1244074E+000  0.2011704E+03  0.7818608E-02  0.1148755E+00
         21   -1    0    0  501  502  0.00000000000E+00  0.00000000000E+00  0.61246144685E+02  0.61246144685E+02  0.00000000000E+00 0.  1.
         21   -1    0    0  502  503 -0.00000000000E+00 -0.00000000000E+00 -0.68833019949E+03  0.68833019949E+03  0.00000000000E+00 0.  1.
          6    1    1    2  501    0 -0.79787305155E+02 -0.67227405847E+02 -0.38853810171E+03  0.43752873579E+03  0.17200000000E+03 0.  1.
         -6    1    1    2    0  503  0.79787305155E+02  0.67227405847E+02 -0.23854595309E+03  0.31204760838E+03  0.17200000000E+03 0.  1.
</event>
<event>
 4    1  0.1244074E+000  0.4049790E+03  0.7818608E-02  0.1042069E+00
         21   -1    0    0  503  502  0.00000000000E+00  0.00000000000E+00  0.17249594152E+03  0.17249594152E+03  0.00000000000E+00 0.  1.
         21   -1    0    0  501  503 -0.00000000000E+00 -0.00000000000E+00 -0.10262089666E+04  0.10262089666E+04  0.00000000000E+00 0. -1.
          6    1    1    2  501    0 -0.16840929797E+03  0.32567209380E+03 -0.58933462234E+03  0.71506873894E+03  0.17200000000E+03 0. -1.
         -6    1    1    2    0  502  0.16840929797E+03 -0.32567209380E+03 -0.26437840277E+03  0.48363616922E+03  0.17200000000E+03 0.  1.
</event>
<event>
 4    1  0.1244074E+000  0.1931820E+03  0.7818608E-02  0.1155622E+00
         21   -1    0    0  501  502  0.00000000000E+00  0.00000000000E+00  0.18483269005E+03  0.18483269005E+03  0.00000000000E+00 0.  1.
         21   -1    0    0  502  503 -0.00000000000E+00 -0.00000000000E+00 -0.21354625215E+03  0.21354625215E+03  0.00000000000E+00 0. -1.
          6    1    1    2  501    0 -0.38078906614E+02  0.79279659211E+02  0.32143689396E+02  0.19583790303E+03  0.17200000000E+03 0.  1.
         -6    1    1    2    0  503  0.38078906614E+02 -0.79279659211E+02 -0.60857251496E+02  0.20254103918E+03  0.17200000000E+03 0. -1.
</event>
<event>
 4    1  0.1244074E+000  0.2872146E+03  0.7818608E-02  0.1091812E+00
         21   -1    0    0  503  502  0.00000000000E+00  0.00000000000E+00  0.21568843846E+03  0.21568843846E+03  0.00000000000E+00 0. -1.
         21   -1    0    0  501  503 -0.00000000000E+00 -0.00000000000E+00 -0.38508537696E+03  0.38508537696E+03  0.00000000000E+00 0.  1.
          6    1    1    2  501    0 -0.22410942253E+03 -0.51799671343E+02 -0.59896660856E+02  0.29339367614E+03  0.17200000000E+03 0.  1.
         -6    1    1    2    0  502  0.22410942253E+03  0.51799671343E+02 -0.10950027764E+03  0.30738013927E+03  0.17200000000E+03 0.  1.
</event>
<event>
 4    1  0.1244074E+000  0.2024920E+03  0.7818608E-02  0.1147653E+00
         21   -1    0    0  501  502  0.00000000000E+00  0.00000000000E+00  0.14040906433E+03  0.14040906433E+03  0.00000000000E+00 0. -1.
         21   -1    0    0  502  503 -0.00000000000E+00 -0.00000000000E+00 -0.40541712950E+03  0.40541712950E+03  0.00000000000E+00 0.  1.
          6    1    1    2  501    0 -0.91855851180E+02 -0.54603107695E+02 -0.27683656909E+03  0.34298904174E+03  0.17200000000E+03 0.  1.
         -6    1    1    2    0  503  0.91855851180E+02  0.54603107695E+02  0.11828503922E+02  0.20283715210E+03  0.17200000000E+03 0. -1.
</event>
<event>
 4    1  0.1244074E+000  0.1884793E+03  0.7818608E-02  0.1159840E+00
         21   -1    0    0  503  502  0.00000000000E+00  0.00000000000E+00  0.11728895703E+03  0.11728895703E+03  0.00000000000E+00 0. -1.
         21   -1    0    0  501  503 -0.00000000000E+00 -0.00000000000E+00 -0.33158340141E+03  0.33158340141E+03  0.00000000000E+00 0.  1.
          6    1    1    2  501    0  0.65457476157E+02  0.40691250449E+02 -0.17318074462E+03  0.25596099186E+03  0.17200000000E+03 0.  1.
         -6    1    1    2    0  502 -0.65457476157E+02 -0.40691250449E+02 -0.41113699759E+02  0.19291136658E+03  0.17200000000E+03 0. -1.
</event>
<event>
 4    1  0.1244074E+000  0.1749378E+03  0.7818608E-02  0.1172794E+00
         21   -1    0    0  503  502  0.00000000000E+00  0.00000000000E+00  0.68199176807E+03  0.68199176807E+03  0.00000000000E+00 0.  1.
         21   -1    0    0  501  503 -0.00000000000E+00 -0.00000000000E+00 -0.51692148336E+02  0.51692148336E+02  0.00000000000E+00 0.  1.
          6    1    1    2  501    0 -0.17367174013E+02 -0.26788136429E+02  0.18191363849E+03  0.25238025845E+03  0.17200000000E+03 0.  1.
         -6    1    1    2    0  502  0.17367174013E+02  0.26788136429E+02  0.44838598125E+03  0.48130365796E+03  0.17200000000E+03 0.  1.
</event>
<event>
 4    1  0.1244074E+000  0.1830180E+03  0.7818608E-02  0.1164914E+00
         21   -1    0    0  501  502  0.00000000000E+00  0.00000000000E+00  0.16948054393E+03  0.16948054393E+03  0.00000000000E+00 0. -1.
         21   -1    0    0  502  503 -0.00000000000E+00 -0.00000000000E+00 -0.72915968801E+03  0.72915968801E+03  0.00000000000E+00 0. -1.
          6    1    1    2  501    0 -0.44097692894E+02  0.44350670277E+02  0.10378421805E+03  0.21039665489E+03  0.17200000000E+03 0. -1.
         -6    1    1    2    0  503  0.44097692894E+02 -0.44350670277E+02 -0.66346336213E+03  0.68824357706E+03  0.17200000000E+03 0. -1.
</event>
<event>
 4    1  0.1244074E+000  0.1785330E+03  0.7818608E-02  0.1169230E+00
         21   -1    0    0  503  502  0.00000000000E+00  0.00000000000E+00  0.49396757622E+02  0.49396757622E+02  0.00000000000E+00 0.  1.
         21   -1    0    0  501  503 -0.00000000000E+00 -0.00000000000E+00 -0.64601342130E+03  0.64601342130E+03  0.00000000000E+00 0.  1.
          6    1    1    2  501    0  0.18938795343E+01  0.47816714538E+02 -0.31013900961E+03  0.35785504083E+03  0.17200000000E+03 0.  1.
         -6    1    1    2    0  502 -0.18938795343E+01 -0.47816714538E+02 -0.28647765407E+03  0.33755513809E+03  0.17200000000E+03 0.  1.
</event>
<event>
 4    1  0.1244074E+000  0.1917502E+03  0.7818608E-02  0.1156892E+00
         21   -1    0    0  501  502  0.00000000000E+00  0.00000000000E+00  0.92776852214E+02  0.92776852214E+02  0.00000000000E+00 0.  1.
         21   -1    0    0  502  503 -0.00000000000E+00 -0.00000000000E+00 -0.50132130327E+03  0.50132130327E+03  0.00000000000E+00 0.  1.
          6    1    1    2  501    0  0.72089970337E+02  0.44577902354E+02 -0.68317744562E+02  0.20355703727E+03  0.17200000000E+03 0.  1.
         -6    1    1    2    0  503 -0.72089970337E+02 -0.44577902354E+02 -0.34022670650E+03  0.39054111821E+03  0.17200000000E+03 0.  1.
</event>
<event>
 4    1  0.1244074E+000  0.2199377E+03  0.7818608E-02  0.1133930E+00
         21   -1    0    0  501  502  0.00000000000E+00  0.00000000000E+00  0.23490782053E+03  0.23490782053E+03  0.00000000000E+00 0.  1.
         21   -1    0    0  502  503 -0.00000000000E+00 -0.00000000000E+00 -0.34995989009E+03  0.34995989009E+03  0.00000000000E+00 0.  1.
          6    1    1    2  501    0 -0.13693947330E+03  0.60126935094E+01  0.13008467936E+03  0.25552807211E+03  0.17200000000E+03 0.  1.
         -6    1    1    2    0  503  0.13693947330E+03 -0.60126935094E+01 -0.24513674891E+03  0.32933963852E+03  0.17200000000E+03 0.  1.
</event>
<event>
 4    1  0.1244074E+000  0.3134917E+03  0.7818608E-02  0.1078684E+00
         21   -1    0    0  503  502  0.00000000000E+00  0.00000000000E+00  0.16336318740E+03  0.16336318740E+03  0.00000000000E+00 0. -1.
         21   -1    0    0  501  503 -0.00000000000E+00 -0.00000000000E+00 -0.14622264722E+04  0.14622264722E+04  0.00000000000E+00 0.  1.
          6    1    1    2  501    0  0.25515173943E+03 -0.59921943738E+02 -0.12730005144E+04  0.13110329360E+04  0.17200000000E+03 0.  1.
         -6    1    1    2    0  502 -0.25515173943E+03  0.59921943738E+02 -0.25862770366E+02  0.31455672361E+03  0.17200000000E+03 0. -1.
</event>
<event>
 4    1  0.1244074E+000  0.1836296E+03  0.7818608E-02  0.1164336E+00
         21   -1    0    0  501  502  0.00000000000E+00  0.00000000000E+00  0.59705193544E+03  0.59705193544E+03  0.00000000000E+00 0.  1.
         21   -1    0    0  502  503 -0.00000000000E+00 -0.00000000000E+00 -0.86201015986E+02  0.86201015986E+02  0.00000000000E+00 0.  1.
          6    1    1    2  501    0  0.40150965022E+02  0.50236825593E+02  0.45603306868E+03  0.49161570191E+03  0.17200000000E+03 0.  1.
         -6    1    1    2    0  503 -0.40150965022E+02 -0.50236825593E+02  0.54817850776E+02  0.19163724951E+03  0.17200000000E+03 0.  1.
</event>
<event>
 4    1  0.1244074E+000  0.2017960E+03  0.7818608E-02  0.1148233E+00
         21   -1    0    0  503  502  0.00000000000E+00  0.00000000000E+00  0.13279990680E+04  0.13279990680E+04  0.00000000000E+00 0.  1.
         21   -1    0    0  501  503 -0.00000000000E+00 -0.00000000000E+00 -0.66426329867E+02  0.66426329867E+02  0.00000000000E+00 0.  1.
          6    1    1    2  501    0 -0.35327701044E+02 -0.99446379967E+02  0.11921211817E+03  0.23437823719E+03  0.17200000000E+03 0.  1.
         -6    1    1    2    0  502  0.35327701044E+02  0.99446379967E+02  0.11423606200E+04  0.11600471607E+04  0.17200000000E+03 0.  1.
</event>
<event>
 4    1  0.1244074E+000  0.2233413E+03  0.7818608E-02  0.1131416E+00
         21   -1    0    0  501  502  0.00000000000E+00  0.00000000000E+00  0.23360221817E+03  0.23360221817E+03  0.00000000000E+00 0. -1.
         21   -1    0    0  502  503 -0.00000000000E+00 -0.00000000000E+00 -0.31213072981E+03  0.31213072981E+03  0.00000000000E+00 0.  1.
          6    1    1    2  501    0  0.52933432009E+02  0.13227019251E+03  0.11409833282E+03  0.25079828868E+03  0.17200000000E+03 0. -1.
         -6    1    1    2    0  503 -0.52933432009E+02 -0.13227019251E+03 -0.19262684446E+03  0.29493465930E+03  0.17200000000E+03 0. -1.
</event>
<event>
 4    1  0.1244074E+000  0.1755712E+03  0.7818608E-02  0.1172159E+00
         21   -1    0    0  503  502  0.00000000000E+00  0.00000000000E+00  0.11915567370E+04  0.11915567370E+04  0.00000000000E+00 0. -1.
         21   -1    0    0  501  503 -0.00000000000E+00 -0.00000000000E+00 -0.26251981360E+02  0.26251981360E+02  0.00000000000E+00 0. -1.
          6    1    1    2  501    0  0.34983857771E+02 -0.41665144406E+01  0.65612956656E+03  0.67921369117E+03  0.17200000000E+03 0. -1.
         -6    1    1    2    0  502 -0.34983857771E+02  0.41665144406E+01  0.50917518905E+03  0.53859502717E+03  0.17200000000E+03 0. -1.
</event>
<event>
 4    1  0.1244074E+000  0.1764263E+03  0.7818608E-02  0.1171307E+00
         21   -1    0    0  503  502  0.00000000000E+00  0.00000000000E+00  0.10436038972E+03  0.10436038972E+03  0.00000000000E+00 0. -1.
         21   -1    0    0  501  503 -0.00000000000E+00 -0.00000000000E+00 -0.34373508043E+03  0.34373508043E+03  0.00000000000E+00 0. -1.
          6    1    1    2  501    0  0.36787821707E+02  0.13743642656E+02 -0.20118197976E+03  0.26758254898E+03  0.17200000000E+03 0.  1.
         -6    1    1    2    0  502 -0.36787821707E+02 -0.13743642656E+02 -0.38192710938E+02  0.18051292117E+03  0.17200000000E+03 0.  1.
</event>
<event>
 4    1  0.1244074E+000  0.1938119E+03  0.7818608E-02  0.1155067E+00
         21   -1    0    0  503  502  0.00000000000E+00  0.00000000000E+00  0.44800824624E+03  0.44800824624E+03  0.00000000000E+00 0. -1.
         21   -1    0    0  501  503 -0.00000000000E+00 -0.00000000000E+00 -0.95489681456E+02  0.95489681456E+02  0.00000000000E+00 0. -1.
          6    1    1    2  501    0  0.69550963867E+02  0.56051133349E+02  0.81360379229E+02  0.21019652098E+03  0.17200000000E+03 0.  1.
         -6    1    1    2    0  502 -0.69550963867E+02 -0.56051133349E+02  0.27115818556E+03  0.33330140672E+03  0.17200000000E+03 0.  1.
</event>
<event>
 4    1  0.1244074E+000  0.2017118E+03  0.7818608E-02  0.1148303E+00
         21   -1    0    0  501  502  0.00000000000E+00  0.00000000000E+00  0.93490213804E+02  0.93490213804E+02  0.00000000000E+00 0.  1.
         21   -1    0    0  502  503 -0.00000000000E+00 -0.00000000000E+00 -0.43700464449E+03  0.43700464449E+03  0.00000000000E+00 0. -1.
          6    1    1    2  501    0 -0.73325927025E+02  0.75676620718E+02 -0.15474741167E+03  0.25423297173E+03  0.17200000000E+03 0.  1.
         -6    1    1    2    0  503  0.73325927025E+02 -0.75676620718E+02 -0.18876701901E+03  0.27626188656E+03  0.17200000000E+03 0. -1.
</event>
<event>
 4    1  0.1244074E+000  0.1896788E+03  0.7818608E-02  0.1158751E+00
         21   -1    0    0  503  502  0.00000000000E+00  0.00000000000E+00  0.64520212502E+02  0.64520212502E+02  0.00000000000E+00 0. -1.
         21   -1    0    0  501  503 -0.00000000000E+00 -0.00000000000E+00 -0.96050284585E+03  0.96050284585E+03  0.00000000000E+00 0. -1.
          6    1    1    2  501    0  0.56985782584E+02  0.56095297985E+02 -0.77991725015E+03  0.80265121875E+03  0.17200000000E+03 0. -1.
         -6    1    1    2    0  502 -0.56985782584E+02 -0.56095297985E+02 -0.11606538320E+03  0.22237183960E+03  0.17200000000E+03 0. -1.
</event>
<event>
 4    1  0.1244074E+000  0.1861329E+03  0.7818608E-02  0.1161996E+00
         21   -1    0    0  503  502  0.00000000000E+00  0.00000000000E+00  0.22634703445E+03  0.22634703445E+03  0.00000000000E+00 0.  1.
         21   -1    0    0  501  503 -0.00000000000E+00 -0.00000000000E+00 -0.15307617994E+03  0.15307617994E+03  0.00000000000E+00 0.  1.
          6    1    1    2  501    0 -0.70201603786E+02 -0.11541370780E+02  0.38362324092E+02  0.19004509024E+03  0.17200000000E+03 0. -1.
         -6    1    1    2    0  502  0.70201603786E+02  0.11541370780E+02  0.34908530422E+02  0.18937812416E+03  0.17200000000E+03 0. -1.
</event>
<event>
 4    1  0.1244074E+000  0.1879496E+03  0.7818608E-02  0.1160324E+00
         21   -1    0    0  503  502  0.00000000000E+00  0.00000000000E+00  0.24683996615E+03  0.24683996615E+03  0.00000000000E+00 0.  1.
         21   -1    0    0  501  503 -0.00000000000E+00 -0.00000000000E+00 -0.15007772874E+03  0.15007772874E+03  0.00000000000E+00 0.  1.
          6    1    1    2  501    0  0.38031034923E+02  0.65533852867E+02  0.56163632259E+01  0.18803347847E+03  0.17200000000E+03 0.  1.
         -6    1    1    2    0  502 -0.38031034923E+02 -0.65533852867E+02  0.91145874184E+02  0.20888421642E+03  0.17200000000E+03 0.  1.
</event>
<event>
 4    1  0.1244074E+000  0.1853063E+03  0.7818608E-02  0.1162764E+00
         21   -1    0    0  503  502  0.00000000000E+00  0.00000000000E+00  0.12704797488E+03  0.12704797488E+03  0.00000000000E+00 0.  1.
         21   -1    0    0  501  503 -0.00000000000E+00 -0.00000000000E+00 -0.43702623980E+03  0.43702623980E+03  0.00000000000E+00 0.  1.
          6    1    1    2  501    0 -0.68822397673E+02  0.42294817435E+01 -0.32920259224E+03  0.37777342108E+03  0.17200000000E+03 0.  1.
         -6    1    1    2    0  502  0.68822397673E+02 -0.42294817435E+01  0.19224327308E+02  0.18630079360E+03  0.17200000000E+03 0.  1.
</event>
<event>
 4    1  0.1244074E+000  0.1843652E+03  0.7818608E-02  0.1163644E+00
         21   -1    0    0  503  502  0.00000000000E+00  0.00000000000E+00  0.81393796000E+02  0.81393796000E+02  0.00000000000E+00 0.  1.
         21   -1    0    0  501  503 -0.00000000000E+00 -0.00000000000E+00 -0.65017008111E+03  0.65017008111E+03  0.00000000000E+00 0.  1.
          6    1    1    2  501    0 -0.11394028222E+02  0.65396519318E+02 -0.65621959436E+02  0.19569560592E+03  0.17200000000E+03 0.  1.
         -6    1    1    2    0  502  0.11394028222E+02 -0.65396519318E+02 -0.50315432567E+03  0.53586827118E+03  0.17200000000E+03 0.  1.
</event>
<event>
 4    1  0.1244074E+000  0.2180439E+03  0.7818608E-02  0.1135350E+00
         21   -1    0    0  503  502  0.00000000000E+00  0.00000000000E+00  0.51490540287E+02  0.51490540287E+02  0.00000000000E+00 0. -1.
         21   -1    0    0  501  503 -0.00000000000E+00 -0.00000000000E+00 -0.12938097811E+04  0.12938097811E+04  0.00000000000E+00 0.  1.
          6    1    1    2  501    0  0.80635945016E+02  0.10703729229E+03 -0.98110118440E+03  0.10050386418E+04  0.17200000000E+03 0.  1.
         -6    1    1    2    0  502 -0.80635945016E+02 -0.10703729229E+03 -0.26121805642E+03  0.34026167954E+03  0.17200000000E+03 0. -1.
</event>
<event>
 4    1  0.1244074E+000  0.2774984E+03  0.7818608E-02  0.1097063E+00
         21   -1    0    0  501  502  0.00000000000E+00  0.00000000000E+00  0.38539607491E+03  0.38539607491E+03  0.00000000000E+00 0. -1.
         21   -1    0    0  502  503 -0.00000000000E+00 -0.00000000000E+00 -0.20456929643E+03  0.20456929643E+03  0.00000000000E+00 0. -1.
          6    1    1    2  501    0  0.17336832272E+03 -0.13177553729E+03  0.13541430195E+03  0.30877564788E+03  0.17200000000E+03 0.  1.
         -6    1    1    2    0  503 -0.17336832272E+03  0.13177553729E+03  0.45412476527E+02  0.28118972345E+03  0.17200000000E+03 0.  1.
</event>
<event>
 4    1  0.1244074E+000  0.2032665E+03  0.7818608E-02  0.1147012E+00
         21   -1    0    0  501  502  0.00000000000E+00  0.00000000000E+00  0.32244811246E+03  0.32244811246E+03  0.00000000000E+00 0. -1.
         21   -1    0    0  502  503 -0.00000000000E+00 -0.00000000000E+00 -0.14985561407E+03  0.14985561407E+03  0.00000000000E+00 0.  1.
          6    1    1    2  501    0  0.35222718544E+02  0.10243353715E+03  0.17620027067E+03  0.26900521337E+03  0.17200000000E+03 0. -1.
         -6    1    1    2    0  503 -0.35222718544E+02 -0.10243353715E+03 -0.36077722803E+01  0.20329851316E+03  0.17200000000E+03 0. -1.
</event>
<event>
 4    1  0.1244074E+000  0.1869663E+03  0.7818608E-02  0.1161226E+00
         21   -1    0    0  503  502  0.00000000000E+00  0.00000000000E+00  0.69079227555E+02  0.69079227555E+02  0.00000000000E+00 0. -1.
         21   -1    0    0  501  503 -0.00000000000E+00 -0.00000000000E+00 -0.50654245710E+03  0.50654245710E+03  0.00000000000E+00 0.  1.
          6    1    1    2  501    0 -0.21172557564E+02 -0.70172204106E+02 -0.22785308629E+03  0.29474301409E+03  0.17200000000E+03 0. -1.
         -6    1    1    2    0  502  0.21172557564E+02  0.70172204106E+02 -0.20961014326E+03  0.28087867057E+03  0.17200000000E+03 0.  1.
</event>
<event>
 4    1  0.1244074E+000  0.1810550E+03  0.7818608E-02  0.1166786E+00
         21   -1    0    0  501  502  0.00000000000E+00  0.00000000000E+00  0.17252605249E+03  0.17252605249E+03  0.00000000000E+00 0. -1.
         21   -1    0    0  502  503 -0.00000000000E+00 -0.00000000000E+00 -0.19000994448E+03  0.19000994448E+03  0.00000000000E+00 0. -1.
          6    1    1    2  501    0 -0.12237448242E+02  0.55201184600E+02 -0.96030265871E+01  0.18130952551E+03  0.17200000000E+03 0. -1.
         -6    1    1    2    0  503  0.12237448242E+02 -0.55201184600E+02 -0.78808654010E+01  0.18122647147E+03  0.17200000000E+03 0. -1.
</event>
<event>
 4    1  0.1244074E+000  0.1924700E+03  0.7818608E-02  0.1156252E+00
         21   -1    0    0  503  502  0.00000000000E+00  0.00000000000E+00  0.21353474071E+03  0.21353474071E+03  0.00000000000E+00 0.  1.
         21   -1    0    0  501  503 -0.00000000000E+00 -0.00000000000E+00 -0.17348603903E+03  0.17348603903E+03  0.00000000000E+00 0.  1.
          6    1    1    2  501    0  0.40968162276E+02 -0.76041575842E+02  0.19255511412E+02  0.19343083078E+03  0.17200000000E+03 0.  1.
         -6    1    1    2    0  502 -0.40968162276E+02  0.76041575842E+02  0.20793190275E+02  0.19358994896E+03  0.17200000000E+03 0.  1.
</event>
<event>
 4    1  0.1244074E+000  0.1875192E+03  0.7818608E-02  0.1160718E+00
         21   -1    0    0  501  502  0.00000000000E+00  0.00000000000E+00  0.13095393092E+03  0.13095393092E+03  0.00000000000E+00 0.  1.
         21   -1    0    0  502  503 -0.00000000000E+00 -0.00000000000E+00 -0.29957970883E+03  0.29957970883E+03  0.00000000000E+00 0. -1.
          6    1    1    2  501    0 -0.37615560671E+02  0.64532958347E+02 -0.14996412264E+02  0.18811785003E+03  0.17200000000E+03 0.  1.
         -6    1    1    2    0  503  0.37615560671E+02 -0.64532958347E+02 -0.15362936564E+03  0.24241578972E+03  0.17200000000E+03 0. -1.
</event>
<event>
 4    1  0.1244074E+000  0.2683615E+03  0.7818608E-02  0.1102221E+00
         21   -1    0    0  503  502  0.00000000000E+00  0.00000000000E+00  0.10077856011E+03  0.10077856011E+03  0.00000000000E+00 0. -1.
         21   -1    0    0  501  503 -0.00000000000E+00 -0.00000000000E+00 -0.81848450064E+03  0.81848450064E+03  0.00000000000E+00 0.  1.
          6    1    1    2  501    0  0.16772204707E+03  0.11959613685E+03 -0.52259024668E+03  0.58746786035E+03  0.17200000000E+03 0.  1.
         -6    1    1    2    0  502 -0.16772204707E+03 -0.11959613685E+03 -0.19511569385E+03  0.33179520040E+03  0.17200000000E+03 0.  1.
</event>
<event>
 4    1  0.1244074E+000  0.1954009E+03  0.7818608E-02  0.1153678E+00
         21   -1    0    0  501  502  0.00000000000E+00  0.00000000000E+00  0.57492608473E+03  0.57492608473E+03  0.00000000000E+00 0. -1.
         21   -1    0    0  502  503 -0.00000000000E+00 -0.00000000000E+00 -0.12963800111E+03  0.12963800111E+03  0.00000000000E+00 0. -1.
          6    1    1    2  501    0  0.11312641530E+02 -0.92030078157E+02  0.46866667806E+03  0.50776959959E+03  0.17200000000E+03 0. -1.
         -6    1    1    2    0  503 -0.11312641530E+02  0.92030078157E+02 -0.23378594439E+02  0.19679448626E+03  0.17200000000E+03 0. -1.
</event>
<event>
 4    1  0.1244074E+000  0.1883043E+03  0.7818608E-02  0.1160000E+00
         21   -1    0    0  501  502  0.00000000000E+00  0.00000000000E+00  0.30130768091E+03  0.30130768091E+03  0.00000000000E+00 0.  1.
         21   -1    0    0  502  503 -0.00000000000E+00 -0.00000000000E+00 -0.12049790891E+03  0.12049790891E+03  0.00000000000E+00 0.  1.
          6    1    1    2  501    0 -0.34117497891E+02  0.68633213447E+02  0.12264480259E+03  0.22472264962E+03  0.17200000000E+03 0.  1.
         -6    1    1    2    0  503  0.34117497891E+02 -0.68633213447E+02  0.58164969406E+02  0.19708294020E+03  0.17200000000E+03 0.  1.
</event>
<event>
 4    1  0.1244074E+000  0.2863872E+03  0.7818608E-02  0.1092251E+00
         21   -1    0    0  501  502  0.00000000000E+00  0.00000000000E+00  0.65051281249E+02  0.65051281249E+02  0.00000000000E+00 0. -1.
         21   -1    0    0  502  503 -0.00000000000E+00 -0.00000000000E+00 -0.17136071439E+04  0.17136071439E+04  0.00000000000E+00 0.  1.
          6    1    1    2  501    0 -0.21943260896E+03  0.65444269256E+02 -0.36713034255E+03  0.46562035037E+03  0.17200000000E+03 0. -1.
         -6    1    1    2    0  503  0.21943260896E+03 -0.65444269256E+02 -0.12814255201E+04  0.13130380747E+04  0.17200000000E+03 0.  1.
</event>
<event>
 4    1  0.1244074E+000  0.1890666E+03  0.7818608E-02  0.1159306E+00
         21   -1    0    0  503  502  0.00000000000E+00  0.00000000000E+00  0.67509543360E+03  0.67509543360E+03  0.00000000000E+00 0.  1.
         21   -1    0    0  501  503 -0.00000000000E+00 -0.00000000000E+00 -0.58296220247E+02  0.58296220247E+02  0.00000000000E+00 0.  1.
          6    1    1    2  501    0 -0.20724168283E+02 -0.75714448043E+02  0.19734993495E+03  0.27330050424E+03  0.17200000000E+03 0.  1.
         -6    1    1    2    0  502  0.20724168283E+02  0.75714448043E+02  0.41944927840E+03  0.46009114960E+03  0.17200000000E+03 0.  1.
</event>
<event>
 4    1  0.1244074E+000  0.1776925E+03  0.7818608E-02  0.1170055E+00
         21   -1    0    0  503  502  0.00000000000E+00  0.00000000000E+00  0.12597535299E+03  0.12597535299E+03  0.00000000000E+00 0. -1.
         21   -1    0    0  501  503 -0.00000000000E+00 -0.00000000000E+00 -0.25272467219E+03  0.25272467219E+03  0.00000000000E+00 0.  1.
          6    1    1    2  501    0 -0.44587826561E+02 -0.15973274610E+01 -0.80566618716E+02  0.19510408961E+03  0.17200000000E+03 0. -1.
         -6    1    1    2    0  502  0.44587826561E+02  0.15973274610E+01 -0.46182700483E+02  0.18359593557E+03  0.17200000000E+03 0. -1.
</event>
<event>
 4    1  0.1244074E+000  0.1882918E+03  0.7818608E-02  0.1160011E+00
         21   -1    0    0  503  502  0.00000000000E+00  0.00000000000E+00  0.72889114952E+02  0.72889114952E+02  0.00000000000E+00 0.  1.
         21   -1    0    0  501  503 -0.00000000000E+00 -0.00000000000E+00 -0.66035299919E+03  0.66035299919E+03  0.00000000000E+00 0. -1.
          6    1    1    2  501    0 -0.37034751335E+02  0.67068737288E+02 -0.48189585446E+03  0.51737549505E+03  0.17200000000E+03 0. -1.
         -6    1    1    2    0  502  0.37034751335E+02 -0.67068737288E+02 -0.10556802977E+03  0.21586661909E+03  0.17200000000E+03 0.  1.
</event>
<event>
 4    1  0.1244074E+000  0.2147500E+03  0.7818608E-02  0.1137859E+00
         21   -1    0    0  501  502  0.00000000000E+00  0.00000000000E+00  0.76274894090E+03  0.76274894090E+03  0.00000000000E+00 0.  1.
         21   -1    0    0  502  503 -0.00000000000E+00 -0.00000000000E+00 -0.67885820222E+02  0.67885820222E+02  0.00000000000E+00 0.  1.
          6    1    1    2  501    0 -0.94132154769E+02 -0.87593900617E+02  0.21009202639E+03  0.30042671909E+03  0.17200000000E+03 0.  1.
         -6    1    1    2    0  503  0.94132154769E+02  0.87593900617E+02  0.48477109428E+03  0.53020804204E+03  0.17200000000E+03 0.  1.
</event>
<event>
 4    1  0.1244074E+000  0.1749898E+03  0.7818608E-02  0.1172742E+00
         21   -1    0    0  501  502  0.00000000000E+00  0.00000000000E+00  0.14105489648E+04  0.14105489648E+04  0.00000000000E+00 0.  1.
         21   -1    0    0  502  503 -0.00000000000E+00 -0.00000000000E+00 -0.27426156069E+02  0.27426156069E+02  0.00000000000E+00 0.  1.
          6    1    1    2  501    0  0.23093952776E+01  0.32126014922E+02  0.10198336263E+04  0.10347376670E+04  0.17200000000E+03 0.  1.
         -6    1    1    2    0  503 -0.23093952776E+01 -0.32126014922E+02  0.36328918239E+03  0.40323745384E+03  0.17200000000E+03 0.  1.
</event>
<event>
 4    1  0.1244074E+000  0.3463973E+03  0.7818608E-02  0.1064104E+00
         21   -1    0    0  503  502  0.00000000000E+00  0.00000000000E+00  0.35388939698E+03  0.35388939698E+03  0.00000000000E+00 0. -1.
         21   -1    0    0  501  503 -0.00000000000E+00 -0.00000000000E+00 -0.42331314617E+03  0.42331314617E+03  0.00000000000E+00 0.  1.
          6    1    1    2  501    0  0.28609062033E+03  0.92516184793E+02 -0.20807494159E+03  0.40408695699E+03  0.17200000000E+03 0.  1.
         -6    1    1    2    0  502 -0.28609062033E+03 -0.92516184793E+02  0.13865119240E+03  0.37311558617E+03  0.17200000000E+03 0. -1.
</event>
<event>
 4    1  0.1244074E+000  0.2110641E+03  0.7818608E-02  0.1140726E+00
         21   -1    0    0  501  502  0.00000000000E+00  0.00000000000E+00  0.45057188251E+03  0.45057188251E+03  0.00000000000E+00 0. -1.
         21   -1    0    0  502  503 -0.00000000000E+00 -0.00000000000E+00 -0.10114348649E+03  0.10114348649E+03  0.00000000000E+00 0.  1.
          6    1    1    2  501    0 -0.10872346472E+03 -0.56064779869E+02  0.13335612035E+03  0.24966358597E+03  0.17200000000E+03 0.  1.
         -6    1    1    2    0  503  0.10872346472E+03  0.56064779869E+02  0.21607227566E+03  0.30205178303E+03  0.17200000000E+03 0.  1.
</event>
<event>
 4    1  0.1244074E+000  0.1781990E+03  0.7818608E-02  0.1169558E+00
         21   -1    0    0  501  502  0.00000000000E+00  0.00000000000E+00  0.79070847845E+02  0.79070847845E+02  0.00000000000E+00 0. -1.
         21   -1    0    0  502  503 -0.00000000000E+00 -0.00000000000E+00 -0.20394556399E+04  0.20394556399E+04  0.00000000000E+00 0. -1.
          6    1    1    2  501    0  0.79556947831E+01 -0.45908334903E+02 -0.30933764776E+02  0.18086394360E+03  0.17200000000E+03 0. -1.
         -6    1    1    2    0  503 -0.79556947831E+01  0.45908334903E+02 -0.19294510273E+04  0.19376625441E+04  0.17200000000E+03 0. -1.
</event>
<event>
 4    1  0.1244074E+000  0.1776500E+03  0.7818608E-02  0.1170097E+00
         21   -1    0    0  501  502  0.00000000000E+00  0.00000000000E+00  0.14670147583E+02  0.14670147583E+02  0.00000000000E+00 0. -1.
         21   -1    0    0  502  503 -0.00000000000E+00 -0.00000000000E+00 -0.22584858619E+04  0.22584858619E+04  0.00000000000E+00 0.  1.
          6    1    1    2  501    0  0.36516161497E+02 -0.25339771190E+02 -0.13695407054E+04  0.13810145828E+04  0.17200000000E+03 0.  1.
         -6    1    1    2    0  503 -0.36516161497E+02  0.25339771190E+02 -0.87427500887E+03  0.89214142667E+03  0.17200000000E+03 0.  1.
</event>
<event>
 4    1  0.1244074E+000  0.2884750E+03  0.7818608E-02  0.1091148E+00
         21   -1    0    0  501  502  0.00000000000E+00  0.00000000000E+00  0.10720468083E+03  0.10720468083E+03  0.00000000000E+00 0.  1.
         21   -1    0    0  502  503 -0.00000000000E+00 -0.00000000000E+00 -0.11978153077E+04  0.11978153077E+04  0.00000000000E+00 0. -1.
          6    1    1    2  501    0  0.47659841733E+02  0.22663265099E+03 -0.15820477171E+03  0.32900846311E+03  0.17200000000E+03 0.  1.
         -6    1    1    2    0  503 -0.47659841733E+02 -0.22663265099E+03 -0.93240585516E+03  0.97601152541E+03  0.17200000000E+03 0. -1.
</event>
<event>
 4    1  0.1244074E+000  0.1842869E+03  0.7818608E-02  0.1163717E+00
         21   -1    0    0  501  502  0.00000000000E+00  0.00000000000E+00  0.91749314346E+02  0.91749314346E+02  0.00000000000E+00 0.  1.
         21   -1    0    0  502  503 -0.00000000000E+00 -0.00000000000E+00 -0.39571096569E+03  0.39571096569E+03  0.00000000000E+00 0.  1.
          6    1    1    2  501    0  0.21276586006E+02  0.62649560246E+02 -0.90044068457E+02  0.20510873891E+03  0.17200000000E+03 0.  1.
         -6    1    1    2    0  503 -0.21276586006E+02 -0.62649560246E+02 -0.21391758289E+03  0.28235154113E+03  0.17200000000E+03 0.  1.
</event>
<event>
 4    1  0.1244074E+000  0.2180891E+03  0.7818608E-02  0.1135316E+00
         21   -1    0    0  503  502  0.00000000000E+00  0.00000000000E+00  0.16497279385E+04  0.16497279385E+04  0.00000000000E+00 0. -1.
         21   -1    0    0  501  503 -0.00000000000E+00 -0.00000000000E+00 -0.29305422663E+02  0.29305422663E+02  0.00000000000E+00 0. -1.
          6    1    1    2  501    0 -0.11057798050E+03  0.75837841227E+02  0.70336492828E+03  0.73640008845E+03  0.17200000000E+03 0. -1.
         -6    1    1    2    0  502  0.11057798050E+03 -0.75837841227E+02  0.91705758753E+03  0.94263327269E+03  0.17200000000E+03 0. -1.
</event>
<event>
 4    1  0.1244074E+000  0.1932411E+03  0.7818608E-02  0.1155570E+00
         21   -1    0    0  501  502  0.00000000000E+00  0.00000000000E+00  0.10633129188E+03  0.10633129188E+03  0.00000000000E+00 0.  1.
         21   -1    0    0  502  503 -0.00000000000E+00 -0.00000000000E+00 -0.49946237418E+03  0.49946237418E+03  0.00000000000E+00 0.  1.
          6    1    1    2  501    0 -0.88074501118E+02  0.99711337996E+00 -0.31529566803E+02  0.19579638803E+03  0.17200000000E+03 0.  1.
         -6    1    1    2    0  503  0.88074501118E+02 -0.99711337996E+00 -0.36160151549E+03  0.40999727803E+03  0.17200000000E+03 0.  1.
</event>
<event>
 4    1  0.1244074E+000  0.1882032E+03  0.7818608E-02  0.1160092E+00
         21   -1    0    0  501  502  0.00000000000E+00  0.00000000000E+00  0.24057082551E+03  0.24057082551E+03  0.00000000000E+00 0. -1.
         21   -1    0    0  502  503 -0.00000000000E+00 -0.00000000000E+00 -0.20259144824E+03  0.20259144824E+03  0.00000000000E+00 0. -1.
          6    1    1    2  501    0  0.53081368524E+02  0.54943648913E+02  0.13481580408E+03  0.23150753178E+03  0.17200000000E+03 0. -1.
         -6    1    1    2    0  503 -0.53081368524E+02 -0.54943648913E+02 -0.96836426816E+02  0.21165474197E+03  0.17200000000E+03 0. -1.
</event>
<event>
 4    1  0.1244074E+000  0.1904509E+03  0.7818608E-02  0.1158055E+00
         21   -1    0    0  501  502  0.00000000000E+00  0.00000000000E+00  0.10975118043E+04  0.10975118043E+04  0.00000000000E+00 0.  1.
         21   -1    0    0  502  503 -0.00000000000E+00 -0.00000000000E+00 -0.60889676064E+02  0.60889676064E+02  0.00000000000E+00 0.  1.
          6    1    1    2  501    0  0.80980992310E+02 -0.11385892666E+02  0.90996088489E+03  0.92967756329E+03  0.17200000000E+03 0.  1.
         -6    1    1    2    0  503 -0.80980992310E+02  0.11385892666E+02  0.12666124332E+03  0.22872391704E+03  0.17200000000E+03 0.  1.
</event>
<event>
 4    1  0.1244074E+000  0.2033509E+03  0.7818608E-02  0.1146942E+00
         21   -1    0    0  501  502  0.00000000000E+00  0.00000000000E+00  0.12490145559E+03  0.12490145559E+03  0.00000000000E+00 0.  1.
         21   -1    0    0  502  503 -0.00000000000E+00 -0.00000000000E+00 -0.83927691394E+03  0.83927691394E+03  0.00000000000E+00 0. -1.
          6    1    1    2  501    0  0.56325368774E+02 -0.92709544476E+02  0.17952281160E+02  0.20414184089E+03  0.17200000000E+03 0.  1.
         -6    1    1    2    0  503 -0.56325368774E+02  0.92709544476E+02 -0.73232773951E+03  0.76003652864E+03  0.17200000000E+03 0. -1.
</event>
<event>
 4    1  0.1244074E+000  0.1924497E+03  0.7818608E-02  0.1156270E+00
         21   -1    0    0  503  502  0.00000000000E+00  0.00000000000E+00  0.23504144739E+03  0.23504144739E+03  0.00000000000E+00 0. -1.
         21   -1    0    0  501  503 -0.00000000000E+00 -0.00000000000E+00 -0.19834885334E+03  0.19834885334E+03  0.00000000000E+00 0. -1.
          6    1    1    2  501    0  0.58703559024E+01  0.86130268289E+02 -0.79900874051E+02  0.20837714334E+03  0.17200000000E+03 0. -1.
         -6    1    1    2    0  502 -0.58703559024E+01 -0.86130268289E+02  0.11659346810E+03  0.22501315739E+03  0.17200000000E+03 0. -1.
</event>
<event>
 4    1  0.1244074E+000  0.4418905E+03  0.7818608E-02  0.1030168E+00
         21   -1    0    0  501  502  0.00000000000E+00  0.00000000000E+00  0.14885925701E+04  0.14885925701E+04  0.00000000000E+00 0.  1.
         21   -1    0    0  502  503 -0.00000000000E+00 -0.00000000000E+00 -0.19765079196E+03  0.19765079196E+03  0.00000000000E+00 0.  1.
          6    1    1    2  501    0  0.28333234214E+03 -0.29224303604E+03  0.15651422137E+03  0.46878983532E+03  0.17200000000E+03 0.  1.
         -6    1    1    2    0  503 -0.28333234214E+03  0.29224303604E+03  0.11344275568E+04  0.12174535268E+04  0.17200000000E+03 0.  1.
</event>
<event>
 4    1  0.1244074E+000  0.1812426E+03  0.7818608E-02  0.1166606E+00
         21   -1    0    0  503  502  0.00000000000E+00  0.00000000000E+00  0.31409629024E+03  0.31409629024E+03  0.00000000000E+00 0. -1.
         21   -1    0    0  501  503 -0.00000000000E+00 -0.00000000000E+00 -0.10824964157E+03  0.10824964157E+03  0.00000000000E+00 0. -1.
          6    1    1    2  501    0 -0.53608278499E+02 -0.19774368535E+02  0.14179275430E+03  0.23011748813E+03  0.17200000000E+03 0.  1.
         -6    1    1    2    0  502  0.53608278499E+02  0.19774368535E+02  0.64053894365E+02  0.19222844368E+03  0.17200000000E+03 0.  1.
</event>
<event>
 4    1  0.1244074E+000  0.1795118E+03  0.7818608E-02  0.1168276E+00
         21   -1    0    0  503  502  0.00000000000E+00  0.00000000000E+00  0.48696623546E+02  0.48696623546E+02  0.00000000000E+00 0.  1.
         21   -1    0    0  501  503 -0.00000000000E+00 -0.00000000000E+00 -0.86409763686E+03  0.86409763686E+03  0.00000000000E+00 0.  1.
          6    1    1    2  501    0  0.24686354296E+02 -0.45067268809E+02 -0.62856298018E+03  0.65369403765E+03  0.17200000000E+03 0.  1.
         -6    1    1    2    0  502 -0.24686354296E+02  0.45067268809E+02 -0.18683803313E+03  0.25910022275E+03  0.17200000000E+03 0.  1.
</event>
<event>
 4    1  0.1244074E+000  0.1787982E+03  0.7818608E-02  0.1168971E+00
         21   -1    0    0  501  502  0.00000000000E+00  0.00000000000E+00  0.76675300497E+02  0.76675300497E+02  0.00000000000E+00 0. -1.
         21   -1    0    0  502  503 -0.00000000000E+00 -0.00000000000E+00 -0.52819778734E+03  0.52819778734E+03  0.00000000000E+00 0. -1.
          6    1    1    2  501    0 -0.18837506169E+02 -0.45055092616E+02 -0.86955977840E+02  0.19882191804E+03  0.17200000000E+03 0. -1.
         -6    1    1    2    0  503  0.18837506169E+02  0.45055092616E+02 -0.36456650900E+03  0.40605116980E+03  0.17200000000E+03 0. -1.
</event>
<event>
 4    1  0.1244074E+000  0.2193599E+03  0.7818608E-02  0.1134361E+00
         21   -1    0    0  503  502  0.00000000000E+00  0.00000000000E+00  0.97648244973E+03  0.97648244973E+03  0.00000000000E+00 0.  1.
         21   -1    0    0  501  503 -0.00000000000E+00 -0.00000000000E+00 -0.53613270772E+02  0.53613270772E+02  0.00000000000E+00 0.  1.
          6    1    1    2  501    0  0.47890284941E+02  0.12744134196E+03  0.60790042351E+03  0.64626751421E+03  0.17200000000E+03 0.  1.
         -6    1    1    2    0  502 -0.47890284941E+02 -0.12744134196E+03  0.31496875546E+03  0.38382820629E+03  0.17200000000E+03 0.  1.
</event>
<event>
 4    1  0.1244074E+000  0.1945030E+03  0.7818608E-02  0.1154461E+00
         21   -1    0    0  501  502  0.00000000000E+00  0.00000000000E+00  0.78005865014E+03  0.78005865014E+03  0.00000000000E+00 0.  1.
         21   -1    0    0  502  503 -0.00000000000E+00 -0.00000000000E+00 -0.48967869341E+02  0.48967869341E+02  0.00000000000E+00 0.  1.
          6    1    1    2  501    0 -0.19628034156E+02 -0.88668845480E+02  0.32494887721E+03  0.37871255152E+03  0.17200000000E+03 0.  1.
         -6    1    1    2    0  503  0.19628034156E+02  0.88668845480E+02  0.40614190359E+03  0.45031396796E+03  0.17200000000E+03 0.  1.
</event>
<event>
 4    1  0.1244074E+000  0.2073872E+03  0.7818608E-02  0.1143652E+00
         21   -1    0    0  503  502  0.00000000000E+00  0.00000000000E+00  0.99479020778E+03  0.99479020778E+03  0.00000000000E+00 0. -1.
         21   -1    0    0  501  503 -0.00000000000E+00 -0.00000000000E+00 -0.90269951154E+02  0.90269951154E+02  0.00000000000E+00 0. -1.
          6    1    1    2  501    0  0.24589991406E+02 -0.11322884146E+03  0.60640874886E+02  0.21607117791E+03  0.17200000000E+03 0. -1.
         -6    1    1    2    0  502 -0.24589991406E+02  0.11322884146E+03  0.84387938174E+03  0.86898898102E+03  0.17200000000E+03 0. -1.
</event>
<event>
 4    1  0.1244074E+000  0.1873597E+03  0.7818608E-02  0.1160864E+00
         21   -1    0    0  501  502  0.00000000000E+00  0.00000000000E+00  0.79842744844E+03  0.79842744844E+03  0.00000000000E+00 0.  1.
         21   -1    0    0  502  503 -0.00000000000E+00 -0.00000000000E+00 -0.47123756713E+02  0.47123756713E+02  0.00000000000E+00 0.  1.
          6    1    1    2  501    0 -0.66464095787E+02  0.33199248632E+02  0.48509254849E+03  0.52001773695E+03  0.17200000000E+03 0. -1.
         -6    1    1    2    0  503  0.66464095787E+02 -0.33199248632E+02  0.26621114323E+03  0.32553346820E+03  0.17200000000E+03 0. -1.
</event>
<event>
 4    1  0.1244074E+000  0.3823815E+03  0.7818608E-02  0.1050057E+00
         21   -1    0    0  501  502  0.00000000000E+00  0.00000000000E+00  0.16496833725E+04  0.16496833725E+04  0.00000000000E+00 0.  1.
         21   -1    0    0  502  503 -0.00000000000E+00 -0.00000000000E+00 -0.10371686994E+03  0.10371686994E+03  0.00000000000E+00 0. -1.
          6    1    1    2  501    0  0.17620767774E+03  0.29254486050E+03  0.11073239600E+04  0.11714870863E+04  0.17200000000E+03 0.  1.
         -6    1    1    2    0  503 -0.17620767774E+03 -0.29254486050E+03  0.43864254258E+03  0.58191315612E+03  0.17200000000E+03 0. -1.
</event>
<event>
 4    1  0.1244074E+000  0.1754201E+03  0.7818608E-02  0.1172311E+00
         21   -1    0    0  501  502  0.00000000000E+00  0.00000000000E+00  0.28296529036E+02  0.28296529036E+02  0.00000000000E+00 0. -1.
         21   -1    0    0  502  503 -0.00000000000E+00 -0.00000000000E+00 -0.12088268614E+04  0.12088268614E+04  0.00000000000E+00 0. -1.
          6    1    1    2  501    0  0.34455567410E+02  0.10196750439E+01 -0.39429262178E+03  0.43155404928E+03  0.17200000000E+03 0. -1.
         -6    1    1    2    0  503 -0.34455567410E+02 -0.10196750439E+01 -0.78623771061E+03  0.80556934118E+03  0.17200000000E+03 0. -1.
</event>
<event>
 4    1  0.1244074E+000  0.1867833E+03  0.7818608E-02  0.1161395E+00
         21   -1    0    0  503  502  0.00000000000E+00  0.00000000000E+00  0.88193410459E+03  0.88193410459E+03  0.00000000000E+00 0. -1.
         21   -1    0    0  501  503 -0.00000000000E+00 -0.00000000000E+00 -0.39635393304E+02  0.39635393304E+02  0.00000000000E+00 0. -1.
          6    1    1    2  501    0 -0.67299233619E+02  0.27835415965E+02  0.40085484827E+03  0.44223591737E+03  0.17200000000E+03 0.  1.
         -6    1    1    2    0  502  0.67299233619E+02 -0.27835415965E+02  0.44144386302E+03  0.47933358053E+03  0.17200000000E+03 0.  1.
</event>
<event>
 4    1  0.1244074E+000  0.1858975E+03  0.7818608E-02  0.1162214E+00
         21   -1    0    0  503  502  0.00000000000E+00  0.00000000000E+00  0.95370450304E+03  0.95370450304E+03  0.00000000000E+00 0.  1.
         21   -1    0    0  501  503 -0.00000000000E+00 -0.00000000000E+00 -0.56567249987E+02  0.56567249987E+02  0.00000000000E+00 0. -1.
          6    1    1    2  501    0  0.47905380485E+01  0.70362861057E+02  0.14572813941E+03  0.23620874685E+03  0.17200000000E+03 0. -1.
         -6    1    1    2    0  502 -0.47905380485E+01 -0.70362861057E+02  0.75140911364E+03  0.77406300618E+03  0.17200000000E+03 0.  1.
</event>
<event>
 4    1  0.1244074E+000  0.2935561E+03  0.7818608E-02  0.1088507E+00
         21   -1    0    0  501  502  0.00000000000E+00  0.00000000000E+00  0.78265297024E+02  0.78265297024E+02  0.00000000000E+00 0. -1.
         21   -1    0    0  502  503 -0.00000000000E+00 -0.00000000000E+00 -0.13817520594E+04  0.13817520594E+04  0.00000000000E+00 0. -1.
          6    1    1    2  501    0  0.23522801291E+03 -0.35481674149E+02 -0.32272188211E+03  0.43626205479E+03  0.17200000000E+03 0.  1.
         -6    1    1    2    0  503 -0.23522801291E+03  0.35481674149E+02 -0.98076488023E+03  0.10237553016E+04  0.17200000000E+03 0.  1.
</event>
<event>
 4    1  0.1244074E+000  0.1744427E+03  0.7818608E-02  0.1173292E+00
         21   -1    0    0  503  502  0.00000000000E+00  0.00000000000E+00  0.15570251208E+03  0.15570251208E+03  0.00000000000E+00 0. -1.
         21   -1    0    0  501  503 -0.00000000000E+00 -0.00000000000E+00 -0.23515084174E+03  0.23515084174E+03  0.00000000000E+00 0. -1.
          6    1    1    2  501    0  0.23770019725E+02  0.16770377366E+02 -0.12003488828E+03  0.21175134899E+03  0.17200000000E+03 0. -1.
         -6    1    1    2    0  502 -0.23770019725E+02 -0.16770377366E+02  0.40586558612E+02  0.17910200483E+03  0.17200000000E+03 0. -1.
</event>
<event>
 4    1  0.1244074E+000  0.1770777E+03  0.7818608E-02  0.1170662E+00
         21   -1    0    0  501  502  0.00000000000E+00  0.00000000000E+00  0.33177006557E+03  0.33177006557E+03  0.00000000000E+00 0.  1.
         21   -1    0    0  502  503 -0.00000000000E+00 -0.00000000000E+00 -0.36134647737E+03  0.36134647737E+03  0.00000000000E+00 0.  1.
          6    1    1    2  501    0  0.36784392015E+02  0.20479360813E+02  0.28301867720E+03  0.33385036672E+03  0.17200000000E+03 0.  1.
         -6    1    1    2    0  503 -0.36784392015E+02 -0.20479360813E+02 -0.31259508899E+03  0.35926617622E+03  0.17200000000E+03 0.  1.
</event>
<event>
 4    1  0.1244074E+000  0.2059439E+03  0.7818608E-02  0.1144819E+00
         21   -1    0    0  503  502  0.00000000000E+00  0.00000000000E+00  0.59982568786E+03  0.59982568786E+03  0.00000000000E+00 0. -1.
         21   -1    0    0  501  503 -0.00000000000E+00 -0.00000000000E+00 -0.35488450095E+03  0.35488450095E+03  0.00000000000E+00 0. -1.
          6    1    1    2  501    0 -0.11319831758E+03 -0.38777504335E+01  0.54963158901E+03  0.58694785091E+03  0.17200000000E+03 0. -1.
         -6    1    1    2    0  502  0.11319831758E+03  0.38777504335E+01 -0.30469040210E+03  0.36776233791E+03  0.17200000000E+03 0. -1.
</event>
<event>
 4    1  0.1244074E+000  0.2289047E+03  0.7818608E-02  0.1127413E+00
         21   -1    0    0  501  502  0.00000000000E+00  0.00000000000E+00  0.12621212926E+04  0.12621212926E+04  0.00000000000E+00 0. -1.
         21   -1    0    0  502  503 -0.00000000000E+00 -0.00000000000E+00 -0.42645074937E+02  0.42645074937E+02  0.00000000000E+00 0.  1.
          6    1    1    2  501    0 -0.66572316965E+02  0.13557829176E+03  0.71592328867E+03  0.75162723596E+03  0.17200000000E+03 0.  1.
         -6    1    1    2    0  503  0.66572316965E+02 -0.13557829176E+03  0.50355292902E+03  0.55313913160E+03  0.17200000000E+03 0.  1.
</event>
<event>
 4    1  0.1244074E+000  0.5202906E+03  0.7818608E-02  0.1008614E+00
         21   -1    0    0  501  502  0.00000000000E+00  0.00000000000E+00  0.14772359768E+04  0.14772359768E+04  0.00000000000E+00 0.  1.
         21   -1    0    0  502  503 -0.00000000000E+00 -0.00000000000E+00 -0.19722153836E+03  0.19722153836E+03  0.00000000000E+00 0. -1.
          6    1    1    2  501    0 -0.48286832212E+03 -0.89199022916E+02  0.86285166590E+03  0.10075789198E+04  0.17200000000E+03 0.  1.
         -6    1    1    2    0  503  0.48286832212E+03  0.89199022916E+02  0.41716277252E+03  0.66687859538E+03  0.17200000000E+03 0. -1.
</event>
<event>
 4    1  0.1244074E+000  0.1800785E+03  0.7818608E-02  0.1167727E+00
         21   -1    0    0  503  502  0.00000000000E+00  0.00000000000E+00  0.11593945097E+04  0.11593945097E+04  0.00000000000E+00 0.  1.
         21   -1    0    0  501  503 -0.00000000000E+00 -0.00000000000E+00 -0.34056286666E+02  0.34056286666E+02  0.00000000000E+00 0.  1.
          6    1    1    2  501    0 -0.25569303039E+02 -0.46802558662E+02  0.31040704707E+03  0.35886042360E+03  0.17200000000E+03 0.  1.
         -6    1    1    2    0  502  0.25569303039E+02  0.46802558662E+02  0.81493117596E+03  0.83459037276E+03  0.17200000000E+03 0.  1.
</event>
<event>
 4    1  0.1244074E+000  0.1988811E+03  0.7818608E-02  0.1150686E+00
         21   -1    0    0  501  502  0.00000000000E+00  0.00000000000E+00  0.32057568897E+03  0.32057568897E+03  0.00000000000E+00 0. -1.
         21   -1    0    0  502  503 -0.00000000000E+00 -0.00000000000E+00 -0.32308719464E+03  0.32308719464E+03  0.00000000000E+00 0. -1.
          6    1    1    2  501    0 -0.33319536245E+02 -0.94124932409E+02  0.25176831783E+03  0.32084416818E+03  0.17200000000E+03 0. -1.
         -6    1    1    2    0  503  0.33319536245E+02  0.94124932409E+02 -0.25427982349E+03  0.32281871543E+03  0.17200000000E+03 0. -1.
</event>
<event>
 4    1  0.1244074E+000  0.2058804E+03  0.7818608E-02  0.1144870E+00
         21   -1    0    0  501  502  0.00000000000E+00  0.00000000000E+00  0.38929235718E+02  0.38929235718E+02  0.00000000000E+00 0. -1.
         21   -1    0    0  502  503 -0.00000000000E+00 -0.00000000000E+00 -0.11745174000E+04  0.11745174000E+04  0.00000000000E+00 0. -1.
          6    1    1    2  501    0  0.88256796441E+02  0.70805832891E+02 -0.40390200788E+03  0.45334706358E+03  0.17200000000E+03 0. -1.
         -6    1    1    2    0  503 -0.88256796441E+02 -0.70805832891E+02 -0.73168615640E+03  0.76009957213E+03  0.17200000000E+03 0. -1.
</event>
<event>
 4    1  0.1244074E+000  0.1854579E+03  0.7818608E-02  0.1162623E+00
         21   -1    0    0  501  502  0.00000000000E+00  0.00000000000E+00  0.14853285664E+03  0.14853285664E+03  0.00000000000E+00 0.  1.
         21   -1    0    0  502  503 -0.00000000000E+00 -0.00000000000E+00 -0.23334482950E+03  0.23334482950E+03  0.00000000000E+00 0. -1.
          6    1    1    2  501    0  0.44464960357E+02 -0.53230465778E+02 -0.25717796667E+02  0.18723252990E+03  0.17200000000E+03 0. -1.
         -6    1    1    2    0  503 -0.44464960357E+02  0.53230465778E+02 -0.59094176197E+02  0.19464515624E+03  0.17200000000E+03 0. -1.
</event>
<event>
 4    1  0.1244074E+000  0.2453493E+03  0.7818608E-02  0.1116280E+00
         21   -1    0    0  501  502  0.00000000000E+00  0.00000000000E+00  0.28456116241E+03  0.28456116241E+03  0.00000000000E+00 0. -1.
         21   -1    0    0  502  503 -0.00000000000E+00 -0.00000000000E+00 -0.21861335841E+03  0.21861335841E+03  0.00000000000E+00 0.  1.
          6    1    1    2  501    0  0.60785980254E+02  0.16406509548E+03 -0.12278236545E+02  0.24565635763E+03  0.17200000000E+03 0. -1.
         -6    1    1    2    0  503 -0.60785980254E+02 -0.16406509548E+03  0.78226040544E+02  0.25751816318E+03  0.17200000000E+03 0. -1.
</event>
