<event>
 4    1  0.5808486E+000  0.1752326E+03  0.7818608E-02  0.1172498E+00
         21   -1    0    0  501  502  0.00000000000E+00  0.00000000000E+00  0.28986466576E+03  0.28986466576E+03  0.00000000000E+00 0.  1.
         21   -1    0    0  502  503 -0.00000000000E+00 -0.00000000000E+00 -0.49456915582E+03  0.49456915582E+03  0.00000000000E+00 0.  1.
          6    1    1    2  501    0 -0.58211134547E+01 -0.32993351442E+02  0.24533118317E+03  0.30148604617E+03  0.17200000000E+03 0.  1.
         -6    1    1    2    0  503  0.58211134547E+01  0.32993351442E+02 -0.45003567322E+03  0.48294777541E+03  0.17200000000E+03 0.  1.
</event>
<event>
 4    1  0.5808486E+000  0.2045719E+03  0.7818608E-02  0.1145938E+00
         21   -1    0    0  501  502  0.00000000000E+00  0.00000000000E+00  0.30073018009E+02  0.30073018009E+02  0.00000000000E+00 0.  1.
         21   -1    0    0  502  503 -0.00000000000E+00 -0.00000000000E+00 -0.14021973636E+04  0.14021973636E+04  0.00000000000E+00 0.  1.
          6    1    1    2  501    0  0.45472674179E+02 -0.10098457013E+03 -0.74831585963E+03  0.77577462789E+03  0.17200000000E+03 0.  1.
         -6    1    1    2    0  503 -0.45472674179E+02  0.10098457013E+03 -0.62380848600E+03  0.65649575376E+03  0.17200000000E+03 0.  1.
</event>
<event>
 4    1  0.5808486E+000  0.1747641E+03  0.7818608E-02  0.1172969E+00
         21   -1    0    0  501  502  0.00000000000E+00  0.00000000000E+00  0.16617627057E+02  0.16617627057E+02  0.00000000000E+00 0.  1.
         21   -1    0    0  502  503 -0.00000000000E+00 -0.00000000000E+00 -0.19892873734E+04  0.19892873734E+04  0.00000000000E+00 0. -1.
          6    1    1    2  501    0 -0.25950653614E+02  0.16883129949E+02 -0.70970740657E+03  0.73090839333E+03  0.17200000000E+03 0.  1.
         -6    1    1    2    0  503  0.25950653614E+02 -0.16883129949E+02 -0.12629623397E+04  0.12749966071E+04  0.17200000000E+03 0. -1.
</event>
<event>
 4    1  0.5808486E+000  0.2299995E+03  0.7818608E-02  0.1126640E+00
         21   -1    0    0  501  502  0.00000000000E+00  0.00000000000E+00  0.52560973268E+03  0.52560973268E+03  0.00000000000E+00 0. -1.
         21   -1    0    0  502  503 -0.00000000000E+00 -0.00000000000E+00 -0.27236555128E+03  0.27236555128E+03  0.00000000000E+00 0.  1.
          6    1    1    2  501    0 -0.14710339896E+03 -0.40943195976E+02  0.44342930381E+03  0.49952908099E+03  0.17200000000E+03 0. -1.
         -6    1    1    2    0  503  0.14710339896E+03  0.40943195976E+02 -0.19018512240E+03  0.29844620297E+03  0.17200000000E+03 0.  1.
</event>
<event>
 4    1  0.5808486E+000  0.4293357E+03  0.7818608E-02  0.1034070E+00
         21   -1    0    0  501  502  0.00000000000E+00  0.00000000000E+00  0.13672578025E+04  0.13672578025E+04  0.00000000000E+00 0.  1.
         21   -1    0    0  502  503 -0.00000000000E+00 -0.00000000000E+00 -0.40938313206E+03  0.40938313206E+03  0.00000000000E+00 0. -1.
          6    1    1    2  501    0  0.39276227476E+03 -0.21975752723E+02  0.12064297066E+04  0.12805474513E+04  0.17200000000E+03 0.  1.
         -6    1    1    2    0  503 -0.39276227476E+03  0.21975752723E+02 -0.24855503610E+03  0.49609348328E+03  0.17200000000E+03 0. -1.
</event>
<event>
 4    1  0.5808486E+000  0.2393209E+03  0.7818608E-02  0.1120246E+00
         21   -1    0    0  503  502  0.00000000000E+00  0.00000000000E+00  0.11249979847E+03  0.11249979847E+03  0.00000000000E+00 0. -1.
         21   -1    0    0  501  503 -0.00000000000E+00 -0.00000000000E+00 -0.76737429999E+03  0.76737429999E+03  0.00000000000E+00 0. -1.
          6    1    1    2  501    0 -0.53414763429E+01 -0.16631881251E+03 -0.58266112436E+03  0.62989559818E+03  0.17200000000E+03 0. -1.
         -6    1    1    2    0  502  0.53414763429E+01  0.16631881251E+03 -0.72213377154E+02  0.24997850028E+03  0.17200000000E+03 0. -1.
</event>
<event>
 4    1  0.5808486E+000  0.1947181E+03  0.7818608E-02  0.1154273E+00
         21   -1    0    0  501  502  0.00000000000E+00  0.00000000000E+00  0.12816236464E+03  0.12816236464E+03  0.00000000000E+00 0. -1.
         21   -1    0    0  502  503 -0.00000000000E+00 -0.00000000000E+00 -0.30265274873E+03  0.30265274873E+03  0.00000000000E+00 0. -1.
          6    1    1    2  501    0 -0.18103147580E+02 -0.89461889853E+02 -0.11957099575E+03  0.22850027727E+03  0.17200000000E+03 0.  1.
         -6    1    1    2    0  503  0.18103147580E+02  0.89461889853E+02 -0.54919388342E+02  0.20231483610E+03  0.17200000000E+03 0.  1.
</event>
<event>
 4    1  0.5808486E+000  0.3111271E+03  0.7818608E-02  0.1079807E+00
         21   -1    0    0  503  502  0.00000000000E+00  0.00000000000E+00  0.17026505489E+04  0.17026505489E+04  0.00000000000E+00 0.  1.
         21   -1    0    0  501  503 -0.00000000000E+00 -0.00000000000E+00 -0.97647486012E+02  0.97647486012E+02  0.00000000000E+00 0. -1.
          6    1    1    2  501    0 -0.25329860806E+03 -0.55280271282E+02  0.13843190513E+04  0.14188514119E+04  0.17200000000E+03 0.  1.
         -6    1    1    2    0  502  0.25329860806E+03  0.55280271282E+02  0.22068401157E+03  0.38144662300E+03  0.17200000000E+03 0. -1.
</event>
<event>
 4    1  0.5808486E+000  0.1779136E+03  0.7818608E-02  0.1169838E+00
         21   -1    0    0  501  502  0.00000000000E+00  0.00000000000E+00  0.28935979560E+03  0.28935979560E+03  0.00000000000E+00 0.  1.
         21   -1    0    0  502  503 -0.00000000000E+00 -0.00000000000E+00 -0.32287996408E+03  0.32287996408E+03  0.00000000000E+00 0.  1.
          6    1    1    2  501    0  0.40919617121E+02  0.19870192179E+02  0.23215952760E+03  0.29249151416E+03  0.17200000000E+03 0.  1.
         -6    1    1    2    0  503 -0.40919617121E+02 -0.19870192179E+02 -0.26567969608E+03  0.31974824552E+03  0.17200000000E+03 0.  1.
</event>
<event>
 4    1  0.5808486E+000  0.1922100E+03  0.7818608E-02  0.1156483E+00
         21   -1    0    0  501  502  0.00000000000E+00  0.00000000000E+00  0.43636146009E+02  0.43636146009E+02  0.00000000000E+00 0.  1.
         21   -1    0    0  502  503 -0.00000000000E+00 -0.00000000000E+00 -0.89477351653E+03  0.89477351653E+03  0.00000000000E+00 0. -1.
          6    1    1    2  501    0 -0.85779945109E+02 -0.15709426606E+01 -0.31675793939E+03  0.37051350719E+03  0.17200000000E+03 0.  1.
         -6    1    1    2    0  503  0.85779945109E+02  0.15709426606E+01 -0.53437943113E+03  0.56789615535E+03  0.17200000000E+03 0. -1.
</event>
<event>
 4    1  0.5808486E+000  0.1822604E+03  0.7818608E-02  0.1165633E+00
         21   -1    0    0  501  502  0.00000000000E+00  0.00000000000E+00  0.44267519362E+03  0.44267519362E+03  0.00000000000E+00 0. -1.
         21   -1    0    0  502  503 -0.00000000000E+00 -0.00000000000E+00 -0.17583813432E+03  0.17583813432E+03  0.00000000000E+00 0. -1.
          6    1    1    2  501    0 -0.18260212345E+02  0.57457949912E+02  0.36756430337E+03  0.41027109144E+03  0.17200000000E+03 0. -1.
         -6    1    1    2    0  503  0.18260212345E+02 -0.57457949912E+02 -0.10072724408E+03  0.20824223650E+03  0.17200000000E+03 0. -1.
</event>
<event>
 4    1  0.5808486E+000  0.1941616E+03  0.7818608E-02  0.1154760E+00
         21   -1    0    0  503  502  0.00000000000E+00  0.00000000000E+00  0.12335393062E+04  0.12335393062E+04  0.00000000000E+00 0.  1.
         21   -1    0    0  501  503 -0.00000000000E+00 -0.00000000000E+00 -0.31234361009E+02  0.31234361009E+02  0.00000000000E+00 0.  1.
          6    1    1    2  501    0  0.32695615498E+02 -0.83938860493E+02  0.50833087208E+03  0.54414980574E+03  0.17200000000E+03 0. -1.
         -6    1    1    2    0  502 -0.32695615498E+02  0.83938860493E+02  0.69397407310E+03  0.72062386147E+03  0.17200000000E+03 0. -1.
</event>
<event>
 4    1  0.5808486E+000  0.2285199E+03  0.7818608E-02  0.1127686E+00
         21   -1    0    0  503  502  0.00000000000E+00  0.00000000000E+00  0.27689605510E+03  0.27689605510E+03  0.00000000000E+00 0. -1.
         21   -1    0    0  501  503 -0.00000000000E+00 -0.00000000000E+00 -0.22766133411E+03  0.22766133411E+03  0.00000000000E+00 0. -1.
          6    1    1    2  501    0  0.13599710777E+03  0.64359548698E+02 -0.79886946372E+02  0.24208116207E+03  0.17200000000E+03 0. -1.
         -6    1    1    2    0  502 -0.13599710777E+03 -0.64359548698E+02  0.12912166736E+03  0.26247622714E+03  0.17200000000E+03 0. -1.
</event>
<event>
 4    1  0.5808486E+000  0.1728392E+03  0.7818608E-02  0.1174919E+00
         21   -1    0    0  503  502  0.00000000000E+00  0.00000000000E+00  0.80398548455E+03  0.80398548455E+03  0.00000000000E+00 0.  1.
         21   -1    0    0  501  503 -0.00000000000E+00 -0.00000000000E+00 -0.72733553514E+02  0.72733553514E+02  0.00000000000E+00 0.  1.
          6    1    1    2  501    0  0.16522629784E+02 -0.40477385530E+01  0.59043503672E+02  0.18264587816E+03  0.17200000000E+03 0.  1.
         -6    1    1    2    0  502 -0.16522629784E+02  0.40477385530E+01  0.67220842737E+03  0.69407315991E+03  0.17200000000E+03 0.  1.
</event>
<event>
 4    1  0.5808486E+000  0.1836811E+03  0.7818608E-02  0.1164287E+00
         21   -1    0    0  503  502  0.00000000000E+00  0.00000000000E+00  0.11625554538E+04  0.11625554538E+04  0.00000000000E+00 0. -1.
         21   -1    0    0  501  503 -0.00000000000E+00 -0.00000000000E+00 -0.29935885627E+02  0.29935885627E+02  0.00000000000E+00 0. -1.
          6    1    1    2  501    0  0.60662900880E+02 -0.21788733789E+02  0.67053402957E+03  0.69523709716E+03  0.17200000000E+03 0. -1.
         -6    1    1    2    0  502 -0.60662900880E+02  0.21788733789E+02  0.46208553863E+03  0.49725424229E+03  0.17200000000E+03 0. -1.
</event>
<event>
 4    1  0.5808486E+000  0.1943403E+03  0.7818608E-02  0.1154604E+00
         21   -1    0    0  503  502  0.00000000000E+00  0.00000000000E+00  0.20769867525E+04  0.20769867525E+04  0.00000000000E+00 0.  1.
         21   -1    0    0  501  503 -0.00000000000E+00 -0.00000000000E+00 -0.34916652491E+02  0.34916652491E+02  0.00000000000E+00 0.  1.
          6    1    1    2  501    0 -0.18195382848E+02 -0.88617516872E+02  0.29004941340E+03  0.34913722011E+03  0.17200000000E+03 0.  1.
         -6    1    1    2    0  502  0.18195382848E+02  0.88617516872E+02  0.17520206866E+04  0.17627661849E+04  0.17200000000E+03 0.  1.
</event>
<event>
 4    1  0.5808486E+000  0.2079985E+03  0.7818608E-02  0.1143161E+00
         21   -1    0    0  503  502  0.00000000000E+00  0.00000000000E+00  0.43258618871E+02  0.43258618871E+02  0.00000000000E+00 0.  1.
         21   -1    0    0  501  503 -0.00000000000E+00 -0.00000000000E+00 -0.10002510481E+04  0.10002510481E+04  0.00000000000E+00 0.  1.
          6    1    1    2  501    0 -0.33885908960E+01 -0.11690968558E+03 -0.47229019932E+03  0.51606335803E+03  0.17200000000E+03 0.  1.
         -6    1    1    2    0  502  0.33885908960E+01  0.11690968558E+03 -0.48470222990E+03  0.52744630893E+03  0.17200000000E+03 0.  1.
</event>
<event>
 4    1  0.5808486E+000  0.2852556E+03  0.7818608E-02  0.1092853E+00
         21   -1    0    0  501  502  0.00000000000E+00  0.00000000000E+00  0.25984693902E+03  0.25984693902E+03  0.00000000000E+00 0.  1.
         21   -1    0    0  502  503 -0.00000000000E+00 -0.00000000000E+00 -0.34847215626E+03  0.34847215626E+03  0.00000000000E+00 0. -1.
          6    1    1    2  501    0  0.16585044271E+03 -0.15582172893E+03  0.52525843511E+02  0.29005127959E+03  0.17200000000E+03 0.  1.
         -6    1    1    2    0  503 -0.16585044271E+03  0.15582172893E+03 -0.14115106075E+03  0.31826781570E+03  0.17200000000E+03 0. -1.
</event>
<event>
 4    1  0.5808486E+000  0.1873570E+03  0.7818608E-02  0.1160867E+00
         21   -1    0    0  501  502  0.00000000000E+00  0.00000000000E+00  0.31566623073E+02  0.31566623073E+02  0.00000000000E+00 0.  1.
         21   -1    0    0  502  503 -0.00000000000E+00 -0.00000000000E+00 -0.20118657503E+04  0.20118657503E+04  0.00000000000E+00 0.  1.
          6    1    1    2  501    0 -0.51748803859E+02  0.53298437812E+02 -0.30684358118E+03  0.35952141172E+03  0.17200000000E+03 0.  1.
         -6    1    1    2    0  503  0.51748803859E+02 -0.53298437812E+02 -0.16734555460E+04  0.16839109616E+04  0.17200000000E+03 0.  1.
</event>
<event>
 4    1  0.5808486E+000  0.2202869E+03  0.7818608E-02  0.1133669E+00
         21   -1    0    0  503  502  0.00000000000E+00  0.00000000000E+00  0.26730856658E+03  0.26730856658E+03  0.00000000000E+00 0. -1.
         21   -1    0    0  501  503 -0.00000000000E+00 -0.00000000000E+00 -0.18529611007E+03  0.18529611007E+03  0.00000000000E+00 0.  1.
          6    1    1    2  501    0 -0.87879923598E+02  0.10592193734E+03  0.73239978046E+02  0.23214312862E+03  0.17200000000E+03 0. -1.
         -6    1    1    2    0  502  0.87879923598E+02 -0.10592193734E+03  0.87724784570E+01  0.22046154803E+03  0.17200000000E+03 0. -1.
</event>
<event>
 4    1  0.5808486E+000  0.3483489E+03  0.7818608E-02  0.1063295E+00
         21   -1    0    0  501  502  0.00000000000E+00  0.00000000000E+00  0.47501967326E+03  0.47501967326E+03  0.00000000000E+00 0.  1.
         21   -1    0    0  502  503 -0.00000000000E+00 -0.00000000000E+00 -0.25608160017E+03  0.25608160017E+03  0.00000000000E+00 0. -1.
          6    1    1    2  501    0  0.29936254616E+03  0.46314019607E+02  0.91410198505E+02  0.36014267568E+03  0.17200000000E+03 0.  1.
         -6    1    1    2    0  503 -0.29936254616E+03 -0.46314019607E+02  0.12752787458E+03  0.37095859775E+03  0.17200000000E+03 0.  1.
</event>
<event>
 4    1  0.5808486E+000  0.2408322E+03  0.7818608E-02  0.1119240E+00
         21   -1    0    0  503  502  0.00000000000E+00  0.00000000000E+00  0.15619908421E+04  0.15619908421E+04  0.00000000000E+00 0. -1.
         21   -1    0    0  501  503 -0.00000000000E+00 -0.00000000000E+00 -0.13844866279E+03  0.13844866279E+03  0.00000000000E+00 0.  1.
          6    1    1    2  501    0 -0.56074124024E+02 -0.15897125244E+03 -0.15551042589E+02  0.24133379666E+03  0.17200000000E+03 0.  1.
         -6    1    1    2    0  502  0.56074124024E+02  0.15897125244E+03  0.14390932219E+04  0.14591057083E+04  0.17200000000E+03 0. -1.
</event>
<event>
 4    1  0.5808486E+000  0.2770952E+03  0.7818608E-02  0.1097286E+00
         21   -1    0    0  503  502  0.00000000000E+00  0.00000000000E+00  0.50728492930E+03  0.50728492930E+03  0.00000000000E+00 0.  1.
         21   -1    0    0  501  503 -0.00000000000E+00 -0.00000000000E+00 -0.15137075294E+03  0.15137075294E+03  0.00000000000E+00 0. -1.
          6    1    1    2  501    0 -0.12990231395E+03  0.17413539479E+03  0.18095302800E+03  0.33094674077E+03  0.17200000000E+03 0. -1.
         -6    1    1    2    0  502  0.12990231395E+03 -0.17413539479E+03  0.17496114836E+03  0.32770894148E+03  0.17200000000E+03 0.  1.
</event>
<event>
 4    1  0.5808486E+000  0.3804362E+03  0.7818608E-02  0.1050773E+00
         21   -1    0    0  501  502  0.00000000000E+00  0.00000000000E+00  0.50408713143E+03  0.50408713143E+03  0.00000000000E+00 0.  1.
         21   -1    0    0  502  503 -0.00000000000E+00 -0.00000000000E+00 -0.31050190592E+03  0.31050190592E+03  0.00000000000E+00 0.  1.
          6    1    1    2  501    0  0.26447475325E+03  0.21260475498E+03 -0.14983735426E+02  0.38073112465E+03  0.17200000000E+03 0.  1.
         -6    1    1    2    0  503 -0.26447475325E+03 -0.21260475498E+03  0.20856896093E+03  0.43385791270E+03  0.17200000000E+03 0.  1.
</event>
<event>
 4    1  0.5808486E+000  0.2014651E+03  0.7818608E-02  0.1148509E+00
         21   -1    0    0  501  502  0.00000000000E+00  0.00000000000E+00  0.12138089439E+03  0.12138089439E+03  0.00000000000E+00 0.  1.
         21   -1    0    0  502  503 -0.00000000000E+00 -0.00000000000E+00 -0.34975788105E+03  0.34975788105E+03  0.00000000000E+00 0. -1.
          6    1    1    2  501    0  0.10327669838E+03 -0.18387992009E+02 -0.64804716738E+02  0.21163139179E+03  0.17200000000E+03 0.  1.
         -6    1    1    2    0  503 -0.10327669838E+03  0.18387992009E+02 -0.16357226992E+03  0.25950738365E+03  0.17200000000E+03 0. -1.
</event>
<event>
 4    1  0.5808486E+000  0.2003393E+03  0.7818608E-02  0.1149453E+00
         21   -1    0    0  503  502  0.00000000000E+00  0.00000000000E+00  0.38137497848E+03  0.38137497848E+03  0.00000000000E+00 0.  1.
         21   -1    0    0  501  503 -0.00000000000E+00 -0.00000000000E+00 -0.37600435000E+03  0.37600435000E+03  0.00000000000E+00 0.  1.
          6    1    1    2  501    0 -0.58559969454E+02 -0.84395248369E+02 -0.31866809802E+03  0.37641092528E+03  0.17200000000E+03 0.  1.
         -6    1    1    2    0  502  0.58559969454E+02  0.84395248369E+02  0.32403872650E+03  0.38096840321E+03  0.17200000000E+03 0.  1.
</event>
<event>
 4    1  0.5808486E+000  0.1773148E+03  0.7818608E-02  0.1170427E+00
         21   -1    0    0  503  502  0.00000000000E+00  0.00000000000E+00  0.13156107750E+03  0.13156107750E+03  0.00000000000E+00 0.  1.
         21   -1    0    0  501  503 -0.00000000000E+00 -0.00000000000E+00 -0.32825154845E+03  0.32825154845E+03  0.00000000000E+00 0.  1.
          6    1    1    2  501    0  0.17647893030E+02 -0.39307426448E+02 -0.21824077073E+03  0.28119309364E+03  0.17200000000E+03 0.  1.
         -6    1    1    2    0  502 -0.17647893030E+02  0.39307426448E+02  0.21550299783E+02  0.17861953231E+03  0.17200000000E+03 0.  1.
</event>
<event>
 4    1  0.5808486E+000  0.3810038E+03  0.7818608E-02  0.1050563E+00
         21   -1    0    0  503  502  0.00000000000E+00  0.00000000000E+00  0.14027971188E+03  0.14027971188E+03  0.00000000000E+00 0. -1.
         21   -1    0    0  501  503 -0.00000000000E+00 -0.00000000000E+00 -0.10894455841E+04  0.10894455841E+04  0.00000000000E+00 0.  1.
          6    1    1    2  501    0  0.29329784438E+03  0.17191930274E+03 -0.33689872705E+03  0.50859082224E+03  0.17200000000E+03 0. -1.
         -6    1    1    2    0  502 -0.29329784438E+03 -0.17191930274E+03 -0.61226714521E+03  0.72113447378E+03  0.17200000000E+03 0.  1.
</event>
<event>
 4    1  0.5808486E+000  0.2162230E+03  0.7818608E-02  0.1136731E+00
         21   -1    0    0  503  502  0.00000000000E+00  0.00000000000E+00  0.60534135793E+03  0.60534135793E+03  0.00000000000E+00 0. -1.
         21   -1    0    0  501  503 -0.00000000000E+00 -0.00000000000E+00 -0.42408557937E+03  0.42408557937E+03  0.00000000000E+00 0. -1.
          6    1    1    2  501    0 -0.99213892411E+02 -0.85586045764E+02 -0.37486302070E+03  0.43275241416E+03  0.17200000000E+03 0. -1.
         -6    1    1    2    0  502  0.99213892411E+02  0.85586045764E+02  0.55611879925E+03  0.59667452313E+03  0.17200000000E+03 0. -1.
</event>
<event>
 4    1  0.5808486E+000  0.1879742E+03  0.7818608E-02  0.1160301E+00
         21   -1    0    0  501  502  0.00000000000E+00  0.00000000000E+00  0.67729852910E+02  0.67729852910E+02  0.00000000000E+00 0. -1.
         21   -1    0    0  502  503 -0.00000000000E+00 -0.00000000000E+00 -0.52383501912E+03  0.52383501912E+03  0.00000000000E+00 0. -1.
          6    1    1    2  501    0  0.88357806282E+01 -0.75314216503E+02 -0.20914574181E+03  0.28120498492E+03  0.17200000000E+03 0.  1.
         -6    1    1    2    0  503 -0.88357806282E+01  0.75314216503E+02 -0.24695942439E+03  0.31035988710E+03  0.17200000000E+03 0.  1.
</event>
<event>
 4    1  0.5808486E+000  0.1930636E+03  0.7818608E-02  0.1155727E+00
         21   -1    0    0  503  502  0.00000000000E+00  0.00000000000E+00  0.32020953145E+03  0.32020953145E+03  0.00000000000E+00 0.  1.
         21   -1    0    0  501  503 -0.00000000000E+00 -0.00000000000E+00 -0.17142192612E+03  0.17142192612E+03  0.00000000000E+00 0.  1.
          6    1    1    2  501    0 -0.60659063716E+02  0.63324817418E+02 -0.64867360418E+02  0.20366965645E+03  0.17200000000E+03 0.  1.
         -6    1    1    2    0  502  0.60659063716E+02 -0.63324817418E+02  0.21365496575E+03  0.28796180112E+03  0.17200000000E+03 0.  1.
</event>
<event>
 4    1  0.5808486E+000  0.2596818E+03  0.7818608E-02  0.1107335E+00
         21   -1    0    0  501  502  0.00000000000E+00  0.00000000000E+00  0.34306781057E+03  0.34306781057E+03  0.00000000000E+00 0. -1.
         21   -1    0    0  502  503 -0.00000000000E+00 -0.00000000000E+00 -0.22317627788E+03  0.22317627788E+03  0.00000000000E+00 0. -1.
          6    1    1    2  501    0 -0.77092832516E+02 -0.17862628089E+03  0.15771309325E+03  0.30382243635E+03  0.17200000000E+03 0. -1.
         -6    1    1    2    0  503  0.77092832516E+02  0.17862628089E+03 -0.37821560556E+02  0.26242165210E+03  0.17200000000E+03 0. -1.
</event>
<event>
 4    1  0.5808486E+000  0.2015260E+03  0.7818608E-02  0.1148458E+00
         21   -1    0    0  503  502  0.00000000000E+00  0.00000000000E+00  0.39575829255E+03  0.39575829255E+03  0.00000000000E+00 0.  1.
         21   -1    0    0  501  503 -0.00000000000E+00 -0.00000000000E+00 -0.22597986959E+03  0.22597986959E+03  0.00000000000E+00 0. -1.
          6    1    1    2  501    0 -0.36027377381E+02  0.98644646096E+02 -0.14479413377E+03  0.24814930848E+03  0.17200000000E+03 0. -1.
         -6    1    1    2    0  502  0.36027377381E+02 -0.98644646096E+02  0.31457255674E+03  0.37358885366E+03  0.17200000000E+03 0.  1.
</event>
<event>
 4    1  0.5808486E+000  0.2901282E+03  0.7818608E-02  0.1090282E+00
         21   -1    0    0  501  502  0.00000000000E+00  0.00000000000E+00  0.51669880885E+03  0.51669880885E+03  0.00000000000E+00 0.  1.
         21   -1    0    0  502  503 -0.00000000000E+00 -0.00000000000E+00 -0.20111149176E+03  0.20111149176E+03  0.00000000000E+00 0. -1.
          6    1    1    2  501    0 -0.66762138151E+02 -0.22390441174E+03  0.13662733743E+01  0.29013141056E+03  0.17200000000E+03 0. -1.
         -6    1    1    2    0  503  0.66762138151E+02  0.22390441174E+03  0.31422104371E+03  0.42767889005E+03  0.17200000000E+03 0.  1.
</event>
<event>
 4    1  0.5808486E+000  0.2428510E+03  0.7818608E-02  0.1117908E+00
         21   -1    0    0  503  502  0.00000000000E+00  0.00000000000E+00  0.14910597278E+03  0.14910597278E+03  0.00000000000E+00 0.  1.
         21   -1    0    0  501  503 -0.00000000000E+00 -0.00000000000E+00 -0.39832540715E+03  0.39832540715E+03  0.00000000000E+00 0. -1.
          6    1    1    2  501    0  0.33635343098E+02  0.16811095998E+03 -0.10170028325E+03  0.26328611582E+03  0.17200000000E+03 0. -1.
         -6    1    1    2    0  502 -0.33635343098E+02 -0.16811095998E+03 -0.14751915111E+03  0.28414526411E+03  0.17200000000E+03 0. -1.
</event>
<event>
 4    1  0.5808486E+000  0.2360109E+03  0.7818608E-02  0.1122479E+00
         21   -1    0    0  503  502  0.00000000000E+00  0.00000000000E+00  0.11981440556E+03  0.11981440556E+03  0.00000000000E+00 0.  1.
         21   -1    0    0  501  503 -0.00000000000E+00 -0.00000000000E+00 -0.54875983574E+03  0.54875983574E+03  0.00000000000E+00 0.  1.
          6    1    1    2  501    0  0.15294783476E+03  0.52192836302E+02 -0.83790006217E+02  0.25044340171E+03  0.17200000000E+03 0.  1.
         -6    1    1    2    0  502 -0.15294783476E+03 -0.52192836302E+02 -0.34515542396E+03  0.41813083958E+03  0.17200000000E+03 0.  1.
</event>
<event>
 4    1  0.5808486E+000  0.1793221E+03  0.7818608E-02  0.1168461E+00
         21   -1    0    0  503  502  0.00000000000E+00  0.00000000000E+00  0.25936543763E+04  0.25936543763E+04  0.00000000000E+00 0.  1.
         21   -1    0    0  501  503 -0.00000000000E+00 -0.00000000000E+00 -0.55753833377E+02  0.55753833377E+02  0.00000000000E+00 0.  1.
          6    1    1    2  501    0  0.44191541836E+02 -0.24890129709E+02  0.10078380126E+03  0.20570314904E+03  0.17200000000E+03 0.  1.
         -6    1    1    2    0  502 -0.44191541836E+02  0.24890129709E+02  0.24371167417E+04  0.24437050607E+04  0.17200000000E+03 0.  1.
</event>
<event>
 4    1  0.5808486E+000  0.1938769E+03  0.7818608E-02  0.1155010E+00
         21   -1    0    0  503  502  0.00000000000E+00  0.00000000000E+00  0.16756866881E+03  0.16756866881E+03  0.00000000000E+00 0.  1.
         21   -1    0    0  501  503 -0.00000000000E+00 -0.00000000000E+00 -0.23130225428E+03  0.23130225428E+03  0.00000000000E+00 0. -1.
          6    1    1    2  501    0 -0.54041610398E+02  0.71300488437E+02  0.27948506932E+01  0.19389705128E+03  0.17200000000E+03 0. -1.
         -6    1    1    2    0  502  0.54041610398E+02 -0.71300488437E+02 -0.66528436160E+02  0.20497387181E+03  0.17200000000E+03 0. -1.
</event>
<event>
 4    1  0.5808486E+000  0.2197925E+03  0.7818608E-02  0.1134038E+00
         21   -1    0    0  501  502  0.00000000000E+00  0.00000000000E+00  0.22970535117E+03  0.22970535117E+03  0.00000000000E+00 0.  1.
         21   -1    0    0  502  503 -0.00000000000E+00 -0.00000000000E+00 -0.21064699268E+03  0.21064699268E+03  0.00000000000E+00 0.  1.
          6    1    1    2  501    0 -0.26140069905E+02  0.13431835817E+03  0.18370177015E+02  0.22055880849E+03  0.17200000000E+03 0.  1.
         -6    1    1    2    0  503  0.26140069905E+02 -0.13431835817E+03  0.68818147335E+00  0.21979353537E+03  0.17200000000E+03 0.  1.
</event>
<event>
 4    1  0.5808486E+000  0.1754213E+03  0.7818608E-02  0.1172309E+00
         21   -1    0    0  501  502  0.00000000000E+00  0.00000000000E+00  0.59238430291E+02  0.59238430291E+02  0.00000000000E+00 0. -1.
         21   -1    0    0  502  503 -0.00000000000E+00 -0.00000000000E+00 -0.97688302970E+03  0.97688302970E+03  0.00000000000E+00 0. -1.
          6    1    1    2  501    0 -0.13359804990E+02 -0.31782734794E+02 -0.10432466488E+03  0.20409865831E+03  0.17200000000E+03 0. -1.
         -6    1    1    2    0  503  0.13359804990E+02  0.31782734794E+02 -0.81331993453E+03  0.83202280169E+03  0.17200000000E+03 0. -1.
</event>
<event>
 4    1  0.5808486E+000  0.1771489E+03  0.7818608E-02  0.1170591E+00
         21   -1    0    0  503  502  0.00000000000E+00  0.00000000000E+00  0.25051190908E+03  0.25051190908E+03  0.00000000000E+00 0. -1.
         21   -1    0    0  501  503 -0.00000000000E+00 -0.00000000000E+00 -0.29034142133E+03  0.29034142133E+03  0.00000000000E+00 0. -1.
          6    1    1    2  501    0  0.37956699914E+02  0.18894836183E+02 -0.22382095960E+03  0.28544272255E+03  0.17200000000E+03 0. -1.
         -6    1    1    2    0  502 -0.37956699914E+02 -0.18894836183E+02  0.18399144735E+03  0.25541060785E+03  0.17200000000E+03 0. -1.
</event>
<event>
 4    1  0.5808486E+000  0.3996978E+03  0.7818608E-02  0.1043884E+00
         21   -1    0    0  503  502  0.00000000000E+00  0.00000000000E+00  0.18978490072E+03  0.18978490072E+03  0.00000000000E+00 0. -1.
         21   -1    0    0  501  503 -0.00000000000E+00 -0.00000000000E+00 -0.10496324530E+04  0.10496324530E+04  0.00000000000E+00 0.  1.
          6    1    1    2  501    0 -0.32668061922E+03  0.15314741128E+03 -0.15415836159E+03  0.42839602823E+03  0.17200000000E+03 0. -1.
         -6    1    1    2    0  502  0.32668061922E+03 -0.15314741128E+03 -0.70568919069E+03  0.81102132550E+03  0.17200000000E+03 0.  1.
</event>
<event>
 4    1  0.5808486E+000  0.1729535E+03  0.7818608E-02  0.1174802E+00
         21   -1    0    0  503  502  0.00000000000E+00  0.00000000000E+00  0.86646443456E+02  0.86646443456E+02  0.00000000000E+00 0. -1.
         21   -1    0    0  501  503 -0.00000000000E+00 -0.00000000000E+00 -0.34531961784E+03  0.34531961784E+03  0.00000000000E+00 0. -1.
          6    1    1    2  501    0 -0.14235527515E+02  0.11236682264E+02 -0.13282459549E+03  0.21807174608E+03  0.17200000000E+03 0. -1.
         -6    1    1    2    0  502  0.14235527515E+02 -0.11236682264E+02 -0.12584857890E+03  0.21389431522E+03  0.17200000000E+03 0. -1.
</event>
<event>
 4    1  0.5808486E+000  0.2143809E+03  0.7818608E-02  0.1138143E+00
         21   -1    0    0  503  502  0.00000000000E+00  0.00000000000E+00  0.13084980203E+03  0.13084980203E+03  0.00000000000E+00 0.  1.
         21   -1    0    0  501  503 -0.00000000000E+00 -0.00000000000E+00 -0.35340656398E+03  0.35340656398E+03  0.00000000000E+00 0.  1.
          6    1    1    2  501    0  0.12788858659E+03  0.44362021963E+01 -0.13025361505E+03  0.25084890812E+03  0.17200000000E+03 0.  1.
         -6    1    1    2    0  502 -0.12788858659E+03 -0.44362021963E+01 -0.92303146907E+02  0.23340745789E+03  0.17200000000E+03 0.  1.
</event>
<event>
 4    1  0.5808486E+000  0.1771992E+03  0.7818608E-02  0.1170542E+00
         21   -1    0    0  503  502  0.00000000000E+00  0.00000000000E+00  0.41490471103E+03  0.41490471103E+03  0.00000000000E+00 0. -1.
         21   -1    0    0  501  503 -0.00000000000E+00 -0.00000000000E+00 -0.94529603936E+02  0.94529603936E+02  0.00000000000E+00 0. -1.
          6    1    1    2  501    0  0.10948182796E+02  0.41178633924E+02  0.46441123212E+02  0.18318384351E+03  0.17200000000E+03 0. -1.
         -6    1    1    2    0  502 -0.10948182796E+02 -0.41178633924E+02  0.27393398388E+03  0.32625047145E+03  0.17200000000E+03 0. -1.
</event>
<event>
 4    1  0.5808486E+000  0.2270460E+03  0.7818608E-02  0.1128736E+00
         21   -1    0    0  501  502  0.00000000000E+00  0.00000000000E+00  0.23763407604E+03  0.23763407604E+03  0.00000000000E+00 0.  1.
         21   -1    0    0  502  503 -0.00000000000E+00 -0.00000000000E+00 -0.23110801283E+03  0.23110801283E+03  0.00000000000E+00 0. -1.
          6    1    1    2  501    0  0.10607658164E+03  0.10350682931E+03  0.61313762982E+02  0.23517925592E+03  0.17200000000E+03 0.  1.
         -6    1    1    2    0  503 -0.10607658164E+03 -0.10350682931E+03 -0.54787699767E+02  0.23356283294E+03  0.17200000000E+03 0. -1.
</event>
<event>
 4    1  0.5808486E+000  0.1921333E+03  0.7818608E-02  0.1156551E+00
         21   -1    0    0  503  502  0.00000000000E+00  0.00000000000E+00  0.59385118109E+03  0.59385118109E+03  0.00000000000E+00 0.  1.
         21   -1    0    0  501  503 -0.00000000000E+00 -0.00000000000E+00 -0.10064760252E+03  0.10064760252E+03  0.00000000000E+00 0.  1.
          6    1    1    2  501    0 -0.53451595596E+02  0.66888870309E+02  0.31874688340E+02  0.19475931249E+03  0.17200000000E+03 0.  1.
         -6    1    1    2    0  502  0.53451595596E+02 -0.66888870309E+02  0.46132889023E+03  0.49973947113E+03  0.17200000000E+03 0.  1.
</event>
<event>
 4    1  0.5808486E+000  0.1842392E+03  0.7818608E-02  0.1163762E+00
         21   -1    0    0  501  502  0.00000000000E+00  0.00000000000E+00  0.83682774688E+02  0.83682774688E+02  0.00000000000E+00 0. -1.
         21   -1    0    0  502  503 -0.00000000000E+00 -0.00000000000E+00 -0.52314328611E+03  0.52314328611E+03  0.00000000000E+00 0. -1.
          6    1    1    2  501    0  0.65417182895E+02  0.89827124222E+01 -0.75926366918E+02  0.19927094654E+03  0.17200000000E+03 0. -1.
         -6    1    1    2    0  503 -0.65417182895E+02 -0.89827124222E+01 -0.36353414450E+03  0.40755511426E+03  0.17200000000E+03 0. -1.
</event>
<event>
 4    1  0.5808486E+000  0.2778370E+03  0.7818608E-02  0.1096876E+00
         21   -1    0    0  503  502  0.00000000000E+00  0.00000000000E+00  0.11154240613E+04  0.11154240613E+04  0.00000000000E+00 0.  1.
         21   -1    0    0  501  503 -0.00000000000E+00 -0.00000000000E+00 -0.24936228465E+03  0.24936228465E+03  0.00000000000E+00 0.  1.
          6    1    1    2  501    0 -0.13558325655E+03  0.17095776826E+03 -0.14699143731E+03  0.31432445121E+03  0.17200000000E+03 0.  1.
         -6    1    1    2    0  502  0.13558325655E+03 -0.17095776826E+03  0.10130532139E+04  0.10504618947E+04  0.17200000000E+03 0.  1.
</event>
<event>
 4    1  0.5808486E+000  0.2305335E+03  0.7818608E-02  0.1126265E+00
         21   -1    0    0  501  502  0.00000000000E+00  0.00000000000E+00  0.11390022914E+04  0.11390022914E+04  0.00000000000E+00 0.  1.
         21   -1    0    0  502  503 -0.00000000000E+00 -0.00000000000E+00 -0.61127183192E+02  0.61127183192E+02  0.00000000000E+00 0. -1.
          6    1    1    2  501    0  0.14180365332E+03  0.58765955603E+02  0.83086482099E+03  0.86225406024E+03  0.17200000000E+03 0.  1.
         -6    1    1    2    0  503 -0.14180365332E+03 -0.58765955603E+02  0.24701028721E+03  0.33787541434E+03  0.17200000000E+03 0. -1.
</event>
<event>
 4    1  0.5808486E+000  0.2101977E+03  0.7818608E-02  0.1141410E+00
         21   -1    0    0  501  502  0.00000000000E+00  0.00000000000E+00  0.11930726169E+03  0.11930726169E+03  0.00000000000E+00 0.  1.
         21   -1    0    0  502  503 -0.00000000000E+00 -0.00000000000E+00 -0.38068621402E+03  0.38068621402E+03  0.00000000000E+00 0. -1.
          6    1    1    2  501    0  0.69297530055E+02  0.98979455440E+02 -0.89456242039E+02  0.22844145751E+03  0.17200000000E+03 0. -1.
         -6    1    1    2    0  503 -0.69297530055E+02 -0.98979455440E+02 -0.17192271030E+03  0.27155201820E+03  0.17200000000E+03 0. -1.
</event>
<event>
 4    1  0.5808486E+000  0.1726707E+03  0.7818608E-02  0.1175091E+00
         21   -1    0    0  503  502  0.00000000000E+00  0.00000000000E+00  0.12796500510E+04  0.12796500510E+04  0.00000000000E+00 0.  1.
         21   -1    0    0  501  503 -0.00000000000E+00 -0.00000000000E+00 -0.23562634855E+02  0.23562634855E+02  0.00000000000E+00 0.  1.
          6    1    1    2  501    0 -0.19182832192E+01  0.15082303761E+02  0.55917923360E+03  0.58523206592E+03  0.17200000000E+03 0.  1.
         -6    1    1    2    0  502  0.19182832192E+01 -0.15082303761E+02  0.69690818257E+03  0.71798061996E+03  0.17200000000E+03 0.  1.
</event>
<event>
 4    1  0.5808486E+000  0.1920071E+03  0.7818608E-02  0.1156663E+00
         21   -1    0    0  503  502  0.00000000000E+00  0.00000000000E+00  0.54687162278E+03  0.54687162278E+03  0.00000000000E+00 0. -1.
         21   -1    0    0  501  503 -0.00000000000E+00 -0.00000000000E+00 -0.35564104602E+03  0.35564104602E+03  0.00000000000E+00 0. -1.
          6    1    1    2  501    0  0.34298258155E+02  0.78143207759E+02 -0.31062672558E+03  0.36517898909E+03  0.17200000000E+03 0. -1.
         -6    1    1    2    0  502 -0.34298258155E+02 -0.78143207759E+02  0.50185730234E+03  0.53733367971E+03  0.17200000000E+03 0. -1.
</event>
<event>
 4    1  0.5808486E+000  0.1979608E+03  0.7818608E-02  0.1151471E+00
         21   -1    0    0  501  502  0.00000000000E+00  0.00000000000E+00  0.10154863838E+03  0.10154863838E+03  0.00000000000E+00 0. -1.
         21   -1    0    0  502  503 -0.00000000000E+00 -0.00000000000E+00 -0.74019106304E+03  0.74019106304E+03  0.00000000000E+00 0. -1.
          6    1    1    2  501    0 -0.51883258143E+02 -0.83142078287E+02 -0.28148402949E+02  0.19995201986E+03  0.17200000000E+03 0. -1.
         -6    1    1    2    0  503  0.51883258143E+02  0.83142078287E+02 -0.61049402171E+03  0.64178768156E+03  0.17200000000E+03 0. -1.
</event>
<event>
 4    1  0.5808486E+000  0.2534926E+03  0.7818608E-02  0.1111117E+00
         21   -1    0    0  501  502  0.00000000000E+00  0.00000000000E+00  0.27066671763E+03  0.27066671763E+03  0.00000000000E+00 0.  1.
         21   -1    0    0  502  503 -0.00000000000E+00 -0.00000000000E+00 -0.27039747914E+03  0.27039747914E+03  0.00000000000E+00 0. -1.
          6    1    1    2  501    0  0.17199960253E+03 -0.71348629998E+02 -0.94359349195E+02  0.27048507732E+03  0.17200000000E+03 0. -1.
         -6    1    1    2    0  503 -0.17199960253E+03  0.71348629998E+02  0.94628587681E+02  0.27057911944E+03  0.17200000000E+03 0.  1.
</event>
<event>
 4    1  0.5808486E+000  0.1729352E+03  0.7818608E-02  0.1174821E+00
         21   -1    0    0  503  502  0.00000000000E+00  0.00000000000E+00  0.18514131183E+03  0.18514131183E+03  0.00000000000E+00 0.  1.
         21   -1    0    0  501  503 -0.00000000000E+00 -0.00000000000E+00 -0.16231912702E+03  0.16231912702E+03  0.00000000000E+00 0.  1.
          6    1    1    2  501    0  0.31287485890E+01  0.17686234410E+02  0.23494721589E+02  0.17452390638E+03  0.17200000000E+03 0.  1.
         -6    1    1    2    0  502 -0.31287485890E+01 -0.17686234410E+02 -0.67253678022E+00  0.17293653247E+03  0.17200000000E+03 0.  1.
</event>
<event>
 4    1  0.5808486E+000  0.2217710E+03  0.7818608E-02  0.1132570E+00
         21   -1    0    0  501  502  0.00000000000E+00  0.00000000000E+00  0.23486606731E+03  0.23486606731E+03  0.00000000000E+00 0.  1.
         21   -1    0    0  502  503 -0.00000000000E+00 -0.00000000000E+00 -0.20943513611E+03  0.20943513611E+03  0.00000000000E+00 0.  1.
          6    1    1    2  501    0 -0.12836028713E+03 -0.55874897817E+02  0.15334957060E+02  0.22230053627E+03  0.17200000000E+03 0.  1.
         -6    1    1    2    0  503  0.12836028713E+03  0.55874897817E+02  0.10095974146E+02  0.22200066714E+03  0.17200000000E+03 0.  1.
</event>
<event>
 4    1  0.5808486E+000  0.1756406E+03  0.7818608E-02  0.1172090E+00
         21   -1    0    0  503  502  0.00000000000E+00  0.00000000000E+00  0.17463105465E+03  0.17463105465E+03  0.00000000000E+00 0.  1.
         21   -1    0    0  501  503 -0.00000000000E+00 -0.00000000000E+00 -0.27952936485E+03  0.27952936485E+03  0.00000000000E+00 0.  1.
          6    1    1    2  501    0 -0.34725053974E+02 -0.77335881686E+01 -0.19020716786E+03  0.25889844431E+03  0.17200000000E+03 0.  1.
         -6    1    1    2    0  502  0.34725053974E+02  0.77335881686E+01  0.85308857665E+02  0.19526197519E+03  0.17200000000E+03 0.  1.
</event>
<event>
 4    1  0.5808486E+000  0.1789157E+03  0.7818608E-02  0.1168857E+00
         21   -1    0    0  503  502  0.00000000000E+00  0.00000000000E+00  0.60835888647E+03  0.60835888647E+03  0.00000000000E+00 0. -1.
         21   -1    0    0  501  503 -0.00000000000E+00 -0.00000000000E+00 -0.67114606750E+02  0.67114606750E+02  0.00000000000E+00 0. -1.
          6    1    1    2  501    0 -0.38066740169E+02  0.31269163734E+02  0.11365895103E+03  0.21196507839E+03  0.17200000000E+03 0. -1.
         -6    1    1    2    0  502  0.38066740169E+02 -0.31269163734E+02  0.42758532869E+03  0.46350841483E+03  0.17200000000E+03 0. -1.
</event>
<event>
 4    1  0.5808486E+000  0.1759217E+03  0.7818608E-02  0.1171809E+00
         21   -1    0    0  501  502  0.00000000000E+00  0.00000000000E+00  0.72369696956E+02  0.72369696956E+02  0.00000000000E+00 0.  1.
         21   -1    0    0  502  503 -0.00000000000E+00 -0.00000000000E+00 -0.42774753636E+03  0.42774753636E+03  0.00000000000E+00 0.  1.
          6    1    1    2  501    0 -0.98841608198E+01  0.35591261769E+02 -0.17379018373E+03  0.24728821749E+03  0.17200000000E+03 0.  1.
         -6    1    1    2    0  503  0.98841608198E+01 -0.35591261769E+02 -0.18158765567E+03  0.25282901582E+03  0.17200000000E+03 0.  1.
</event>
<event>
 4    1  0.5808486E+000  0.1981792E+03  0.7818608E-02  0.1151284E+00
         21   -1    0    0  501  502  0.00000000000E+00  0.00000000000E+00  0.69500743949E+02  0.69500743949E+02  0.00000000000E+00 0.  1.
         21   -1    0    0  502  503 -0.00000000000E+00 -0.00000000000E+00 -0.67590372854E+03  0.67590372854E+03  0.00000000000E+00 0.  1.
          6    1    1    2  501    0 -0.97535833645E+02 -0.13332466728E+02 -0.15230008381E+03  0.24994061103E+03  0.17200000000E+03 0.  1.
         -6    1    1    2    0  503  0.97535833645E+02  0.13332466728E+02 -0.45410290077E+03  0.49546386145E+03  0.17200000000E+03 0.  1.
</event>
<event>
 4    1  0.5808486E+000  0.2068653E+03  0.7818608E-02  0.1144073E+00
         21   -1    0    0  503  502  0.00000000000E+00  0.00000000000E+00  0.19355299868E+03  0.19355299868E+03  0.00000000000E+00 0.  1.
         21   -1    0    0  501  503 -0.00000000000E+00 -0.00000000000E+00 -0.81966727028E+03  0.81966727028E+03  0.00000000000E+00 0. -1.
          6    1    1    2  501    0 -0.59118192890E+02  0.98561196357E+02 -0.74598345797E+03  0.77413473616E+03  0.17200000000E+03 0. -1.
         -6    1    1    2    0  502  0.59118192890E+02 -0.98561196357E+02  0.11986918637E+03  0.23908553281E+03  0.17200000000E+03 0.  1.
</event>
<event>
 4    1  0.5808486E+000  0.2374034E+03  0.7818608E-02  0.1121535E+00
         21   -1    0    0  501  502  0.00000000000E+00  0.00000000000E+00  0.19029370021E+03  0.19029370021E+03  0.00000000000E+00 0. -1.
         21   -1    0    0  502  503 -0.00000000000E+00 -0.00000000000E+00 -0.29656978416E+03  0.29656978416E+03  0.00000000000E+00 0. -1.
          6    1    1    2  501    0 -0.28605454149E+02  0.16111519572E+03 -0.62011314425E+02  0.24536866429E+03  0.17200000000E+03 0. -1.
         -6    1    1    2    0  503  0.28605454149E+02 -0.16111519572E+03 -0.44264769532E+02  0.24149482007E+03  0.17200000000E+03 0. -1.
</event>
<event>
 4    1  0.5808486E+000  0.1790397E+03  0.7818608E-02  0.1168736E+00
         21   -1    0    0  503  502  0.00000000000E+00  0.00000000000E+00  0.38994306079E+02  0.38994306079E+02  0.00000000000E+00 0. -1.
         21   -1    0    0  501  503 -0.00000000000E+00 -0.00000000000E+00 -0.83238627773E+03  0.83238627773E+03  0.00000000000E+00 0. -1.
          6    1    1    2  501    0  0.41171332304E+02  0.27859010274E+02 -0.34814107018E+03  0.39148104399E+03  0.17200000000E+03 0. -1.
         -6    1    1    2    0  502 -0.41171332304E+02 -0.27859010274E+02 -0.44525090147E+03  0.47989953982E+03  0.17200000000E+03 0. -1.
</event>
<event>
 4    1  0.5808486E+000  0.1818455E+03  0.7818608E-02  0.1166029E+00
         21   -1    0    0  503  502  0.00000000000E+00  0.00000000000E+00  0.38106830744E+03  0.38106830744E+03  0.00000000000E+00 0.  1.
         21   -1    0    0  501  503 -0.00000000000E+00 -0.00000000000E+00 -0.16011678336E+03  0.16011678336E+03  0.00000000000E+00 0.  1.
          6    1    1    2  501    0 -0.44144055583E+02  0.39180320404E+02 -0.72658046320E+02  0.19582386689E+03  0.17200000000E+03 0.  1.
         -6    1    1    2    0  502  0.44144055583E+02 -0.39180320404E+02  0.29360957039E+03  0.34536122390E+03  0.17200000000E+03 0.  1.
</event>
<event>
 4    1  0.5808486E+000  0.1751888E+03  0.7818608E-02  0.1172542E+00
         21   -1    0    0  503  502  0.00000000000E+00  0.00000000000E+00  0.18485918747E+03  0.18485918747E+03  0.00000000000E+00 0.  1.
         21   -1    0    0  501  503 -0.00000000000E+00 -0.00000000000E+00 -0.16766132218E+03  0.16766132218E+03  0.00000000000E+00 0.  1.
          6    1    1    2  501    0 -0.32792973115E+02 -0.56327701299E+01 -0.88180298912E+01  0.17541056079E+03  0.17200000000E+03 0.  1.
         -6    1    1    2    0  502  0.32792973115E+02  0.56327701299E+01  0.26015895176E+02  0.17710994886E+03  0.17200000000E+03 0.  1.
</event>
<event>
 4    1  0.5808486E+000  0.1738298E+03  0.7818608E-02  0.1173912E+00
         21   -1    0    0  501  502  0.00000000000E+00  0.00000000000E+00  0.19771667418E+03  0.19771667418E+03  0.00000000000E+00 0.  1.
         21   -1    0    0  502  503 -0.00000000000E+00 -0.00000000000E+00 -0.25606808239E+03  0.25606808239E+03  0.00000000000E+00 0.  1.
          6    1    1    2  501    0  0.22647803295E+02 -0.10948056181E+02  0.11489141604E+03  0.20836703292E+03  0.17200000000E+03 0.  1.
         -6    1    1    2    0  503 -0.22647803295E+02  0.10948056181E+02 -0.17324282425E+03  0.24541772365E+03  0.17200000000E+03 0.  1.
</event>
<event>
 4    1  0.5808486E+000  0.2322465E+03  0.7818608E-02  0.1125068E+00
         21   -1    0    0  501  502  0.00000000000E+00  0.00000000000E+00  0.24529104968E+04  0.24529104968E+04  0.00000000000E+00 0. -1.
         21   -1    0    0  502  503 -0.00000000000E+00 -0.00000000000E+00 -0.24944623453E+02  0.24944623453E+02  0.00000000000E+00 0.  1.
          6    1    1    2  501    0 -0.12913958428E+03 -0.87620915389E+02  0.16404051398E+04  0.16567641593E+04  0.17200000000E+03 0. -1.
         -6    1    1    2    0  503  0.12913958428E+03  0.87620915389E+02  0.78756073354E+03  0.82109096089E+03  0.17200000000E+03 0.  1.
</event>
<event>
 4    1  0.5808486E+000  0.1862977E+03  0.7818608E-02  0.1161844E+00
         21   -1    0    0  501  502  0.00000000000E+00  0.00000000000E+00  0.44501569498E+02  0.44501569498E+02  0.00000000000E+00 0.  1.
         21   -1    0    0  502  503 -0.00000000000E+00 -0.00000000000E+00 -0.81321623957E+03  0.81321623957E+03  0.00000000000E+00 0.  1.
          6    1    1    2  501    0  0.25654885909E+02 -0.66818022706E+02 -0.29755478692E+03  0.35106363034E+03  0.17200000000E+03 0.  1.
         -6    1    1    2    0  503 -0.25654885909E+02  0.66818022706E+02 -0.47115988316E+03  0.50665417873E+03  0.17200000000E+03 0.  1.
</event>
<event>
 4    1  0.5808486E+000  0.1962831E+03  0.7818608E-02  0.1152913E+00
         21   -1    0    0  503  502  0.00000000000E+00  0.00000000000E+00  0.75394320160E+03  0.75394320160E+03  0.00000000000E+00 0.  1.
         21   -1    0    0  501  503 -0.00000000000E+00 -0.00000000000E+00 -0.58142488378E+02  0.58142488378E+02  0.00000000000E+00 0.  1.
          6    1    1    2  501    0 -0.60997596857E+02  0.72265778243E+02  0.20659274663E+03  0.28496949396E+03  0.17200000000E+03 0.  1.
         -6    1    1    2    0  502  0.60997596857E+02 -0.72265778243E+02  0.48920796660E+03  0.52711619602E+03  0.17200000000E+03 0.  1.
</event>
<event>
 4    1  0.5808486E+000  0.2951760E+03  0.7818608E-02  0.1087677E+00
         21   -1    0    0  501  502  0.00000000000E+00  0.00000000000E+00  0.87293376464E+02  0.87293376464E+02  0.00000000000E+00 0.  1.
         21   -1    0    0  502  503 -0.00000000000E+00 -0.00000000000E+00 -0.12682124601E+04  0.12682124601E+04  0.00000000000E+00 0. -1.
          6    1    1    2  501    0  0.21804897092E+03  0.99997693515E+02 -0.27768236938E+03  0.40526089213E+03  0.17200000000E+03 0.  1.
         -6    1    1    2    0  503 -0.21804897092E+03 -0.99997693515E+02 -0.90323671423E+03  0.95024494440E+03  0.17200000000E+03 0. -1.
</event>
<event>
 4    1  0.5808486E+000  0.1971017E+03  0.7818608E-02  0.1152208E+00
         21   -1    0    0  503  502  0.00000000000E+00  0.00000000000E+00  0.41204989514E+03  0.41204989514E+03  0.00000000000E+00 0.  1.
         21   -1    0    0  501  503 -0.00000000000E+00 -0.00000000000E+00 -0.94330935637E+02  0.94330935637E+02  0.00000000000E+00 0.  1.
          6    1    1    2  501    0  0.90244938331E+02 -0.33480426533E+02  0.16459763293E+03  0.25679070977E+03  0.17200000000E+03 0.  1.
         -6    1    1    2    0  502 -0.90244938331E+02  0.33480426533E+02  0.15312132657E+03  0.24959012101E+03  0.17200000000E+03 0.  1.
</event>
<event>
 4    1  0.5808486E+000  0.1791928E+03  0.7818608E-02  0.1168587E+00
         21   -1    0    0  501  502  0.00000000000E+00  0.00000000000E+00  0.95914079620E+03  0.95914079620E+03  0.00000000000E+00 0.  1.
         21   -1    0    0  502  503 -0.00000000000E+00 -0.00000000000E+00 -0.12818425185E+03  0.12818425185E+03  0.00000000000E+00 0.  1.
          6    1    1    2  501    0  0.44641085876E+02  0.23091612844E+02  0.88278447311E+03  0.90078769701E+03  0.17200000000E+03 0.  1.
         -6    1    1    2    0  503 -0.44641085876E+02 -0.23091612844E+02 -0.51827928761E+02  0.18653735104E+03  0.17200000000E+03 0.  1.
</event>
<event>
 4    1  0.5808486E+000  0.2421663E+03  0.7818608E-02  0.1118358E+00
         21   -1    0    0  503  502  0.00000000000E+00  0.00000000000E+00  0.12003779428E+03  0.12003779428E+03  0.00000000000E+00 0.  1.
         21   -1    0    0  501  503 -0.00000000000E+00 -0.00000000000E+00 -0.57194292958E+03  0.57194292958E+03  0.00000000000E+00 0. -1.
          6    1    1    2  501    0 -0.16866758501E+03  0.24734312234E+02 -0.35806710832E+03  0.43226912277E+03  0.17200000000E+03 0.  1.
         -6    1    1    2    0  502  0.16866758501E+03 -0.24734312234E+02 -0.93838026981E+02  0.25971160110E+03  0.17200000000E+03 0.  1.
</event>
<event>
 4    1  0.5808486E+000  0.1809796E+03  0.7818608E-02  0.1166858E+00
         21   -1    0    0  503  502  0.00000000000E+00  0.00000000000E+00  0.12840375390E+02  0.12840375390E+02  0.00000000000E+00 0.  1.
         21   -1    0    0  501  503 -0.00000000000E+00 -0.00000000000E+00 -0.27180275642E+04  0.27180275642E+04  0.00000000000E+00 0.  1.
          6    1    1    2  501    0  0.53066674821E+02  0.18803020745E+02 -0.16912487211E+04  0.17009044248E+04  0.17200000000E+03 0.  1.
         -6    1    1    2    0  502 -0.53066674821E+02 -0.18803020745E+02 -0.10139384677E+04  0.10299635148E+04  0.17200000000E+03 0.  1.
</event>
<event>
 4    1  0.5808486E+000  0.2685211E+03  0.7818608E-02  0.1102129E+00
         21   -1    0    0  501  502  0.00000000000E+00  0.00000000000E+00  0.22644247421E+03  0.22644247421E+03  0.00000000000E+00 0. -1.
         21   -1    0    0  502  503 -0.00000000000E+00 -0.00000000000E+00 -0.32545346626E+03  0.32545346626E+03  0.00000000000E+00 0.  1.
          6    1    1    2  501    0 -0.14204407973E+03 -0.14947592896E+03 -0.89359637107E+01  0.26866973290E+03  0.17200000000E+03 0.  1.
         -6    1    1    2    0  503  0.14204407973E+03  0.14947592896E+03 -0.90075028337E+02  0.28322620757E+03  0.17200000000E+03 0.  1.
</event>
<event>
 4    1  0.5808486E+000  0.2136916E+03  0.7818608E-02  0.1138676E+00
         21   -1    0    0  501  502  0.00000000000E+00  0.00000000000E+00  0.12576914141E+03  0.12576914141E+03  0.00000000000E+00 0.  1.
         21   -1    0    0  502  503 -0.00000000000E+00 -0.00000000000E+00 -0.36718457464E+03  0.36718457464E+03  0.00000000000E+00 0.  1.
          6    1    1    2  501    0  0.67803862398E+02  0.10715743180E+03 -0.14677189879E+03  0.25924133394E+03  0.17200000000E+03 0. -1.
         -6    1    1    2    0  503 -0.67803862398E+02 -0.10715743180E+03 -0.94643534441E+02  0.23371238212E+03  0.17200000000E+03 0. -1.
</event>
<event>
 4    1  0.5808486E+000  0.3523647E+03  0.7818608E-02  0.1061649E+00
         21   -1    0    0  501  502  0.00000000000E+00  0.00000000000E+00  0.90513867147E+03  0.90513867147E+03  0.00000000000E+00 0.  1.
         21   -1    0    0  502  503 -0.00000000000E+00 -0.00000000000E+00 -0.13717395476E+03  0.13717395476E+03  0.00000000000E+00 0. -1.
          6    1    1    2  501    0  0.24512194281E+03  0.18572060671E+03  0.38289492983E+03  0.52035510749E+03  0.17200000000E+03 0.  1.
         -6    1    1    2    0  503 -0.24512194281E+03 -0.18572060671E+03  0.38506978688E+03  0.52195751874E+03  0.17200000000E+03 0. -1.
</event>
<event>
 4    1  0.5808486E+000  0.1867463E+03  0.7818608E-02  0.1161429E+00
         21   -1    0    0  501  502  0.00000000000E+00  0.00000000000E+00  0.62535027287E+03  0.62535027287E+03  0.00000000000E+00 0. -1.
         21   -1    0    0  502  503 -0.00000000000E+00 -0.00000000000E+00 -0.78240580520E+02  0.78240580520E+02  0.00000000000E+00 0. -1.
          6    1    1    2  501    0 -0.62744658881E+02 -0.36787256573E+02  0.46209587672E+03  0.49840424732E+03  0.17200000000E+03 0. -1.
         -6    1    1    2    0  503  0.62744658881E+02  0.36787256573E+02  0.85013815636E+02  0.20518660608E+03  0.17200000000E+03 0. -1.
</event>
<event>
 4    1  0.5808486E+000  0.2770277E+03  0.7818608E-02  0.1097323E+00
         21   -1    0    0  501  502  0.00000000000E+00  0.00000000000E+00  0.90534025457E+03  0.90534025457E+03  0.00000000000E+00 0. -1.
         21   -1    0    0  502  503 -0.00000000000E+00 -0.00000000000E+00 -0.84777513778E+02  0.84777513778E+02  0.00000000000E+00 0.  1.
          6    1    1    2  501    0 -0.21455166087E+03 -0.33585101332E+02  0.40518883707E+03  0.49083843360E+03  0.17200000000E+03 0.  1.
         -6    1    1    2    0  503  0.21455166087E+03  0.33585101332E+02  0.41537390372E+03  0.49927933475E+03  0.17200000000E+03 0. -1.
</event>
<event>
 4    1  0.5808486E+000  0.1750753E+03  0.7818608E-02  0.1172656E+00
         21   -1    0    0  503  502  0.00000000000E+00  0.00000000000E+00  0.14236140114E+03  0.14236140114E+03  0.00000000000E+00 0.  1.
         21   -1    0    0  501  503 -0.00000000000E+00 -0.00000000000E+00 -0.22558941217E+03  0.22558941217E+03  0.00000000000E+00 0.  1.
          6    1    1    2  501    0  0.31265812246E+02 -0.94774739125E+01 -0.23356980547E+01  0.17509091642E+03  0.17200000000E+03 0.  1.
         -6    1    1    2    0  502 -0.31265812246E+02  0.94774739125E+01 -0.80892312978E+02  0.19285989688E+03  0.17200000000E+03 0.  1.
</event>
<event>
 4    1  0.5808486E+000  0.2039403E+03  0.7818608E-02  0.1146457E+00
         21   -1    0    0  503  502  0.00000000000E+00  0.00000000000E+00  0.12014080942E+04  0.12014080942E+04  0.00000000000E+00 0.  1.
         21   -1    0    0  501  503 -0.00000000000E+00 -0.00000000000E+00 -0.46878489888E+02  0.46878489888E+02  0.00000000000E+00 0.  1.
          6    1    1    2  501    0  0.19858337012E+02  0.10776498359E+03  0.89644228806E+03  0.91934782376E+03  0.17200000000E+03 0.  1.
         -6    1    1    2    0  502 -0.19858337012E+02 -0.10776498359E+03  0.25808731627E+03  0.32893876034E+03  0.17200000000E+03 0.  1.
</event>
<event>
 4    1  0.5808486E+000  0.1727127E+03  0.7818608E-02  0.1175048E+00
         21   -1    0    0  501  502  0.00000000000E+00  0.00000000000E+00  0.35310204872E+03  0.35310204872E+03  0.00000000000E+00 0. -1.
         21   -1    0    0  502  503 -0.00000000000E+00 -0.00000000000E+00 -0.99813115077E+02  0.99813115077E+02  0.00000000000E+00 0. -1.
          6    1    1    2  501    0  0.12876644792E+02 -0.89362416217E+01  0.21540587172E+03  0.27609663882E+03  0.17200000000E+03 0.  1.
         -6    1    1    2    0  503 -0.12876644792E+02  0.89362416217E+01  0.37883061924E+02  0.17681852498E+03  0.17200000000E+03 0.  1.
</event>
<event>
 4    1  0.5808486E+000  0.2007927E+03  0.7818608E-02  0.1149072E+00
         21   -1    0    0  501  502  0.00000000000E+00  0.00000000000E+00  0.95898911394E+03  0.95898911394E+03  0.00000000000E+00 0. -1.
         21   -1    0    0  502  503 -0.00000000000E+00 -0.00000000000E+00 -0.42226542452E+02  0.42226542452E+02  0.00000000000E+00 0.  1.
          6    1    1    2  501    0  0.10225112090E+03 -0.16686315372E+02  0.49148449834E+03  0.53091876682E+03  0.17200000000E+03 0.  1.
         -6    1    1    2    0  503 -0.10225112090E+03  0.16686315372E+02  0.42527807315E+03  0.47029688958E+03  0.17200000000E+03 0.  1.
</event>
<event>
 4    1  0.5808486E+000  0.3360288E+03  0.7818608E-02  0.1068500E+00
         21   -1    0    0  503  502  0.00000000000E+00  0.00000000000E+00  0.64204330592E+02  0.64204330592E+02  0.00000000000E+00 0.  1.
         21   -1    0    0  501  503 -0.00000000000E+00 -0.00000000000E+00 -0.20473056031E+04  0.20473056031E+04  0.00000000000E+00 0. -1.
          6    1    1    2  501    0  0.20431852962E+03 -0.20392468471E+03 -0.13879507371E+04  0.14280485242E+04  0.17200000000E+03 0. -1.
         -6    1    1    2    0  502 -0.20431852962E+03  0.20392468471E+03 -0.59515053532E+03  0.68346140950E+03  0.17200000000E+03 0.  1.
</event>
<event>
 4    1  0.5808486E+000  0.2339179E+03  0.7818608E-02  0.1123912E+00
         21   -1    0    0  501  502  0.00000000000E+00  0.00000000000E+00  0.34130219349E+03  0.34130219349E+03  0.00000000000E+00 0. -1.
         21   -1    0    0  502  503 -0.00000000000E+00 -0.00000000000E+00 -0.22631659756E+03  0.22631659756E+03  0.00000000000E+00 0.  1.
          6    1    1    2  501    0  0.15845900014E+03  0.49332494359E+01  0.21075289902E+03  0.31485611972E+03  0.17200000000E+03 0. -1.
         -6    1    1    2    0  503 -0.15845900014E+03 -0.49332494359E+01 -0.95767303099E+02  0.25276267133E+03  0.17200000000E+03 0.  1.
</event>
<event>
 4    1  0.5808486E+000  0.1800683E+03  0.7818608E-02  0.1167737E+00
         21   -1    0    0  503  502  0.00000000000E+00  0.00000000000E+00  0.69939778731E+03  0.69939778731E+03  0.00000000000E+00 0. -1.
         21   -1    0    0  501  503 -0.00000000000E+00 -0.00000000000E+00 -0.46710041917E+02  0.46710041917E+02  0.00000000000E+00 0. -1.
          6    1    1    2  501    0 -0.47566092530E+02  0.24042945327E+02  0.29408350861E+03  0.34483286736E+03  0.17200000000E+03 0. -1.
         -6    1    1    2    0  502  0.47566092530E+02 -0.24042945327E+02  0.35860423679E+03  0.40127496187E+03  0.17200000000E+03 0. -1.
</event>
<event>
 4    1  0.5808486E+000  0.1895723E+03  0.7818608E-02  0.1158848E+00
         21   -1    0    0  501  502  0.00000000000E+00  0.00000000000E+00  0.42291661658E+03  0.42291661658E+03  0.00000000000E+00 0. -1.
         21   -1    0    0  502  503 -0.00000000000E+00 -0.00000000000E+00 -0.91430094326E+02  0.91430094326E+02  0.00000000000E+00 0. -1.
          6    1    1    2  501    0 -0.67088251100E+02  0.43044601989E+02  0.23407245513E+03  0.30121020143E+03  0.17200000000E+03 0. -1.
         -6    1    1    2    0  503  0.67088251100E+02 -0.43044601989E+02  0.97414067121E+02  0.21313650947E+03  0.17200000000E+03 0. -1.
</event>
<event>
 4    1  0.5808486E+000  0.1961011E+03  0.7818608E-02  0.1153071E+00
         21   -1    0    0  503  502  0.00000000000E+00  0.00000000000E+00  0.78076402278E+02  0.78076402278E+02  0.00000000000E+00 0. -1.
         21   -1    0    0  501  503 -0.00000000000E+00 -0.00000000000E+00 -0.49325137795E+03  0.49325137795E+03  0.00000000000E+00 0. -1.
          6    1    1    2  501    0 -0.71065020773E+02  0.61817508217E+02 -0.19672823932E+03  0.27777264381E+03  0.17200000000E+03 0. -1.
         -6    1    1    2    0  502  0.71065020773E+02 -0.61817508217E+02 -0.21844673635E+03  0.29355513643E+03  0.17200000000E+03 0. -1.
</event>
<event>
 4    1  0.5808486E+000  0.2458685E+03  0.7818608E-02  0.1115944E+00
         21   -1    0    0  501  502  0.00000000000E+00  0.00000000000E+00  0.11800237238E+04  0.11800237238E+04  0.00000000000E+00 0.  1.
         21   -1    0    0  502  503 -0.00000000000E+00 -0.00000000000E+00 -0.14776297220E+03  0.14776297220E+03  0.00000000000E+00 0.  1.
          6    1    1    2  501    0  0.13842090353E+03  0.10819865541E+03  0.10527367943E+04  0.10810670902E+04  0.17200000000E+03 0.  1.
         -6    1    1    2    0  503 -0.13842090353E+03 -0.10819865541E+03 -0.20476042631E+02  0.24671960580E+03  0.17200000000E+03 0.  1.
</event>
<event>
 4    1  0.5808486E+000  0.2749921E+03  0.7818608E-02  0.1098456E+00
         21   -1    0    0  501  502  0.00000000000E+00  0.00000000000E+00  0.84027148493E+02  0.84027148493E+02  0.00000000000E+00 0.  1.
         21   -1    0    0  502  503 -0.00000000000E+00 -0.00000000000E+00 -0.90817415725E+03  0.90817415725E+03  0.00000000000E+00 0. -1.
          6    1    1    2  501    0  0.13358398378E+03 -0.16790471436E+03 -0.45926808629E+03  0.53530164292E+03  0.17200000000E+03 0. -1.
         -6    1    1    2    0  503 -0.13358398378E+03  0.16790471436E+03 -0.36487892246E+03  0.45689966282E+03  0.17200000000E+03 0. -1.
</event>
<event>
 4    1  0.5808486E+000  0.2365336E+03  0.7818608E-02  0.1122124E+00
         21   -1    0    0  503  502  0.00000000000E+00  0.00000000000E+00  0.77758691653E+02  0.77758691653E+02  0.00000000000E+00 0.  1.
         21   -1    0    0  501  503 -0.00000000000E+00 -0.00000000000E+00 -0.74130351141E+03  0.74130351141E+03  0.00000000000E+00 0. -1.
          6    1    1    2  501    0 -0.20214807088E+02  0.16110719307E+03 -0.26155396562E+03  0.35264520841E+03  0.17200000000E+03 0. -1.
         -6    1    1    2    0  502  0.20214807088E+02 -0.16110719307E+03 -0.40199085413E+03  0.46641699465E+03  0.17200000000E+03 0. -1.
</event>
<event>
 4    1  0.5808486E+000  0.1744670E+03  0.7818608E-02  0.1173268E+00
         21   -1    0    0  503  502  0.00000000000E+00  0.00000000000E+00  0.73911173780E+02  0.73911173780E+02  0.00000000000E+00 0. -1.
         21   -1    0    0  501  503 -0.00000000000E+00 -0.00000000000E+00 -0.42076459047E+03  0.42076459047E+03  0.00000000000E+00 0. -1.
          6    1    1    2  501    0  0.63867113116E+01 -0.28529823082E+02 -0.13738208168E+03  0.22206435385E+03  0.17200000000E+03 0.  1.
         -6    1    1    2    0  502 -0.63867113116E+01  0.28529823082E+02 -0.20947133501E+03  0.27261141040E+03  0.17200000000E+03 0.  1.
</event>
<event>
 4    1  0.5808486E+000  0.3205183E+03  0.7818608E-02  0.1075411E+00
         21   -1    0    0  503  502  0.00000000000E+00  0.00000000000E+00  0.23379294483E+03  0.23379294483E+03  0.00000000000E+00 0. -1.
         21   -1    0    0  501  503 -0.00000000000E+00 -0.00000000000E+00 -0.51178001369E+03  0.51178001369E+03  0.00000000000E+00 0.  1.
          6    1    1    2  501    0 -0.26751784265E+03  0.39776342595E+02 -0.27917320661E+03  0.42505250600E+03  0.17200000000E+03 0.  1.
         -6    1    1    2    0  502  0.26751784265E+03 -0.39776342595E+02  0.11861377548E+01  0.32052045253E+03  0.17200000000E+03 0. -1.
</event>
<event>
 4    1  0.5808486E+000  0.2026092E+03  0.7818608E-02  0.1147556E+00
         21   -1    0    0  503  502  0.00000000000E+00  0.00000000000E+00  0.31374132846E+03  0.31374132846E+03  0.00000000000E+00 0.  1.
         21   -1    0    0  501  503 -0.00000000000E+00 -0.00000000000E+00 -0.14482026810E+03  0.14482026810E+03  0.00000000000E+00 0.  1.
          6    1    1    2  501    0 -0.99013562815E+02 -0.40777594929E+02  0.13227417200E+02  0.20304054382E+03  0.17200000000E+03 0. -1.
         -6    1    1    2    0  502  0.99013562815E+02  0.40777594929E+02  0.15569364316E+03  0.25552105273E+03  0.17200000000E+03 0. -1.
</event>
<event>
 4    1  0.5808486E+000  0.1728264E+03  0.7818608E-02  0.1174932E+00
         21   -1    0    0  503  502  0.00000000000E+00  0.00000000000E+00  0.11303031868E+03  0.11303031868E+03  0.00000000000E+00 0. -1.
         21   -1    0    0  501  503 -0.00000000000E+00 -0.00000000000E+00 -0.36810314538E+03  0.36810314538E+03  0.00000000000E+00 0. -1.
          6    1    1    2  501    0 -0.14361442084E+02 -0.88719522554E+01 -0.25531193614E+03  0.30830690438E+03  0.17200000000E+03 0. -1.
         -6    1    1    2    0  502  0.14361442084E+02  0.88719522554E+01  0.23910943059E+00  0.17282655967E+03  0.17200000000E+03 0. -1.
</event>
<event>
 4    1  0.5808486E+000  0.2578058E+03  0.7818608E-02  0.1108469E+00
         21   -1    0    0  501  502  0.00000000000E+00  0.00000000000E+00  0.41179933715E+02  0.41179933715E+02  0.00000000000E+00 0. -1.
         21   -1    0    0  502  503 -0.00000000000E+00 -0.00000000000E+00 -0.18181536487E+04  0.18181536487E+04  0.00000000000E+00 0.  1.
          6    1    1    2  501    0  0.21085383485E+02 -0.19088014923E+03 -0.57695261217E+03  0.63193207029E+03  0.17200000000E+03 0.  1.
         -6    1    1    2    0  503 -0.21085383485E+02  0.19088014923E+03 -0.12000211028E+04  0.12274015121E+04  0.17200000000E+03 0.  1.
</event>
<event>
 4    1  0.5808486E+000  0.1881062E+03  0.7818608E-02  0.1160181E+00
         21   -1    0    0  501  502  0.00000000000E+00  0.00000000000E+00  0.56467522395E+03  0.56467522395E+03  0.00000000000E+00 0. -1.
         21   -1    0    0  502  503 -0.00000000000E+00 -0.00000000000E+00 -0.82897087437E+02  0.82897087437E+02  0.00000000000E+00 0. -1.
          6    1    1    2  501    0 -0.12708962664E+02 -0.75089359393E+02  0.40085828445E+03  0.44279938328E+03  0.17200000000E+03 0. -1.
         -6    1    1    2    0  503  0.12708962664E+02  0.75089359393E+02  0.80919852068E+02  0.20477292810E+03  0.17200000000E+03 0. -1.
</event>
<event>
 4    1  0.5808486E+000  0.1872114E+03  0.7818608E-02  0.1161001E+00
         21   -1    0    0  501  502  0.00000000000E+00  0.00000000000E+00  0.64877955419E+02  0.64877955419E+02  0.00000000000E+00 0. -1.
         21   -1    0    0  502  503 -0.00000000000E+00 -0.00000000000E+00 -0.58035184368E+03  0.58035184368E+03  0.00000000000E+00 0. -1.
          6    1    1    2  501    0  0.67337749828E+02  0.30491520592E+02 -0.17289604082E+03  0.25483552796E+03  0.17200000000E+03 0. -1.
         -6    1    1    2    0  503 -0.67337749828E+02 -0.30491520592E+02 -0.34257784744E+03  0.39039427114E+03  0.17200000000E+03 0. -1.
</event>
<event>
 4    1  0.5808486E+000  0.1743220E+03  0.7818608E-02  0.1173414E+00
         21   -1    0    0  503  502  0.00000000000E+00  0.00000000000E+00  0.22303001581E+03  0.22303001581E+03  0.00000000000E+00 0.  1.
         21   -1    0    0  501  503 -0.00000000000E+00 -0.00000000000E+00 -0.13660631905E+03  0.13660631905E+03  0.00000000000E+00 0.  1.
          6    1    1    2  501    0  0.19717526055E+02 -0.20380551744E+02  0.34045966174E+02  0.17761552729E+03  0.17200000000E+03 0.  1.
         -6    1    1    2    0  502 -0.19717526055E+02  0.20380551744E+02  0.52377730586E+02  0.18202080756E+03  0.17200000000E+03 0.  1.
</event>
<event>
 4    1  0.5808486E+000  0.2802891E+03  0.7818608E-02  0.1095531E+00
         21   -1    0    0  501  502  0.00000000000E+00  0.00000000000E+00  0.59587532953E+03  0.59587532953E+03  0.00000000000E+00 0.  1.
         21   -1    0    0  502  503 -0.00000000000E+00 -0.00000000000E+00 -0.14291473921E+03  0.14291473921E+03  0.00000000000E+00 0.  1.
          6    1    1    2  501    0  0.79878429722E+02  0.20639137743E+03  0.12366414211E+03  0.30635728204E+03  0.17200000000E+03 0. -1.
         -6    1    1    2    0  503 -0.79878429722E+02 -0.20639137743E+03  0.32929644821E+03  0.43243278670E+03  0.17200000000E+03 0. -1.
</event>
<event>
 4    1  0.5808486E+000  0.1743281E+03  0.7818608E-02  0.1173408E+00
         21   -1    0    0  503  502  0.00000000000E+00  0.00000000000E+00  0.34304710940E+02  0.34304710940E+02  0.00000000000E+00 0. -1.
         21   -1    0    0  501  503 -0.00000000000E+00 -0.00000000000E+00 -0.94371358381E+03  0.94371358381E+03  0.00000000000E+00 0. -1.
          6    1    1    2  501    0  0.12461506178E+02 -0.25514447164E+02 -0.57574782889E+03  0.60156116781E+03  0.17200000000E+03 0.  1.
         -6    1    1    2    0  502 -0.12461506178E+02  0.25514447164E+02 -0.33366104398E+03  0.37645712694E+03  0.17200000000E+03 0.  1.
</event>
<event>
 4    1  0.5808486E+000  0.2543822E+03  0.7818608E-02  0.1110566E+00
         21   -1    0    0  501  502  0.00000000000E+00  0.00000000000E+00  0.20988271621E+04  0.20988271621E+04  0.00000000000E+00 0.  1.
         21   -1    0    0  502  503 -0.00000000000E+00 -0.00000000000E+00 -0.89411185320E+02  0.89411185320E+02  0.00000000000E+00 0.  1.
          6    1    1    2  501    0 -0.18375090734E+03  0.36904045049E+02  0.18903162591E+04  0.19073557256E+04  0.17200000000E+03 0.  1.
         -6    1    1    2    0  503  0.18375090734E+03 -0.36904045049E+02  0.11909971764E+03  0.28088262180E+03  0.17200000000E+03 0.  1.
</event>
<event>
 4    1  0.5808486E+000  0.3063232E+03  0.7818608E-02  0.1082122E+00
         21   -1    0    0  503  502  0.00000000000E+00  0.00000000000E+00  0.41157109525E+03  0.41157109525E+03  0.00000000000E+00 0. -1.
         21   -1    0    0  501  503 -0.00000000000E+00 -0.00000000000E+00 -0.24396265914E+03  0.24396265914E+03  0.00000000000E+00 0. -1.
          6    1    1    2  501    0  0.92538046834E+02  0.23598012800E+03 -0.64121231912E-01  0.30632321988E+03  0.17200000000E+03 0. -1.
         -6    1    1    2    0  502 -0.92538046834E+02 -0.23598012800E+03  0.16767255734E+03  0.34921053451E+03  0.17200000000E+03 0. -1.
</event>
<event>
 4    1  0.5808486E+000  0.1726087E+03  0.7818608E-02  0.1175154E+00
         21   -1    0    0  503  502  0.00000000000E+00  0.00000000000E+00  0.11866809509E+03  0.11866809509E+03  0.00000000000E+00 0. -1.
         21   -1    0    0  501  503 -0.00000000000E+00 -0.00000000000E+00 -0.27407722577E+03  0.27407722577E+03  0.00000000000E+00 0. -1.
          6    1    1    2  501    0 -0.66931055865E+01  0.12843702631E+02 -0.13460240609E+03  0.21888710808E+03  0.17200000000E+03 0. -1.
         -6    1    1    2    0  502  0.66931055865E+01 -0.12843702631E+02 -0.20806724588E+02  0.17385821277E+03  0.17200000000E+03 0. -1.
</event>
<event>
 4    1  0.5808486E+000  0.1798546E+03  0.7818608E-02  0.1167944E+00
         21   -1    0    0  503  502  0.00000000000E+00  0.00000000000E+00  0.15563064254E+03  0.15563064254E+03  0.00000000000E+00 0.  1.
         21   -1    0    0  501  503 -0.00000000000E+00 -0.00000000000E+00 -0.28364863778E+03  0.28364863778E+03  0.00000000000E+00 0.  1.
          6    1    1    2  501    0 -0.52051350361E+02 -0.73713380348E+01 -0.17755028706E+03  0.25272867691E+03  0.17200000000E+03 0.  1.
         -6    1    1    2    0  502  0.52051350361E+02  0.73713380348E+01  0.49532291824E+02  0.18655060341E+03  0.17200000000E+03 0.  1.
</event>
<event>
 4    1  0.5808486E+000  0.1983182E+03  0.7818608E-02  0.1151166E+00
         21   -1    0    0  501  502  0.00000000000E+00  0.00000000000E+00  0.12495873242E+04  0.12495873242E+04  0.00000000000E+00 0. -1.
         21   -1    0    0  502  503 -0.00000000000E+00 -0.00000000000E+00 -0.31498594821E+02  0.31498594821E+02  0.00000000000E+00 0.  1.
          6    1    1    2  501    0  0.54996858887E+01  0.98569017479E+02  0.59131709254E+03  0.62368742306E+03  0.17200000000E+03 0.  1.
         -6    1    1    2    0  503 -0.54996858887E+01 -0.98569017479E+02  0.62677163689E+03  0.65739849601E+03  0.17200000000E+03 0.  1.
</event>
<event>
 4    1  0.5808486E+000  0.2032571E+03  0.7818608E-02  0.1147020E+00
         21   -1    0    0  501  502  0.00000000000E+00  0.00000000000E+00  0.86315990326E+02  0.86315990326E+02  0.00000000000E+00 0.  1.
         21   -1    0    0  502  503 -0.00000000000E+00 -0.00000000000E+00 -0.48004243035E+03  0.48004243035E+03  0.00000000000E+00 0. -1.
          6    1    1    2  501    0  0.38083408683E+01 -0.10823561689E+03 -0.21222183441E+03  0.29385635815E+03  0.17200000000E+03 0. -1.
         -6    1    1    2    0  503 -0.38083408683E+01  0.10823561689E+03 -0.18150460561E+03  0.27250206253E+03  0.17200000000E+03 0. -1.
</event>
<event>
 4    1  0.5808486E+000  0.1902002E+03  0.7818608E-02  0.1158281E+00
         21   -1    0    0  503  502  0.00000000000E+00  0.00000000000E+00  0.30046341604E+02  0.30046341604E+02  0.00000000000E+00 0.  1.
         21   -1    0    0  501  503 -0.00000000000E+00 -0.00000000000E+00 -0.14145021934E+04  0.14145021934E+04  0.00000000000E+00 0.  1.
          6    1    1    2  501    0  0.53916024857E+02 -0.60705605715E+02 -0.97085152368E+03  0.98930722697E+03  0.17200000000E+03 0. -1.
         -6    1    1    2    0  502 -0.53916024857E+02  0.60705605715E+02 -0.41360432808E+03  0.45524130800E+03  0.17200000000E+03 0. -1.
</event>
<event>
 4    1  0.5808486E+000  0.3868959E+03  0.7818608E-02  0.1048414E+00
         21   -1    0    0  503  502  0.00000000000E+00  0.00000000000E+00  0.14137751462E+04  0.14137751462E+04  0.00000000000E+00 0. -1.
         21   -1    0    0  501  503 -0.00000000000E+00 -0.00000000000E+00 -0.10597321551E+03  0.10597321551E+03  0.00000000000E+00 0. -1.
          6    1    1    2  501    0  0.10716690452E+03 -0.32957497173E+03  0.63118512111E+03  0.74032632299E+03  0.17200000000E+03 0. -1.
         -6    1    1    2    0  502 -0.10716690452E+03  0.32957497173E+03  0.67661680960E+03  0.77942203872E+03  0.17200000000E+03 0. -1.
</event>
<event>
 4    1  0.5808486E+000  0.1756911E+03  0.7818608E-02  0.1172040E+00
         21   -1    0    0  501  502  0.00000000000E+00  0.00000000000E+00  0.18724793621E+03  0.18724793621E+03  0.00000000000E+00 0.  1.
         21   -1    0    0  502  503 -0.00000000000E+00 -0.00000000000E+00 -0.31938122198E+03  0.31938122198E+03  0.00000000000E+00 0.  1.
          6    1    1    2  501    0  0.32746504656E+02 -0.14526823905E+02  0.11013788685E+03  0.20735890697E+03  0.17200000000E+03 0.  1.
         -6    1    1    2    0  503 -0.32746504656E+02  0.14526823905E+02 -0.24227117262E+03  0.29927025122E+03  0.17200000000E+03 0.  1.
</event>
<event>
 4    1  0.5808486E+000  0.1862479E+03  0.7818608E-02  0.1161890E+00
         21   -1    0    0  501  502  0.00000000000E+00  0.00000000000E+00  0.96145058223E+02  0.96145058223E+02  0.00000000000E+00 0. -1.
         21   -1    0    0  502  503 -0.00000000000E+00 -0.00000000000E+00 -0.43388425326E+03  0.43388425326E+03  0.00000000000E+00 0.  1.
          6    1    1    2  501    0  0.65407800438E+02  0.28741695631E+02 -0.60096427049E+02  0.19570346438E+03  0.17200000000E+03 0. -1.
         -6    1    1    2    0  503 -0.65407800438E+02 -0.28741695631E+02 -0.27764276799E+03  0.33432584711E+03  0.17200000000E+03 0.  1.
</event>
<event>
 4    1  0.5808486E+000  0.2009673E+03  0.7818608E-02  0.1148925E+00
         21   -1    0    0  503  502  0.00000000000E+00  0.00000000000E+00  0.28495701906E+03  0.28495701906E+03  0.00000000000E+00 0.  1.
         21   -1    0    0  501  503 -0.00000000000E+00 -0.00000000000E+00 -0.17395742485E+03  0.17395742485E+03  0.00000000000E+00 0. -1.
          6    1    1    2  501    0  0.17449679813E+02  0.10246644349E+03 -0.43258057498E+02  0.20557023838E+03  0.17200000000E+03 0. -1.
         -6    1    1    2    0  502 -0.17449679813E+02 -0.10246644349E+03  0.15425765171E+03  0.25334420553E+03  0.17200000000E+03 0.  1.
</event>
<event>
 4    1  0.5808486E+000  0.1750568E+03  0.7818608E-02  0.1172675E+00
         21   -1    0    0  503  502  0.00000000000E+00  0.00000000000E+00  0.30474355397E+02  0.30474355397E+02  0.00000000000E+00 0.  1.
         21   -1    0    0  501  503 -0.00000000000E+00 -0.00000000000E+00 -0.11253195236E+04  0.11253195236E+04  0.00000000000E+00 0.  1.
          6    1    1    2  501    0  0.31512664886E+02  0.82357611269E+01 -0.35892618823E+03  0.39934056193E+03  0.17200000000E+03 0.  1.
         -6    1    1    2    0  502 -0.31512664886E+02 -0.82357611269E+01 -0.73591897999E+03  0.75645331708E+03  0.17200000000E+03 0.  1.
</event>
<event>
 4    1  0.5808486E+000  0.1822698E+03  0.7818608E-02  0.1165624E+00
         21   -1    0    0  501  502  0.00000000000E+00  0.00000000000E+00  0.61715742013E+03  0.61715742013E+03  0.00000000000E+00 0. -1.
         21   -1    0    0  502  503 -0.00000000000E+00 -0.00000000000E+00 -0.56501059356E+02  0.56501059356E+02  0.00000000000E+00 0. -1.
          6    1    1    2  501    0  0.28389218142E+02  0.53219827006E+02  0.35354809471E+03  0.39776695811E+03  0.17200000000E+03 0. -1.
         -6    1    1    2    0  503 -0.28389218142E+02 -0.53219827006E+02  0.20710826607E+03  0.27589152137E+03  0.17200000000E+03 0. -1.
</event>
<event>
 4    1  0.5808486E+000  0.2271035E+03  0.7818608E-02  0.1128695E+00
         21   -1    0    0  503  502  0.00000000000E+00  0.00000000000E+00  0.25403097229E+03  0.25403097229E+03  0.00000000000E+00 0. -1.
         21   -1    0    0  501  503 -0.00000000000E+00 -0.00000000000E+00 -0.31496818128E+03  0.31496818128E+03  0.00000000000E+00 0.  1.
          6    1    1    2  501    0 -0.71421731514E+02  0.12996517274E+03 -0.20007281556E+03  0.30266341269E+03  0.17200000000E+03 0.  1.
         -6    1    1    2    0  502  0.71421731514E+02 -0.12996517274E+03  0.13913560657E+03  0.26633574088E+03  0.17200000000E+03 0. -1.
</event>
<event>
 4    1  0.5808486E+000  0.1958948E+03  0.7818608E-02  0.1153250E+00
         21   -1    0    0  503  502  0.00000000000E+00  0.00000000000E+00  0.36032520703E+03  0.36032520703E+03  0.00000000000E+00 0. -1.
         21   -1    0    0  501  503 -0.00000000000E+00 -0.00000000000E+00 -0.16092556380E+03  0.16092556380E+03  0.00000000000E+00 0.  1.
          6    1    1    2  501    0  0.66620313425E+02  0.65973557657E+02 -0.51866981933E+02  0.20264491182E+03  0.17200000000E+03 0.  1.
         -6    1    1    2    0  502 -0.66620313425E+02 -0.65973557657E+02  0.25126662516E+03  0.31860585901E+03  0.17200000000E+03 0. -1.
</event>
<event>
 4    1  0.5808486E+000  0.2003418E+03  0.7818608E-02  0.1149451E+00
         21   -1    0    0  501  502  0.00000000000E+00  0.00000000000E+00  0.29384275270E+03  0.29384275270E+03  0.00000000000E+00 0.  1.
         21   -1    0    0  502  503 -0.00000000000E+00 -0.00000000000E+00 -0.13829399733E+03  0.13829399733E+03  0.00000000000E+00 0. -1.
          6    1    1    2  501    0 -0.52031124053E+02  0.88575475507E+02  0.10173763600E+03  0.22469401263E+03  0.17200000000E+03 0.  1.
         -6    1    1    2    0  503  0.52031124053E+02 -0.88575475507E+02  0.53811119367E+02  0.20744273740E+03  0.17200000000E+03 0.  1.
</event>
<event>
 4    1  0.5808486E+000  0.2118783E+03  0.7818608E-02  0.1140087E+00
         21   -1    0    0  503  502  0.00000000000E+00  0.00000000000E+00  0.97606992235E+02  0.97606992235E+02  0.00000000000E+00 0. -1.
         21   -1    0    0  501  503 -0.00000000000E+00 -0.00000000000E+00 -0.54121031309E+03  0.54121031309E+03  0.00000000000E+00 0.  1.
          6    1    1    2  501    0 -0.83419764622E+02 -0.91375820202E+02 -0.34558322098E+03  0.40536423161E+03  0.17200000000E+03 0. -1.
         -6    1    1    2    0  502  0.83419764622E+02  0.91375820202E+02 -0.98020099876E+02  0.23345307371E+03  0.17200000000E+03 0. -1.
</event>
<event>
 4    1  0.5808486E+000  0.1870810E+03  0.7818608E-02  0.1161121E+00
         21   -1    0    0  503  502  0.00000000000E+00  0.00000000000E+00  0.21297661215E+03  0.21297661215E+03  0.00000000000E+00 0.  1.
         21   -1    0    0  501  503 -0.00000000000E+00 -0.00000000000E+00 -0.26440829649E+03  0.26440829649E+03  0.00000000000E+00 0. -1.
          6    1    1    2  501    0 -0.37540775119E+02 -0.63292912328E+02  0.12113024654E+03  0.22287179986E+03  0.17200000000E+03 0. -1.
         -6    1    1    2    0  502  0.37540775119E+02  0.63292912328E+02 -0.17256193088E+03  0.25451310877E+03  0.17200000000E+03 0. -1.
</event>
<event>
 4    1  0.5808486E+000  0.1937407E+03  0.7818608E-02  0.1155130E+00
         21   -1    0    0  501  502  0.00000000000E+00  0.00000000000E+00  0.20631815652E+03  0.20631815652E+03  0.00000000000E+00 0. -1.
         21   -1    0    0  502  503 -0.00000000000E+00 -0.00000000000E+00 -0.20675131188E+03  0.20675131188E+03  0.00000000000E+00 0. -1.
          6    1    1    2  501    0 -0.58431378440E+02 -0.67359061983E+02  0.71345185426E+02  0.20645969268E+03  0.17200000000E+03 0. -1.
         -6    1    1    2    0  503  0.58431378440E+02  0.67359061983E+02 -0.71778340787E+02  0.20660977572E+03  0.17200000000E+03 0. -1.
</event>
<event>
 4    1  0.5808486E+000  0.2488990E+03  0.7818608E-02  0.1114003E+00
         21   -1    0    0  503  502  0.00000000000E+00  0.00000000000E+00  0.29287811277E+03  0.29287811277E+03  0.00000000000E+00 0. -1.
         21   -1    0    0  501  503 -0.00000000000E+00 -0.00000000000E+00 -0.27444677414E+03  0.27444677414E+03  0.00000000000E+00 0.  1.
          6    1    1    2  501    0 -0.16248975679E+03  0.77225554069E+02  0.14503988560E+03  0.28807512159E+03  0.17200000000E+03 0.  1.
         -6    1    1    2    0  502  0.16248975679E+03 -0.77225554069E+02 -0.12660854698E+03  0.27924976532E+03  0.17200000000E+03 0.  1.
</event>
<event>
 4    1  0.5808486E+000  0.3291345E+03  0.7818608E-02  0.1071520E+00
         21   -1    0    0  503  502  0.00000000000E+00  0.00000000000E+00  0.13510065635E+04  0.13510065635E+04  0.00000000000E+00 0. -1.
         21   -1    0    0  501  503 -0.00000000000E+00 -0.00000000000E+00 -0.90855088918E+02  0.90855088918E+02  0.00000000000E+00 0.  1.
          6    1    1    2  501    0 -0.24676638318E+03  0.13361086133E+03  0.87714420036E+03  0.93686256109E+03  0.17200000000E+03 0. -1.
         -6    1    1    2    0  502  0.24676638318E+03 -0.13361086133E+03  0.38300727419E+03  0.50499909131E+03  0.17200000000E+03 0.  1.
</event>
<event>
 4    1  0.5808486E+000  0.2082294E+03  0.7818608E-02  0.1142976E+00
         21   -1    0    0  503  502  0.00000000000E+00  0.00000000000E+00  0.18448861702E+03  0.18448861702E+03  0.00000000000E+00 0. -1.
         21   -1    0    0  501  503 -0.00000000000E+00 -0.00000000000E+00 -0.28126322970E+03  0.28126322970E+03  0.00000000000E+00 0. -1.
          6    1    1    2  501    0  0.22138379269E+02  0.11526224649E+03 -0.14280802063E+03  0.25249480006E+03  0.17200000000E+03 0. -1.
         -6    1    1    2    0  502 -0.22138379269E+02 -0.11526224649E+03  0.46033407942E+02  0.21325704666E+03  0.17200000000E+03 0. -1.
</event>
<event>
 4    1  0.5808486E+000  0.2196557E+03  0.7818608E-02  0.1134140E+00
         21   -1    0    0  503  502  0.00000000000E+00  0.00000000000E+00  0.87542404271E+03  0.87542404271E+03  0.00000000000E+00 0. -1.
         21   -1    0    0  501  503 -0.00000000000E+00 -0.00000000000E+00 -0.65406217953E+02  0.65406217953E+02  0.00000000000E+00 0.  1.
          6    1    1    2  501    0  0.88910679278E+02  0.10372809711E+03  0.21840787780E+03  0.30975898390E+03  0.17200000000E+03 0.  1.
         -6    1    1    2    0  502 -0.88910679278E+02 -0.10372809711E+03  0.59160994695E+03  0.63107127676E+03  0.17200000000E+03 0. -1.
</event>
<event>
 4    1  0.5808486E+000  0.1794750E+03  0.7818608E-02  0.1168312E+00
         21   -1    0    0  501  502  0.00000000000E+00  0.00000000000E+00  0.74782805787E+03  0.74782805787E+03  0.00000000000E+00 0.  1.
         21   -1    0    0  502  503 -0.00000000000E+00 -0.00000000000E+00 -0.62998100773E+02  0.62998100773E+02  0.00000000000E+00 0.  1.
          6    1    1    2  501    0 -0.52318844886E+01  0.50989142398E+02  0.57041417136E+03  0.59798293633E+03  0.17200000000E+03 0.  1.
         -6    1    1    2    0  503  0.52318844886E+01 -0.50989142398E+02  0.11441578574E+03  0.21284322231E+03  0.17200000000E+03 0.  1.
</event>
<event>
 4    1  0.5808486E+000  0.1731510E+03  0.7818608E-02  0.1174601E+00
         21   -1    0    0  501  502  0.00000000000E+00  0.00000000000E+00  0.11114853232E+04  0.11114853232E+04  0.00000000000E+00 0. -1.
         21   -1    0    0  502  503 -0.00000000000E+00 -0.00000000000E+00 -0.36032018710E+02  0.36032018710E+02  0.00000000000E+00 0. -1.
          6    1    1    2  501    0 -0.19911224304E+02 -0.90300675178E+00  0.82540032806E+03  0.84336645288E+03  0.17200000000E+03 0. -1.
         -6    1    1    2    0  503  0.19911224304E+02  0.90300675178E+00  0.25005297639E+03  0.30415088899E+03  0.17200000000E+03 0. -1.
</event>
<event>
 4    1  0.5808486E+000  0.1751119E+03  0.7818608E-02  0.1172619E+00
         21   -1    0    0  501  502  0.00000000000E+00  0.00000000000E+00  0.91071179634E+03  0.91071179634E+03  0.00000000000E+00 0.  1.
         21   -1    0    0  502  503 -0.00000000000E+00 -0.00000000000E+00 -0.38812161446E+02  0.38812161446E+02  0.00000000000E+00 0.  1.
          6    1    1    2  501    0 -0.11255908467E+02  0.30878751276E+02  0.60874851020E+03  0.63343424397E+03  0.17200000000E+03 0.  1.
         -6    1    1    2    0  503  0.11255908467E+02 -0.30878751276E+02  0.26315112469E+03  0.31608971382E+03  0.17200000000E+03 0.  1.
</event>
<event>
 4    1  0.5808486E+000  0.1895649E+03  0.7818608E-02  0.1158854E+00
         21   -1    0    0  503  502  0.00000000000E+00  0.00000000000E+00  0.93825901618E+02  0.93825901618E+02  0.00000000000E+00 0.  1.
         21   -1    0    0  501  503 -0.00000000000E+00 -0.00000000000E+00 -0.44711652823E+03  0.44711652823E+03  0.00000000000E+00 0. -1.
          6    1    1    2  501    0 -0.75168181096E+02 -0.26468701286E+02 -0.27907191208E+03  0.33736623973E+03  0.17200000000E+03 0. -1.
         -6    1    1    2    0  502  0.75168181096E+02  0.26468701286E+02 -0.74218714533E+02  0.20357619012E+03  0.17200000000E+03 0.  1.
</event>
<event>
 4    1  0.5808486E+000  0.2235937E+03  0.7818608E-02  0.1131232E+00
         21   -1    0    0  501  502  0.00000000000E+00  0.00000000000E+00  0.14834292086E+03  0.14834292086E+03  0.00000000000E+00 0.  1.
         21   -1    0    0  502  503 -0.00000000000E+00 -0.00000000000E+00 -0.40787924547E+03  0.40787924547E+03  0.00000000000E+00 0.  1.
          6    1    1    2  501    0  0.33761687860E+00 -0.14286364258E+03 -0.13848007541E+02  0.22402210085E+03  0.17200000000E+03 0. -1.
         -6    1    1    2    0  503 -0.33761687860E+00  0.14286364258E+03 -0.24568831707E+03  0.33220006548E+03  0.17200000000E+03 0. -1.
</event>
<event>
 4    1  0.5808486E+000  0.2819916E+03  0.7818608E-02  0.1094606E+00
         21   -1    0    0  503  502  0.00000000000E+00  0.00000000000E+00  0.59600068947E+03  0.59600068947E+03  0.00000000000E+00 0.  1.
         21   -1    0    0  501  503 -0.00000000000E+00 -0.00000000000E+00 -0.14073263695E+03  0.14073263695E+03  0.00000000000E+00 0. -1.
          6    1    1    2  501    0 -0.21968242907E+03  0.40925646054E+02  0.14367319018E+03  0.31648264364E+03  0.17200000000E+03 0. -1.
         -6    1    1    2    0  502  0.21968242907E+03 -0.40925646054E+02  0.31159486234E+03  0.42025068279E+03  0.17200000000E+03 0. -1.
</event>
<event>
 4    1  0.5808486E+000  0.2448837E+03  0.7818608E-02  0.1116582E+00
         21   -1    0    0  501  502  0.00000000000E+00  0.00000000000E+00  0.10743870192E+03  0.10743870192E+03  0.00000000000E+00 0.  1.
         21   -1    0    0  502  503 -0.00000000000E+00 -0.00000000000E+00 -0.89721549094E+03  0.89721549094E+03  0.00000000000E+00 0.  1.
          6    1    1    2  501    0  0.61157323187E+02  0.16322927854E+03 -0.86091134734E+02  0.25957599857E+03  0.17200000000E+03 0.  1.
         -6    1    1    2    0  503 -0.61157323187E+02 -0.16322927854E+03 -0.70368565429E+03  0.74507819429E+03  0.17200000000E+03 0.  1.
</event>
<event>
 4    1  0.5808486E+000  0.2615287E+03  0.7818608E-02  0.1106228E+00
         21   -1    0    0  503  502  0.00000000000E+00  0.00000000000E+00  0.86118013415E+03  0.86118013415E+03  0.00000000000E+00 0.  1.
         21   -1    0    0  501  503 -0.00000000000E+00 -0.00000000000E+00 -0.81555026447E+02  0.81555026447E+02  0.00000000000E+00 0. -1.
          6    1    1    2  501    0 -0.31691061921E+02  0.19444515765E+03  0.31359373429E+03  0.40833598044E+03  0.17200000000E+03 0.  1.
         -6    1    1    2    0  502  0.31691061921E+02 -0.19444515765E+03  0.46603137341E+03  0.53439918015E+03  0.17200000000E+03 0. -1.
</event>
<event>
 4    1  0.5808486E+000  0.1785981E+03  0.7818608E-02  0.1169167E+00
         21   -1    0    0  501  502  0.00000000000E+00  0.00000000000E+00  0.42749390457E+03  0.42749390457E+03  0.00000000000E+00 0. -1.
         21   -1    0    0  502  503 -0.00000000000E+00 -0.00000000000E+00 -0.74817511471E+02  0.74817511471E+02  0.00000000000E+00 0.  1.
          6    1    1    2  501    0 -0.37066968011E+02 -0.30648306825E+02  0.18941839719E+03  0.26033940928E+03  0.17200000000E+03 0. -1.
         -6    1    1    2    0  503  0.37066968011E+02  0.30648306825E+02  0.16325799591E+03  0.24197200676E+03  0.17200000000E+03 0. -1.
</event>
<event>
 4    1  0.5808486E+000  0.1902294E+03  0.7818608E-02  0.1158255E+00
         21   -1    0    0  503  502  0.00000000000E+00  0.00000000000E+00  0.49724531859E+03  0.49724531859E+03  0.00000000000E+00 0.  1.
         21   -1    0    0  501  503 -0.00000000000E+00 -0.00000000000E+00 -0.10875036359E+03  0.10875036359E+03  0.00000000000E+00 0.  1.
          6    1    1    2  501    0 -0.56983902977E+02  0.57931666193E+02  0.19976863906E+02  0.19127550350E+03  0.17200000000E+03 0.  1.
         -6    1    1    2    0  502  0.56983902977E+02 -0.57931666193E+02  0.36851809109E+03  0.41472017868E+03  0.17200000000E+03 0.  1.
</event>
<event>
 4    1  0.5808486E+000  0.1966692E+03  0.7818608E-02  0.1152580E+00
         21   -1    0    0  501  502  0.00000000000E+00  0.00000000000E+00  0.58347532247E+02  0.58347532247E+02  0.00000000000E+00 0.  1.
         21   -1    0    0  502  503 -0.00000000000E+00 -0.00000000000E+00 -0.69653871973E+03  0.69653871973E+03  0.00000000000E+00 0.  1.
          6    1    1    2  501    0 -0.95351347214E+02 -0.16973166198E+01 -0.40203837096E+03  0.44756408706E+03  0.17200000000E+03 0.  1.
         -6    1    1    2    0  503  0.95351347214E+02  0.16973166198E+01 -0.23615281652E+03  0.30732216492E+03  0.17200000000E+03 0.  1.
</event>
<event>
 4    1  0.5808486E+000  0.1822552E+03  0.7818608E-02  0.1165638E+00
         21   -1    0    0  501  502  0.00000000000E+00  0.00000000000E+00  0.97789513000E+02  0.97789513000E+02  0.00000000000E+00 0. -1.
         21   -1    0    0  502  503 -0.00000000000E+00 -0.00000000000E+00 -0.48504312425E+03  0.48504312425E+03  0.00000000000E+00 0. -1.
          6    1    1    2  501    0 -0.85791075872E+01  0.59660279629E+02 -0.34092625669E+02  0.18541644258E+03  0.17200000000E+03 0. -1.
         -6    1    1    2    0  503  0.85791075872E+01 -0.59660279629E+02 -0.35316098558E+03  0.39741619467E+03  0.17200000000E+03 0. -1.
</event>
<event>
 4    1  0.5808486E+000  0.1743708E+03  0.7818608E-02  0.1173365E+00
         21   -1    0    0  501  502  0.00000000000E+00  0.00000000000E+00  0.27436603289E+02  0.27436603289E+02  0.00000000000E+00 0. -1.
         21   -1    0    0  502  503 -0.00000000000E+00 -0.00000000000E+00 -0.11385587624E+04  0.11385587624E+04  0.00000000000E+00 0. -1.
          6    1    1    2  501    0  0.10932446073E+02  0.26488866060E+02 -0.46035861867E+03  0.49227556936E+03  0.17200000000E+03 0. -1.
         -6    1    1    2    0  503 -0.10932446073E+02 -0.26488866060E+02 -0.65076354046E+03  0.67371979635E+03  0.17200000000E+03 0. -1.
</event>
<event>
 4    1  0.5808486E+000  0.2199703E+03  0.7818608E-02  0.1133905E+00
         21   -1    0    0  503  502  0.00000000000E+00  0.00000000000E+00  0.28900100112E+03  0.28900100112E+03  0.00000000000E+00 0. -1.
         21   -1    0    0  501  503 -0.00000000000E+00 -0.00000000000E+00 -0.36297003165E+03  0.36297003165E+03  0.00000000000E+00 0.  1.
          6    1    1    2  501    0 -0.18814510152E+01  0.13711089206E+03 -0.27625145000E+03  0.35313142059E+03  0.17200000000E+03 0.  1.
         -6    1    1    2    0  502  0.18814510152E+01 -0.13711089206E+03  0.20228241947E+03  0.29883961218E+03  0.17200000000E+03 0. -1.
</event>
<event>
 4    1  0.5808486E+000  0.2387532E+03  0.7818608E-02  0.1120626E+00
         21   -1    0    0  501  502  0.00000000000E+00  0.00000000000E+00  0.11112811887E+04  0.11112811887E+04  0.00000000000E+00 0. -1.
         21   -1    0    0  502  503 -0.00000000000E+00 -0.00000000000E+00 -0.58707190929E+02  0.58707190929E+02  0.00000000000E+00 0.  1.
          6    1    1    2  501    0 -0.16534101777E+03 -0.90244866689E+01  0.73415190808E+03  0.77199878086E+03  0.17200000000E+03 0.  1.
         -6    1    1    2    0  503  0.16534101777E+03  0.90244866689E+01  0.31842208967E+03  0.39798959875E+03  0.17200000000E+03 0. -1.
</event>
<event>
 4    1  0.5808486E+000  0.2061016E+03  0.7818608E-02  0.1144691E+00
         21   -1    0    0  501  502  0.00000000000E+00  0.00000000000E+00  0.97642354690E+03  0.97642354690E+03  0.00000000000E+00 0.  1.
         21   -1    0    0  502  503 -0.00000000000E+00 -0.00000000000E+00 -0.21324914495E+03  0.21324914495E+03  0.00000000000E+00 0. -1.
          6    1    1    2  501    0  0.10923013661E+03  0.31026345463E+02  0.91229216323E+03  0.93528329823E+03  0.17200000000E+03 0.  1.
         -6    1    1    2    0  503 -0.10923013661E+03 -0.31026345463E+02 -0.14911776129E+03  0.25438939362E+03  0.17200000000E+03 0. -1.
</event>
<event>
 4    1  0.5808486E+000  0.2155580E+03  0.7818608E-02  0.1137239E+00
         21   -1    0    0  501  502  0.00000000000E+00  0.00000000000E+00  0.64612977670E+03  0.64612977670E+03  0.00000000000E+00 0. -1.
         21   -1    0    0  502  503 -0.00000000000E+00 -0.00000000000E+00 -0.93259359298E+02  0.93259359298E+02  0.00000000000E+00 0. -1.
          6    1    1    2  501    0  0.45008046685E+02  0.12188327236E+03  0.45330627092E+03  0.50194803675E+03  0.17200000000E+03 0. -1.
         -6    1    1    2    0  503 -0.45008046685E+02 -0.12188327236E+03  0.99564146490E+02  0.23744109925E+03  0.17200000000E+03 0. -1.
</event>
<event>
 4    1  0.5808486E+000  0.2350976E+03  0.7818608E-02  0.1123102E+00
         21   -1    0    0  501  502  0.00000000000E+00  0.00000000000E+00  0.17595814793E+03  0.17595814793E+03  0.00000000000E+00 0. -1.
         21   -1    0    0  502  503 -0.00000000000E+00 -0.00000000000E+00 -0.36252001767E+03  0.36252001767E+03  0.00000000000E+00 0.  1.
          6    1    1    2  501    0  0.52736331154E+02  0.15134656758E+03  0.51025334782E+01  0.23515301399E+03  0.17200000000E+03 0. -1.
         -6    1    1    2    0  503 -0.52736331154E+02 -0.15134656758E+03 -0.19166440321E+03  0.30332515161E+03  0.17200000000E+03 0.  1.
</event>
<event>
 4    1  0.5808486E+000  0.1738042E+03  0.7818608E-02  0.1173938E+00
         21   -1    0    0  503  502  0.00000000000E+00  0.00000000000E+00  0.77541522475E+02  0.77541522475E+02  0.00000000000E+00 0.  1.
         21   -1    0    0  501  503 -0.00000000000E+00 -0.00000000000E+00 -0.48679903352E+03  0.48679903352E+03  0.00000000000E+00 0.  1.
          6    1    1    2  501    0 -0.48750713392E+01 -0.24497897955E+02 -0.33073384049E+03  0.37362118057E+03  0.17200000000E+03 0. -1.
         -6    1    1    2    0  502  0.48750713392E+01  0.24497897955E+02 -0.78523670552E+02  0.19071937542E+03  0.17200000000E+03 0. -1.
</event>
<event>
 4    1  0.5808486E+000  0.1960241E+03  0.7818608E-02  0.1153138E+00
         21   -1    0    0  501  502  0.00000000000E+00  0.00000000000E+00  0.94932596809E+02  0.94932596809E+02  0.00000000000E+00 0. -1.
         21   -1    0    0  502  503 -0.00000000000E+00 -0.00000000000E+00 -0.41669031238E+03  0.41669031238E+03  0.00000000000E+00 0. -1.
          6    1    1    2  501    0  0.29161650054E+02 -0.89392625129E+02 -0.11760372194E+03  0.22859588508E+03  0.17200000000E+03 0. -1.
         -6    1    1    2    0  503 -0.29161650054E+02  0.89392625129E+02 -0.20415399364E+03  0.28302702412E+03  0.17200000000E+03 0. -1.
</event>
<event>
 4    1  0.5808486E+000  0.2639897E+03  0.7818608E-02  0.1104770E+00
         21   -1    0    0  501  502  0.00000000000E+00  0.00000000000E+00  0.44825618381E+03  0.44825618381E+03  0.00000000000E+00 0. -1.
         21   -1    0    0  502  503 -0.00000000000E+00 -0.00000000000E+00 -0.19731149827E+03  0.19731149827E+03  0.00000000000E+00 0.  1.
          6    1    1    2  501    0 -0.16810393625E+03 -0.10884688176E+03  0.27411279687E+03  0.38056326998E+03  0.17200000000E+03 0. -1.
         -6    1    1    2    0  503  0.16810393625E+03  0.10884688176E+03 -0.23168111334E+02  0.26500441210E+03  0.17200000000E+03 0.  1.
</event>
<event>
 4    1  0.5808486E+000  0.2353881E+03  0.7818608E-02  0.1122904E+00
         21   -1    0    0  503  502  0.00000000000E+00  0.00000000000E+00  0.59056738889E+02  0.59056738889E+02  0.00000000000E+00 0. -1.
         21   -1    0    0  501  503 -0.00000000000E+00 -0.00000000000E+00 -0.93825645901E+03  0.93825645901E+03  0.00000000000E+00 0.  1.
          6    1    1    2  501    0  0.13030148340E+03 -0.94048202226E+02 -0.43603882485E+03  0.49551730312E+03  0.17200000000E+03 0.  1.
         -6    1    1    2    0  502 -0.13030148340E+03  0.94048202226E+02 -0.44316089527E+03  0.50179589478E+03  0.17200000000E+03 0.  1.
</event>
<event>
 4    1  0.5808486E+000  0.3176420E+03  0.7818608E-02  0.1076740E+00
         21   -1    0    0  501  502  0.00000000000E+00  0.00000000000E+00  0.27028041487E+03  0.27028041487E+03  0.00000000000E+00 0.  1.
         21   -1    0    0  502  503 -0.00000000000E+00 -0.00000000000E+00 -0.11056211046E+04  0.11056211046E+04  0.00000000000E+00 0. -1.
          6    1    1    2  501    0 -0.93612114279E+02 -0.25009844668E+03 -0.97756215082E+03  0.10278736399E+04  0.17200000000E+03 0. -1.
         -6    1    1    2    0  503  0.93612114279E+02  0.25009844668E+03  0.14222146105E+03  0.34802787957E+03  0.17200000000E+03 0.  1.
</event>
<event>
 4    1  0.5808486E+000  0.1773514E+03  0.7818608E-02  0.1170391E+00
         21   -1    0    0  501  502  0.00000000000E+00  0.00000000000E+00  0.35138557301E+03  0.35138557301E+03  0.00000000000E+00 0. -1.
         21   -1    0    0  502  503 -0.00000000000E+00 -0.00000000000E+00 -0.24887021021E+03  0.24887021021E+03  0.00000000000E+00 0. -1.
          6    1    1    2  501    0 -0.25375593574E+01 -0.43163290735E+02  0.29142063858E+03  0.34114439387E+03  0.17200000000E+03 0. -1.
         -6    1    1    2    0  503  0.25375593574E+01  0.43163290735E+02 -0.18890527578E+03  0.25911138935E+03  0.17200000000E+03 0. -1.
</event>
<event>
 4    1  0.5808486E+000  0.3439457E+03  0.7818608E-02  0.1065128E+00
         21   -1    0    0  501  502  0.00000000000E+00  0.00000000000E+00  0.12948424820E+04  0.12948424820E+04  0.00000000000E+00 0. -1.
         21   -1    0    0  502  503 -0.00000000000E+00 -0.00000000000E+00 -0.92275817118E+02  0.92275817118E+02  0.00000000000E+00 0.  1.
          6    1    1    2  501    0 -0.29802022765E+02  0.29635539103E+03  0.67032342776E+03  0.75341368196E+03  0.17200000000E+03 0. -1.
         -6    1    1    2    0  503  0.29802022765E+02 -0.29635539103E+03  0.53224323715E+03  0.63370461719E+03  0.17200000000E+03 0.  1.
</event>
<event>
 4    1  0.5808486E+000  0.2018596E+03  0.7818608E-02  0.1148179E+00
         21   -1    0    0  501  502  0.00000000000E+00  0.00000000000E+00  0.18120979048E+03  0.18120979048E+03  0.00000000000E+00 0.  1.
         21   -1    0    0  502  503 -0.00000000000E+00 -0.00000000000E+00 -0.25373189975E+03  0.25373189975E+03  0.00000000000E+00 0.  1.
          6    1    1    2  501    0 -0.80990667844E+02  0.67851421120E+02  0.37094275049E+02  0.20523958894E+03  0.17200000000E+03 0.  1.
         -6    1    1    2    0  503  0.80990667844E+02 -0.67851421120E+02 -0.10961638432E+03  0.22970210129E+03  0.17200000000E+03 0.  1.
</event>
<event>
 4    1  0.5808486E+000  0.1968584E+03  0.7818608E-02  0.1152417E+00
         21   -1    0    0  503  502  0.00000000000E+00  0.00000000000E+00  0.21482779373E+03  0.21482779373E+03  0.00000000000E+00 0.  1.
         21   -1    0    0  501  503 -0.00000000000E+00 -0.00000000000E+00 -0.35019457794E+03  0.35019457794E+03  0.00000000000E+00 0.  1.
          6    1    1    2  501    0  0.89590161375E+02  0.33805921209E+02 -0.26440539990E+03  0.32964140034E+03  0.17200000000E+03 0.  1.
         -6    1    1    2    0  502 -0.89590161375E+02 -0.33805921209E+02  0.12903861569E+03  0.23538097133E+03  0.17200000000E+03 0.  1.
</event>
<event>
 4    1  0.5808486E+000  0.2112790E+03  0.7818608E-02  0.1140557E+00
         21   -1    0    0  501  502  0.00000000000E+00  0.00000000000E+00  0.23653916739E+03  0.23653916739E+03  0.00000000000E+00 0.  1.
         21   -1    0    0  502  503 -0.00000000000E+00 -0.00000000000E+00 -0.19303377844E+03  0.19303377844E+03  0.00000000000E+00 0.  1.
          6    1    1    2  501    0 -0.48622779876E+02 -0.11265266861E+03  0.53874868851E+02  0.21803967520E+03  0.17200000000E+03 0.  1.
         -6    1    1    2    0  503  0.48622779876E+02  0.11265266861E+03 -0.10369479895E+02  0.21153327063E+03  0.17200000000E+03 0.  1.
</event>
<event>
 4    1  0.5808486E+000  0.1857556E+03  0.7818608E-02  0.1162346E+00
         21   -1    0    0  501  502  0.00000000000E+00  0.00000000000E+00  0.38557433212E+02  0.38557433212E+02  0.00000000000E+00 0. -1.
         21   -1    0    0  502  503 -0.00000000000E+00 -0.00000000000E+00 -0.92989092563E+03  0.92989092563E+03  0.00000000000E+00 0. -1.
          6    1    1    2  501    0 -0.64990585396E+02 -0.26407999720E+02 -0.35173979827E+03  0.39777637477E+03  0.17200000000E+03 0. -1.
         -6    1    1    2    0  503  0.64990585396E+02  0.26407999720E+02 -0.53959369415E+03  0.57067198407E+03  0.17200000000E+03 0. -1.
</event>
<event>
 4    1  0.5808486E+000  0.1919789E+03  0.7818608E-02  0.1156689E+00
         21   -1    0    0  503  502  0.00000000000E+00  0.00000000000E+00  0.31637773831E+02  0.31637773831E+02  0.00000000000E+00 0. -1.
         21   -1    0    0  501  503 -0.00000000000E+00 -0.00000000000E+00 -0.12459978525E+04  0.12459978525E+04  0.00000000000E+00 0. -1.
          6    1    1    2  501    0 -0.63170162894E+02  0.57283775674E+02 -0.77012221586E+03  0.79369019636E+03  0.17200000000E+03 0. -1.
         -6    1    1    2    0  502  0.63170162894E+02 -0.57283775674E+02 -0.44423786278E+03  0.48394542995E+03  0.17200000000E+03 0. -1.
</event>
<event>
 4    1  0.5808486E+000  0.1796742E+03  0.7818608E-02  0.1168119E+00
         21   -1    0    0  501  502  0.00000000000E+00  0.00000000000E+00  0.24835814512E+04  0.24835814512E+04  0.00000000000E+00 0. -1.
         21   -1    0    0  502  503 -0.00000000000E+00 -0.00000000000E+00 -0.16776813371E+02  0.16776813371E+02  0.00000000000E+00 0. -1.
          6    1    1    2  501    0  0.34290338592E+02 -0.39025493858E+02  0.18266921298E+04  0.18355072742E+04  0.17200000000E+03 0. -1.
         -6    1    1    2    0  503 -0.34290338592E+02  0.39025493858E+02  0.64011250805E+03  0.66485099041E+03  0.17200000000E+03 0. -1.
</event>
<event>
 4    1  0.5808486E+000  0.1874610E+03  0.7818608E-02  0.1160771E+00
         21   -1    0    0  501  502  0.00000000000E+00  0.00000000000E+00  0.14897443163E+04  0.14897443163E+04  0.00000000000E+00 0. -1.
         21   -1    0    0  502  503 -0.00000000000E+00 -0.00000000000E+00 -0.85432989882E+02  0.85432989882E+02  0.00000000000E+00 0. -1.
          6    1    1    2  501    0 -0.72471561504E+02 -0.17478294654E+02  0.13722490090E+04  0.13849942096E+04  0.17200000000E+03 0. -1.
         -6    1    1    2    0  503  0.72471561504E+02  0.17478294654E+02  0.32062317404E+02  0.19018309654E+03  0.17200000000E+03 0. -1.
</event>
<event>
 4    1  0.5808486E+000  0.1986422E+03  0.7818608E-02  0.1150890E+00
         21   -1    0    0  503  502  0.00000000000E+00  0.00000000000E+00  0.41806804586E+03  0.41806804586E+03  0.00000000000E+00 0.  1.
         21   -1    0    0  501  503 -0.00000000000E+00 -0.00000000000E+00 -0.10360333803E+03  0.10360333803E+03  0.00000000000E+00 0.  1.
          6    1    1    2  501    0  0.93737380723E+02  0.32985292258E+02  0.79421218230E+02  0.21393096072E+03  0.17200000000E+03 0.  1.
         -6    1    1    2    0  502 -0.93737380723E+02 -0.32985292258E+02  0.23504348960E+03  0.30774042317E+03  0.17200000000E+03 0.  1.
</event>
<event>
 4    1  0.5808486E+000  0.2076405E+03  0.7818608E-02  0.1143448E+00
         21   -1    0    0  503  502  0.00000000000E+00  0.00000000000E+00  0.18629605160E+04  0.18629605160E+04  0.00000000000E+00 0. -1.
         21   -1    0    0  501  503 -0.00000000000E+00 -0.00000000000E+00 -0.34039762910E+02  0.34039762910E+02  0.00000000000E+00 0.  1.
          6    1    1    2  501    0 -0.11546584136E+03  0.14079559874E+02  0.37780952305E+03  0.43110860608E+03  0.17200000000E+03 0.  1.
         -6    1    1    2    0  502  0.11546584136E+03 -0.14079559874E+02  0.14511112300E+04  0.14658916728E+04  0.17200000000E+03 0. -1.
</event>
<event>
 4    1  0.5808486E+000  0.2002044E+03  0.7818608E-02  0.1149567E+00
         21   -1    0    0  503  502  0.00000000000E+00  0.00000000000E+00  0.84711050242E+03  0.84711050242E+03  0.00000000000E+00 0. -1.
         21   -1    0    0  501  503 -0.00000000000E+00 -0.00000000000E+00 -0.52837801684E+02  0.52837801684E+02  0.00000000000E+00 0. -1.
          6    1    1    2  501    0  0.20231264281E+02 -0.10044158942E+03  0.25167133687E+03  0.32159023422E+03  0.17200000000E+03 0. -1.
         -6    1    1    2    0  502 -0.20231264281E+02  0.10044158942E+03  0.54260136386E+03  0.57835806989E+03  0.17200000000E+03 0. -1.
</event>
<event>
 4    1  0.5808486E+000  0.2891249E+03  0.7818608E-02  0.1090807E+00
         21   -1    0    0  503  502  0.00000000000E+00  0.00000000000E+00  0.26866217829E+03  0.26866217829E+03  0.00000000000E+00 0. -1.
         21   -1    0    0  501  503 -0.00000000000E+00 -0.00000000000E+00 -0.43027851045E+03  0.43027851045E+03  0.00000000000E+00 0.  1.
          6    1    1    2  501    0 -0.67555171300E+01 -0.23230062309E+03 -0.26469484852E+03  0.39199053475E+03  0.17200000000E+03 0.  1.
         -6    1    1    2    0  502  0.67555171300E+01  0.23230062309E+03  0.10307851636E+03  0.30695015399E+03  0.17200000000E+03 0. -1.
</event>
<event>
 4    1  0.5808486E+000  0.2236239E+03  0.7818608E-02  0.1131210E+00
         21   -1    0    0  503  502  0.00000000000E+00  0.00000000000E+00  0.38901931727E+03  0.38901931727E+03  0.00000000000E+00 0.  1.
         21   -1    0    0  501  503 -0.00000000000E+00 -0.00000000000E+00 -0.28493719234E+03  0.28493719234E+03  0.00000000000E+00 0. -1.
          6    1    1    2  501    0 -0.49795524105E+01  0.14282461585E+03 -0.19760839886E+03  0.29842376938E+03  0.17200000000E+03 0. -1.
         -6    1    1    2    0  502  0.49795524105E+01 -0.14282461585E+03  0.30169052379E+03  0.37553274022E+03  0.17200000000E+03 0.  1.
</event>
<event>
 4    1  0.5808486E+000  0.1931527E+03  0.7818608E-02  0.1155648E+00
         21   -1    0    0  503  502  0.00000000000E+00  0.00000000000E+00  0.29415724881E+03  0.29415724881E+03  0.00000000000E+00 0.  1.
         21   -1    0    0  501  503 -0.00000000000E+00 -0.00000000000E+00 -0.18054162593E+03  0.18054162593E+03  0.00000000000E+00 0.  1.
          6    1    1    2  501    0 -0.63196324871E+02  0.61075178029E+02 -0.72651661021E+02  0.20636428155E+03  0.17200000000E+03 0.  1.
         -6    1    1    2    0  502  0.63196324871E+02 -0.61075178029E+02  0.18626728391E+03  0.26833459319E+03  0.17200000000E+03 0.  1.
</event>
<event>
 4    1  0.5808486E+000  0.1744425E+03  0.7818608E-02  0.1173293E+00
         21   -1    0    0  503  502  0.00000000000E+00  0.00000000000E+00  0.55556275996E+02  0.55556275996E+02  0.00000000000E+00 0.  1.
         21   -1    0    0  501  503 -0.00000000000E+00 -0.00000000000E+00 -0.10036323321E+04  0.10036323321E+04  0.00000000000E+00 0.  1.
          6    1    1    2  501    0 -0.22099332289E+02  0.18915332792E+02 -0.83097295814E+03  0.84908552423E+03  0.17200000000E+03 0.  1.
         -6    1    1    2    0  502  0.22099332289E+02 -0.18915332792E+02 -0.11710309800E+03  0.21010308390E+03  0.17200000000E+03 0.  1.
</event>
<event>
 4    1  0.5808486E+000  0.2056315E+03  0.7818608E-02  0.1145073E+00
         21   -1    0    0  501  502  0.00000000000E+00  0.00000000000E+00  0.16548396659E+04  0.16548396659E+04  0.00000000000E+00 0. -1.
         21   -1    0    0  502  503 -0.00000000000E+00 -0.00000000000E+00 -0.39104771912E+02  0.39104771912E+02  0.00000000000E+00 0. -1.
          6    1    1    2  501    0  0.47379433888E+02  0.10225205873E+03  0.30924711139E+03  0.37137322221E+03  0.17200000000E+03 0. -1.
         -6    1    1    2    0  503 -0.47379433888E+02 -0.10225205873E+03  0.13064877826E+04  0.13225712156E+04  0.17200000000E+03 0. -1.
</event>
<event>
 4    1  0.5808486E+000  0.1831052E+03  0.7818608E-02  0.1164831E+00
         21   -1    0    0  503  502  0.00000000000E+00  0.00000000000E+00  0.77287718507E+03  0.77287718507E+03  0.00000000000E+00 0.  1.
         21   -1    0    0  501  503 -0.00000000000E+00 -0.00000000000E+00 -0.25843699852E+03  0.25843699852E+03  0.00000000000E+00 0.  1.
          6    1    1    2  501    0  0.31401004706E+02  0.54382883986E+02 -0.21317230910E+03  0.28101593289E+03  0.17200000000E+03 0.  1.
         -6    1    1    2    0  502 -0.31401004706E+02 -0.54382883986E+02  0.72761249565E+03  0.75029825070E+03  0.17200000000E+03 0.  1.
</event>
<event>
 4    1  0.5808486E+000  0.3345780E+03  0.7818608E-02  0.1069129E+00
         21   -1    0    0  501  502  0.00000000000E+00  0.00000000000E+00  0.44364011468E+03  0.44364011468E+03  0.00000000000E+00 0. -1.
         21   -1    0    0  502  503 -0.00000000000E+00 -0.00000000000E+00 -0.25717029366E+03  0.25717029366E+03  0.00000000000E+00 0.  1.
          6    1    1    2  501    0 -0.19406413121E+03 -0.21141795815E+03  0.14132154695E+03  0.36319997203E+03  0.17200000000E+03 0. -1.
         -6    1    1    2    0  503  0.19406413121E+03  0.21141795815E+03  0.45148274073E+02  0.33761043631E+03  0.17200000000E+03 0.  1.
</event>
<event>
 4    1  0.5808486E+000  0.1921015E+03  0.7818608E-02  0.1156579E+00
         21   -1    0    0  503  502  0.00000000000E+00  0.00000000000E+00  0.33268019116E+03  0.33268019116E+03  0.00000000000E+00 0. -1.
         21   -1    0    0  501  503 -0.00000000000E+00 -0.00000000000E+00 -0.30685857297E+03  0.30685857297E+03  0.00000000000E+00 0.  1.
          6    1    1    2  501    0 -0.21883572051E+02 -0.82704854846E+02 -0.24260673935E+03  0.30945276492E+03  0.17200000000E+03 0.  1.
         -6    1    1    2    0  502  0.21883572051E+02  0.82704854846E+02  0.26842835754E+03  0.33008599921E+03  0.17200000000E+03 0. -1.
</event>
<event>
 4    1  0.5808486E+000  0.1927236E+03  0.7818608E-02  0.1156027E+00
         21   -1    0    0  503  502  0.00000000000E+00  0.00000000000E+00  0.10933870863E+04  0.10933870863E+04  0.00000000000E+00 0. -1.
         21   -1    0    0  501  503 -0.00000000000E+00 -0.00000000000E+00 -0.34135011122E+02  0.34135011122E+02  0.00000000000E+00 0. -1.
          6    1    1    2  501    0 -0.78153132611E+02 -0.38085283316E+02  0.49043366539E+03  0.52694172457E+03  0.17200000000E+03 0. -1.
         -6    1    1    2    0  502  0.78153132611E+02  0.38085283316E+02  0.56881840976E+03  0.60058037283E+03  0.17200000000E+03 0. -1.
</event>
<event>
 4    1  0.5808486E+000  0.1829403E+03  0.7818608E-02  0.1164987E+00
         21   -1    0    0  501  502  0.00000000000E+00  0.00000000000E+00  0.34392404037E+03  0.34392404037E+03  0.00000000000E+00 0.  1.
         21   -1    0    0  502  503 -0.00000000000E+00 -0.00000000000E+00 -0.10205706349E+03  0.10205706349E+03  0.00000000000E+00 0.  1.
          6    1    1    2  501    0 -0.26962432356E+02 -0.56180026182E+02  0.16902718115E+03  0.24907299346E+03  0.17200000000E+03 0.  1.
         -6    1    1    2    0  503  0.26962432356E+02  0.56180026182E+02  0.72839795732E+02  0.19690811040E+03  0.17200000000E+03 0.  1.
</event>
<event>
 4    1  0.5808486E+000  0.1727110E+03  0.7818608E-02  0.1175050E+00
         21   -1    0    0  503  502  0.00000000000E+00  0.00000000000E+00  0.16414086384E+04  0.16414086384E+04  0.00000000000E+00 0.  1.
         21   -1    0    0  501  503 -0.00000000000E+00 -0.00000000000E+00 -0.21470572071E+02  0.21470572071E+02  0.00000000000E+00 0.  1.
          6    1    1    2  501    0 -0.10239088449E+02 -0.11843104376E+02  0.48412113844E+03  0.51400620107E+03  0.17200000000E+03 0. -1.
         -6    1    1    2    0  502  0.10239088449E+02  0.11843104376E+02  0.11358169279E+04  0.11488730094E+04  0.17200000000E+03 0. -1.
</event>
<event>
 4    1  0.5808486E+000  0.2003652E+03  0.7818608E-02  0.1149431E+00
         21   -1    0    0  501  502  0.00000000000E+00  0.00000000000E+00  0.14887210418E+04  0.14887210418E+04  0.00000000000E+00 0. -1.
         21   -1    0    0  502  503 -0.00000000000E+00 -0.00000000000E+00 -0.32461154301E+02  0.32461154301E+02  0.00000000000E+00 0. -1.
          6    1    1    2  501    0 -0.10275031189E+03 -0.21381437161E+01  0.10410428360E+04  0.10601492275E+04  0.17200000000E+03 0. -1.
         -6    1    1    2    0  503  0.10275031189E+03  0.21381437161E+01  0.41521705151E+03  0.46103296858E+03  0.17200000000E+03 0. -1.
</event>
<event>
 4    1  0.5808486E+000  0.1856111E+03  0.7818608E-02  0.1162480E+00
         21   -1    0    0  503  502  0.00000000000E+00  0.00000000000E+00  0.58382150607E+02  0.58382150607E+02  0.00000000000E+00 0. -1.
         21   -1    0    0  501  503 -0.00000000000E+00 -0.00000000000E+00 -0.10683913969E+04  0.10683913969E+04  0.00000000000E+00 0. -1.
          6    1    1    2  501    0 -0.42873364751E+02 -0.55039512175E+02 -0.88195696683E+03  0.90127663048E+03  0.17200000000E+03 0. -1.
         -6    1    1    2    0  502  0.42873364751E+02  0.55039512175E+02 -0.12805227942E+03  0.22549691699E+03  0.17200000000E+03 0. -1.
</event>
<event>
 4    1  0.5808486E+000  0.1868854E+03  0.7818608E-02  0.1161301E+00
         21   -1    0    0  501  502  0.00000000000E+00  0.00000000000E+00  0.43129787881E+03  0.43129787881E+03  0.00000000000E+00 0. -1.
         21   -1    0    0  502  503 -0.00000000000E+00 -0.00000000000E+00 -0.10097116629E+03  0.10097116629E+03  0.00000000000E+00 0. -1.
          6    1    1    2  501    0  0.72993229513E+02 -0.37590067750E+01  0.28358488785E+03  0.33962704589E+03  0.17200000000E+03 0. -1.
         -6    1    1    2    0  503 -0.72993229513E+02  0.37590067750E+01  0.46741824668E+02  0.19264199921E+03  0.17200000000E+03 0. -1.
</event>
<event>
 4    1  0.5808486E+000  0.1741936E+03  0.7818608E-02  0.1173544E+00
         21   -1    0    0  501  502  0.00000000000E+00  0.00000000000E+00  0.16700802098E+03  0.16700802098E+03  0.00000000000E+00 0. -1.
         21   -1    0    0  502  503 -0.00000000000E+00 -0.00000000000E+00 -0.20129084715E+03  0.20129084715E+03  0.00000000000E+00 0. -1.
          6    1    1    2  501    0  0.70502287082E+01 -0.26640179640E+02  0.40325058208E+02  0.17880021033E+03  0.17200000000E+03 0.  1.
         -6    1    1    2    0  503 -0.70502287082E+01  0.26640179640E+02 -0.74607884371E+02  0.18949865780E+03  0.17200000000E+03 0.  1.
</event>
<event>
 4    1  0.5808486E+000  0.1773378E+03  0.7818608E-02  0.1170405E+00
         21   -1    0    0  501  502  0.00000000000E+00  0.00000000000E+00  0.57187831590E+02  0.57187831590E+02  0.00000000000E+00 0. -1.
         21   -1    0    0  502  503 -0.00000000000E+00 -0.00000000000E+00 -0.56689359000E+03  0.56689359000E+03  0.00000000000E+00 0. -1.
          6    1    1    2  501    0  0.20494940065E+02  0.38008402556E+02 -0.20085722922E+03  0.26794086617E+03  0.17200000000E+03 0. -1.
         -6    1    1    2    0  503 -0.20494940065E+02 -0.38008402556E+02 -0.30884852919E+03  0.35614055542E+03  0.17200000000E+03 0. -1.
</event>
<event>
 4    1  0.5808486E+000  0.2299084E+03  0.7818608E-02  0.1126704E+00
         21   -1    0    0  503  502  0.00000000000E+00  0.00000000000E+00  0.96470273810E+03  0.96470273810E+03  0.00000000000E+00 0. -1.
         21   -1    0    0  501  503 -0.00000000000E+00 -0.00000000000E+00 -0.61534993238E+02  0.61534993238E+02  0.00000000000E+00 0. -1.
          6    1    1    2  501    0  0.14997948427E+03 -0.27929310465E+02  0.28172563412E+03  0.36363061616E+03  0.17200000000E+03 0. -1.
         -6    1    1    2    0  502 -0.14997948427E+03  0.27929310465E+02  0.62144211075E+03  0.66260711519E+03  0.17200000000E+03 0. -1.
</event>
<event>
 4    1  0.5808486E+000  0.2541081E+03  0.7818608E-02  0.1110736E+00
         21   -1    0    0  501  502  0.00000000000E+00  0.00000000000E+00  0.23559062174E+04  0.23559062174E+04  0.00000000000E+00 0.  1.
         21   -1    0    0  502  503 -0.00000000000E+00 -0.00000000000E+00 -0.31034936905E+02  0.31034936905E+02  0.00000000000E+00 0. -1.
          6    1    1    2  501    0 -0.66073663395E+02 -0.17498918471E+03  0.15704256414E+04  0.15908512310E+04  0.17200000000E+03 0. -1.
         -6    1    1    2    0  503  0.66073663395E+02  0.17498918471E+03  0.75444563906E+03  0.79608992335E+03  0.17200000000E+03 0. -1.
</event>
<event>
 4    1  0.5808486E+000  0.2177147E+03  0.7818608E-02  0.1135598E+00
         21   -1    0    0  501  502  0.00000000000E+00  0.00000000000E+00  0.39468131001E+03  0.39468131001E+03  0.00000000000E+00 0. -1.
         21   -1    0    0  502  503 -0.00000000000E+00 -0.00000000000E+00 -0.13020976887E+03  0.13020976887E+03  0.00000000000E+00 0.  1.
          6    1    1    2  501    0 -0.61294341520E+02  0.11856938068E+03  0.59093013363E+02  0.22559184064E+03  0.17200000000E+03 0.  1.
         -6    1    1    2    0  503  0.61294341520E+02 -0.11856938068E+03  0.20537852777E+03  0.29929923823E+03  0.17200000000E+03 0. -1.
</event>
<event>
 4    1  0.5808486E+000  0.2505901E+03  0.7818608E-02  0.1112932E+00
         21   -1    0    0  503  502  0.00000000000E+00  0.00000000000E+00  0.16196324091E+03  0.16196324091E+03  0.00000000000E+00 0.  1.
         21   -1    0    0  501  503 -0.00000000000E+00 -0.00000000000E+00 -0.40960422334E+03  0.40960422334E+03  0.00000000000E+00 0. -1.
          6    1    1    2  501    0 -0.14050484760E+03  0.11605937609E+03 -0.18988708534E+03  0.31440816808E+03  0.17200000000E+03 0. -1.
         -6    1    1    2    0  502  0.14050484760E+03 -0.11605937609E+03 -0.57753897102E+02  0.25715929617E+03  0.17200000000E+03 0.  1.
</event>
<event>
 4    1  0.5808486E+000  0.1794436E+03  0.7818608E-02  0.1168343E+00
         21   -1    0    0  503  502  0.00000000000E+00  0.00000000000E+00  0.68545659488E+02  0.68545659488E+02  0.00000000000E+00 0. -1.
         21   -1    0    0  501  503 -0.00000000000E+00 -0.00000000000E+00 -0.46978038693E+03  0.46978038693E+03  0.00000000000E+00 0. -1.
          6    1    1    2  501    0  0.47676150958E+02 -0.18520321470E+02 -0.20238499386E+03  0.27048050469E+03  0.17200000000E+03 0. -1.
         -6    1    1    2    0  502 -0.47676150958E+02  0.18520321470E+02 -0.19884973358E+03  0.26784554173E+03  0.17200000000E+03 0. -1.
</event>
<event>
 4    1  0.5808486E+000  0.2449860E+03  0.7818608E-02  0.1116515E+00
         21   -1    0    0  503  502  0.00000000000E+00  0.00000000000E+00  0.19198697627E+03  0.19198697627E+03  0.00000000000E+00 0. -1.
         21   -1    0    0  501  503 -0.00000000000E+00 -0.00000000000E+00 -0.31719754815E+03  0.31719754815E+03  0.00000000000E+00 0.  1.
          6    1    1    2  501    0  0.77978287893E+02  0.15605623821E+03 -0.93203475139E+02  0.26211648297E+03  0.17200000000E+03 0.  1.
         -6    1    1    2    0  502 -0.77978287893E+02 -0.15605623821E+03 -0.32007096739E+02  0.24706804145E+03  0.17200000000E+03 0. -1.
</event>
<event>
 4    1  0.5808486E+000  0.1792181E+03  0.7818608E-02  0.1168562E+00
         21   -1    0    0  503  502  0.00000000000E+00  0.00000000000E+00  0.34024962059E+03  0.34024962059E+03  0.00000000000E+00 0.  1.
         21   -1    0    0  501  503 -0.00000000000E+00 -0.00000000000E+00 -0.15197033643E+03  0.15197033643E+03  0.00000000000E+00 0.  1.
          6    1    1    2  501    0 -0.19761954382E+02 -0.46309934431E+02 -0.57339850634E+02  0.18816748746E+03  0.17200000000E+03 0.  1.
         -6    1    1    2    0  502  0.19761954382E+02  0.46309934431E+02  0.24561913479E+03  0.30405246956E+03  0.17200000000E+03 0.  1.
</event>
<event>
 4    1  0.5808486E+000  0.1820431E+03  0.7818608E-02  0.1165840E+00
         21   -1    0    0  501  502  0.00000000000E+00  0.00000000000E+00  0.41176387963E+03  0.41176387963E+03  0.00000000000E+00 0.  1.
         21   -1    0    0  502  503 -0.00000000000E+00 -0.00000000000E+00 -0.81563877033E+02  0.81563877033E+02  0.00000000000E+00 0.  1.
          6    1    1    2  501    0 -0.57824592292E+02  0.14559889462E+02  0.19350534802E+03  0.26567648290E+03  0.17200000000E+03 0.  1.
         -6    1    1    2    0  503  0.57824592292E+02 -0.14559889462E+02  0.13669465458E+03  0.22765127376E+03  0.17200000000E+03 0.  1.
</event>
<event>
 4    1  0.5808486E+000  0.1997880E+03  0.7818608E-02  0.1149918E+00
         21   -1    0    0  503  502  0.00000000000E+00  0.00000000000E+00  0.13791912805E+03  0.13791912805E+03  0.00000000000E+00 0. -1.
         21   -1    0    0  501  503 -0.00000000000E+00 -0.00000000000E+00 -0.29536004024E+03  0.29536004024E+03  0.00000000000E+00 0.  1.
          6    1    1    2  501    0 -0.62706457736E+01 -0.10144921601E+03 -0.10946713345E+03  0.22781202280E+03  0.17200000000E+03 0.  1.
         -6    1    1    2    0  502  0.62706457736E+01  0.10144921601E+03 -0.47973778738E+02  0.20546714549E+03  0.17200000000E+03 0. -1.
</event>
<event>
 4    1  0.5808486E+000  0.1859157E+03  0.7818608E-02  0.1162198E+00
         21   -1    0    0  501  502  0.00000000000E+00  0.00000000000E+00  0.68283159423E+02  0.68283159423E+02  0.00000000000E+00 0. -1.
         21   -1    0    0  502  503 -0.00000000000E+00 -0.00000000000E+00 -0.63827527941E+03  0.63827527941E+03  0.00000000000E+00 0. -1.
          6    1    1    2  501    0 -0.64737857881E+02  0.28101036545E+02 -0.12429027382E+03  0.22363526257E+03  0.17200000000E+03 0.  1.
         -6    1    1    2    0  503  0.64737857881E+02 -0.28101036545E+02 -0.44570184616E+03  0.48292317626E+03  0.17200000000E+03 0.  1.
</event>
<event>
 4    1  0.5808486E+000  0.1864315E+03  0.7818608E-02  0.1161720E+00
         21   -1    0    0  503  502  0.00000000000E+00  0.00000000000E+00  0.16002404628E+03  0.16002404628E+03  0.00000000000E+00 0.  1.
         21   -1    0    0  501  503 -0.00000000000E+00 -0.00000000000E+00 -0.26480797294E+03  0.26480797294E+03  0.00000000000E+00 0.  1.
          6    1    1    2  501    0 -0.19490168325E+02 -0.69230198846E+02 -0.14246127276E+03  0.23463141590E+03  0.17200000000E+03 0.  1.
         -6    1    1    2    0  502  0.19490168325E+02  0.69230198846E+02  0.37677346088E+02  0.19020060332E+03  0.17200000000E+03 0.  1.
</event>
<event>
 4    1  0.5808486E+000  0.1742920E+03  0.7818608E-02  0.1173445E+00
         21   -1    0    0  503  502  0.00000000000E+00  0.00000000000E+00  0.32799570543E+02  0.32799570543E+02  0.00000000000E+00 0.  1.
         21   -1    0    0  501  503 -0.00000000000E+00 -0.00000000000E+00 -0.93485807628E+03  0.93485807628E+03  0.00000000000E+00 0.  1.
          6    1    1    2  501    0  0.78793042450E+01  0.27048113327E+02 -0.49769571887E+03  0.52733169112E+03  0.17200000000E+03 0. -1.
         -6    1    1    2    0  502 -0.78793042450E+01 -0.27048113327E+02 -0.40436278686E+03  0.44032595571E+03  0.17200000000E+03 0. -1.
</event>
<event>
 4    1  0.5808486E+000  0.2091524E+03  0.7818608E-02  0.1142239E+00
         21   -1    0    0  501  502  0.00000000000E+00  0.00000000000E+00  0.87748789911E+02  0.87748789911E+02  0.00000000000E+00 0.  1.
         21   -1    0    0  502  503 -0.00000000000E+00 -0.00000000000E+00 -0.59553085010E+03  0.59553085010E+03  0.00000000000E+00 0. -1.
          6    1    1    2  501    0  0.11892921720E+03  0.40712085811E+01 -0.11600469301E+03  0.23916902443E+03  0.17200000000E+03 0.  1.
         -6    1    1    2    0  503 -0.11892921720E+03 -0.40712085811E+01 -0.39177736717E+03  0.44411061558E+03  0.17200000000E+03 0. -1.
</event>
<event>
 4    1  0.5808486E+000  0.2633241E+03  0.7818608E-02  0.1105162E+00
         21   -1    0    0  503  502  0.00000000000E+00  0.00000000000E+00  0.48043182066E+03  0.48043182066E+03  0.00000000000E+00 0. -1.
         21   -1    0    0  501  503 -0.00000000000E+00 -0.00000000000E+00 -0.14880206032E+03  0.14880206032E+03  0.00000000000E+00 0.  1.
          6    1    1    2  501    0  0.20038054457E+02  0.19837851376E+03  0.22037173231E+03  0.34337043954E+03  0.17200000000E+03 0. -1.
         -6    1    1    2    0  502 -0.20038054457E+02 -0.19837851376E+03  0.11125802803E+03  0.28586344144E+03  0.17200000000E+03 0.  1.
</event>
<event>
 4    1  0.5808486E+000  0.3428870E+03  0.7818608E-02  0.1065573E+00
         21   -1    0    0  503  502  0.00000000000E+00  0.00000000000E+00  0.14729913780E+03  0.14729913780E+03  0.00000000000E+00 0. -1.
         21   -1    0    0  501  503 -0.00000000000E+00 -0.00000000000E+00 -0.95756497374E+03  0.95756497374E+03  0.00000000000E+00 0.  1.
          6    1    1    2  501    0  0.16095850454E+03 -0.24915830310E+03 -0.63051318813E+03  0.71771747965E+03  0.17200000000E+03 0. -1.
         -6    1    1    2    0  502 -0.16095850454E+03  0.24915830310E+03 -0.17975264781E+03  0.38714663188E+03  0.17200000000E+03 0.  1.
</event>
<event>
 4    1  0.5808486E+000  0.1938643E+03  0.7818608E-02  0.1155021E+00
         21   -1    0    0  501  502  0.00000000000E+00  0.00000000000E+00  0.57680771084E+03  0.57680771084E+03  0.00000000000E+00 0.  1.
         21   -1    0    0  502  503 -0.00000000000E+00 -0.00000000000E+00 -0.14726702956E+03  0.14726702956E+03  0.00000000000E+00 0.  1.
          6    1    1    2  501    0 -0.70981418158E+02 -0.54415044273E+02  0.48510228780E+03  0.52240557845E+03  0.17200000000E+03 0.  1.
         -6    1    1    2    0  503  0.70981418158E+02  0.54415044273E+02 -0.55561606513E+02  0.20166916196E+03  0.17200000000E+03 0.  1.
</event>
<event>
 4    1  0.5808486E+000  0.1910188E+03  0.7818608E-02  0.1157546E+00
         21   -1    0    0  501  502  0.00000000000E+00  0.00000000000E+00  0.14413720703E+03  0.14413720703E+03  0.00000000000E+00 0. -1.
         21   -1    0    0  502  503 -0.00000000000E+00 -0.00000000000E+00 -0.37588824077E+03  0.37588824077E+03  0.00000000000E+00 0. -1.
          6    1    1    2  501    0 -0.52173773006E+02 -0.64668889558E+02  0.32703409901E+02  0.19379804149E+03  0.17200000000E+03 0. -1.
         -6    1    1    2    0  503  0.52173773006E+02  0.64668889558E+02 -0.26445444364E+03  0.32622740631E+03  0.17200000000E+03 0. -1.
</event>
<event>
 4    1  0.5808486E+000  0.2242449E+03  0.7818608E-02  0.1130757E+00
         21   -1    0    0  501  502  0.00000000000E+00  0.00000000000E+00  0.34637663096E+03  0.34637663096E+03  0.00000000000E+00 0.  1.
         21   -1    0    0  502  503 -0.00000000000E+00 -0.00000000000E+00 -0.14626061598E+03  0.14626061598E+03  0.00000000000E+00 0. -1.
          6    1    1    2  501    0 -0.10862246802E+03  0.94355340166E+02  0.12126395355E+03  0.25493276998E+03  0.17200000000E+03 0.  1.
         -6    1    1    2    0  503  0.10862246802E+03 -0.94355340166E+02  0.78852061433E+02  0.23770447696E+03  0.17200000000E+03 0.  1.
</event>
<event>
 4    1  0.5808486E+000  0.2040334E+03  0.7818608E-02  0.1146380E+00
         21   -1    0    0  503  502  0.00000000000E+00  0.00000000000E+00  0.25836416827E+04  0.25836416827E+04  0.00000000000E+00 0.  1.
         21   -1    0    0  501  503 -0.00000000000E+00 -0.00000000000E+00 -0.16304449495E+02  0.16304449495E+02  0.00000000000E+00 0.  1.
          6    1    1    2  501    0 -0.46471276290E+02 -0.99428584512E+02  0.11427171288E+04  0.11607894121E+04  0.17200000000E+03 0.  1.
         -6    1    1    2    0  502  0.46471276290E+02  0.99428584512E+02  0.14246201044E+04  0.14391567200E+04  0.17200000000E+03 0.  1.
</event>
<event>
 4    1  0.5808486E+000  0.2506516E+03  0.7818608E-02  0.1112894E+00
         21   -1    0    0  501  502  0.00000000000E+00  0.00000000000E+00  0.10730030756E+04  0.10730030756E+04  0.00000000000E+00 0.  1.
         21   -1    0    0  502  503 -0.00000000000E+00 -0.00000000000E+00 -0.15001532527E+03  0.15001532527E+03  0.00000000000E+00 0.  1.
          6    1    1    2  501    0 -0.98564287313E+02 -0.15338608490E+03  0.93897835973E+03  0.97185727852E+03  0.17200000000E+03 0.  1.
         -6    1    1    2    0  503  0.98564287313E+02  0.15338608490E+03 -0.15990609432E+02  0.25116112232E+03  0.17200000000E+03 0.  1.
</event>
<event>
 4    1  0.5808486E+000  0.1903990E+03  0.7818608E-02  0.1158102E+00
         21   -1    0    0  501  502  0.00000000000E+00  0.00000000000E+00  0.78290752917E+03  0.78290752917E+03  0.00000000000E+00 0.  1.
         21   -1    0    0  502  503 -0.00000000000E+00 -0.00000000000E+00 -0.49214014958E+02  0.49214014958E+02  0.00000000000E+00 0. -1.
          6    1    1    2  501    0  0.62318431310E+02  0.52765310355E+02  0.46801835020E+03  0.50526521846E+03  0.17200000000E+03 0.  1.
         -6    1    1    2    0  503 -0.62318431310E+02 -0.52765310355E+02  0.26567516401E+03  0.32685632567E+03  0.17200000000E+03 0. -1.
</event>
<event>
 4    1  0.5808486E+000  0.2099524E+03  0.7818608E-02  0.1141604E+00
         21   -1    0    0  501  502  0.00000000000E+00  0.00000000000E+00  0.41209109561E+02  0.41209109561E+02  0.00000000000E+00 0. -1.
         21   -1    0    0  502  503 -0.00000000000E+00 -0.00000000000E+00 -0.13242648730E+04  0.13242648730E+04  0.00000000000E+00 0.  1.
          6    1    1    2  501    0  0.31735024807E+02  0.11614176170E+03 -0.34216808699E+03  0.40144616123E+03  0.17200000000E+03 0. -1.
         -6    1    1    2    0  503 -0.31735024807E+02 -0.11614176170E+03 -0.94088767643E+03  0.96402782132E+03  0.17200000000E+03 0.  1.
</event>
<event>
 4    1  0.5808486E+000  0.2349732E+03  0.7818608E-02  0.1123188E+00
         21   -1    0    0  501  502  0.00000000000E+00  0.00000000000E+00  0.12826182830E+04  0.12826182830E+04  0.00000000000E+00 0. -1.
         21   -1    0    0  502  503 -0.00000000000E+00 -0.00000000000E+00 -0.49359557106E+02  0.49359557106E+02  0.00000000000E+00 0. -1.
          6    1    1    2  501    0 -0.15990604348E+03  0.76454701718E+01  0.37845405829E+03  0.44546590239E+03  0.17200000000E+03 0. -1.
         -6    1    1    2    0  503  0.15990604348E+03 -0.76454701718E+01  0.85480466763E+03  0.88651193774E+03  0.17200000000E+03 0. -1.
</event>
<event>
 4    1  0.5808486E+000  0.2097851E+03  0.7818608E-02  0.1141736E+00
         21   -1    0    0  501  502  0.00000000000E+00  0.00000000000E+00  0.30108774227E+03  0.30108774227E+03  0.00000000000E+00 0. -1.
         21   -1    0    0  502  503 -0.00000000000E+00 -0.00000000000E+00 -0.19121122471E+03  0.19121122471E+03  0.00000000000E+00 0. -1.
          6    1    1    2  501    0 -0.10938098468E+03 -0.49614418690E+02  0.17440598943E+03  0.27281356180E+03  0.17200000000E+03 0. -1.
         -6    1    1    2    0  503  0.10938098468E+03  0.49614418690E+02 -0.64529471875E+02  0.21948540519E+03  0.17200000000E+03 0. -1.
</event>
<event>
 4    1  0.5808486E+000  0.1932150E+03  0.7818608E-02  0.1155593E+00
         21   -1    0    0  501  502  0.00000000000E+00  0.00000000000E+00  0.16620272643E+03  0.16620272643E+03  0.00000000000E+00 0.  1.
         21   -1    0    0  502  503 -0.00000000000E+00 -0.00000000000E+00 -0.30581178984E+03  0.30581178984E+03  0.00000000000E+00 0. -1.
          6    1    1    2  501    0  0.72319874809E+01 -0.87725287890E+02  0.51803204003E+02  0.20003899551E+03  0.17200000000E+03 0.  1.
         -6    1    1    2    0  503 -0.72319874809E+01  0.87725287890E+02 -0.19141226741E+03  0.27197552076E+03  0.17200000000E+03 0. -1.
</event>
<event>
 4    1  0.5808486E+000  0.1765938E+03  0.7818608E-02  0.1171141E+00
         21   -1    0    0  503  502  0.00000000000E+00  0.00000000000E+00  0.11543432862E+03  0.11543432862E+03  0.00000000000E+00 0. -1.
         21   -1    0    0  501  503 -0.00000000000E+00 -0.00000000000E+00 -0.32345885590E+03  0.32345885590E+03  0.00000000000E+00 0. -1.
          6    1    1    2  501    0 -0.10092138655E+02 -0.38723600604E+02 -0.14929986561E+02  0.17722379356E+03  0.17200000000E+03 0. -1.
         -6    1    1    2    0  502  0.10092138655E+02  0.38723600604E+02 -0.19309454072E+03  0.26166939096E+03  0.17200000000E+03 0. -1.
</event>
<event>
 4    1  0.5808486E+000  0.1975709E+03  0.7818608E-02  0.1151805E+00
         21   -1    0    0  503  502  0.00000000000E+00  0.00000000000E+00  0.17478553367E+03  0.17478553367E+03  0.00000000000E+00 0. -1.
         21   -1    0    0  501  503 -0.00000000000E+00 -0.00000000000E+00 -0.29791329522E+03  0.29791329522E+03  0.00000000000E+00 0. -1.
          6    1    1    2  501    0 -0.59055385153E+02 -0.77218690460E+02 -0.17982450728E+03  0.26715373494E+03  0.17200000000E+03 0. -1.
         -6    1    1    2    0  502  0.59055385153E+02  0.77218690460E+02  0.56696745732E+02  0.20554509395E+03  0.17200000000E+03 0. -1.
</event>
<event>
 4    1  0.5808486E+000  0.2306211E+03  0.7818608E-02  0.1126203E+00
         21   -1    0    0  503  502  0.00000000000E+00  0.00000000000E+00  0.21374977417E+04  0.21374977417E+04  0.00000000000E+00 0. -1.
         21   -1    0    0  501  503 -0.00000000000E+00 -0.00000000000E+00 -0.28460896039E+02  0.28460896039E+02  0.00000000000E+00 0. -1.
          6    1    1    2  501    0  0.89295127428E+02 -0.12501385620E+03  0.67050548271E+03  0.70905830956E+03  0.17200000000E+03 0. -1.
         -6    1    1    2    0  502 -0.89295127428E+02  0.12501385620E+03  0.14385313629E+04  0.14569003281E+04  0.17200000000E+03 0. -1.
</event>
<event>
 4    1  0.5808486E+000  0.2028534E+03  0.7818608E-02  0.1147354E+00
         21   -1    0    0  501  502  0.00000000000E+00  0.00000000000E+00  0.87453777714E+03  0.87453777714E+03  0.00000000000E+00 0.  1.
         21   -1    0    0  502  503 -0.00000000000E+00 -0.00000000000E+00 -0.50797079563E+02  0.50797079563E+02  0.00000000000E+00 0. -1.
          6    1    1    2  501    0 -0.79373542790E+02 -0.72562613089E+02  0.53748230220E+03  0.57448822206E+03  0.17200000000E+03 0.  1.
         -6    1    1    2    0  503  0.79373542790E+02  0.72562613089E+02  0.28625839539E+03  0.35084663465E+03  0.17200000000E+03 0. -1.
</event>
<event>
 4    1  0.5808486E+000  0.2640678E+03  0.7818608E-02  0.1104724E+00
         21   -1    0    0  501  502  0.00000000000E+00  0.00000000000E+00  0.41262789622E+02  0.41262789622E+02  0.00000000000E+00 0. -1.
         21   -1    0    0  502  503 -0.00000000000E+00 -0.00000000000E+00 -0.17416219816E+04  0.17416219816E+04  0.00000000000E+00 0.  1.
          6    1    1    2  501    0  0.17424040178E+03  0.98934705767E+02 -0.10037367780E+04  0.10378917637E+04  0.17200000000E+03 0.  1.
         -6    1    1    2    0  503 -0.17424040178E+03 -0.98934705767E+02 -0.69662241392E+03  0.74499300748E+03  0.17200000000E+03 0. -1.
</event>
<event>
 4    1  0.5808486E+000  0.1799469E+03  0.7818608E-02  0.1167854E+00
         21   -1    0    0  503  502  0.00000000000E+00  0.00000000000E+00  0.62847295466E+03  0.62847295466E+03  0.00000000000E+00 0. -1.
         21   -1    0    0  501  503 -0.00000000000E+00 -0.00000000000E+00 -0.61178624065E+02  0.61178624065E+02  0.00000000000E+00 0.  1.
          6    1    1    2  501    0  0.74600920137E+01  0.52356678838E+02  0.14665749664E+03  0.23214068172E+03  0.17200000000E+03 0.  1.
         -6    1    1    2    0  502 -0.74600920137E+01 -0.52356678838E+02  0.42063683396E+03  0.45751089700E+03  0.17200000000E+03 0. -1.
</event>
<event>
 4    1  0.5808486E+000  0.1887549E+03  0.7818608E-02  0.1159589E+00
         21   -1    0    0  501  502  0.00000000000E+00  0.00000000000E+00  0.19454419879E+02  0.19454419879E+02  0.00000000000E+00 0.  1.
         21   -1    0    0  502  503 -0.00000000000E+00 -0.00000000000E+00 -0.29236866555E+04  0.29236866555E+04  0.00000000000E+00 0.  1.
          6    1    1    2  501    0  0.16709558312E+02 -0.75928877620E+02 -0.55264279940E+03  0.58398841386E+03  0.17200000000E+03 0.  1.
         -6    1    1    2    0  503 -0.16709558312E+02  0.75928877620E+02 -0.23515894362E+04  0.23591526615E+04  0.17200000000E+03 0.  1.
</event>
<event>
 4    1  0.5808486E+000  0.1783528E+03  0.7818608E-02  0.1169407E+00
         21   -1    0    0  501  502  0.00000000000E+00  0.00000000000E+00  0.60289504748E+03  0.60289504748E+03  0.00000000000E+00 0. -1.
         21   -1    0    0  502  503 -0.00000000000E+00 -0.00000000000E+00 -0.16115358451E+03  0.16115358451E+03  0.00000000000E+00 0. -1.
          6    1    1    2  501    0 -0.33254577455E+02 -0.33464220434E+02  0.53417734356E+03  0.56316530020E+03  0.17200000000E+03 0.  1.
         -6    1    1    2    0  503  0.33254577455E+02  0.33464220434E+02 -0.92435880593E+02  0.20088333179E+03  0.17200000000E+03 0.  1.
</event>
<event>
 4    1  0.5808486E+000  0.2741989E+03  0.7818608E-02  0.1098900E+00
         21   -1    0    0  501  502  0.00000000000E+00  0.00000000000E+00  0.78403476246E+03  0.78403476246E+03  0.00000000000E+00 0. -1.
         21   -1    0    0  502  503 -0.00000000000E+00 -0.00000000000E+00 -0.11956486638E+03  0.11956486638E+03  0.00000000000E+00 0.  1.
          6    1    1    2  501    0 -0.19145242368E+03 -0.94588577579E+02  0.53325619967E+03  0.59962255130E+03  0.17200000000E+03 0. -1.
         -6    1    1    2    0  503  0.19145242368E+03  0.94588577579E+02  0.13121369642E+03  0.30397707754E+03  0.17200000000E+03 0.  1.
</event>
<event>
 4    1  0.5808486E+000  0.2888012E+03  0.7818608E-02  0.1090977E+00
         21   -1    0    0  501  502  0.00000000000E+00  0.00000000000E+00  0.59839198429E+02  0.59839198429E+02  0.00000000000E+00 0.  1.
         21   -1    0    0  502  503 -0.00000000000E+00 -0.00000000000E+00 -0.13947378238E+04  0.13947378238E+04  0.00000000000E+00 0. -1.
          6    1    1    2  501    0 -0.20286736196E+03  0.11254769730E+03 -0.68592203346E+03  0.74424134976E+03  0.17200000000E+03 0. -1.
         -6    1    1    2    0  503  0.20286736196E+03 -0.11254769730E+03 -0.64897659187E+03  0.71033567242E+03  0.17200000000E+03 0.  1.
</event>
<event>
 4    1  0.5808486E+000  0.1960470E+03  0.7818608E-02  0.1153118E+00
         21   -1    0    0  501  502  0.00000000000E+00  0.00000000000E+00  0.19796785295E+02  0.19796785295E+02  0.00000000000E+00 0.  1.
         21   -1    0    0  502  503 -0.00000000000E+00 -0.00000000000E+00 -0.19493258346E+04  0.19493258346E+04  0.00000000000E+00 0.  1.
          6    1    1    2  501    0 -0.93957974647E+02  0.47243850059E+01 -0.90217297915E+03  0.92322830607E+03  0.17200000000E+03 0.  1.
         -6    1    1    2    0  503  0.93957974647E+02 -0.47243850059E+01 -0.10273560702E+04  0.10458943138E+04  0.17200000000E+03 0.  1.
</event>
<event>
 4    1  0.5808486E+000  0.1790992E+03  0.7818608E-02  0.1168678E+00
         21   -1    0    0  501  502  0.00000000000E+00  0.00000000000E+00  0.61688646208E+02  0.61688646208E+02  0.00000000000E+00 0.  1.
         21   -1    0    0  502  503 -0.00000000000E+00 -0.00000000000E+00 -0.70574418407E+03  0.70574418407E+03  0.00000000000E+00 0.  1.
          6    1    1    2  501    0  0.64117524772E+00  0.49921150939E+02 -0.12516029593E+03  0.21849858602E+03  0.17200000000E+03 0.  1.
         -6    1    1    2    0  503 -0.64117524772E+00 -0.49921150939E+02 -0.51889524193E+03  0.54893424426E+03  0.17200000000E+03 0.  1.
</event>
<event>
 4    1  0.5808486E+000  0.1994102E+03  0.7818608E-02  0.1150238E+00
         21   -1    0    0  503  502  0.00000000000E+00  0.00000000000E+00  0.53789829170E+02  0.53789829170E+02  0.00000000000E+00 0. -1.
         21   -1    0    0  501  503 -0.00000000000E+00 -0.00000000000E+00 -0.15729440461E+04  0.15729440461E+04  0.00000000000E+00 0. -1.
          6    1    1    2  501    0 -0.36008773942E+02 -0.94253950243E+02 -0.13517271143E+04  0.13663566996E+04  0.17200000000E+03 0. -1.
         -6    1    1    2    0  502  0.36008773942E+02  0.94253950243E+02 -0.16742710268E+03  0.26037717574E+03  0.17200000000E+03 0. -1.
</event>
<event>
 4    1  0.5808486E+000  0.2568843E+03  0.7818608E-02  0.1109030E+00
         21   -1    0    0  503  502  0.00000000000E+00  0.00000000000E+00  0.84649560995E+03  0.84649560995E+03  0.00000000000E+00 0. -1.
         21   -1    0    0  501  503 -0.00000000000E+00 -0.00000000000E+00 -0.78009271407E+02  0.78009271407E+02  0.00000000000E+00 0. -1.
          6    1    1    2  501    0  0.33178466928E+02  0.18789559277E+03  0.39630231976E+03  0.47227650068E+03  0.17200000000E+03 0. -1.
         -6    1    1    2    0  502 -0.33178466928E+02 -0.18789559277E+03  0.37218401878E+03  0.45222838068E+03  0.17200000000E+03 0. -1.
</event>
<event>
 4    1  0.5808486E+000  0.3084238E+03  0.7818608E-02  0.1081104E+00
         21   -1    0    0  501  502  0.00000000000E+00  0.00000000000E+00  0.30281154891E+03  0.30281154891E+03  0.00000000000E+00 0. -1.
         21   -1    0    0  502  503 -0.00000000000E+00 -0.00000000000E+00 -0.31454421506E+03  0.31454421506E+03  0.00000000000E+00 0. -1.
          6    1    1    2  501    0 -0.15223465497E+03 -0.20582973134E+03 -0.16929636926E+02  0.30888813684E+03  0.17200000000E+03 0. -1.
         -6    1    1    2    0  503  0.15223465497E+03  0.20582973134E+03  0.51969707763E+01  0.30846762712E+03  0.17200000000E+03 0. -1.
</event>
<event>
 4    1  0.5808486E+000  0.1840281E+03  0.7818608E-02  0.1163961E+00
         21   -1    0    0  503  502  0.00000000000E+00  0.00000000000E+00  0.37816376232E+02  0.37816376232E+02  0.00000000000E+00 0.  1.
         21   -1    0    0  501  503 -0.00000000000E+00 -0.00000000000E+00 -0.90519336425E+03  0.90519336425E+03  0.00000000000E+00 0.  1.
          6    1    1    2  501    0 -0.64739531169E+02 -0.95459327779E+01 -0.48236323112E+03  0.51627571943E+03  0.17200000000E+03 0.  1.
         -6    1    1    2    0  502  0.64739531169E+02  0.95459327779E+01 -0.38501375690E+03  0.42673402106E+03  0.17200000000E+03 0.  1.
</event>
<event>
 4    1  0.5808486E+000  0.3351175E+03  0.7818608E-02  0.1068895E+00
         21   -1    0    0  503  502  0.00000000000E+00  0.00000000000E+00  0.33660768487E+03  0.33660768487E+03  0.00000000000E+00 0.  1.
         21   -1    0    0  501  503 -0.00000000000E+00 -0.00000000000E+00 -0.36682240964E+03  0.36682240964E+03  0.00000000000E+00 0. -1.
          6    1    1    2  501    0  0.92292643964E+02  0.27240005153E+03  0.90685696810E+02  0.34717087408E+03  0.17200000000E+03 0.  1.
         -6    1    1    2    0  502 -0.92292643964E+02 -0.27240005153E+03 -0.12090042158E+03  0.35625922043E+03  0.17200000000E+03 0. -1.
</event>
<event>
 4    1  0.5808486E+000  0.1805486E+03  0.7818608E-02  0.1167273E+00
         21   -1    0    0  501  502  0.00000000000E+00  0.00000000000E+00  0.22690681965E+03  0.22690681965E+03  0.00000000000E+00 0. -1.
         21   -1    0    0  502  503 -0.00000000000E+00 -0.00000000000E+00 -0.48945890559E+03  0.48945890559E+03  0.00000000000E+00 0. -1.
          6    1    1    2  501    0 -0.33590296688E+02 -0.43422066484E+02  0.16978705327E+03  0.24784153677E+03  0.17200000000E+03 0. -1.
         -6    1    1    2    0  503  0.33590296688E+02  0.43422066484E+02 -0.43233913921E+03  0.46852418847E+03  0.17200000000E+03 0. -1.
</event>
<event>
 4    1  0.5808486E+000  0.2057277E+03  0.7818608E-02  0.1144995E+00
         21   -1    0    0  503  502  0.00000000000E+00  0.00000000000E+00  0.36978378874E+03  0.36978378874E+03  0.00000000000E+00 0. -1.
         21   -1    0    0  501  503 -0.00000000000E+00 -0.00000000000E+00 -0.11465660296E+03  0.11465660296E+03  0.00000000000E+00 0.  1.
          6    1    1    2  501    0  0.92901624384E+02  0.64102912306E+02  0.13770056183E+03  0.24755876052E+03  0.17200000000E+03 0. -1.
         -6    1    1    2    0  502 -0.92901624384E+02 -0.64102912306E+02  0.11742662395E+03  0.23688163118E+03  0.17200000000E+03 0.  1.
</event>
<event>
 4    1  0.5808486E+000  0.1754236E+03  0.7818608E-02  0.1172307E+00
         21   -1    0    0  501  502  0.00000000000E+00  0.00000000000E+00  0.13665015424E+03  0.13665015424E+03  0.00000000000E+00 0.  1.
         21   -1    0    0  502  503 -0.00000000000E+00 -0.00000000000E+00 -0.24686999853E+03  0.24686999853E+03  0.00000000000E+00 0.  1.
          6    1    1    2  501    0  0.32934991529E+02  0.10233247258E+02  0.17055739194E+01  0.17543187281E+03  0.17200000000E+03 0.  1.
         -6    1    1    2    0  503 -0.32934991529E+02 -0.10233247258E+02 -0.11192541821E+03  0.20808827996E+03  0.17200000000E+03 0.  1.
</event>
<event>
 4    1  0.5808486E+000  0.1969236E+03  0.7818608E-02  0.1152361E+00
         21   -1    0    0  501  502  0.00000000000E+00  0.00000000000E+00  0.90968743146E+02  0.90968743146E+02  0.00000000000E+00 0. -1.
         21   -1    0    0  502  503 -0.00000000000E+00 -0.00000000000E+00 -0.45808364509E+03  0.45808364509E+03  0.00000000000E+00 0. -1.
          6    1    1    2  501    0 -0.71570990874E+02 -0.63816151436E+02 -0.11123162718E+03  0.22616671462E+03  0.17200000000E+03 0. -1.
         -6    1    1    2    0  503  0.71570990874E+02  0.63816151436E+02 -0.25588327477E+03  0.32288567361E+03  0.17200000000E+03 0. -1.
</event>
<event>
 4    1  0.5808486E+000  0.2719140E+03  0.7818608E-02  0.1100189E+00
         21   -1    0    0  503  502  0.00000000000E+00  0.00000000000E+00  0.60243002185E+03  0.60243002185E+03  0.00000000000E+00 0.  1.
         21   -1    0    0  501  503 -0.00000000000E+00 -0.00000000000E+00 -0.16946525402E+03  0.16946525402E+03  0.00000000000E+00 0. -1.
          6    1    1    2  501    0 -0.38876148486E+02  0.20698279709E+03  0.13806222282E+02  0.27226429253E+03  0.17200000000E+03 0. -1.
         -6    1    1    2    0  502  0.38876148486E+02 -0.20698279709E+03  0.41915854555E+03  0.49963098335E+03  0.17200000000E+03 0.  1.
</event>
<event>
 4    1  0.5808486E+000  0.1743264E+03  0.7818608E-02  0.1173410E+00
         21   -1    0    0  501  502  0.00000000000E+00  0.00000000000E+00  0.12665219132E+04  0.12665219132E+04  0.00000000000E+00 0. -1.
         21   -1    0    0  502  503 -0.00000000000E+00 -0.00000000000E+00 -0.47959656915E+02  0.47959656915E+02  0.00000000000E+00 0. -1.
          6    1    1    2  501    0 -0.11886027586E+02  0.25776494624E+02  0.10738772400E+04  0.10879347554E+04  0.17200000000E+03 0. -1.
         -6    1    1    2    0  503  0.11886027586E+02 -0.25776494624E+02  0.14468501621E+03  0.22654681468E+03  0.17200000000E+03 0. -1.
</event>
<event>
 4    1  0.5808486E+000  0.1898279E+03  0.7818608E-02  0.1158617E+00
         21   -1    0    0  501  502  0.00000000000E+00  0.00000000000E+00  0.20054990875E+03  0.20054990875E+03  0.00000000000E+00 0. -1.
         21   -1    0    0  502  503 -0.00000000000E+00 -0.00000000000E+00 -0.20304940787E+03  0.20304940787E+03  0.00000000000E+00 0. -1.
          6    1    1    2  501    0  0.37580601396E+02 -0.70981261620E+02  0.67212494652E+02  0.20137567018E+03  0.17200000000E+03 0. -1.
         -6    1    1    2    0  503 -0.37580601396E+02  0.70981261620E+02 -0.69711993774E+02  0.20222364644E+03  0.17200000000E+03 0. -1.
</event>
<event>
 4    1  0.5808486E+000  0.1802750E+03  0.7818608E-02  0.1167537E+00
         21   -1    0    0  501  502  0.00000000000E+00  0.00000000000E+00  0.68191946912E+02  0.68191946912E+02  0.00000000000E+00 0. -1.
         21   -1    0    0  502  503 -0.00000000000E+00 -0.00000000000E+00 -0.50678272688E+03  0.50678272688E+03  0.00000000000E+00 0. -1.
          6    1    1    2  501    0  0.14031991360E+02  0.52136051704E+02 -0.28947572508E+03  0.34102090857E+03  0.17200000000E+03 0. -1.
         -6    1    1    2    0  503 -0.14031991360E+02 -0.52136051704E+02 -0.14911505489E+03  0.23395376522E+03  0.17200000000E+03 0. -1.
</event>
<event>
 4    1  0.5808486E+000  0.2028016E+03  0.7818608E-02  0.1147397E+00
         21   -1    0    0  501  502  0.00000000000E+00  0.00000000000E+00  0.19633377005E+03  0.19633377005E+03  0.00000000000E+00 0. -1.
         21   -1    0    0  502  503 -0.00000000000E+00 -0.00000000000E+00 -0.28101753730E+03  0.28101753730E+03  0.00000000000E+00 0. -1.
          6    1    1    2  501    0 -0.38262449346E+02  0.10040150679E+03 -0.16276253969E+03  0.26003869312E+03  0.17200000000E+03 0. -1.
         -6    1    1    2    0  503  0.38262449346E+02 -0.10040150679E+03  0.78078772436E+02  0.21731261422E+03  0.17200000000E+03 0. -1.
</event>
<event>
 4    1  0.5808486E+000  0.1757755E+03  0.7818608E-02  0.1171955E+00
         21   -1    0    0  501  502  0.00000000000E+00  0.00000000000E+00  0.45136620340E+03  0.45136620340E+03  0.00000000000E+00 0. -1.
         21   -1    0    0  502  503 -0.00000000000E+00 -0.00000000000E+00 -0.19675561069E+03  0.19675561069E+03  0.00000000000E+00 0. -1.
          6    1    1    2  501    0 -0.25367422166E+02 -0.25875427487E+02  0.38899223875E+03  0.42686298230E+03  0.17200000000E+03 0. -1.
         -6    1    1    2    0  503  0.25367422166E+02  0.25875427487E+02 -0.13438164603E+03  0.22125883179E+03  0.17200000000E+03 0. -1.
</event>
<event>
 4    1  0.5808486E+000  0.1824585E+03  0.7818608E-02  0.1165445E+00
         21   -1    0    0  503  502  0.00000000000E+00  0.00000000000E+00  0.66178710061E+03  0.66178710061E+03  0.00000000000E+00 0.  1.
         21   -1    0    0  501  503 -0.00000000000E+00 -0.00000000000E+00 -0.88970816817E+02  0.88970816817E+02  0.00000000000E+00 0.  1.
          6    1    1    2  501    0  0.39734622915E+02 -0.46133199953E+02  0.38945027026E+02  0.18656855985E+03  0.17200000000E+03 0. -1.
         -6    1    1    2    0  502 -0.39734622915E+02  0.46133199953E+02  0.53387125677E+03  0.56418935758E+03  0.17200000000E+03 0. -1.
</event>
<event>
 4    1  0.5808486E+000  0.2013492E+03  0.7818608E-02  0.1148606E+00
         21   -1    0    0  501  502  0.00000000000E+00  0.00000000000E+00  0.30285246319E+02  0.30285246319E+02  0.00000000000E+00 0.  1.
         21   -1    0    0  502  503 -0.00000000000E+00 -0.00000000000E+00 -0.18297520880E+04  0.18297520880E+04  0.00000000000E+00 0.  1.
          6    1    1    2  501    0 -0.77046611096E+02 -0.70861241382E+02 -0.41791962812E+03  0.46389472015E+03  0.17200000000E+03 0.  1.
         -6    1    1    2    0  503  0.77046611096E+02  0.70861241382E+02 -0.13815472136E+04  0.13961426142E+04  0.17200000000E+03 0.  1.
</event>
<event>
 4    1  0.5808486E+000  0.2048691E+03  0.7818608E-02  0.1145695E+00
         21   -1    0    0  503  502  0.00000000000E+00  0.00000000000E+00  0.13827155501E+03  0.13827155501E+03  0.00000000000E+00 0.  1.
         21   -1    0    0  501  503 -0.00000000000E+00 -0.00000000000E+00 -0.32246166277E+03  0.32246166277E+03  0.00000000000E+00 0.  1.
          6    1    1    2  501    0 -0.69276013248E+01  0.11108262958E+03 -0.14789417949E+03  0.25267376314E+03  0.17200000000E+03 0.  1.
         -6    1    1    2    0  502  0.69276013248E+01 -0.11108262958E+03 -0.36295928262E+02  0.20805945463E+03  0.17200000000E+03 0.  1.
</event>
<event>
 4    1  0.5808486E+000  0.1753147E+03  0.7818608E-02  0.1172416E+00
         21   -1    0    0  503  502  0.00000000000E+00  0.00000000000E+00  0.16404377774E+04  0.16404377774E+04  0.00000000000E+00 0.  1.
         21   -1    0    0  501  503 -0.00000000000E+00 -0.00000000000E+00 -0.21026860992E+02  0.21026860992E+02  0.00000000000E+00 0.  1.
          6    1    1    2  501    0  0.29124590778E+02  0.17406514845E+02  0.53550129625E+03  0.56346860324E+03  0.17200000000E+03 0.  1.
         -6    1    1    2    0  502 -0.29124590778E+02 -0.17406514845E+02  0.10839096202E+04  0.10979960352E+04  0.17200000000E+03 0.  1.
</event>
<event>
 4    1  0.5808486E+000  0.2782505E+03  0.7818608E-02  0.1096648E+00
         21   -1    0    0  501  502  0.00000000000E+00  0.00000000000E+00  0.11875864709E+04  0.11875864709E+04  0.00000000000E+00 0.  1.
         21   -1    0    0  502  503 -0.00000000000E+00 -0.00000000000E+00 -0.14122109397E+03  0.14122109397E+03  0.00000000000E+00 0. -1.
          6    1    1    2  501    0 -0.20853533775E+03 -0.65972344198E+02  0.10106740529E+04  0.10482773385E+04  0.17200000000E+03 0.  1.
         -6    1    1    2    0  503  0.20853533775E+03  0.65972344198E+02  0.35691324076E+02  0.28053022637E+03  0.17200000000E+03 0. -1.
</event>
<event>
 4    1  0.5808486E+000  0.1839766E+03  0.7818608E-02  0.1164009E+00
         21   -1    0    0  503  502  0.00000000000E+00  0.00000000000E+00  0.27209683029E+03  0.27209683029E+03  0.00000000000E+00 0. -1.
         21   -1    0    0  501  503 -0.00000000000E+00 -0.00000000000E+00 -0.14841846007E+03  0.14841846007E+03  0.00000000000E+00 0. -1.
          6    1    1    2  501    0  0.63142627994E+02 -0.16625767370E+02 -0.22752600501E+02  0.18537823076E+03  0.17200000000E+03 0. -1.
         -6    1    1    2    0  502 -0.63142627994E+02  0.16625767370E+02  0.14643097072E+03  0.23513705960E+03  0.17200000000E+03 0. -1.
</event>
<event>
 4    1  0.5808486E+000  0.1888942E+03  0.7818608E-02  0.1159463E+00
         21   -1    0    0  503  502  0.00000000000E+00  0.00000000000E+00  0.21910473542E+03  0.21910473542E+03  0.00000000000E+00 0.  1.
         21   -1    0    0  501  503 -0.00000000000E+00 -0.00000000000E+00 -0.22013302449E+03  0.22013302449E+03  0.00000000000E+00 0.  1.
          6    1    1    2  501    0 -0.24451923720E+02  0.74155989990E+02 -0.11254650349E+03  0.21988115625E+03  0.17200000000E+03 0.  1.
         -6    1    1    2    0  502  0.24451923720E+02 -0.74155989990E+02  0.11151821442E+03  0.21935660367E+03  0.17200000000E+03 0.  1.
</event>
<event>
 4    1  0.5808486E+000  0.2313124E+03  0.7818608E-02  0.1125719E+00
         21   -1    0    0  503  502  0.00000000000E+00  0.00000000000E+00  0.12827249526E+04  0.12827249526E+04  0.00000000000E+00 0. -1.
         21   -1    0    0  501  503 -0.00000000000E+00 -0.00000000000E+00 -0.95868477332E+02  0.95868477332E+02  0.00000000000E+00 0.  1.
          6    1    1    2  501    0 -0.14212136801E+03 -0.61015894016E+02  0.75353698452E+02  0.24327680210E+03  0.17200000000E+03 0.  1.
         -6    1    1    2    0  502  0.14212136801E+03  0.61015894016E+02  0.11115027768E+04  0.11353166278E+04  0.17200000000E+03 0. -1.
</event>
<event>
 4    1  0.5808486E+000  0.1767307E+03  0.7818608E-02  0.1171005E+00
         21   -1    0    0  501  502  0.00000000000E+00  0.00000000000E+00  0.70575195674E+03  0.70575195674E+03  0.00000000000E+00 0. -1.
         21   -1    0    0  502  503 -0.00000000000E+00 -0.00000000000E+00 -0.45392025601E+02  0.45392025601E+02  0.00000000000E+00 0. -1.
          6    1    1    2  501    0 -0.41647201449E+01 -0.40402858409E+02  0.27076393533E+03  0.32333704479E+03  0.17200000000E+03 0. -1.
         -6    1    1    2    0  503  0.41647201449E+01  0.40402858409E+02  0.38959599582E+03  0.42780693755E+03  0.17200000000E+03 0. -1.
</event>
<event>
 4    1  0.5808486E+000  0.2845689E+03  0.7818608E-02  0.1093219E+00
         21   -1    0    0  501  502  0.00000000000E+00  0.00000000000E+00  0.16776360623E+03  0.16776360623E+03  0.00000000000E+00 0. -1.
         21   -1    0    0  502  503 -0.00000000000E+00 -0.00000000000E+00 -0.54707706915E+03  0.54707706915E+03  0.00000000000E+00 0.  1.
          6    1    1    2  501    0 -0.46675060900E+02 -0.22184883163E+03 -0.67048068980E+02  0.29236092242E+03  0.17200000000E+03 0. -1.
         -6    1    1    2    0  503  0.46675060900E+02  0.22184883163E+03 -0.31226539394E+03  0.42247975296E+03  0.17200000000E+03 0.  1.
</event>
<event>
 4    1  0.5808486E+000  0.1800223E+03  0.7818608E-02  0.1167781E+00
         21   -1    0    0  503  502  0.00000000000E+00  0.00000000000E+00  0.70184899151E+03  0.70184899151E+03  0.00000000000E+00 0. -1.
         21   -1    0    0  501  503 -0.00000000000E+00 -0.00000000000E+00 -0.46779190632E+02  0.46779190632E+02  0.00000000000E+00 0. -1.
          6    1    1    2  501    0  0.52511686448E+02 -0.81588290427E+01  0.28500331921E+03  0.33709781320E+03  0.17200000000E+03 0.  1.
         -6    1    1    2    0  502 -0.52511686448E+02  0.81588290427E+01  0.37006648167E+03  0.41153036894E+03  0.17200000000E+03 0.  1.
</event>
<event>
 4    1  0.5808486E+000  0.2315101E+03  0.7818608E-02  0.1125581E+00
         21   -1    0    0  501  502  0.00000000000E+00  0.00000000000E+00  0.14184760882E+03  0.14184760882E+03  0.00000000000E+00 0. -1.
         21   -1    0    0  502  503 -0.00000000000E+00 -0.00000000000E+00 -0.63318534544E+03  0.63318534544E+03  0.00000000000E+00 0. -1.
          6    1    1    2  501    0 -0.15223967583E+03  0.28913984098E+02  0.41395647072E+00  0.23151049379E+03  0.17200000000E+03 0. -1.
         -6    1    1    2    0  503  0.15223967583E+03 -0.28913984098E+02 -0.49175169309E+03  0.54352246047E+03  0.17200000000E+03 0. -1.
</event>
<event>
 4    1  0.5808486E+000  0.1941744E+03  0.7818608E-02  0.1154749E+00
         21   -1    0    0  501  502  0.00000000000E+00  0.00000000000E+00  0.40908774760E+02  0.40908774760E+02  0.00000000000E+00 0. -1.
         21   -1    0    0  502  503 -0.00000000000E+00 -0.00000000000E+00 -0.11148151325E+04  0.11148151325E+04  0.00000000000E+00 0. -1.
          6    1    1    2  501    0 -0.84542229094E+02 -0.31181682876E+02 -0.29641505423E+03  0.35435232498E+03  0.17200000000E+03 0. -1.
         -6    1    1    2    0  503  0.84542229094E+02  0.31181682876E+02 -0.77749130356E+03  0.80137158232E+03  0.17200000000E+03 0. -1.
</event>
<event>
 4    1  0.5808486E+000  0.3018664E+03  0.7818608E-02  0.1084311E+00
         21   -1    0    0  503  502  0.00000000000E+00  0.00000000000E+00  0.28456013303E+03  0.28456013303E+03  0.00000000000E+00 0.  1.
         21   -1    0    0  501  503 -0.00000000000E+00 -0.00000000000E+00 -0.33021578452E+03  0.33021578452E+03  0.00000000000E+00 0. -1.
          6    1    1    2  501    0 -0.38842686920E+02  0.24501138786E+03 -0.76294441802E+02  0.31135859770E+03  0.17200000000E+03 0. -1.
         -6    1    1    2    0  502  0.38842686920E+02 -0.24501138786E+03  0.30638790312E+02  0.30341731984E+03  0.17200000000E+03 0.  1.
</event>
<event>
 4    1  0.5808486E+000  0.2210537E+03  0.7818608E-02  0.1133100E+00
         21   -1    0    0  501  502  0.00000000000E+00  0.00000000000E+00  0.18893706793E+04  0.18893706793E+04  0.00000000000E+00 0.  1.
         21   -1    0    0  502  503 -0.00000000000E+00 -0.00000000000E+00 -0.63390554339E+02  0.63390554339E+02  0.00000000000E+00 0.  1.
          6    1    1    2  501    0 -0.87348078855E+02  0.10794003544E+03  0.16642360689E+04  0.16788527128E+04  0.17200000000E+03 0.  1.
         -6    1    1    2    0  503  0.87348078855E+02 -0.10794003544E+03  0.16174405604E+03  0.27390852085E+03  0.17200000000E+03 0.  1.
</event>
<event>
 4    1  0.5808486E+000  0.2799054E+03  0.7818608E-02  0.1095741E+00
         21   -1    0    0  503  502  0.00000000000E+00  0.00000000000E+00  0.69041628100E+03  0.69041628100E+03  0.00000000000E+00 0. -1.
         21   -1    0    0  501  503 -0.00000000000E+00 -0.00000000000E+00 -0.14163893904E+03  0.14163893904E+03  0.00000000000E+00 0. -1.
          6    1    1    2  501    0 -0.64760661906E+02  0.21111387576E+03  0.88883973727E+02  0.29367902999E+03  0.17200000000E+03 0. -1.
         -6    1    1    2    0  502  0.64760661906E+02 -0.21111387576E+03  0.45989336823E+03  0.53837619005E+03  0.17200000000E+03 0. -1.
</event>
<event>
 4    1  0.5808486E+000  0.2248126E+03  0.7818608E-02  0.1130345E+00
         21   -1    0    0  503  502  0.00000000000E+00  0.00000000000E+00  0.14057864798E+03  0.14057864798E+03  0.00000000000E+00 0. -1.
         21   -1    0    0  501  503 -0.00000000000E+00 -0.00000000000E+00 -0.89260546122E+03  0.89260546122E+03  0.00000000000E+00 0. -1.
          6    1    1    2  501    0 -0.10665681840E+03  0.97882815872E+02 -0.77523745916E+03  0.80717646190E+03  0.17200000000E+03 0. -1.
         -6    1    1    2    0  502  0.10665681840E+03 -0.97882815872E+02  0.23210645931E+02  0.22600764730E+03  0.17200000000E+03 0. -1.
</event>
<event>
 4    1  0.5808486E+000  0.2020922E+03  0.7818608E-02  0.1147986E+00
         21   -1    0    0  503  502  0.00000000000E+00  0.00000000000E+00  0.47869233260E+03  0.47869233260E+03  0.00000000000E+00 0. -1.
         21   -1    0    0  501  503 -0.00000000000E+00 -0.00000000000E+00 -0.93948501489E+02  0.93948501489E+02  0.00000000000E+00 0.  1.
          6    1    1    2  501    0 -0.66998223719E+02 -0.82270846850E+02  0.10559267403E+03  0.22801549735E+03  0.17200000000E+03 0.  1.
         -6    1    1    2    0  502  0.66998223719E+02  0.82270846850E+02  0.27915115708E+03  0.34462533674E+03  0.17200000000E+03 0. -1.
</event>
<event>
 4    1  0.5808486E+000  0.2722420E+03  0.7818608E-02  0.1100003E+00
         21   -1    0    0  501  502  0.00000000000E+00  0.00000000000E+00  0.35800147021E+03  0.35800147021E+03  0.00000000000E+00 0.  1.
         21   -1    0    0  502  503 -0.00000000000E+00 -0.00000000000E+00 -0.29064464150E+03  0.29064464150E+03  0.00000000000E+00 0.  1.
          6    1    1    2  501    0  0.12134839564E+03 -0.17264491738E+03  0.20763768447E+03  0.34238736634E+03  0.17200000000E+03 0.  1.
         -6    1    1    2    0  503 -0.12134839564E+03  0.17264491738E+03 -0.14028085575E+03  0.30625874536E+03  0.17200000000E+03 0.  1.
</event>
<event>
 4    1  0.5808486E+000  0.3003895E+03  0.7818608E-02  0.1085046E+00
         21   -1    0    0  501  502  0.00000000000E+00  0.00000000000E+00  0.20643709254E+03  0.20643709254E+03  0.00000000000E+00 0.  1.
         21   -1    0    0  502  503 -0.00000000000E+00 -0.00000000000E+00 -0.46366967659E+03  0.46366967659E+03  0.00000000000E+00 0.  1.
          6    1    1    2  501    0  0.14333591112E+03  0.20026150272E+03 -0.48412502535E+02  0.30426571166E+03  0.17200000000E+03 0.  1.
         -6    1    1    2    0  503 -0.14333591112E+03 -0.20026150272E+03 -0.20882008152E+03  0.36584105747E+03  0.17200000000E+03 0.  1.
</event>
<event>
 4    1  0.5808486E+000  0.3052869E+03  0.7818608E-02  0.1082627E+00
         21   -1    0    0  503  502  0.00000000000E+00  0.00000000000E+00  0.10849147204E+04  0.10849147204E+04  0.00000000000E+00 0. -1.
         21   -1    0    0  501  503 -0.00000000000E+00 -0.00000000000E+00 -0.55513661586E+03  0.55513661586E+03  0.00000000000E+00 0.  1.
          6    1    1    2  501    0 -0.14501046273E+02  0.25180508258E+03 -0.48902343712E+03  0.57649284645E+03  0.17200000000E+03 0.  1.
         -6    1    1    2    0  502  0.14501046273E+02 -0.25180508258E+03  0.10188015417E+04  0.10635584898E+04  0.17200000000E+03 0. -1.
</event>
<event>
 4    1  0.5808486E+000  0.1854612E+03  0.7818608E-02  0.1162620E+00
         21   -1    0    0  501  502  0.00000000000E+00  0.00000000000E+00  0.17259570754E+03  0.17259570754E+03  0.00000000000E+00 0. -1.
         21   -1    0    0  502  503 -0.00000000000E+00 -0.00000000000E+00 -0.22116540313E+03  0.22116540313E+03  0.00000000000E+00 0.  1.
          6    1    1    2  501    0  0.68120532885E+02 -0.13093405916E+02  0.37640098580E+02  0.18924222917E+03  0.17200000000E+03 0. -1.
         -6    1    1    2    0  503 -0.68120532885E+02  0.13093405916E+02 -0.86209794174E+02  0.20451888150E+03  0.17200000000E+03 0.  1.
</event>
<event>
 4    1  0.5808486E+000  0.1866437E+03  0.7818608E-02  0.1161524E+00
         21   -1    0    0  501  502  0.00000000000E+00  0.00000000000E+00  0.26413010790E+03  0.26413010790E+03  0.00000000000E+00 0. -1.
         21   -1    0    0  502  503 -0.00000000000E+00 -0.00000000000E+00 -0.17456613892E+03  0.17456613892E+03  0.00000000000E+00 0. -1.
          6    1    1    2  501    0  0.36873882440E+01  0.72375797754E+02  0.15323749518E+03  0.24149033700E+03  0.17200000000E+03 0. -1.
         -6    1    1    2    0  503 -0.36873882440E+01 -0.72375797754E+02 -0.63673526205E+02  0.19720590983E+03  0.17200000000E+03 0. -1.
</event>
<event>
 4    1  0.5808486E+000  0.1975409E+03  0.7818608E-02  0.1151830E+00
         21   -1    0    0  503  502  0.00000000000E+00  0.00000000000E+00  0.14591039613E+03  0.14591039613E+03  0.00000000000E+00 0.  1.
         21   -1    0    0  501  503 -0.00000000000E+00 -0.00000000000E+00 -0.37380473697E+03  0.37380473697E+03  0.00000000000E+00 0.  1.
          6    1    1    2  501    0  0.95434043295E+02 -0.18186474242E+02 -0.25256210024E+03  0.32064001456E+03  0.17200000000E+03 0. -1.
         -6    1    1    2    0  502 -0.95434043295E+02  0.18186474242E+02  0.24667759397E+02  0.19907511853E+03  0.17200000000E+03 0. -1.
</event>
<event>
 4    1  0.5808486E+000  0.2458248E+03  0.7818608E-02  0.1115972E+00
         21   -1    0    0  501  502  0.00000000000E+00  0.00000000000E+00  0.20828489671E+03  0.20828489671E+03  0.00000000000E+00 0. -1.
         21   -1    0    0  502  503 -0.00000000000E+00 -0.00000000000E+00 -0.93381222611E+03  0.93381222611E+03  0.00000000000E+00 0. -1.
          6    1    1    2  501    0 -0.18589323413E+02  0.17464328510E+03  0.11134598102E+03  0.26986620289E+03  0.17200000000E+03 0. -1.
         -6    1    1    2    0  503  0.18589323413E+02 -0.17464328510E+03 -0.83687331043E+03  0.87223091993E+03  0.17200000000E+03 0. -1.
</event>
<event>
 4    1  0.5808486E+000  0.2142590E+03  0.7818608E-02  0.1138237E+00
         21   -1    0    0  501  502  0.00000000000E+00  0.00000000000E+00  0.12252260989E+04  0.12252260989E+04  0.00000000000E+00 0. -1.
         21   -1    0    0  502  503 -0.00000000000E+00 -0.00000000000E+00 -0.39973960477E+02  0.39973960477E+02  0.00000000000E+00 0.  1.
          6    1    1    2  501    0 -0.51241640718E+02  0.11703504594E+03  0.43423959507E+03  0.48422198798E+03  0.17200000000E+03 0.  1.
         -6    1    1    2    0  503  0.51241640718E+02 -0.11703504594E+03  0.75101254337E+03  0.78097807141E+03  0.17200000000E+03 0. -1.
</event>
<event>
 4    1  0.5808486E+000  0.2034699E+03  0.7818608E-02  0.1146844E+00
         21   -1    0    0  503  502  0.00000000000E+00  0.00000000000E+00  0.11997599563E+03  0.11997599563E+03  0.00000000000E+00 0. -1.
         21   -1    0    0  501  503 -0.00000000000E+00 -0.00000000000E+00 -0.40423720367E+03  0.40423720367E+03  0.00000000000E+00 0. -1.
          6    1    1    2  501    0 -0.93924676849E+02  0.54718869623E+02 -0.24240820213E+03  0.31648338989E+03  0.17200000000E+03 0. -1.
         -6    1    1    2    0  502  0.93924676849E+02 -0.54718869623E+02 -0.41853005917E+02  0.20772980941E+03  0.17200000000E+03 0. -1.
</event>
<event>
 4    1  0.5808486E+000  0.2355456E+03  0.7818608E-02  0.1122796E+00
         21   -1    0    0  503  502  0.00000000000E+00  0.00000000000E+00  0.57109727684E+03  0.57109727684E+03  0.00000000000E+00 0.  1.
         21   -1    0    0  501  503 -0.00000000000E+00 -0.00000000000E+00 -0.17626526910E+03  0.17626526910E+03  0.00000000000E+00 0. -1.
          6    1    1    2  501    0 -0.92720459340E+02  0.13153183179E+03 -0.52935386904E+02  0.24142050770E+03  0.17200000000E+03 0. -1.
         -6    1    1    2    0  502  0.92720459340E+02 -0.13153183179E+03  0.44776739464E+03  0.50594203824E+03  0.17200000000E+03 0.  1.
</event>
<event>
 4    1  0.5808486E+000  0.2155389E+03  0.7818608E-02  0.1137253E+00
         21   -1    0    0  501  502  0.00000000000E+00  0.00000000000E+00  0.40599742325E+03  0.40599742325E+03  0.00000000000E+00 0. -1.
         21   -1    0    0  502  503 -0.00000000000E+00 -0.00000000000E+00 -0.54312071056E+03  0.54312071056E+03  0.00000000000E+00 0. -1.
          6    1    1    2  501    0  0.12095551433E+03  0.47358235898E+02  0.35305299818E+03  0.41364653810E+03  0.17200000000E+03 0. -1.
         -6    1    1    2    0  503 -0.12095551433E+03 -0.47358235898E+02 -0.49017628549E+03  0.53547159571E+03  0.17200000000E+03 0. -1.
</event>
<event>
 4    1  0.5808486E+000  0.1802507E+03  0.7818608E-02  0.1167561E+00
         21   -1    0    0  503  502  0.00000000000E+00  0.00000000000E+00  0.14060726567E+03  0.14060726567E+03  0.00000000000E+00 0.  1.
         21   -1    0    0  501  503 -0.00000000000E+00 -0.00000000000E+00 -0.23408621251E+03  0.23408621251E+03  0.00000000000E+00 0.  1.
          6    1    1    2  501    0  0.32353190423E+02  0.43123024951E+02 -0.68000540329E+02  0.19265097378E+03  0.17200000000E+03 0.  1.
         -6    1    1    2    0  502 -0.32353190423E+02 -0.43123024951E+02 -0.25478406517E+02  0.18204250441E+03  0.17200000000E+03 0.  1.
</event>
<event>
 4    1  0.5808486E+000  0.2271604E+03  0.7818608E-02  0.1128655E+00
         21   -1    0    0  501  502  0.00000000000E+00  0.00000000000E+00  0.31408805305E+02  0.31408805305E+02  0.00000000000E+00 0. -1.
         21   -1    0    0  502  503 -0.00000000000E+00 -0.00000000000E+00 -0.19114183196E+04  0.19114183196E+04  0.00000000000E+00 0. -1.
          6    1    1    2  501    0  0.12475026409E+03 -0.80344290070E+02 -0.57591761345E+03  0.61909848233E+03  0.17200000000E+03 0. -1.
         -6    1    1    2    0  503 -0.12475026409E+03  0.80344290070E+02 -0.13040919008E+04  0.13237286426E+04  0.17200000000E+03 0. -1.
</event>
<event>
 4    1  0.5808486E+000  0.1834466E+03  0.7818608E-02  0.1164508E+00
         21   -1    0    0  501  502  0.00000000000E+00  0.00000000000E+00  0.35211259277E+03  0.35211259277E+03  0.00000000000E+00 0. -1.
         21   -1    0    0  502  503 -0.00000000000E+00 -0.00000000000E+00 -0.17948041991E+03  0.17948041991E+03  0.00000000000E+00 0. -1.
          6    1    1    2  501    0  0.38628960437E+02  0.50758980545E+02  0.26805140704E+03  0.32481414302E+03  0.17200000000E+03 0. -1.
         -6    1    1    2    0  503 -0.38628960437E+02 -0.50758980545E+02 -0.95419234179E+02  0.20677886967E+03  0.17200000000E+03 0. -1.
</event>
<event>
 4    1  0.5808486E+000  0.1723995E+03  0.7818608E-02  0.1175368E+00
         21   -1    0    0  503  502  0.00000000000E+00  0.00000000000E+00  0.45825271647E+02  0.45825271647E+02  0.00000000000E+00 0.  1.
         21   -1    0    0  501  503 -0.00000000000E+00 -0.00000000000E+00 -0.79107660579E+03  0.79107660579E+03  0.00000000000E+00 0.  1.
          6    1    1    2  501    0  0.11585231253E+02  0.18310865140E+01 -0.55022051394E+03  0.57659707285E+03  0.17200000000E+03 0. -1.
         -6    1    1    2    0  502 -0.11585231253E+02 -0.18310865140E+01 -0.19503082020E+03  0.26030480458E+03  0.17200000000E+03 0. -1.
</event>
<event>
 4    1  0.5808486E+000  0.1960933E+03  0.7818608E-02  0.1153078E+00
         21   -1    0    0  503  502  0.00000000000E+00  0.00000000000E+00  0.26160040410E+03  0.26160040410E+03  0.00000000000E+00 0.  1.
         21   -1    0    0  501  503 -0.00000000000E+00 -0.00000000000E+00 -0.15887800861E+03  0.15887800861E+03  0.00000000000E+00 0.  1.
          6    1    1    2  501    0 -0.52202197785E+02  0.78380487098E+02 -0.61485523349E+01  0.19618964016E+03  0.17200000000E+03 0.  1.
         -6    1    1    2    0  502  0.52202197785E+02 -0.78380487098E+02  0.10887094782E+03  0.22428877255E+03  0.17200000000E+03 0.  1.
</event>
<event>
 4    1  0.5808486E+000  0.1785283E+03  0.7818608E-02  0.1169235E+00
         21   -1    0    0  503  502  0.00000000000E+00  0.00000000000E+00  0.81029221109E+03  0.81029221109E+03  0.00000000000E+00 0.  1.
         21   -1    0    0  501  503 -0.00000000000E+00 -0.00000000000E+00 -0.24969531497E+03  0.24969531497E+03  0.00000000000E+00 0.  1.
          6    1    1    2  501    0 -0.22040433573E+02 -0.42456567149E+02 -0.20616264282E+03  0.27271849241E+03  0.17200000000E+03 0.  1.
         -6    1    1    2    0  502  0.22040433573E+02  0.42456567149E+02  0.76675953893E+03  0.78726903366E+03  0.17200000000E+03 0.  1.
</event>
<event>
 4    1  0.5808486E+000  0.3034737E+03  0.7818608E-02  0.1083517E+00
         21   -1    0    0  503  502  0.00000000000E+00  0.00000000000E+00  0.28069477650E+03  0.28069477650E+03  0.00000000000E+00 0. -1.
         21   -1    0    0  501  503 -0.00000000000E+00 -0.00000000000E+00 -0.35541419058E+03  0.35541419058E+03  0.00000000000E+00 0. -1.
          6    1    1    2  501    0 -0.24883236647E+03 -0.24387055702E+02 -0.12552938915E+03  0.32841117921E+03  0.17200000000E+03 0. -1.
         -6    1    1    2    0  502  0.24883236647E+03  0.24387055702E+02  0.50809975065E+02  0.30769778786E+03  0.17200000000E+03 0. -1.
</event>
<event>
 4    1  0.5808486E+000  0.1968573E+03  0.7818608E-02  0.1152418E+00
         21   -1    0    0  501  502  0.00000000000E+00  0.00000000000E+00  0.16958739467E+03  0.16958739467E+03  0.00000000000E+00 0.  1.
         21   -1    0    0  502  503 -0.00000000000E+00 -0.00000000000E+00 -0.35993766234E+03  0.35993766234E+03  0.00000000000E+00 0.  1.
          6    1    1    2  501    0 -0.94903322062E+02  0.12733671473E+02  0.64811112022E+02  0.20725170004E+03  0.17200000000E+03 0.  1.
         -6    1    1    2    0  503  0.94903322062E+02 -0.12733671473E+02 -0.25516137969E+03  0.32227335697E+03  0.17200000000E+03 0.  1.
</event>
<event>
 4    1  0.5808486E+000  0.2820144E+03  0.7818608E-02  0.1094594E+00
         21   -1    0    0  501  502  0.00000000000E+00  0.00000000000E+00  0.82773693819E+03  0.82773693819E+03  0.00000000000E+00 0. -1.
         21   -1    0    0  502  503 -0.00000000000E+00 -0.00000000000E+00 -0.10164036600E+03  0.10164036600E+03  0.00000000000E+00 0.  1.
          6    1    1    2  501    0 -0.15207045255E+03  0.16377628413E+03  0.47169909929E+03  0.54957450273E+03  0.17200000000E+03 0. -1.
         -6    1    1    2    0  503  0.15207045255E+03 -0.16377628413E+03  0.25439747290E+03  0.37980280146E+03  0.17200000000E+03 0. -1.
</event>
<event>
 4    1  0.5808486E+000  0.2946760E+03  0.7818608E-02  0.1087933E+00
         21   -1    0    0  501  502  0.00000000000E+00  0.00000000000E+00  0.86770974298E+03  0.86770974298E+03  0.00000000000E+00 0. -1.
         21   -1    0    0  502  503 -0.00000000000E+00 -0.00000000000E+00 -0.31274619630E+03  0.31274619630E+03  0.00000000000E+00 0. -1.
          6    1    1    2  501    0  0.22418129281E+03 -0.83622375426E+02  0.76420332225E+03  0.81904863803E+03  0.17200000000E+03 0. -1.
         -6    1    1    2    0  503 -0.22418129281E+03  0.83622375426E+02 -0.20923977557E+03  0.36140730126E+03  0.17200000000E+03 0. -1.
</event>
<event>
 4    1  0.5808486E+000  0.1857184E+03  0.7818608E-02  0.1162381E+00
         21   -1    0    0  503  502  0.00000000000E+00  0.00000000000E+00  0.79865491504E+03  0.79865491504E+03  0.00000000000E+00 0. -1.
         21   -1    0    0  501  503 -0.00000000000E+00 -0.00000000000E+00 -0.50239138468E+02  0.50239138468E+02  0.00000000000E+00 0. -1.
          6    1    1    2  501    0 -0.73638589873E+01  0.69664141813E+02  0.21518114195E+03  0.28424328123E+03  0.17200000000E+03 0. -1.
         -6    1    1    2    0  502  0.73638589873E+01 -0.69664141813E+02  0.53323463462E+03  0.56465077227E+03  0.17200000000E+03 0. -1.
</event>
<event>
 4    1  0.5808486E+000  0.2245810E+03  0.7818608E-02  0.1130513E+00
         21   -1    0    0  503  502  0.00000000000E+00  0.00000000000E+00  0.30293134224E+03  0.30293134224E+03  0.00000000000E+00 0. -1.
         21   -1    0    0  501  503 -0.00000000000E+00 -0.00000000000E+00 -0.17980125161E+03  0.17980125161E+03  0.00000000000E+00 0. -1.
          6    1    1    2  501    0 -0.12973739721E+03 -0.63409953255E+02  0.12722564945E+03  0.25811427757E+03  0.17200000000E+03 0. -1.
         -6    1    1    2    0  502  0.12973739721E+03  0.63409953255E+02 -0.40955588288E+01  0.22461831628E+03  0.17200000000E+03 0. -1.
</event>
<event>
 4    1  0.5808486E+000  0.1852500E+03  0.7818608E-02  0.1162817E+00
         21   -1    0    0  503  502  0.00000000000E+00  0.00000000000E+00  0.13138067370E+03  0.13138067370E+03  0.00000000000E+00 0. -1.
         21   -1    0    0  501  503 -0.00000000000E+00 -0.00000000000E+00 -0.51721380211E+03  0.51721380211E+03  0.00000000000E+00 0. -1.
          6    1    1    2  501    0 -0.63434423204E+02  0.26639186112E+02 -0.42107357375E+03  0.46002231119E+03  0.17200000000E+03 0. -1.
         -6    1    1    2    0  502  0.63434423204E+02 -0.26639186112E+02  0.35240445334E+02  0.18857216462E+03  0.17200000000E+03 0. -1.
</event>
<event>
 4    1  0.5808486E+000  0.1853943E+03  0.7818608E-02  0.1162682E+00
         21   -1    0    0  503  502  0.00000000000E+00  0.00000000000E+00  0.10864126439E+03  0.10864126439E+03  0.00000000000E+00 0.  1.
         21   -1    0    0  501  503 -0.00000000000E+00 -0.00000000000E+00 -0.31707374432E+03  0.31707374432E+03  0.00000000000E+00 0.  1.
          6    1    1    2  501    0  0.62789782419E+02 -0.29059912224E+02 -0.11423126149E+03  0.21776091563E+03  0.17200000000E+03 0. -1.
         -6    1    1    2    0  502 -0.62789782419E+02  0.29059912224E+02 -0.94201218443E+02  0.20795409309E+03  0.17200000000E+03 0. -1.
</event>
<event>
 4    1  0.5808486E+000  0.2024234E+03  0.7818608E-02  0.1147710E+00
         21   -1    0    0  501  502  0.00000000000E+00  0.00000000000E+00  0.70761778588E+03  0.70761778588E+03  0.00000000000E+00 0. -1.
         21   -1    0    0  502  503 -0.00000000000E+00 -0.00000000000E+00 -0.65369490776E+02  0.65369490776E+02  0.00000000000E+00 0. -1.
          6    1    1    2  501    0  0.65711260204E+01 -0.10652723180E+03  0.19052832609E+03  0.27798610371E+03  0.17200000000E+03 0. -1.
         -6    1    1    2    0  503 -0.65711260204E+01  0.10652723180E+03  0.45171996902E+03  0.49500117295E+03  0.17200000000E+03 0. -1.
</event>
<event>
 4    1  0.5808486E+000  0.7652561E+03  0.7818608E-02  0.9611715E-01
         21   -1    0    0  501  502  0.00000000000E+00  0.00000000000E+00  0.21126949955E+04  0.21126949955E+04  0.00000000000E+00 0. -1.
         21   -1    0    0  502  503 -0.00000000000E+00 -0.00000000000E+00 -0.28169656828E+03  0.28169656828E+03  0.00000000000E+00 0. -1.
          6    1    1    2  501    0  0.70731301842E+03 -0.23609583969E+03  0.76406653764E+03  0.10813947593E+04  0.17200000000E+03 0. -1.
         -6    1    1    2    0  503 -0.70731301842E+03  0.23609583969E+03  0.10669318896E+04  0.13129968045E+04  0.17200000000E+03 0. -1.
</event>
<event>
 4    1  0.5808486E+000  0.2128812E+03  0.7818608E-02  0.1139304E+00
         21   -1    0    0  501  502  0.00000000000E+00  0.00000000000E+00  0.56108678073E+03  0.56108678073E+03  0.00000000000E+00 0.  1.
         21   -1    0    0  502  503 -0.00000000000E+00 -0.00000000000E+00 -0.83738571981E+02  0.83738571981E+02  0.00000000000E+00 0.  1.
          6    1    1    2  501    0 -0.97033534326E+02  0.79491475593E+02  0.29938944566E+03  0.36735873700E+03  0.17200000000E+03 0.  1.
         -6    1    1    2    0  503  0.97033534326E+02 -0.79491475593E+02  0.17795876309E+03  0.27746661571E+03  0.17200000000E+03 0.  1.
</event>
<event>
 4    1  0.5808486E+000  0.2412795E+03  0.7818608E-02  0.1118943E+00
         21   -1    0    0  501  502  0.00000000000E+00  0.00000000000E+00  0.23151796662E+03  0.23151796662E+03  0.00000000000E+00 0. -1.
         21   -1    0    0  502  503 -0.00000000000E+00 -0.00000000000E+00 -0.26623262477E+03  0.26623262477E+03  0.00000000000E+00 0.  1.
          6    1    1    2  501    0 -0.11013874667E+03  0.12845729328E+03 -0.75996408341E+02  0.25296496555E+03  0.17200000000E+03 0. -1.
         -6    1    1    2    0  503  0.11013874667E+03 -0.12845729328E+03  0.41281750197E+02  0.24478562584E+03  0.17200000000E+03 0.  1.
</event>
<event>
 4    1  0.5808486E+000  0.2195337E+03  0.7818608E-02  0.1134231E+00
         21   -1    0    0  501  502  0.00000000000E+00  0.00000000000E+00  0.40898194258E+03  0.40898194258E+03  0.00000000000E+00 0. -1.
         21   -1    0    0  502  503 -0.00000000000E+00 -0.00000000000E+00 -0.25815295000E+03  0.25815295000E+03  0.00000000000E+00 0. -1.
          6    1    1    2  501    0  0.11960974376E+03 -0.65609181001E+02  0.32133324087E+03  0.38916591208E+03  0.17200000000E+03 0. -1.
         -6    1    1    2    0  503 -0.11960974376E+03  0.65609181001E+02 -0.17050424830E+03  0.27796898050E+03  0.17200000000E+03 0. -1.
</event>
<event>
 4    1  0.5808486E+000  0.1910274E+03  0.7818608E-02  0.1157538E+00
         21   -1    0    0  501  502  0.00000000000E+00  0.00000000000E+00  0.11964452986E+04  0.11964452986E+04  0.00000000000E+00 0.  1.
         21   -1    0    0  502  503 -0.00000000000E+00 -0.00000000000E+00 -0.31356303262E+02  0.31356303262E+02  0.00000000000E+00 0.  1.
          6    1    1    2  501    0 -0.79113355847E+02  0.25466247363E+02  0.68400029412E+03  0.71017452446E+03  0.17200000000E+03 0.  1.
         -6    1    1    2    0  503  0.79113355847E+02 -0.25466247363E+02  0.48108870126E+03  0.51762707745E+03  0.17200000000E+03 0.  1.
</event>
<event>
 4    1  0.5808486E+000  0.1816334E+03  0.7818608E-02  0.1166232E+00
         21   -1    0    0  501  502  0.00000000000E+00  0.00000000000E+00  0.11543637672E+04  0.11543637672E+04  0.00000000000E+00 0.  1.
         21   -1    0    0  502  503 -0.00000000000E+00 -0.00000000000E+00 -0.29030715823E+02  0.29030715823E+02  0.00000000000E+00 0.  1.
          6    1    1    2  501    0 -0.58022432224E+02  0.63308301733E+01  0.63646601680E+03  0.66187587401E+03  0.17200000000E+03 0.  1.
         -6    1    1    2    0  503  0.58022432224E+02 -0.63308301733E+01  0.48886703455E+03  0.52151860899E+03  0.17200000000E+03 0.  1.
</event>
<event>
 4    1  0.5808486E+000  0.1870462E+03  0.7818608E-02  0.1161153E+00
         21   -1    0    0  503  502  0.00000000000E+00  0.00000000000E+00  0.34396300305E+03  0.34396300305E+03  0.00000000000E+00 0. -1.
         21   -1    0    0  501  503 -0.00000000000E+00 -0.00000000000E+00 -0.16675047525E+03  0.16675047525E+03  0.00000000000E+00 0. -1.
          6    1    1    2  501    0 -0.40388629249E+02 -0.61408779260E+02  0.24807962225E+03  0.31069241786E+03  0.17200000000E+03 0. -1.
         -6    1    1    2    0  502  0.40388629249E+02  0.61408779260E+02 -0.70867094446E+02  0.20002106044E+03  0.17200000000E+03 0. -1.
</event>
<event>
 4    1  0.5808486E+000  0.1755583E+03  0.7818608E-02  0.1172172E+00
         21   -1    0    0  501  502  0.00000000000E+00  0.00000000000E+00  0.87253726346E+03  0.87253726346E+03  0.00000000000E+00 0. -1.
         21   -1    0    0  502  503 -0.00000000000E+00 -0.00000000000E+00 -0.47630281002E+02  0.47630281002E+02  0.00000000000E+00 0. -1.
          6    1    1    2  501    0 -0.35006244477E+02 -0.33604934502E+01  0.64632345819E+03  0.66974229572E+03  0.17200000000E+03 0.  1.
         -6    1    1    2    0  503  0.35006244477E+02  0.33604934502E+01  0.17858352427E+03  0.25042524875E+03  0.17200000000E+03 0.  1.
</event>
<event>
 4    1  0.5808486E+000  0.1780452E+03  0.7818608E-02  0.1169708E+00
         21   -1    0    0  501  502  0.00000000000E+00  0.00000000000E+00  0.83183293681E+02  0.83183293681E+02  0.00000000000E+00 0.  1.
         21   -1    0    0  502  503 -0.00000000000E+00 -0.00000000000E+00 -0.75428376280E+03  0.75428376280E+03  0.00000000000E+00 0.  1.
          6    1    1    2  501    0 -0.22572416310E+02  0.40082036965E+02 -0.41013675884E+02  0.18270797814E+03  0.17200000000E+03 0.  1.
         -6    1    1    2    0  503  0.22572416310E+02 -0.40082036965E+02 -0.63008679323E+03  0.65475907834E+03  0.17200000000E+03 0.  1.
</event>
<event>
 4    1  0.5808486E+000  0.1728198E+03  0.7818608E-02  0.1174939E+00
         21   -1    0    0  501  502  0.00000000000E+00  0.00000000000E+00  0.31042714714E+02  0.31042714714E+02  0.00000000000E+00 0. -1.
         21   -1    0    0  502  503 -0.00000000000E+00 -0.00000000000E+00 -0.12164995237E+04  0.12164995237E+04  0.00000000000E+00 0. -1.
          6    1    1    2  501    0  0.15485590967E+02  0.65494523743E+01 -0.30748631688E+03  0.35272444475E+03  0.17200000000E+03 0. -1.
         -6    1    1    2    0  503 -0.15485590967E+02 -0.65494523743E+01 -0.87797049208E+03  0.89481779364E+03  0.17200000000E+03 0. -1.
</event>
<event>
 4    1  0.5808486E+000  0.1824451E+03  0.7818608E-02  0.1165457E+00
         21   -1    0    0  503  502  0.00000000000E+00  0.00000000000E+00  0.84597771247E+02  0.84597771247E+02  0.00000000000E+00 0.  1.
         21   -1    0    0  501  503 -0.00000000000E+00 -0.00000000000E+00 -0.51703281908E+03  0.51703281908E+03  0.00000000000E+00 0. -1.
          6    1    1    2  501    0  0.38202377157E+01 -0.60725848008E+02 -0.36327745721E+03  0.40651781480E+03  0.17200000000E+03 0. -1.
         -6    1    1    2    0  502 -0.38202377157E+01  0.60725848008E+02 -0.69157590620E+02  0.19511277552E+03  0.17200000000E+03 0.  1.
</event>
<event>
 4    1  0.5808486E+000  0.1862471E+03  0.7818608E-02  0.1161890E+00
         21   -1    0    0  503  502  0.00000000000E+00  0.00000000000E+00  0.11015245314E+03  0.11015245314E+03  0.00000000000E+00 0. -1.
         21   -1    0    0  501  503 -0.00000000000E+00 -0.00000000000E+00 -0.55055417157E+03  0.55055417157E+03  0.00000000000E+00 0. -1.
          6    1    1    2  501    0  0.60499391241E+02 -0.37997560281E+02 -0.40743813446E+01  0.18629168396E+03  0.17200000000E+03 0. -1.
         -6    1    1    2    0  502 -0.60499391241E+02  0.37997560281E+02 -0.43632733708E+03  0.47441494075E+03  0.17200000000E+03 0. -1.
</event>
<event>
 4    1  0.5808486E+000  0.2176762E+03  0.7818608E-02  0.1135627E+00
         21   -1    0    0  501  502  0.00000000000E+00  0.00000000000E+00  0.49735891063E+03  0.49735891063E+03  0.00000000000E+00 0. -1.
         21   -1    0    0  502  503 -0.00000000000E+00 -0.00000000000E+00 -0.13945891948E+03  0.13945891948E+03  0.00000000000E+00 0. -1.
          6    1    1    2  501    0 -0.69128953942E+01  0.13323344052E+03  0.35818513783E+03  0.41914142095E+03  0.17200000000E+03 0. -1.
         -6    1    1    2    0  503  0.69128953942E+01 -0.13323344052E+03 -0.28514668425E+00  0.21767640916E+03  0.17200000000E+03 0. -1.
</event>
<event>
 4    1  0.5808486E+000  0.1974191E+03  0.7818608E-02  0.1151935E+00
         21   -1    0    0  503  502  0.00000000000E+00  0.00000000000E+00  0.80215290849E+02  0.80215290849E+02  0.00000000000E+00 0.  1.
         21   -1    0    0  501  503 -0.00000000000E+00 -0.00000000000E+00 -0.67624226172E+03  0.67624226172E+03  0.00000000000E+00 0. -1.
          6    1    1    2  501    0  0.96402504020E+02  0.98416966641E+01 -0.49869337289E+03  0.53634819096E+03  0.17200000000E+03 0.  1.
         -6    1    1    2    0  502 -0.96402504020E+02 -0.98416966641E+01 -0.97333597979E+02  0.22010936161E+03  0.17200000000E+03 0.  1.
</event>
<event>
 4    1  0.5808486E+000  0.1744871E+03  0.7818608E-02  0.1173248E+00
         21   -1    0    0  503  502  0.00000000000E+00  0.00000000000E+00  0.19015151698E+03  0.19015151698E+03  0.00000000000E+00 0.  1.
         21   -1    0    0  501  503 -0.00000000000E+00 -0.00000000000E+00 -0.17598922608E+03  0.17598922608E+03  0.00000000000E+00 0.  1.
          6    1    1    2  501    0  0.16933235371E+02  0.23979598752E+02  0.62066471590E+02  0.18519719899E+03  0.17200000000E+03 0.  1.
         -6    1    1    2    0  502 -0.16933235371E+02 -0.23979598752E+02 -0.47904180692E+02  0.18094354408E+03  0.17200000000E+03 0.  1.
</event>
<event>
 4    1  0.5808486E+000  0.1747187E+03  0.7818608E-02  0.1173014E+00
         21   -1    0    0  503  502  0.00000000000E+00  0.00000000000E+00  0.46419166985E+03  0.46419166985E+03  0.00000000000E+00 0. -1.
         21   -1    0    0  501  503 -0.00000000000E+00 -0.00000000000E+00 -0.75746745949E+02  0.75746745949E+02  0.00000000000E+00 0. -1.
          6    1    1    2  501    0 -0.25623500632E+02  0.16913811273E+02  0.96210560496E+02  0.19945704487E+03  0.17200000000E+03 0. -1.
         -6    1    1    2    0  502  0.25623500632E+02 -0.16913811273E+02  0.29223436340E+03  0.34048137093E+03  0.17200000000E+03 0. -1.
</event>
<event>
 4    1  0.5808486E+000  0.2739092E+03  0.7818608E-02  0.1099063E+00
         21   -1    0    0  501  502  0.00000000000E+00  0.00000000000E+00  0.84689071918E+02  0.84689071918E+02  0.00000000000E+00 0.  1.
         21   -1    0    0  502  503 -0.00000000000E+00 -0.00000000000E+00 -0.10683869964E+04  0.10683869964E+04  0.00000000000E+00 0. -1.
          6    1    1    2  501    0 -0.12546903671E+03 -0.17233622698E+03 -0.25357491564E+03  0.37326464090E+03  0.17200000000E+03 0.  1.
         -6    1    1    2    0  503  0.12546903671E+03  0.17233622698E+03 -0.73012300888E+03  0.77981142746E+03  0.17200000000E+03 0. -1.
</event>
<event>
 4    1  0.5808486E+000  0.1722060E+03  0.7818608E-02  0.1175567E+00
         21   -1    0    0  501  502  0.00000000000E+00  0.00000000000E+00  0.12338764348E+03  0.12338764348E+03  0.00000000000E+00 0.  1.
         21   -1    0    0  502  503 -0.00000000000E+00 -0.00000000000E+00 -0.28866453910E+03  0.28866453910E+03  0.00000000000E+00 0.  1.
          6    1    1    2  501    0 -0.76330360297E+01  0.35570648740E+01 -0.16693541013E+03  0.23983816857E+03  0.17200000000E+03 0. -1.
         -6    1    1    2    0  503  0.76330360297E+01 -0.35570648740E+01  0.16585145153E+01  0.17221401401E+03  0.17200000000E+03 0. -1.
</event>
<event>
 4    1  0.5808486E+000  0.2007864E+03  0.7818608E-02  0.1149077E+00
         21   -1    0    0  503  502  0.00000000000E+00  0.00000000000E+00  0.94832387035E+02  0.94832387035E+02  0.00000000000E+00 0. -1.
         21   -1    0    0  501  503 -0.00000000000E+00 -0.00000000000E+00 -0.51968490295E+03  0.51968490295E+03  0.00000000000E+00 0. -1.
          6    1    1    2  501    0 -0.94635912704E+02  0.42133471191E+02 -0.81357839594E+02  0.21664321691E+03  0.17200000000E+03 0. -1.
         -6    1    1    2    0  502  0.94635912704E+02 -0.42133471191E+02 -0.34349467633E+03  0.39787407308E+03  0.17200000000E+03 0. -1.
</event>
<event>
 4    1  0.5808486E+000  0.2594702E+03  0.7818608E-02  0.1107462E+00
         21   -1    0    0  501  502  0.00000000000E+00  0.00000000000E+00  0.36888530469E+03  0.36888530469E+03  0.00000000000E+00 0. -1.
         21   -1    0    0  502  503 -0.00000000000E+00 -0.00000000000E+00 -0.19472003368E+03  0.19472003368E+03  0.00000000000E+00 0.  1.
          6    1    1    2  501    0  0.17789646565E+03 -0.78061655290E+02  0.15765285578E+03  0.30361027231E+03  0.17200000000E+03 0. -1.
         -6    1    1    2    0  503 -0.17789646565E+03  0.78061655290E+02  0.16512415224E+02  0.25999506606E+03  0.17200000000E+03 0.  1.
</event>
<event>
 4    1  0.5808486E+000  0.1791226E+03  0.7818608E-02  0.1168655E+00
         21   -1    0    0  503  502  0.00000000000E+00  0.00000000000E+00  0.26339448504E+03  0.26339448504E+03  0.00000000000E+00 0. -1.
         21   -1    0    0  501  503 -0.00000000000E+00 -0.00000000000E+00 -0.12989117676E+03  0.12989117676E+03  0.00000000000E+00 0. -1.
          6    1    1    2  501    0 -0.37899474957E+02  0.32627377050E+02  0.17712776072E+02  0.17999627322E+03  0.17200000000E+03 0. -1.
         -6    1    1    2    0  502  0.37899474957E+02 -0.32627377050E+02  0.11579053221E+03  0.21328938859E+03  0.17200000000E+03 0. -1.
</event>
<event>
 4    1  0.5808486E+000  0.2137014E+03  0.7818608E-02  0.1138668E+00
         21   -1    0    0  501  502  0.00000000000E+00  0.00000000000E+00  0.17025275375E+03  0.17025275375E+03  0.00000000000E+00 0.  1.
         21   -1    0    0  502  503 -0.00000000000E+00 -0.00000000000E+00 -0.42709712724E+03  0.42709712724E+03  0.00000000000E+00 0.  1.
          6    1    1    2  501    0  0.12438726270E+03  0.24740621663E+02  0.53732896557E+02  0.22035315667E+03  0.17200000000E+03 0.  1.
         -6    1    1    2    0  503 -0.12438726270E+03 -0.24740621663E+02 -0.31057727005E+03  0.37699672432E+03  0.17200000000E+03 0.  1.
</event>
<event>
 4    1  0.5808486E+000  0.1900832E+03  0.7818608E-02  0.1158386E+00
         21   -1    0    0  503  502  0.00000000000E+00  0.00000000000E+00  0.67754232448E+02  0.67754232448E+02  0.00000000000E+00 0. -1.
         21   -1    0    0  501  503 -0.00000000000E+00 -0.00000000000E+00 -0.53390097808E+03  0.53390097808E+03  0.00000000000E+00 0. -1.
          6    1    1    2  501    0  0.41807252521E+01 -0.80809275909E+02 -0.22277014702E+03  0.29284493497E+03  0.17200000000E+03 0. -1.
         -6    1    1    2    0  502 -0.41807252521E+01  0.80809275909E+02 -0.24337659861E+03  0.30881027556E+03  0.17200000000E+03 0. -1.
</event>
<event>
 4    1  0.5808486E+000  0.3281015E+03  0.7818608E-02  0.1071980E+00
         21   -1    0    0  501  502  0.00000000000E+00  0.00000000000E+00  0.19579509495E+04  0.19579509495E+04  0.00000000000E+00 0. -1.
         21   -1    0    0  502  503 -0.00000000000E+00 -0.00000000000E+00 -0.40788010934E+03  0.40788010934E+03  0.00000000000E+00 0.  1.
          6    1    1    2  501    0 -0.25718941019E+03  0.10917959984E+03  0.18753391904E+04  0.19038244816E+04  0.17200000000E+03 0. -1.
         -6    1    1    2    0  503  0.25718941019E+03 -0.10917959984E+03 -0.32526835024E+03  0.46200657723E+03  0.17200000000E+03 0.  1.
</event>
<event>
 4    1  0.5808486E+000  0.2055019E+03  0.7818608E-02  0.1145178E+00
         21   -1    0    0  501  502  0.00000000000E+00  0.00000000000E+00  0.41386746219E+03  0.41386746219E+03  0.00000000000E+00 0.  1.
         21   -1    0    0  502  503 -0.00000000000E+00 -0.00000000000E+00 -0.12331398829E+03  0.12331398829E+03  0.00000000000E+00 0. -1.
          6    1    1    2  501    0  0.34500753149E+02  0.10703610440E+03  0.25683697988E+03  0.32893200490E+03  0.17200000000E+03 0.  1.
         -6    1    1    2    0  503 -0.34500753149E+02 -0.10703610440E+03  0.33716494022E+02  0.20824944557E+03  0.17200000000E+03 0. -1.
</event>
<event>
 4    1  0.5808486E+000  0.2112608E+03  0.7818608E-02  0.1140571E+00
         21   -1    0    0  503  502  0.00000000000E+00  0.00000000000E+00  0.12529318890E+03  0.12529318890E+03  0.00000000000E+00 0. -1.
         21   -1    0    0  501  503 -0.00000000000E+00 -0.00000000000E+00 -0.50649500428E+03  0.50649500428E+03  0.00000000000E+00 0. -1.
          6    1    1    2  501    0  0.76826257541E+02 -0.95628698416E+02 -0.18530283390E+02  0.21207190576E+03  0.17200000000E+03 0. -1.
         -6    1    1    2    0  502 -0.76826257541E+02  0.95628698416E+02 -0.36267153199E+03  0.41971628742E+03  0.17200000000E+03 0. -1.
</event>
<event>
 4    1  0.5808486E+000  0.2321403E+03  0.7818608E-02  0.1125142E+00
         21   -1    0    0  501  502  0.00000000000E+00  0.00000000000E+00  0.10569163914E+03  0.10569163914E+03  0.00000000000E+00 0. -1.
         21   -1    0    0  502  503 -0.00000000000E+00 -0.00000000000E+00 -0.53060019778E+03  0.53060019778E+03  0.00000000000E+00 0. -1.
          6    1    1    2  501    0 -0.15567758294E+03  0.83425345678E+01 -0.27533728731E+03  0.36013848655E+03  0.17200000000E+03 0. -1.
         -6    1    1    2    0  503  0.15567758294E+03 -0.83425345678E+01 -0.14957127133E+03  0.27615335037E+03  0.17200000000E+03 0. -1.
</event>
<event>
 4    1  0.5808486E+000  0.1924687E+03  0.7818608E-02  0.1156253E+00
         21   -1    0    0  501  502  0.00000000000E+00  0.00000000000E+00  0.25562314758E+03  0.25562314758E+03  0.00000000000E+00 0.  1.
         21   -1    0    0  502  503 -0.00000000000E+00 -0.00000000000E+00 -0.14562135620E+03  0.14562135620E+03  0.00000000000E+00 0.  1.
          6    1    1    2  501    0 -0.25011037019E+02 -0.82672033717E+02  0.68950738194E+02  0.20444662245E+03  0.17200000000E+03 0.  1.
         -6    1    1    2    0  503  0.25011037019E+02  0.82672033717E+02  0.41051053190E+02  0.19679788134E+03  0.17200000000E+03 0.  1.
</event>
<event>
 4    1  0.5808486E+000  0.1728180E+03  0.7818608E-02  0.1174941E+00
         21   -1    0    0  503  502  0.00000000000E+00  0.00000000000E+00  0.12876069507E+02  0.12876069507E+02  0.00000000000E+00 0.  1.
         21   -1    0    0  501  503 -0.00000000000E+00 -0.00000000000E+00 -0.25882451043E+04  0.25882451043E+04  0.00000000000E+00 0.  1.
          6    1    1    2  501    0 -0.27467164312E+01  0.16568310381E+02 -0.17067650939E+04  0.17154920982E+04  0.17200000000E+03 0.  1.
         -6    1    1    2    0  502  0.27467164312E+01 -0.16568310381E+02 -0.86860394092E+03  0.88562907559E+03  0.17200000000E+03 0.  1.
</event>
<event>
 4    1  0.5808486E+000  0.1883080E+03  0.7818608E-02  0.1159996E+00
         21   -1    0    0  501  502  0.00000000000E+00  0.00000000000E+00  0.61125491489E+02  0.61125491489E+02  0.00000000000E+00 0. -1.
         21   -1    0    0  502  503 -0.00000000000E+00 -0.00000000000E+00 -0.75038488770E+03  0.75038488770E+03  0.00000000000E+00 0. -1.
          6    1    1    2  501    0 -0.43568161993E+02  0.63069133763E+02 -0.15134869242E+03  0.24159123964E+03  0.17200000000E+03 0. -1.
         -6    1    1    2    0  503  0.43568161993E+02 -0.63069133763E+02 -0.53791070378E+03  0.56991913954E+03  0.17200000000E+03 0. -1.
</event>
<event>
 4    1  0.5808486E+000  0.2104418E+03  0.7818608E-02  0.1141217E+00
         21   -1    0    0  503  502  0.00000000000E+00  0.00000000000E+00  0.41125748544E+02  0.41125748544E+02  0.00000000000E+00 0.  1.
         21   -1    0    0  501  503 -0.00000000000E+00 -0.00000000000E+00 -0.11245734835E+04  0.11245734835E+04  0.00000000000E+00 0. -1.
          6    1    1    2  501    0  0.55422277522E+02 -0.10784304723E+03 -0.66180786940E+03  0.69446051557E+03  0.17200000000E+03 0. -1.
         -6    1    1    2    0  502 -0.55422277522E+02  0.10784304723E+03 -0.42163986557E+03  0.47123871649E+03  0.17200000000E+03 0.  1.
</event>
<event>
 4    1  0.5808486E+000  0.2141107E+03  0.7818608E-02  0.1138351E+00
         21   -1    0    0  501  502  0.00000000000E+00  0.00000000000E+00  0.14732826271E+04  0.14732826271E+04  0.00000000000E+00 0. -1.
         21   -1    0    0  502  503 -0.00000000000E+00 -0.00000000000E+00 -0.32150996272E+02  0.32150996272E+02  0.00000000000E+00 0. -1.
          6    1    1    2  501    0  0.10482829481E+03 -0.72597686769E+02  0.85558620001E+03  0.88197003417E+03  0.17200000000E+03 0. -1.
         -6    1    1    2    0  503 -0.10482829481E+03  0.72597686769E+02  0.58554543083E+03  0.62346358922E+03  0.17200000000E+03 0. -1.
</event>
<event>
 4    1  0.5808486E+000  0.3061532E+03  0.7818608E-02  0.1082204E+00
         21   -1    0    0  503  502  0.00000000000E+00  0.00000000000E+00  0.30879679091E+03  0.30879679091E+03  0.00000000000E+00 0.  1.
         21   -1    0    0  501  503 -0.00000000000E+00 -0.00000000000E+00 -0.43528917844E+03  0.43528917844E+03  0.00000000000E+00 0.  1.
          6    1    1    2  501    0  0.24712540395E+03  0.55451272792E+02 -0.26793344147E+03  0.40683920410E+03  0.17200000000E+03 0.  1.
         -6    1    1    2    0  502 -0.24712540395E+03 -0.55451272792E+02  0.14144105394E+03  0.33724676525E+03  0.17200000000E+03 0.  1.
</event>
<event>
 4    1  0.5808486E+000  0.2285338E+03  0.7818608E-02  0.1127676E+00
         21   -1    0    0  501  502  0.00000000000E+00  0.00000000000E+00  0.61391095024E+03  0.61391095024E+03  0.00000000000E+00 0.  1.
         21   -1    0    0  502  503 -0.00000000000E+00 -0.00000000000E+00 -0.11243856341E+03  0.11243856341E+03  0.00000000000E+00 0.  1.
          6    1    1    2  501    0  0.74876808953E+02  0.13052646915E+03  0.42990169864E+03  0.48687079000E+03  0.17200000000E+03 0.  1.
         -6    1    1    2    0  503 -0.74876808953E+02 -0.13052646915E+03  0.71570688196E+02  0.23947872364E+03  0.17200000000E+03 0.  1.
</event>
<event>
 4    1  0.5808486E+000  0.2179287E+03  0.7818608E-02  0.1135437E+00
         21   -1    0    0  503  502  0.00000000000E+00  0.00000000000E+00  0.16901875071E+03  0.16901875071E+03  0.00000000000E+00 0. -1.
         21   -1    0    0  501  503 -0.00000000000E+00 -0.00000000000E+00 -0.11904545159E+04  0.11904545159E+04  0.00000000000E+00 0. -1.
          6    1    1    2  501    0  0.54456664363E+02  0.12224308402E+03 -0.11048413386E+04  0.11261293369E+04  0.17200000000E+03 0. -1.
         -6    1    1    2    0  502 -0.54456664363E+02 -0.12224308402E+03  0.83405573384E+02  0.23334392976E+03  0.17200000000E+03 0. -1.
</event>
<event>
 4    1  0.5808486E+000  0.1804775E+03  0.7818608E-02  0.1167342E+00
         21   -1    0    0  503  502  0.00000000000E+00  0.00000000000E+00  0.62457126004E+03  0.62457126004E+03  0.00000000000E+00 0.  1.
         21   -1    0    0  501  503 -0.00000000000E+00 -0.00000000000E+00 -0.10891515999E+03  0.10891515999E+03  0.00000000000E+00 0.  1.
          6    1    1    2  501    0  0.49706997507E+02 -0.22744896318E+02 -0.69331918527E+01  0.18061058955E+03  0.17200000000E+03 0.  1.
         -6    1    1    2    0  502 -0.49706997507E+02  0.22744896318E+02  0.52258929190E+03  0.55287583047E+03  0.17200000000E+03 0.  1.
</event>
<event>
 4    1  0.5808486E+000  0.1832555E+03  0.7818608E-02  0.1164689E+00
         21   -1    0    0  503  502  0.00000000000E+00  0.00000000000E+00  0.34653865968E+03  0.34653865968E+03  0.00000000000E+00 0. -1.
         21   -1    0    0  501  503 -0.00000000000E+00 -0.00000000000E+00 -0.25434376444E+03  0.25434376444E+03  0.00000000000E+00 0. -1.
          6    1    1    2  501    0 -0.40268381116E+02  0.48754713005E+02 -0.19027664569E+03  0.26417374293E+03  0.17200000000E+03 0. -1.
         -6    1    1    2    0  502  0.40268381116E+02 -0.48754713005E+02  0.28247154093E+03  0.33670868120E+03  0.17200000000E+03 0. -1.
</event>
<event>
 4    1  0.5808486E+000  0.2099684E+03  0.7818608E-02  0.1141591E+00
         21   -1    0    0  501  502  0.00000000000E+00  0.00000000000E+00  0.27706249182E+04  0.27706249182E+04  0.00000000000E+00 0. -1.
         21   -1    0    0  502  503 -0.00000000000E+00 -0.00000000000E+00 -0.26995368628E+02  0.26995368628E+02  0.00000000000E+00 0. -1.
          6    1    1    2  501    0  0.69519143746E-01 -0.12042719352E+03  0.22681000929E+04  0.22777982231E+04  0.17200000000E+03 0. -1.
         -6    1    1    2    0  503 -0.69519143746E-01  0.12042719352E+03  0.47552945669E+03  0.51982206374E+03  0.17200000000E+03 0. -1.
</event>
<event>
 4    1  0.5808486E+000  0.1989773E+03  0.7818608E-02  0.1150605E+00
         21   -1    0    0  501  502  0.00000000000E+00  0.00000000000E+00  0.11429772475E+04  0.11429772475E+04  0.00000000000E+00 0. -1.
         21   -1    0    0  502  503 -0.00000000000E+00 -0.00000000000E+00 -0.15055664306E+03  0.15055664306E+03  0.00000000000E+00 0. -1.
          6    1    1    2  501    0  0.98755971115E+02  0.15975211735E+02  0.10637183638E+04  0.10821685204E+04  0.17200000000E+03 0. -1.
         -6    1    1    2    0  503 -0.98755971115E+02 -0.15975211735E+02 -0.71297759292E+02  0.21136537016E+03  0.17200000000E+03 0. -1.
</event>
<event>
 4    1  0.5808486E+000  0.1731725E+03  0.7818608E-02  0.1174579E+00
         21   -1    0    0  503  502  0.00000000000E+00  0.00000000000E+00  0.13773043092E+03  0.13773043092E+03  0.00000000000E+00 0.  1.
         21   -1    0    0  501  503 -0.00000000000E+00 -0.00000000000E+00 -0.22125607550E+03  0.22125607550E+03  0.00000000000E+00 0.  1.
          6    1    1    2  501    0 -0.20085356114E+02 -0.11339252129E+01 -0.64406697840E+02  0.18476181977E+03  0.17200000000E+03 0.  1.
         -6    1    1    2    0  502  0.20085356114E+02  0.11339252129E+01 -0.19118946740E+02  0.17422468666E+03  0.17200000000E+03 0.  1.
</event>
<event>
 4    1  0.5808486E+000  0.2205531E+03  0.7818608E-02  0.1133471E+00
         21   -1    0    0  501  502  0.00000000000E+00  0.00000000000E+00  0.50934313776E+03  0.50934313776E+03  0.00000000000E+00 0.  1.
         21   -1    0    0  502  503 -0.00000000000E+00 -0.00000000000E+00 -0.11360851914E+03  0.11360851914E+03  0.00000000000E+00 0. -1.
          6    1    1    2  501    0 -0.91549448137E+02  0.10333627913E+03  0.32221192169E+03  0.39046665737E+03  0.17200000000E+03 0. -1.
         -6    1    1    2    0  503  0.91549448137E+02 -0.10333627913E+03  0.73522696932E+02  0.23248499952E+03  0.17200000000E+03 0. -1.
</event>
<event>
 4    1  0.5808486E+000  0.1776271E+03  0.7818608E-02  0.1170119E+00
         21   -1    0    0  501  502  0.00000000000E+00  0.00000000000E+00  0.27816614714E+03  0.27816614714E+03  0.00000000000E+00 0.  1.
         21   -1    0    0  502  503 -0.00000000000E+00 -0.00000000000E+00 -0.14380370089E+03  0.14380370089E+03  0.00000000000E+00 0.  1.
          6    1    1    2  501    0  0.18521086066E+02 -0.40303314886E+02  0.16415200622E+03  0.24186208667E+03  0.17200000000E+03 0.  1.
         -6    1    1    2    0  503 -0.18521086066E+02  0.40303314886E+02 -0.29789559978E+02  0.18010776136E+03  0.17200000000E+03 0.  1.
</event>
<event>
 4    1  0.5808486E+000  0.1839226E+03  0.7818608E-02  0.1164060E+00
         21   -1    0    0  503  502  0.00000000000E+00  0.00000000000E+00  0.38499309170E+03  0.38499309170E+03  0.00000000000E+00 0. -1.
         21   -1    0    0  501  503 -0.00000000000E+00 -0.00000000000E+00 -0.96666737847E+02  0.96666737847E+02  0.00000000000E+00 0.  1.
          6    1    1    2  501    0 -0.14603998813E+02  0.63484210523E+02  0.71494129784E+02  0.19732950200E+03  0.17200000000E+03 0.  1.
         -6    1    1    2    0  502  0.14603998813E+02 -0.63484210523E+02  0.21683222407E+03  0.28433032755E+03  0.17200000000E+03 0. -1.
</event>
<event>
 4    1  0.5808486E+000  0.2131868E+03  0.7818608E-02  0.1139067E+00
         21   -1    0    0  501  502  0.00000000000E+00  0.00000000000E+00  0.21388783385E+03  0.21388783385E+03  0.00000000000E+00 0. -1.
         21   -1    0    0  502  503 -0.00000000000E+00 -0.00000000000E+00 -0.22411381226E+03  0.22411381226E+03  0.00000000000E+00 0. -1.
          6    1    1    2  501    0  0.20110889652E+02  0.12433882531E+03  0.44766692247E+02  0.21783628738E+03  0.17200000000E+03 0. -1.
         -6    1    1    2    0  503 -0.20110889652E+02 -0.12433882531E+03 -0.54992670653E+02  0.22016535874E+03  0.17200000000E+03 0. -1.
</event>
<event>
 4    1  0.5808486E+000  0.2229141E+03  0.7818608E-02  0.1131729E+00
         21   -1    0    0  501  502  0.00000000000E+00  0.00000000000E+00  0.45173744370E+03  0.45173744370E+03  0.00000000000E+00 0.  1.
         21   -1    0    0  502  503 -0.00000000000E+00 -0.00000000000E+00 -0.15813016186E+03  0.15813016186E+03  0.00000000000E+00 0.  1.
          6    1    1    2  501    0  0.13450280663E+03  0.44896269079E+02  0.31503666667E+03  0.38592587542E+03  0.17200000000E+03 0.  1.
         -6    1    1    2    0  503 -0.13450280663E+03 -0.44896269079E+02 -0.21429384826E+02  0.22394173015E+03  0.17200000000E+03 0.  1.
</event>
<event>
 4    1  0.5808486E+000  0.2021213E+03  0.7818608E-02  0.1147962E+00
         21   -1    0    0  501  502  0.00000000000E+00  0.00000000000E+00  0.39070247131E+03  0.39070247131E+03  0.00000000000E+00 0.  1.
         21   -1    0    0  502  503 -0.00000000000E+00 -0.00000000000E+00 -0.16922218611E+03  0.16922218611E+03  0.00000000000E+00 0.  1.
          6    1    1    2  501    0  0.76558491454E+02  0.73537761594E+02  0.28379596440E+03  0.34841520404E+03  0.17200000000E+03 0.  1.
         -6    1    1    2    0  503 -0.76558491454E+02 -0.73537761594E+02 -0.62315679202E+02  0.21150945338E+03  0.17200000000E+03 0.  1.
</event>
<event>
 4    1  0.5808486E+000  0.1813275E+03  0.7818608E-02  0.1166524E+00
         21   -1    0    0  501  502  0.00000000000E+00  0.00000000000E+00  0.62117774319E+02  0.62117774319E+02  0.00000000000E+00 0. -1.
         21   -1    0    0  502  503 -0.00000000000E+00 -0.00000000000E+00 -0.52931303251E+03  0.52931303251E+03  0.00000000000E+00 0. -1.
          6    1    1    2  501    0 -0.48062254341E+02  0.31395491906E+02 -0.23408767580E+03  0.29610251125E+03  0.17200000000E+03 0. -1.
         -6    1    1    2    0  503  0.48062254341E+02 -0.31395491906E+02 -0.23310758239E+03  0.29532829558E+03  0.17200000000E+03 0. -1.
</event>
<event>
 4    1  0.5808486E+000  0.1862233E+03  0.7818608E-02  0.1161912E+00
         21   -1    0    0  501  502  0.00000000000E+00  0.00000000000E+00  0.86154175146E+02  0.86154175146E+02  0.00000000000E+00 0.  1.
         21   -1    0    0  502  503 -0.00000000000E+00 -0.00000000000E+00 -0.54607807362E+03  0.54607807362E+03  0.00000000000E+00 0.  1.
          6    1    1    2  501    0 -0.50645777052E+02 -0.50300468432E+02 -0.67882897267E+02  0.19821003910E+03  0.17200000000E+03 0.  1.
         -6    1    1    2    0  503  0.50645777052E+02  0.50300468432E+02 -0.39204100120E+03  0.43402220966E+03  0.17200000000E+03 0.  1.
</event>
<event>
 4    1  0.5808486E+000  0.1905992E+03  0.7818608E-02  0.1157922E+00
         21   -1    0    0  503  502  0.00000000000E+00  0.00000000000E+00  0.48657804658E+03  0.48657804658E+03  0.00000000000E+00 0.  1.
         21   -1    0    0  501  503 -0.00000000000E+00 -0.00000000000E+00 -0.75615755442E+02  0.75615755442E+02  0.00000000000E+00 0.  1.
          6    1    1    2  501    0  0.81712701605E+02  0.81902630187E+01  0.23707939563E+03  0.30419514434E+03  0.17200000000E+03 0.  1.
         -6    1    1    2    0  502 -0.81712701605E+02 -0.81902630187E+01  0.17388289551E+03  0.25799865768E+03  0.17200000000E+03 0.  1.
</event>
<event>
 4    1  0.5808486E+000  0.2185428E+03  0.7818608E-02  0.1134974E+00
         21   -1    0    0  501  502  0.00000000000E+00  0.00000000000E+00  0.18325428975E+03  0.18325428975E+03  0.00000000000E+00 0. -1.
         21   -1    0    0  502  503 -0.00000000000E+00 -0.00000000000E+00 -0.37363398457E+03  0.37363398457E+03  0.00000000000E+00 0.  1.
          6    1    1    2  501    0 -0.13287146953E+03 -0.22849707812E+02  0.57943002845E+02  0.22609362693E+03  0.17200000000E+03 0. -1.
         -6    1    1    2    0  503  0.13287146953E+03  0.22849707812E+02 -0.24832269767E+03  0.33079464738E+03  0.17200000000E+03 0.  1.
</event>
<event>
 4    1  0.5808486E+000  0.1741056E+03  0.7818608E-02  0.1173633E+00
         21   -1    0    0  501  502  0.00000000000E+00  0.00000000000E+00  0.18986515981E+03  0.18986515981E+03  0.00000000000E+00 0.  1.
         21   -1    0    0  502  503 -0.00000000000E+00 -0.00000000000E+00 -0.23228567130E+03  0.23228567130E+03  0.00000000000E+00 0.  1.
          6    1    1    2  501    0  0.20096474101E+02 -0.18025098070E+02  0.96818771609E+02  0.19921507716E+03  0.17200000000E+03 0.  1.
         -6    1    1    2    0  503 -0.20096474101E+02  0.18025098070E+02 -0.13923928310E+03  0.22293575395E+03  0.17200000000E+03 0.  1.
</event>
<event>
 4    1  0.5808486E+000  0.2234972E+03  0.7818608E-02  0.1131302E+00
         21   -1    0    0  501  502  0.00000000000E+00  0.00000000000E+00  0.40936191727E+02  0.40936191727E+02  0.00000000000E+00 0. -1.
         21   -1    0    0  502  503 -0.00000000000E+00 -0.00000000000E+00 -0.22156300704E+04  0.22156300704E+04  0.00000000000E+00 0. -1.
          6    1    1    2  501    0  0.73584690489E+02  0.12227957832E+03 -0.33108659812E+03  0.39946130902E+03  0.17200000000E+03 0. -1.
         -6    1    1    2    0  503 -0.73584690489E+02 -0.12227957832E+03 -0.18436072806E+04  0.18571049531E+04  0.17200000000E+03 0. -1.
</event>
<event>
 4    1  0.5808486E+000  0.1977598E+03  0.7818608E-02  0.1151643E+00
         21   -1    0    0  501  502  0.00000000000E+00  0.00000000000E+00  0.15739945087E+03  0.15739945087E+03  0.00000000000E+00 0. -1.
         21   -1    0    0  502  503 -0.00000000000E+00 -0.00000000000E+00 -0.49906191798E+03  0.49906191798E+03  0.00000000000E+00 0. -1.
          6    1    1    2  501    0 -0.38662615586E+02  0.89610961645E+02  0.61756147934E+02  0.20717804927E+03  0.17200000000E+03 0. -1.
         -6    1    1    2    0  503  0.38662615586E+02 -0.89610961645E+02 -0.40341861504E+03  0.44928331958E+03  0.17200000000E+03 0. -1.
</event>
<event>
 4    1  0.5808486E+000  0.2670710E+03  0.7818608E-02  0.1102968E+00
         21   -1    0    0  503  502  0.00000000000E+00  0.00000000000E+00  0.18364102169E+03  0.18364102169E+03  0.00000000000E+00 0.  1.
         21   -1    0    0  501  503 -0.00000000000E+00 -0.00000000000E+00 -0.42253866466E+03  0.42253866466E+03  0.00000000000E+00 0.  1.
          6    1    1    2  501    0  0.11265681181E+03 -0.17044462906E+03 -0.33302798418E+02  0.26913937877E+03  0.17200000000E+03 0.  1.
         -6    1    1    2    0  502 -0.11265681181E+03  0.17044462906E+03 -0.20559484456E+03  0.33704030758E+03  0.17200000000E+03 0.  1.
</event>
<event>
 4    1  0.5808486E+000  0.1814470E+03  0.7818608E-02  0.1166410E+00
         21   -1    0    0  503  502  0.00000000000E+00  0.00000000000E+00  0.89836419947E+03  0.89836419947E+03  0.00000000000E+00 0.  1.
         21   -1    0    0  501  503 -0.00000000000E+00 -0.00000000000E+00 -0.37084637950E+02  0.37084637950E+02  0.00000000000E+00 0.  1.
          6    1    1    2  501    0 -0.11784595476E+02 -0.56569744028E+02  0.37987228052E+03  0.42098213993E+03  0.17200000000E+03 0. -1.
         -6    1    1    2    0  502  0.11784595476E+02  0.56569744028E+02  0.48140728100E+03  0.51446669749E+03  0.17200000000E+03 0. -1.
</event>
<event>
 4    1  0.5808486E+000  0.2148946E+03  0.7818608E-02  0.1137748E+00
         21   -1    0    0  503  502  0.00000000000E+00  0.00000000000E+00  0.94036737091E+03  0.94036737091E+03  0.00000000000E+00 0. -1.
         21   -1    0    0  501  503 -0.00000000000E+00 -0.00000000000E+00 -0.53943379617E+02  0.53943379617E+02  0.00000000000E+00 0. -1.
          6    1    1    2  501    0  0.11665740348E+03 -0.54650979608E+02  0.29436752991E+03  0.36446113925E+03  0.17200000000E+03 0. -1.
         -6    1    1    2    0  502 -0.11665740348E+03  0.54650979608E+02  0.59205646139E+03  0.62984961128E+03  0.17200000000E+03 0. -1.
</event>
<event>
 4    1  0.5808486E+000  0.3761133E+03  0.7818608E-02  0.1052380E+00
         21   -1    0    0  503  502  0.00000000000E+00  0.00000000000E+00  0.27087823780E+03  0.27087823780E+03  0.00000000000E+00 0.  1.
         21   -1    0    0  501  503 -0.00000000000E+00 -0.00000000000E+00 -0.62269117760E+03  0.62269117760E+03  0.00000000000E+00 0.  1.
          6    1    1    2  501    0  0.24204304422E+03  0.23085134246E+03 -0.35536231202E+03  0.51743941711E+03  0.17200000000E+03 0.  1.
         -6    1    1    2    0  502 -0.24204304422E+03 -0.23085134246E+03  0.35493722162E+01  0.37612999829E+03  0.17200000000E+03 0.  1.
</event>
<event>
 4    1  0.5808486E+000  0.2034002E+03  0.7818608E-02  0.1146902E+00
         21   -1    0    0  503  502  0.00000000000E+00  0.00000000000E+00  0.46366677835E+02  0.46366677835E+02  0.00000000000E+00 0.  1.
         21   -1    0    0  501  503 -0.00000000000E+00 -0.00000000000E+00 -0.95114563286E+03  0.95114563286E+03  0.00000000000E+00 0.  1.
          6    1    1    2  501    0  0.41367987474E+02 -0.10038091799E+03 -0.57647728103E+03  0.61130818302E+03  0.17200000000E+03 0. -1.
         -6    1    1    2    0  502 -0.41367987474E+02  0.10038091799E+03 -0.32830167399E+03  0.38620412767E+03  0.17200000000E+03 0. -1.
</event>
<event>
 4    1  0.5808486E+000  0.1814707E+03  0.7818608E-02  0.1166387E+00
         21   -1    0    0  503  502  0.00000000000E+00  0.00000000000E+00  0.35188494561E+03  0.35188494561E+03  0.00000000000E+00 0. -1.
         21   -1    0    0  501  503 -0.00000000000E+00 -0.00000000000E+00 -0.11495988612E+03  0.11495988612E+03  0.00000000000E+00 0.  1.
          6    1    1    2  501    0 -0.51259805840E+02  0.26833869429E+02  0.21911111764E+03  0.28450185609E+03  0.17200000000E+03 0. -1.
         -6    1    1    2    0  502  0.51259805840E+02 -0.26833869429E+02  0.17813941843E+02  0.18234297565E+03  0.17200000000E+03 0.  1.
</event>
<event>
 4    1  0.5808486E+000  0.1851499E+03  0.7818608E-02  0.1162910E+00
         21   -1    0    0  503  502  0.00000000000E+00  0.00000000000E+00  0.14062381408E+03  0.14062381408E+03  0.00000000000E+00 0. -1.
         21   -1    0    0  501  503 -0.00000000000E+00 -0.00000000000E+00 -0.26998576475E+03  0.26998576475E+03  0.00000000000E+00 0. -1.
          6    1    1    2  501    0 -0.63189637146E+02 -0.26524767323E+02 -0.12865048412E+03  0.22545829013E+03  0.17200000000E+03 0. -1.
         -6    1    1    2    0  502  0.63189637146E+02  0.26524767323E+02 -0.71146654628E+00  0.18515128870E+03  0.17200000000E+03 0. -1.
</event>
<event>
 4    1  0.5808486E+000  0.2053182E+03  0.7818608E-02  0.1145328E+00
         21   -1    0    0  501  502  0.00000000000E+00  0.00000000000E+00  0.41162688075E+03  0.41162688075E+03  0.00000000000E+00 0.  1.
         21   -1    0    0  502  503 -0.00000000000E+00 -0.00000000000E+00 -0.22172725050E+03  0.22172725050E+03  0.00000000000E+00 0.  1.
          6    1    1    2  501    0  0.69983547041E+02  0.87600695163E+02  0.32725283159E+03  0.38632886823E+03  0.17200000000E+03 0.  1.
         -6    1    1    2    0  503 -0.69983547041E+02 -0.87600695163E+02 -0.13735320133E+03  0.24702526301E+03  0.17200000000E+03 0.  1.
</event>
<event>
 4    1  0.5808486E+000  0.1918549E+03  0.7818608E-02  0.1156799E+00
         21   -1    0    0  501  502  0.00000000000E+00  0.00000000000E+00  0.49522412468E+03  0.49522412468E+03  0.00000000000E+00 0. -1.
         21   -1    0    0  502  503 -0.00000000000E+00 -0.00000000000E+00 -0.10011245599E+03  0.10011245599E+03  0.00000000000E+00 0. -1.
          6    1    1    2  501    0  0.53625450326E+02 -0.65944129563E+02  0.34862625288E+03  0.39793037248E+03  0.17200000000E+03 0. -1.
         -6    1    1    2    0  503 -0.53625450326E+02  0.65944129563E+02  0.46485415811E+02  0.19740620818E+03  0.17200000000E+03 0. -1.
</event>
<event>
 4    1  0.5808486E+000  0.1914094E+03  0.7818608E-02  0.1157196E+00
         21   -1    0    0  501  502  0.00000000000E+00  0.00000000000E+00  0.39400865939E+03  0.39400865939E+03  0.00000000000E+00 0. -1.
         21   -1    0    0  502  503 -0.00000000000E+00 -0.00000000000E+00 -0.96448706404E+02  0.96448706404E+02  0.00000000000E+00 0. -1.
          6    1    1    2  501    0 -0.70348962650E+02  0.45875819693E+02  0.10231918349E+03  0.21704097007E+03  0.17200000000E+03 0. -1.
         -6    1    1    2    0  503  0.70348962650E+02 -0.45875819693E+02  0.19524076950E+03  0.27341639573E+03  0.17200000000E+03 0. -1.
</event>
<event>
 4    1  0.5808486E+000  0.2352622E+03  0.7818608E-02  0.1122990E+00
         21   -1    0    0  501  502  0.00000000000E+00  0.00000000000E+00  0.13035498904E+03  0.13035498904E+03  0.00000000000E+00 0. -1.
         21   -1    0    0  502  503 -0.00000000000E+00 -0.00000000000E+00 -0.52222923241E+03  0.52222923241E+03  0.00000000000E+00 0. -1.
          6    1    1    2  501    0 -0.15730395999E+03  0.31933976595E+02 -0.54854676052E+02  0.24157266024E+03  0.17200000000E+03 0. -1.
         -6    1    1    2    0  503  0.15730395999E+03 -0.31933976595E+02 -0.33701956732E+03  0.41101156121E+03  0.17200000000E+03 0. -1.
</event>
<event>
 4    1  0.5808486E+000  0.2138765E+03  0.7818608E-02  0.1138532E+00
         21   -1    0    0  503  502  0.00000000000E+00  0.00000000000E+00  0.23445006637E+02  0.23445006637E+02  0.00000000000E+00 0.  1.
         21   -1    0    0  501  503 -0.00000000000E+00 -0.00000000000E+00 -0.19976722351E+04  0.19976722351E+04  0.00000000000E+00 0.  1.
          6    1    1    2  501    0 -0.74581140320E+02  0.10294089685E+03 -0.83278799098E+03  0.85981335919E+03  0.17200000000E+03 0.  1.
         -6    1    1    2    0  502  0.74581140320E+02 -0.10294089685E+03 -0.11414392375E+04  0.11613038825E+04  0.17200000000E+03 0.  1.
</event>
<event>
 4    1  0.5808486E+000  0.3128518E+03  0.7818608E-02  0.1078987E+00
         21   -1    0    0  503  502  0.00000000000E+00  0.00000000000E+00  0.19084145366E+04  0.19084145366E+04  0.00000000000E+00 0.  1.
         21   -1    0    0  501  503 -0.00000000000E+00 -0.00000000000E+00 -0.62849167584E+02  0.62849167584E+02  0.00000000000E+00 0. -1.
          6    1    1    2  501    0  0.20051830911E+03  0.16758471881E+03  0.50002573457E+03  0.58983215027E+03  0.17200000000E+03 0.  1.
         -6    1    1    2    0  502 -0.20051830911E+03 -0.16758471881E+03  0.13455396345E+04  0.13814315539E+04  0.17200000000E+03 0. -1.
</event>
<event>
 4    1  0.5808486E+000  0.1921975E+03  0.7818608E-02  0.1156494E+00
         21   -1    0    0  501  502  0.00000000000E+00  0.00000000000E+00  0.12029203543E+03  0.12029203543E+03  0.00000000000E+00 0.  1.
         21   -1    0    0  502  503 -0.00000000000E+00 -0.00000000000E+00 -0.31924143598E+03  0.31924143598E+03  0.00000000000E+00 0.  1.
          6    1    1    2  501    0 -0.75609247255E+02 -0.40486003857E+02 -0.56589623310E+02  0.20035533496E+03  0.17200000000E+03 0. -1.
         -6    1    1    2    0  503  0.75609247255E+02  0.40486003857E+02 -0.14235977724E+03  0.23917813645E+03  0.17200000000E+03 0. -1.
</event>
<event>
 4    1  0.5808486E+000  0.1939528E+03  0.7818608E-02  0.1154944E+00
         21   -1    0    0  501  502  0.00000000000E+00  0.00000000000E+00  0.22439764822E+03  0.22439764822E+03  0.00000000000E+00 0. -1.
         21   -1    0    0  502  503 -0.00000000000E+00 -0.00000000000E+00 -0.97586167701E+03  0.97586167701E+03  0.00000000000E+00 0. -1.
          6    1    1    2  501    0 -0.76379282100E+02  0.46903203155E+02  0.17042383296E+03  0.25818982947E+03  0.17200000000E+03 0. -1.
         -6    1    1    2    0  503  0.76379282100E+02 -0.46903203155E+02 -0.92188786175E+03  0.94206949576E+03  0.17200000000E+03 0. -1.
</event>
<event>
 4    1  0.5808486E+000  0.2188187E+03  0.7818608E-02  0.1134767E+00
         21   -1    0    0  503  502  0.00000000000E+00  0.00000000000E+00  0.46428761248E+03  0.46428761248E+03  0.00000000000E+00 0.  1.
         21   -1    0    0  501  503 -0.00000000000E+00 -0.00000000000E+00 -0.18304139201E+03  0.18304139201E+03  0.00000000000E+00 0. -1.
          6    1    1    2  501    0  0.12929448129E+03 -0.39756218406E+02 -0.73235569222E+02  0.23074892934E+03  0.17200000000E+03 0. -1.
         -6    1    1    2    0  502 -0.12929448129E+03  0.39756218406E+02  0.35448178969E+03  0.41658007515E+03  0.17200000000E+03 0.  1.
</event>
<event>
 4    1  0.5808486E+000  0.1996726E+03  0.7818608E-02  0.1150016E+00
         21   -1    0    0  501  502  0.00000000000E+00  0.00000000000E+00  0.65563947981E+02  0.65563947981E+02  0.00000000000E+00 0.  1.
         21   -1    0    0  502  503 -0.00000000000E+00 -0.00000000000E+00 -0.64509479174E+03  0.64509479174E+03  0.00000000000E+00 0.  1.
          6    1    1    2  501    0 -0.25007274768E+02  0.98284263396E+02 -0.20466839483E+03  0.28593410441E+03  0.17200000000E+03 0.  1.
         -6    1    1    2    0  503  0.25007274768E+02 -0.98284263396E+02 -0.37486244893E+03  0.42472463531E+03  0.17200000000E+03 0.  1.
</event>
<event>
 4    1  0.5808486E+000  0.3960305E+03  0.7818608E-02  0.1045163E+00
         21   -1    0    0  503  502  0.00000000000E+00  0.00000000000E+00  0.34047955096E+03  0.34047955096E+03  0.00000000000E+00 0.  1.
         21   -1    0    0  501  503 -0.00000000000E+00 -0.00000000000E+00 -0.65797554248E+03  0.65797554248E+03  0.00000000000E+00 0.  1.
          6    1    1    2  501    0  0.19379112188E+03  0.29950153483E+03  0.11464723358E+03  0.41229134900E+03  0.17200000000E+03 0.  1.
         -6    1    1    2    0  502 -0.19379112188E+03 -0.29950153483E+03 -0.43214322511E+03  0.58616374444E+03  0.17200000000E+03 0.  1.
</event>
<event>
 4    1  0.5808486E+000  0.2408802E+03  0.7818608E-02  0.1119208E+00
         21   -1    0    0  503  502  0.00000000000E+00  0.00000000000E+00  0.44913470437E+03  0.44913470437E+03  0.00000000000E+00 0.  1.
         21   -1    0    0  501  503 -0.00000000000E+00 -0.00000000000E+00 -0.12999509353E+03  0.12999509353E+03  0.00000000000E+00 0. -1.
          6    1    1    2  501    0  0.16165561236E+03 -0.48028236956E+02  0.13676722414E+03  0.27699913745E+03  0.17200000000E+03 0.  1.
         -6    1    1    2    0  502 -0.16165561236E+03  0.48028236956E+02  0.18237238670E+03  0.30213066045E+03  0.17200000000E+03 0. -1.
</event>
<event>
 4    1  0.5808486E+000  0.1755872E+03  0.7818608E-02  0.1172143E+00
         21   -1    0    0  501  502  0.00000000000E+00  0.00000000000E+00  0.28395895570E+03  0.28395895570E+03  0.00000000000E+00 0.  1.
         21   -1    0    0  502  503 -0.00000000000E+00 -0.00000000000E+00 -0.12299799209E+03  0.12299799209E+03  0.00000000000E+00 0.  1.
          6    1    1    2  501    0  0.14298462585E+02  0.32286449607E+02  0.15015857050E+03  0.23103778296E+03  0.17200000000E+03 0.  1.
         -6    1    1    2    0  503 -0.14298462585E+02 -0.32286449607E+02  0.10802393110E+02  0.17591916484E+03  0.17200000000E+03 0.  1.
</event>
<event>
 4    1  0.5808486E+000  0.3041510E+03  0.7818608E-02  0.1083184E+00
         21   -1    0    0  503  502  0.00000000000E+00  0.00000000000E+00  0.15330141505E+04  0.15330141505E+04  0.00000000000E+00 0.  1.
         21   -1    0    0  501  503 -0.00000000000E+00 -0.00000000000E+00 -0.94043112122E+02  0.94043112122E+02  0.00000000000E+00 0.  1.
          6    1    1    2  501    0  0.14053110351E+03 -0.20778551420E+03  0.23249530419E+03  0.38283400768E+03  0.17200000000E+03 0.  1.
         -6    1    1    2    0  502 -0.14053110351E+03  0.20778551420E+03  0.12064757342E+04  0.12442232549E+04  0.17200000000E+03 0.  1.
</event>
<event>
 4    1  0.5808486E+000  0.2284558E+03  0.7818608E-02  0.1127731E+00
         21   -1    0    0  503  502  0.00000000000E+00  0.00000000000E+00  0.35986439488E+03  0.35986439488E+03  0.00000000000E+00 0.  1.
         21   -1    0    0  501  503 -0.00000000000E+00 -0.00000000000E+00 -0.14797804439E+03  0.14797804439E+03  0.00000000000E+00 0.  1.
          6    1    1    2  501    0 -0.15003544357E+03  0.98712086596E+01  0.14176720911E+03  0.26886802835E+03  0.17200000000E+03 0.  1.
         -6    1    1    2    0  502  0.15003544357E+03 -0.98712086596E+01  0.70119141379E+02  0.23897441092E+03  0.17200000000E+03 0.  1.
</event>
<event>
 4    1  0.5808486E+000  0.2232766E+03  0.7818608E-02  0.1131464E+00
         21   -1    0    0  503  502  0.00000000000E+00  0.00000000000E+00  0.76796336990E+03  0.76796336990E+03  0.00000000000E+00 0. -1.
         21   -1    0    0  501  503 -0.00000000000E+00 -0.00000000000E+00 -0.65574524696E+02  0.65574524696E+02  0.00000000000E+00 0. -1.
          6    1    1    2  501    0  0.26894786487E+02  0.13980385676E+03  0.39298688566E+03  0.45198577433E+03  0.17200000000E+03 0.  1.
         -6    1    1    2    0  502 -0.26894786487E+02 -0.13980385676E+03  0.30940195955E+03  0.38155212026E+03  0.17200000000E+03 0.  1.
</event>
<event>
 4    1  0.5808486E+000  0.2715063E+03  0.7818608E-02  0.1100421E+00
         21   -1    0    0  501  502  0.00000000000E+00  0.00000000000E+00  0.69684765770E+02  0.69684765770E+02  0.00000000000E+00 0.  1.
         21   -1    0    0  502  503 -0.00000000000E+00 -0.00000000000E+00 -0.10584667859E+04  0.10584667859E+04  0.00000000000E+00 0. -1.
          6    1    1    2  501    0  0.17124906954E+03 -0.12167748347E+03 -0.48071511590E+03  0.55208937361E+03  0.17200000000E+03 0.  1.
         -6    1    1    2    0  503 -0.17124906954E+03  0.12167748347E+03 -0.50806690418E+03  0.57606217801E+03  0.17200000000E+03 0. -1.
</event>
<event>
 4    1  0.5808486E+000  0.2366991E+03  0.7818608E-02  0.1122011E+00
         21   -1    0    0  503  502  0.00000000000E+00  0.00000000000E+00  0.62562987415E+02  0.62562987415E+02  0.00000000000E+00 0. -1.
         21   -1    0    0  501  503 -0.00000000000E+00 -0.00000000000E+00 -0.11425569440E+04  0.11425569440E+04  0.00000000000E+00 0. -1.
          6    1    1    2  501    0  0.13804846948E+03  0.85936619045E+02 -0.82017962464E+03  0.85365162631E+03  0.17200000000E+03 0. -1.
         -6    1    1    2    0  502 -0.13804846948E+03 -0.85936619045E+02 -0.25981433197E+03  0.35146830513E+03  0.17200000000E+03 0. -1.
</event>
<event>
 4    1  0.5808486E+000  0.2167754E+03  0.7818608E-02  0.1136310E+00
         21   -1    0    0  503  502  0.00000000000E+00  0.00000000000E+00  0.20047580905E+03  0.20047580905E+03  0.00000000000E+00 0. -1.
         21   -1    0    0  501  503 -0.00000000000E+00 -0.00000000000E+00 -0.51801818901E+03  0.51801818901E+03  0.00000000000E+00 0. -1.
          6    1    1    2  501    0 -0.13123828637E+03  0.13568283094E+02 -0.42459107661E+03  0.47672756208E+03  0.17200000000E+03 0. -1.
         -6    1    1    2    0  502  0.13123828637E+03 -0.13568283094E+02  0.10704869665E+03  0.24176643599E+03  0.17200000000E+03 0. -1.
</event>
<event>
 4    1  0.5808486E+000  0.1768718E+03  0.7818608E-02  0.1170865E+00
         21   -1    0    0  501  502  0.00000000000E+00  0.00000000000E+00  0.90467527984E+02  0.90467527984E+02  0.00000000000E+00 0.  1.
         21   -1    0    0  502  503 -0.00000000000E+00 -0.00000000000E+00 -0.52067893678E+03  0.52067893678E+03  0.00000000000E+00 0.  1.
          6    1    1    2  501    0 -0.39714529189E+02  0.11062248664E+02 -0.38013356099E+02  0.18091056469E+03  0.17200000000E+03 0.  1.
         -6    1    1    2    0  503  0.39714529189E+02 -0.11062248664E+02 -0.39219805269E+03  0.43023590007E+03  0.17200000000E+03 0.  1.
</event>
<event>
 4    1  0.5808486E+000  0.1844497E+03  0.7818608E-02  0.1163565E+00
         21   -1    0    0  501  502  0.00000000000E+00  0.00000000000E+00  0.21996713540E+03  0.21996713540E+03  0.00000000000E+00 0. -1.
         21   -1    0    0  502  503 -0.00000000000E+00 -0.00000000000E+00 -0.26516432467E+03  0.26516432467E+03  0.00000000000E+00 0. -1.
          6    1    1    2  501    0 -0.62854407114E+02 -0.22068813271E+02  0.13398538001E+03  0.22797761090E+03  0.17200000000E+03 0. -1.
         -6    1    1    2    0  503  0.62854407114E+02  0.22068813271E+02 -0.17918256928E+03  0.25715384918E+03  0.17200000000E+03 0. -1.
</event>
<event>
 4    1  0.5808486E+000  0.2224459E+03  0.7818608E-02  0.1132073E+00
         21   -1    0    0  501  502  0.00000000000E+00  0.00000000000E+00  0.68257160514E+03  0.68257160514E+03  0.00000000000E+00 0. -1.
         21   -1    0    0  502  503 -0.00000000000E+00 -0.00000000000E+00 -0.72948702951E+02  0.72948702951E+02  0.00000000000E+00 0.  1.
          6    1    1    2  501    0  0.14103136321E+03  0.28878010294E+01  0.33464356007E+03  0.40183142871E+03  0.17200000000E+03 0.  1.
         -6    1    1    2    0  503 -0.14103136321E+03 -0.28878010294E+01  0.27497934211E+03  0.35368887937E+03  0.17200000000E+03 0.  1.
</event>
<event>
 4    1  0.5808486E+000  0.1899707E+03  0.7818608E-02  0.1158488E+00
         21   -1    0    0  503  502  0.00000000000E+00  0.00000000000E+00  0.14334828644E+03  0.14334828644E+03  0.00000000000E+00 0.  1.
         21   -1    0    0  501  503 -0.00000000000E+00 -0.00000000000E+00 -0.25314576436E+03  0.25314576436E+03  0.00000000000E+00 0.  1.
          6    1    1    2  501    0 -0.71145194552E+02 -0.37989908686E+02 -0.69584754564E+02  0.20231388963E+03  0.17200000000E+03 0.  1.
         -6    1    1    2    0  502  0.71145194552E+02  0.37989908686E+02 -0.40212723357E+02  0.19418016116E+03  0.17200000000E+03 0.  1.
</event>
<event>
 4    1  0.5808486E+000  0.2721386E+03  0.7818608E-02  0.1100062E+00
         21   -1    0    0  503  502  0.00000000000E+00  0.00000000000E+00  0.52285122844E+02  0.52285122844E+02  0.00000000000E+00 0. -1.
         21   -1    0    0  501  503 -0.00000000000E+00 -0.00000000000E+00 -0.22525205064E+04  0.22525205064E+04  0.00000000000E+00 0.  1.
          6    1    1    2  501    0  0.19688153297E+03  0.75584939523E+02 -0.18022041496E+04  0.18226352399E+04  0.17200000000E+03 0.  1.
         -6    1    1    2    0  502 -0.19688153297E+03 -0.75584939523E+02 -0.39803123403E+03  0.48217038936E+03  0.17200000000E+03 0. -1.
</event>
<event>
 4    1  0.5808486E+000  0.3756163E+03  0.7818608E-02  0.1052566E+00
         21   -1    0    0  501  502  0.00000000000E+00  0.00000000000E+00  0.15928696062E+04  0.15928696062E+04  0.00000000000E+00 0.  1.
         21   -1    0    0  502  503 -0.00000000000E+00 -0.00000000000E+00 -0.39529129226E+03  0.39529129226E+03  0.00000000000E+00 0. -1.
          6    1    1    2  501    0  0.55853827964E+02  0.32921717147E+03  0.14744414719E+04  0.15215338479E+04  0.17200000000E+03 0.  1.
         -6    1    1    2    0  503 -0.55853827964E+02 -0.32921717147E+03 -0.27686315798E+03  0.46662705059E+03  0.17200000000E+03 0. -1.
</event>
<event>
 4    1  0.5808486E+000  0.2279794E+03  0.7818608E-02  0.1128070E+00
         21   -1    0    0  503  502  0.00000000000E+00  0.00000000000E+00  0.16886948808E+03  0.16886948808E+03  0.00000000000E+00 0.  1.
         21   -1    0    0  501  503 -0.00000000000E+00 -0.00000000000E+00 -0.33603404420E+03  0.33603404420E+03  0.00000000000E+00 0.  1.
          6    1    1    2  501    0  0.73374022392E+02  0.13041042317E+03 -0.15678517030E+03  0.27668793841E+03  0.17200000000E+03 0.  1.
         -6    1    1    2    0  502 -0.73374022392E+02 -0.13041042317E+03 -0.10379385825E+02  0.22821559387E+03  0.17200000000E+03 0.  1.
</event>
<event>
 4    1  0.5808486E+000  0.1965441E+03  0.7818608E-02  0.1152688E+00
         21   -1    0    0  503  502  0.00000000000E+00  0.00000000000E+00  0.59825675677E+03  0.59825675677E+03  0.00000000000E+00 0.  1.
         21   -1    0    0  501  503 -0.00000000000E+00 -0.00000000000E+00 -0.67827747401E+02  0.67827747401E+02  0.00000000000E+00 0.  1.
          6    1    1    2  501    0 -0.30465813511E+02 -0.90096810965E+02  0.19222906118E+03  0.27492110341E+03  0.17200000000E+03 0.  1.
         -6    1    1    2    0  502  0.30465813511E+02  0.90096810965E+02  0.33819994819E+03  0.39116340076E+03  0.17200000000E+03 0.  1.
</event>
<event>
 4    1  0.5808486E+000  0.1839359E+03  0.7818608E-02  0.1164047E+00
         21   -1    0    0  503  502  0.00000000000E+00  0.00000000000E+00  0.81799453361E+03  0.81799453361E+03  0.00000000000E+00 0.  1.
         21   -1    0    0  501  503 -0.00000000000E+00 -0.00000000000E+00 -0.20812807996E+03  0.20812807996E+03  0.00000000000E+00 0.  1.
          6    1    1    2  501    0 -0.34760389117E+02  0.55137437081E+02 -0.15432835939E+03  0.24010344465E+03  0.17200000000E+03 0.  1.
         -6    1    1    2    0  502  0.34760389117E+02 -0.55137437081E+02  0.76419481304E+03  0.78601916891E+03  0.17200000000E+03 0.  1.
</event>
<event>
 4    1  0.5808486E+000  0.1829040E+03  0.7818608E-02  0.1165022E+00
         21   -1    0    0  503  502  0.00000000000E+00  0.00000000000E+00  0.14778077500E+03  0.14778077500E+03  0.00000000000E+00 0. -1.
         21   -1    0    0  501  503 -0.00000000000E+00 -0.00000000000E+00 -0.22648068685E+03  0.22648068685E+03  0.00000000000E+00 0. -1.
          6    1    1    2  501    0 -0.55374638708E+02 -0.28346524893E+02 -0.43391955660E+02  0.18798068492E+03  0.17200000000E+03 0. -1.
         -6    1    1    2    0  502  0.55374638708E+02  0.28346524893E+02 -0.35307956190E+02  0.18628077694E+03  0.17200000000E+03 0. -1.
</event>
<event>
 4    1  0.5808486E+000  0.1987133E+03  0.7818608E-02  0.1150829E+00
         21   -1    0    0  501  502  0.00000000000E+00  0.00000000000E+00  0.29690403300E+02  0.29690403300E+02  0.00000000000E+00 0.  1.
         21   -1    0    0  502  503 -0.00000000000E+00 -0.00000000000E+00 -0.13356184607E+04  0.13356184607E+04  0.00000000000E+00 0.  1.
          6    1    1    2  501    0  0.24115287957E+02  0.96547529094E+02 -0.60852061197E+03  0.64014397418E+03  0.17200000000E+03 0. -1.
         -6    1    1    2    0  503 -0.24115287957E+02 -0.96547529094E+02 -0.69740744545E+03  0.72516488984E+03  0.17200000000E+03 0. -1.
</event>
<event>
 4    1  0.5808486E+000  0.1734399E+03  0.7818608E-02  0.1174307E+00
         21   -1    0    0  501  502  0.00000000000E+00  0.00000000000E+00  0.55610607268E+03  0.55610607268E+03  0.00000000000E+00 0.  1.
         21   -1    0    0  502  503 -0.00000000000E+00 -0.00000000000E+00 -0.13975764923E+03  0.13975764923E+03  0.00000000000E+00 0.  1.
          6    1    1    2  501    0  0.11314971179E+02  0.19219293007E+02  0.48057439218E+03  0.51091403995E+03  0.17200000000E+03 0.  1.
         -6    1    1    2    0  503 -0.11314971179E+02 -0.19219293007E+02 -0.64225968742E+02  0.18494968196E+03  0.17200000000E+03 0.  1.
</event>
<event>
 4    1  0.5808486E+000  0.2026965E+03  0.7818608E-02  0.1147484E+00
         21   -1    0    0  501  502  0.00000000000E+00  0.00000000000E+00  0.47142892755E+03  0.47142892755E+03  0.00000000000E+00 0.  1.
         21   -1    0    0  502  503 -0.00000000000E+00 -0.00000000000E+00 -0.96927395380E+02  0.96927395380E+02  0.00000000000E+00 0.  1.
          6    1    1    2  501    0  0.21045534548E+02  0.10516159954E+03  0.27749909772E+03  0.34364462134E+03  0.17200000000E+03 0.  1.
         -6    1    1    2    0  503 -0.21045534548E+02 -0.10516159954E+03  0.97002434454E+02  0.22471170159E+03  0.17200000000E+03 0.  1.
</event>
<event>
 4    1  0.5808486E+000  0.1996222E+03  0.7818608E-02  0.1150058E+00
         21   -1    0    0  503  502  0.00000000000E+00  0.00000000000E+00  0.33656912007E+02  0.33656912007E+02  0.00000000000E+00 0.  1.
         21   -1    0    0  501  503 -0.00000000000E+00 -0.00000000000E+00 -0.11840491041E+04  0.11840491041E+04  0.00000000000E+00 0.  1.
          6    1    1    2  501    0 -0.54745265727E+02  0.85252546992E+02 -0.57991672185E+03  0.61331268140E+03  0.17200000000E+03 0.  1.
         -6    1    1    2    0  502  0.54745265727E+02 -0.85252546992E+02 -0.57047547028E+03  0.60439333474E+03  0.17200000000E+03 0.  1.
</event>
<event>
 4    1  0.5808486E+000  0.2483253E+03  0.7818608E-02  0.1114368E+00
         21   -1    0    0  501  502  0.00000000000E+00  0.00000000000E+00  0.86068872226E+02  0.86068872226E+02  0.00000000000E+00 0.  1.
         21   -1    0    0  502  503 -0.00000000000E+00 -0.00000000000E+00 -0.17765343330E+04  0.17765343330E+04  0.00000000000E+00 0.  1.
          6    1    1    2  501    0  0.75890140436E+02  0.16224101388E+03 -0.12583281128E+03  0.27838706219E+03  0.17200000000E+03 0.  1.
         -6    1    1    2    0  503 -0.75890140436E+02 -0.16224101388E+03 -0.15646326495E+04  0.15842161431E+04  0.17200000000E+03 0.  1.
</event>
<event>
 4    1  0.5808486E+000  0.2768271E+03  0.7818608E-02  0.1097435E+00
         21   -1    0    0  503  502  0.00000000000E+00  0.00000000000E+00  0.24222178148E+03  0.24222178148E+03  0.00000000000E+00 0.  1.
         21   -1    0    0  501  503 -0.00000000000E+00 -0.00000000000E+00 -0.46789976809E+03  0.46789976809E+03  0.00000000000E+00 0.  1.
          6    1    1    2  501    0  0.19637495481E+03 -0.92120058611E+02 -0.31489243376E+03  0.41927374461E+03  0.17200000000E+03 0.  1.
         -6    1    1    2    0  502 -0.19637495481E+03  0.92120058611E+02  0.89214447144E+02  0.29084780497E+03  0.17200000000E+03 0.  1.
</event>
<event>
 4    1  0.5808486E+000  0.2185213E+03  0.7818608E-02  0.1134990E+00
         21   -1    0    0  503  502  0.00000000000E+00  0.00000000000E+00  0.11395567660E+03  0.11395567660E+03  0.00000000000E+00 0.  1.
         21   -1    0    0  501  503 -0.00000000000E+00 -0.00000000000E+00 -0.68237310973E+03  0.68237310973E+03  0.00000000000E+00 0. -1.
          6    1    1    2  501    0 -0.16632872678E+02  0.13375686545E+03 -0.53155611715E+03  0.57472032954E+03  0.17200000000E+03 0. -1.
         -6    1    1    2    0  502  0.16632872678E+02 -0.13375686545E+03 -0.36861315984E+02  0.22160845680E+03  0.17200000000E+03 0.  1.
</event>
<event>
 4    1  0.5808486E+000  0.2399878E+03  0.7818608E-02  0.1119801E+00
         21   -1    0    0  503  502  0.00000000000E+00  0.00000000000E+00  0.33289223466E+03  0.33289223466E+03  0.00000000000E+00 0.  1.
         21   -1    0    0  501  503 -0.00000000000E+00 -0.00000000000E+00 -0.18145311466E+03  0.18145311466E+03  0.00000000000E+00 0. -1.
          6    1    1    2  501    0  0.14504843769E+03 -0.83492947873E+02  0.20249293014E+02  0.24084051879E+03  0.17200000000E+03 0. -1.
         -6    1    1    2    0  502 -0.14504843769E+03  0.83492947873E+02  0.13118982699E+03  0.27350483054E+03  0.17200000000E+03 0. -1.
</event>
<event>
 4    1  0.5808486E+000  0.3592792E+03  0.7818608E-02  0.1058870E+00
         21   -1    0    0  503  502  0.00000000000E+00  0.00000000000E+00  0.34899958272E+03  0.34899958272E+03  0.00000000000E+00 0. -1.
         21   -1    0    0  501  503 -0.00000000000E+00 -0.00000000000E+00 -0.12388800448E+04  0.12388800448E+04  0.00000000000E+00 0.  1.
          6    1    1    2  501    0  0.29983954696E+03 -0.97947923918E+02 -0.11098878656E+04  0.11665901697E+04  0.17200000000E+03 0.  1.
         -6    1    1    2    0  502 -0.29983954696E+03  0.97947923918E+02  0.22000740351E+03  0.42128945788E+03  0.17200000000E+03 0. -1.
</event>
<event>
 4    1  0.5808486E+000  0.2303257E+03  0.7818608E-02  0.1126411E+00
         21   -1    0    0  503  502  0.00000000000E+00  0.00000000000E+00  0.18118168033E+04  0.18118168033E+04  0.00000000000E+00 0.  1.
         21   -1    0    0  501  503 -0.00000000000E+00 -0.00000000000E+00 -0.62556435658E+02  0.62556435658E+02  0.00000000000E+00 0.  1.
          6    1    1    2  501    0 -0.40372261998E+02  0.14777009875E+03  0.19109834262E+03  0.29927996621E+03  0.17200000000E+03 0.  1.
         -6    1    1    2    0  502  0.40372261998E+02 -0.14777009875E+03  0.15581620250E+04  0.15750932727E+04  0.17200000000E+03 0.  1.
</event>
<event>
 4    1  0.5808486E+000  0.1745289E+03  0.7818608E-02  0.1173206E+00
         21   -1    0    0  503  502  0.00000000000E+00  0.00000000000E+00  0.10084815910E+04  0.10084815910E+04  0.00000000000E+00 0.  1.
         21   -1    0    0  501  503 -0.00000000000E+00 -0.00000000000E+00 -0.42316839683E+02  0.42316839683E+02  0.00000000000E+00 0.  1.
          6    1    1    2  501    0  0.36563793703E+01 -0.29376336963E+02  0.20198749147E+03  0.26694434812E+03  0.17200000000E+03 0.  1.
         -6    1    1    2    0  502 -0.36563793703E+01  0.29376336963E+02  0.76417725986E+03  0.78385408258E+03  0.17200000000E+03 0.  1.
</event>
<event>
 4    1  0.5808486E+000  0.2377542E+03  0.7818608E-02  0.1121298E+00
         21   -1    0    0  501  502  0.00000000000E+00  0.00000000000E+00  0.34739134032E+02  0.34739134032E+02  0.00000000000E+00 0. -1.
         21   -1    0    0  502  503 -0.00000000000E+00 -0.00000000000E+00 -0.16752132508E+04  0.16752132508E+04  0.00000000000E+00 0. -1.
          6    1    1    2  501    0  0.54094799464E+02 -0.15497351127E+03 -0.96500163946E+03  0.99385874282E+03  0.17200000000E+03 0. -1.
         -6    1    1    2    0  503 -0.54094799464E+02  0.15497351127E+03 -0.67547247729E+03  0.71609364199E+03  0.17200000000E+03 0. -1.
</event>
<event>
 4    1  0.5808486E+000  0.1730232E+03  0.7818608E-02  0.1174731E+00
         21   -1    0    0  503  502  0.00000000000E+00  0.00000000000E+00  0.39295127657E+03  0.39295127657E+03  0.00000000000E+00 0. -1.
         21   -1    0    0  501  503 -0.00000000000E+00 -0.00000000000E+00 -0.81079064327E+02  0.81079064327E+02  0.00000000000E+00 0. -1.
          6    1    1    2  501    0  0.42091023489E+01 -0.18311842456E+02  0.97705501768E+02  0.19870431599E+03  0.17200000000E+03 0. -1.
         -6    1    1    2    0  502 -0.42091023489E+01  0.18311842456E+02  0.21416671048E+03  0.27532602491E+03  0.17200000000E+03 0. -1.
</event>
<event>
 4    1  0.5808486E+000  0.1948377E+03  0.7818608E-02  0.1154169E+00
         21   -1    0    0  501  502  0.00000000000E+00  0.00000000000E+00  0.19389687743E+03  0.19389687743E+03  0.00000000000E+00 0. -1.
         21   -1    0    0  502  503 -0.00000000000E+00 -0.00000000000E+00 -0.20787482846E+03  0.20787482846E+03  0.00000000000E+00 0. -1.
          6    1    1    2  501    0  0.91418107562E+02 -0.45233890128E+01 -0.55438846239E+02  0.20257146174E+03  0.17200000000E+03 0.  1.
         -6    1    1    2    0  503 -0.91418107562E+02  0.45233890128E+01  0.41460895209E+02  0.19920024415E+03  0.17200000000E+03 0.  1.
</event>
<event>
 4    1  0.5808486E+000  0.1723947E+03  0.7818608E-02  0.1175373E+00
         21   -1    0    0  503  502  0.00000000000E+00  0.00000000000E+00  0.10698329712E+04  0.10698329712E+04  0.00000000000E+00 0.  1.
         21   -1    0    0  501  503 -0.00000000000E+00 -0.00000000000E+00 -0.35174968834E+02  0.35174968834E+02  0.00000000000E+00 0.  1.
          6    1    1    2  501    0 -0.23365346284E+00  0.11657105483E+02  0.26399867083E+03  0.31530182509E+03  0.17200000000E+03 0.  1.
         -6    1    1    2    0  502  0.23365346284E+00 -0.11657105483E+02  0.77065933152E+03  0.78970611493E+03  0.17200000000E+03 0.  1.
</event>
<event>
 4    1  0.5808486E+000  0.2244135E+03  0.7818608E-02  0.1130635E+00
         21   -1    0    0  501  502  0.00000000000E+00  0.00000000000E+00  0.50815915469E+03  0.50815915469E+03  0.00000000000E+00 0. -1.
         21   -1    0    0  502  503 -0.00000000000E+00 -0.00000000000E+00 -0.11678100064E+03  0.11678100064E+03  0.00000000000E+00 0. -1.
          6    1    1    2  501    0  0.13850495651E+03 -0.39922484993E+02  0.31725356749E+03  0.38860166478E+03  0.17200000000E+03 0. -1.
         -6    1    1    2    0  503 -0.13850495651E+03  0.39922484993E+02  0.74124586567E+02  0.23633849056E+03  0.17200000000E+03 0. -1.
</event>
<event>
 4    1  0.5808486E+000  0.2500816E+03  0.7818608E-02  0.1113253E+00
         21   -1    0    0  503  502  0.00000000000E+00  0.00000000000E+00  0.28072732150E+03  0.28072732150E+03  0.00000000000E+00 0.  1.
         21   -1    0    0  501  503 -0.00000000000E+00 -0.00000000000E+00 -0.57797514263E+03  0.57797514263E+03  0.00000000000E+00 0. -1.
          6    1    1    2  501    0 -0.81730491517E+02  0.16210166620E+03 -0.48520583652E+03  0.54586218702E+03  0.17200000000E+03 0. -1.
         -6    1    1    2    0  502  0.81730491517E+02 -0.16210166620E+03  0.18795801539E+03  0.31284027710E+03  0.17200000000E+03 0.  1.
</event>
<event>
 4    1  0.5808486E+000  0.1740422E+03  0.7818608E-02  0.1173697E+00
         21   -1    0    0  503  502  0.00000000000E+00  0.00000000000E+00  0.64523639302E+03  0.64523639302E+03  0.00000000000E+00 0.  1.
         21   -1    0    0  501  503 -0.00000000000E+00 -0.00000000000E+00 -0.58881034820E+02  0.58881034820E+02  0.00000000000E+00 0.  1.
          6    1    1    2  501    0  0.17581725762E+02  0.19939563360E+02  0.13466823549E+03  0.22005962128E+03  0.17200000000E+03 0. -1.
         -6    1    1    2    0  502 -0.17581725762E+02 -0.19939563360E+02  0.45168712272E+03  0.48405780656E+03  0.17200000000E+03 0. -1.
</event>
<event>
 4    1  0.5808486E+000  0.2572693E+03  0.7818608E-02  0.1108795E+00
         21   -1    0    0  501  502  0.00000000000E+00  0.00000000000E+00  0.11703017931E+04  0.11703017931E+04  0.00000000000E+00 0. -1.
         21   -1    0    0  502  503 -0.00000000000E+00 -0.00000000000E+00 -0.57447370211E+03  0.57447370211E+03  0.00000000000E+00 0.  1.
          6    1    1    2  501    0  0.15633317823E+02 -0.19068055586E+03  0.11262469229E+04  0.11552573766E+04  0.17200000000E+03 0. -1.
         -6    1    1    2    0  503 -0.15633317823E+02  0.19068055586E+03 -0.53041883183E+03  0.58951811861E+03  0.17200000000E+03 0.  1.
</event>
<event>
 4    1  0.5808486E+000  0.1733172E+03  0.7818608E-02  0.1174432E+00
         21   -1    0    0  501  502  0.00000000000E+00  0.00000000000E+00  0.91965126171E+02  0.91965126171E+02  0.00000000000E+00 0.  1.
         21   -1    0    0  502  503 -0.00000000000E+00 -0.00000000000E+00 -0.42015756486E+03  0.42015756486E+03  0.00000000000E+00 0.  1.
          6    1    1    2  501    0 -0.20713628653E+02 -0.50779409489E+01 -0.28490566957E+03  0.33348175430E+03  0.17200000000E+03 0.  1.
         -6    1    1    2    0  503  0.20713628653E+02  0.50779409489E+01 -0.43286769120E+02  0.17864093673E+03  0.17200000000E+03 0.  1.
</event>
<event>
 4    1  0.5808486E+000  0.3078917E+03  0.7818608E-02  0.1081361E+00
         21   -1    0    0  503  502  0.00000000000E+00  0.00000000000E+00  0.25272232875E+03  0.25272232875E+03  0.00000000000E+00 0. -1.
         21   -1    0    0  501  503 -0.00000000000E+00 -0.00000000000E+00 -0.55515672306E+03  0.55515672306E+03  0.00000000000E+00 0.  1.
          6    1    1    2  501    0  0.81698972578E+02  0.24194752745E+03 -0.38125943138E+03  0.49005722337E+03  0.17200000000E+03 0.  1.
         -6    1    1    2    0  502 -0.81698972578E+02 -0.24194752745E+03  0.78825037070E+02  0.31782182843E+03  0.17200000000E+03 0. -1.
</event>
<event>
 4    1  0.5808486E+000  0.1766930E+03  0.7818608E-02  0.1171042E+00
         21   -1    0    0  501  502  0.00000000000E+00  0.00000000000E+00  0.21266361939E+03  0.21266361939E+03  0.00000000000E+00 0. -1.
         21   -1    0    0  502  503 -0.00000000000E+00 -0.00000000000E+00 -0.20456855634E+03  0.20456855634E+03  0.00000000000E+00 0. -1.
          6    1    1    2  501    0  0.26172986865E+02  0.30844750346E+02  0.11490100014E+03  0.21076684677E+03  0.17200000000E+03 0. -1.
         -6    1    1    2    0  503 -0.26172986865E+02 -0.30844750346E+02 -0.10680593709E+03  0.20646532896E+03  0.17200000000E+03 0. -1.
</event>
<event>
 4    1  0.5808486E+000  0.1734811E+03  0.7818608E-02  0.1174265E+00
         21   -1    0    0  501  502  0.00000000000E+00  0.00000000000E+00  0.27502055302E+03  0.27502055302E+03  0.00000000000E+00 0.  1.
         21   -1    0    0  502  503 -0.00000000000E+00 -0.00000000000E+00 -0.23228176227E+03  0.23228176227E+03  0.00000000000E+00 0.  1.
          6    1    1    2  501    0  0.17351821494E+02 -0.14512840593E+02  0.20583637795E+03  0.26919198119E+03  0.17200000000E+03 0.  1.
         -6    1    1    2    0  503 -0.17351821494E+02  0.14512840593E+02 -0.16309758720E+03  0.23811033409E+03  0.17200000000E+03 0.  1.
</event>
<event>
 4    1  0.5808486E+000  0.2297003E+03  0.7818608E-02  0.1126851E+00
         21   -1    0    0  503  502  0.00000000000E+00  0.00000000000E+00  0.59283890038E+03  0.59283890038E+03  0.00000000000E+00 0. -1.
         21   -1    0    0  501  503 -0.00000000000E+00 -0.00000000000E+00 -0.11724748489E+03  0.11724748489E+03  0.00000000000E+00 0. -1.
          6    1    1    2  501    0 -0.38151115541E+02  0.14738621814E+03  0.63524659415E+02  0.23832244391E+03  0.17200000000E+03 0. -1.
         -6    1    1    2    0  502  0.38151115541E+02 -0.14738621814E+03  0.41206675607E+03  0.47176394136E+03  0.17200000000E+03 0. -1.
</event>
<event>
 4    1  0.5808486E+000  0.2723041E+03  0.7818608E-02  0.1099968E+00
         21   -1    0    0  503  502  0.00000000000E+00  0.00000000000E+00  0.15409252847E+04  0.15409252847E+04  0.00000000000E+00 0.  1.
         21   -1    0    0  501  503 -0.00000000000E+00 -0.00000000000E+00 -0.64107661246E+02  0.64107661246E+02  0.00000000000E+00 0. -1.
          6    1    1    2  501    0 -0.14476215036E+03 -0.15365371194E+03  0.33764404778E+03  0.43376611944E+03  0.17200000000E+03 0. -1.
         -6    1    1    2    0  502  0.14476215036E+03  0.15365371194E+03  0.11391735757E+04  0.11712668265E+04  0.17200000000E+03 0.  1.
</event>
<event>
 4    1  0.5808486E+000  0.2121094E+03  0.7818608E-02  0.1139906E+00
         21   -1    0    0  503  502  0.00000000000E+00  0.00000000000E+00  0.24545846195E+03  0.24545846195E+03  0.00000000000E+00 0.  1.
         21   -1    0    0  501  503 -0.00000000000E+00 -0.00000000000E+00 -0.47626560789E+03  0.47626560789E+03  0.00000000000E+00 0.  1.
          6    1    1    2  501    0  0.89269325113E+02 -0.86240156020E+02 -0.39843288980E+03  0.45137472746E+03  0.17200000000E+03 0.  1.
         -6    1    1    2    0  502 -0.89269325113E+02  0.86240156020E+02  0.16762574386E+03  0.27034934237E+03  0.17200000000E+03 0.  1.
</event>
<event>
 4    1  0.5808486E+000  0.3089758E+03  0.7818608E-02  0.1080838E+00
         21   -1    0    0  501  502  0.00000000000E+00  0.00000000000E+00  0.11841315660E+03  0.11841315660E+03  0.00000000000E+00 0.  1.
         21   -1    0    0  502  503 -0.00000000000E+00 -0.00000000000E+00 -0.11048063159E+04  0.11048063159E+04  0.00000000000E+00 0.  1.
          6    1    1    2  501    0 -0.17067242058E+03  0.19171062623E+03 -0.17523656767E+03  0.35520964796E+03  0.17200000000E+03 0.  1.
         -6    1    1    2    0  503  0.17067242058E+03 -0.19171062623E+03 -0.81115659164E+03  0.86800982455E+03  0.17200000000E+03 0.  1.
</event>
<event>
 4    1  0.5808486E+000  0.1789393E+03  0.7818608E-02  0.1168834E+00
         21   -1    0    0  503  502  0.00000000000E+00  0.00000000000E+00  0.16918613899E+04  0.16918613899E+04  0.00000000000E+00 0.  1.
         21   -1    0    0  501  503 -0.00000000000E+00 -0.00000000000E+00 -0.33550574933E+02  0.33550574933E+02  0.00000000000E+00 0.  1.
          6    1    1    2  501    0  0.15886953190E+02  0.46721110335E+02  0.25956528513E+03  0.31526717983E+03  0.17200000000E+03 0.  1.
         -6    1    1    2    0  502 -0.15886953190E+02 -0.46721110335E+02  0.13987455298E+04  0.14101447850E+04  0.17200000000E+03 0.  1.
</event>
<event>
 4    1  0.5808486E+000  0.2234524E+03  0.7818608E-02  0.1131335E+00
         21   -1    0    0  503  502  0.00000000000E+00  0.00000000000E+00  0.22900554298E+03  0.22900554298E+03  0.00000000000E+00 0.  1.
         21   -1    0    0  501  503 -0.00000000000E+00 -0.00000000000E+00 -0.32289803007E+03  0.32289803007E+03  0.00000000000E+00 0. -1.
          6    1    1    2  501    0  0.39767925510E+02  0.13698714881E+03 -0.20420470959E+03  0.30270535221E+03  0.17200000000E+03 0. -1.
         -6    1    1    2    0  502 -0.39767925510E+02 -0.13698714881E+03  0.11031222249E+03  0.24919822084E+03  0.17200000000E+03 0.  1.
</event>
<event>
 4    1  0.5808486E+000  0.1943779E+03  0.7818608E-02  0.1154571E+00
         21   -1    0    0  501  502  0.00000000000E+00  0.00000000000E+00  0.16825406248E+04  0.16825406248E+04  0.00000000000E+00 0.  1.
         21   -1    0    0  502  503 -0.00000000000E+00 -0.00000000000E+00 -0.23633413808E+02  0.23633413808E+02  0.00000000000E+00 0.  1.
          6    1    1    2  501    0 -0.18089314179E+02 -0.88721697796E+02  0.10198835079E+04  0.10382413653E+04  0.17200000000E+03 0.  1.
         -6    1    1    2    0  503  0.18089314179E+02  0.88721697796E+02  0.63902370305E+03  0.66793267326E+03  0.17200000000E+03 0.  1.
</event>
<event>
 4    1  0.5808486E+000  0.2346340E+03  0.7818608E-02  0.1123420E+00
         21   -1    0    0  501  502  0.00000000000E+00  0.00000000000E+00  0.61422980371E+03  0.61422980371E+03  0.00000000000E+00 0.  1.
         21   -1    0    0  502  503 -0.00000000000E+00 -0.00000000000E+00 -0.97033309236E+02  0.97033309236E+02  0.00000000000E+00 0. -1.
          6    1    1    2  501    0  0.11322737487E+03 -0.11246636633E+03  0.35683339814E+03  0.42706345665E+03  0.17200000000E+03 0.  1.
         -6    1    1    2    0  503 -0.11322737487E+03  0.11246636633E+03  0.16036309634E+03  0.28419965630E+03  0.17200000000E+03 0. -1.
</event>
<event>
 4    1  0.5808486E+000  0.2915897E+03  0.7818608E-02  0.1089522E+00
         21   -1    0    0  503  502  0.00000000000E+00  0.00000000000E+00  0.11646700631E+04  0.11646700631E+04  0.00000000000E+00 0. -1.
         21   -1    0    0  501  503 -0.00000000000E+00 -0.00000000000E+00 -0.79491829740E+02  0.79491829740E+02  0.00000000000E+00 0. -1.
          6    1    1    2  501    0 -0.12134267524E+02  0.23514534904E+03  0.36485776509E+03  0.46706077161E+03  0.17200000000E+03 0. -1.
         -6    1    1    2    0  502  0.12134267524E+02 -0.23514534904E+03  0.72032046831E+03  0.77710112128E+03  0.17200000000E+03 0. -1.
</event>
<event>
 4    1  0.5808486E+000  0.2020272E+03  0.7818608E-02  0.1148040E+00
         21   -1    0    0  501  502  0.00000000000E+00  0.00000000000E+00  0.28412599543E+02  0.28412599543E+02  0.00000000000E+00 0. -1.
         21   -1    0    0  502  503 -0.00000000000E+00 -0.00000000000E+00 -0.14387381609E+04  0.14387381609E+04  0.00000000000E+00 0.  1.
          6    1    1    2  501    0  0.44958503918E+02 -0.95967316118E+02 -0.73402931594E+03  0.76132386637E+03  0.17200000000E+03 0.  1.
         -6    1    1    2    0  503 -0.44958503918E+02  0.95967316118E+02 -0.67629624537E+03  0.70582689404E+03  0.17200000000E+03 0. -1.
</event>
<event>
 4    1  0.5808486E+000  0.2608095E+03  0.7818608E-02  0.1106658E+00
         21   -1    0    0  501  502  0.00000000000E+00  0.00000000000E+00  0.14116548197E+03  0.14116548197E+03  0.00000000000E+00 0. -1.
         21   -1    0    0  502  503 -0.00000000000E+00 -0.00000000000E+00 -0.62931201031E+03  0.62931201031E+03  0.00000000000E+00 0.  1.
          6    1    1    2  501    0  0.89390508322E+02 -0.17449048237E+03 -0.57595714898E+02  0.26709335033E+03  0.17200000000E+03 0. -1.
         -6    1    1    2    0  503 -0.89390508322E+02  0.17449048237E+03 -0.43055081344E+03  0.50338414195E+03  0.17200000000E+03 0.  1.
</event>
<event>
 4    1  0.5808486E+000  0.1801345E+03  0.7818608E-02  0.1167673E+00
         21   -1    0    0  503  502  0.00000000000E+00  0.00000000000E+00  0.89347359526E+02  0.89347359526E+02  0.00000000000E+00 0.  1.
         21   -1    0    0  501  503 -0.00000000000E+00 -0.00000000000E+00 -0.42832893192E+03  0.42832893192E+03  0.00000000000E+00 0.  1.
          6    1    1    2  501    0 -0.53046597096E+02 -0.71068294492E+01 -0.27044403264E+03  0.32494372325E+03  0.17200000000E+03 0. -1.
         -6    1    1    2    0  502  0.53046597096E+02  0.71068294492E+01 -0.68537539755E+02  0.19273256820E+03  0.17200000000E+03 0. -1.
</event>
<event>
 4    1  0.5808486E+000  0.1929538E+03  0.7818608E-02  0.1155824E+00
         21   -1    0    0  503  502  0.00000000000E+00  0.00000000000E+00  0.27461409410E+02  0.27461409410E+02  0.00000000000E+00 0.  1.
         21   -1    0    0  501  503 -0.00000000000E+00 -0.00000000000E+00 -0.13707789353E+04  0.13707789353E+04  0.00000000000E+00 0.  1.
          6    1    1    2  501    0  0.86409125109E+02  0.13440635372E+02 -0.74482846218E+03  0.76941576904E+03  0.17200000000E+03 0.  1.
         -6    1    1    2    0  502 -0.86409125109E+02 -0.13440635372E+02 -0.59848906373E+03  0.62882457568E+03  0.17200000000E+03 0.  1.
</event>
<event>
 4    1  0.5808486E+000  0.3388849E+03  0.7818608E-02  0.1067272E+00
         21   -1    0    0  501  502  0.00000000000E+00  0.00000000000E+00  0.14332256788E+04  0.14332256788E+04  0.00000000000E+00 0. -1.
         21   -1    0    0  502  503 -0.00000000000E+00 -0.00000000000E+00 -0.12493173880E+03  0.12493173880E+03  0.00000000000E+00 0.  1.
          6    1    1    2  501    0  0.12262801510E+03 -0.26499308160E+03  0.11206958460E+04  0.11708125993E+04  0.17200000000E+03 0. -1.
         -6    1    1    2    0  503 -0.12262801510E+03  0.26499308160E+03  0.18759809394E+03  0.38734481826E+03  0.17200000000E+03 0.  1.
</event>
<event>
 4    1  0.5808486E+000  0.1970163E+03  0.7818608E-02  0.1152281E+00
         21   -1    0    0  503  502  0.00000000000E+00  0.00000000000E+00  0.27701800848E+03  0.27701800848E+03  0.00000000000E+00 0.  1.
         21   -1    0    0  501  503 -0.00000000000E+00 -0.00000000000E+00 -0.14755974167E+03  0.14755974167E+03  0.00000000000E+00 0. -1.
          6    1    1    2  501    0 -0.62043017038E+02 -0.73362608525E+02  0.17057544542E+02  0.19775330116E+03  0.17200000000E+03 0. -1.
         -6    1    1    2    0  502  0.62043017038E+02  0.73362608525E+02  0.11240072228E+03  0.22682444899E+03  0.17200000000E+03 0.  1.
</event>
<event>
 4    1  0.5808486E+000  0.2466807E+03  0.7818608E-02  0.1115421E+00
         21   -1    0    0  503  502  0.00000000000E+00  0.00000000000E+00  0.54220147127E+03  0.54220147127E+03  0.00000000000E+00 0. -1.
         21   -1    0    0  501  503 -0.00000000000E+00 -0.00000000000E+00 -0.11485123771E+03  0.11485123771E+03  0.00000000000E+00 0. -1.
          6    1    1    2  501    0  0.17117554330E+03 -0.44342807925E+02  0.26330500959E+03  0.36080587484E+03  0.17200000000E+03 0.  1.
         -6    1    1    2    0  502 -0.17117554330E+03  0.44342807925E+02  0.16404522396E+03  0.29624683415E+03  0.17200000000E+03 0.  1.
</event>
<event>
 4    1  0.5808486E+000  0.1916607E+03  0.7818608E-02  0.1156972E+00
         21   -1    0    0  501  502  0.00000000000E+00  0.00000000000E+00  0.41840360413E+03  0.41840360413E+03  0.00000000000E+00 0. -1.
         21   -1    0    0  502  503 -0.00000000000E+00 -0.00000000000E+00 -0.11193879630E+03  0.11193879630E+03  0.00000000000E+00 0. -1.
          6    1    1    2  501    0 -0.98818374240E+01 -0.83977160256E+02  0.27638322684E+03  0.33633540140E+03  0.17200000000E+03 0. -1.
         -6    1    1    2    0  503  0.98818374240E+01  0.83977160256E+02  0.30081580994E+02  0.19400699902E+03  0.17200000000E+03 0. -1.
</event>
<event>
 4    1  0.5808486E+000  0.1915012E+03  0.7818608E-02  0.1157114E+00
         21   -1    0    0  501  502  0.00000000000E+00  0.00000000000E+00  0.48266844482E+03  0.48266844482E+03  0.00000000000E+00 0. -1.
         21   -1    0    0  502  503 -0.00000000000E+00 -0.00000000000E+00 -0.10236711669E+03  0.10236711669E+03  0.00000000000E+00 0.  1.
          6    1    1    2  501    0 -0.49951780971E+02  0.67775527930E+02  0.33866747128E+03  0.38906086762E+03  0.17200000000E+03 0. -1.
         -6    1    1    2    0  503  0.49951780971E+02 -0.67775527930E+02  0.41633856852E+02  0.19597469389E+03  0.17200000000E+03 0.  1.
</event>
<event>
 4    1  0.5808486E+000  0.1957604E+03  0.7818608E-02  0.1153366E+00
         21   -1    0    0  501  502  0.00000000000E+00  0.00000000000E+00  0.17452640426E+03  0.17452640426E+03  0.00000000000E+00 0. -1.
         21   -1    0    0  502  503 -0.00000000000E+00 -0.00000000000E+00 -0.30773589643E+03  0.30773589643E+03  0.00000000000E+00 0. -1.
          6    1    1    2  501    0  0.93379204038E+02 -0.42980481707E+01  0.62456242373E+02  0.20548219187E+03  0.17200000000E+03 0. -1.
         -6    1    1    2    0  503 -0.93379204038E+02  0.42980481707E+01 -0.19566573455E+03  0.27678010882E+03  0.17200000000E+03 0. -1.
</event>
<event>
 4    1  0.5808486E+000  0.1961437E+03  0.7818608E-02  0.1153034E+00
         21   -1    0    0  501  502  0.00000000000E+00  0.00000000000E+00  0.67661438337E+02  0.67661438337E+02  0.00000000000E+00 0. -1.
         21   -1    0    0  502  503 -0.00000000000E+00 -0.00000000000E+00 -0.59803060486E+03  0.59803060486E+03  0.00000000000E+00 0. -1.
          6    1    1    2  501    0  0.91605583198E+01  0.93831869593E+02 -0.19134713027E+03  0.27401835676E+03  0.17200000000E+03 0.  1.
         -6    1    1    2    0  503 -0.91605583198E+01 -0.93831869593E+02 -0.33902203625E+03  0.39167368643E+03  0.17200000000E+03 0.  1.
</event>
<event>
 4    1  0.5808486E+000  0.1845514E+03  0.7818608E-02  0.1163469E+00
         21   -1    0    0  503  502  0.00000000000E+00  0.00000000000E+00  0.31458421940E+03  0.31458421940E+03  0.00000000000E+00 0.  1.
         21   -1    0    0  501  503 -0.00000000000E+00 -0.00000000000E+00 -0.98899679978E+03  0.98899679978E+03  0.00000000000E+00 0.  1.
          6    1    1    2  501    0 -0.66896712618E+02  0.19645451081E+00 -0.95228662443E+03  0.97000465145E+03  0.17200000000E+03 0.  1.
         -6    1    1    2    0  502  0.66896712618E+02 -0.19645451081E+00  0.27787404405E+03  0.33357636773E+03  0.17200000000E+03 0.  1.
</event>
<event>
 4    1  0.5808486E+000  0.1757765E+03  0.7818608E-02  0.1171954E+00
         21   -1    0    0  503  502  0.00000000000E+00  0.00000000000E+00  0.38774697856E+03  0.38774697856E+03  0.00000000000E+00 0.  1.
         21   -1    0    0  501  503 -0.00000000000E+00 -0.00000000000E+00 -0.16356191891E+03  0.16356191891E+03  0.00000000000E+00 0.  1.
          6    1    1    2  501    0 -0.23921512627E+02 -0.27223914648E+02 -0.85307279488E+02  0.19538350040E+03  0.17200000000E+03 0.  1.
         -6    1    1    2    0  502  0.23921512627E+02  0.27223914648E+02  0.30949233914E+03  0.35592539707E+03  0.17200000000E+03 0.  1.
</event>
<event>
 4    1  0.5808486E+000  0.1946828E+03  0.7818608E-02  0.1154304E+00
         21   -1    0    0  501  502  0.00000000000E+00  0.00000000000E+00  0.52390211329E+03  0.52390211329E+03  0.00000000000E+00 0.  1.
         21   -1    0    0  502  503 -0.00000000000E+00 -0.00000000000E+00 -0.10694635684E+03  0.10694635684E+03  0.00000000000E+00 0. -1.
          6    1    1    2  501    0 -0.42920816185E+02 -0.80468519487E+02  0.38789440722E+03  0.43400858314E+03  0.17200000000E+03 0. -1.
         -6    1    1    2    0  503  0.42920816185E+02  0.80468519487E+02  0.29061349225E+02  0.19683988699E+03  0.17200000000E+03 0. -1.
</event>
<event>
 4    1  0.5808486E+000  0.2365533E+03  0.7818608E-02  0.1122110E+00
         21   -1    0    0  503  502  0.00000000000E+00  0.00000000000E+00  0.11864630428E+04  0.11864630428E+04  0.00000000000E+00 0. -1.
         21   -1    0    0  501  503 -0.00000000000E+00 -0.00000000000E+00 -0.47395531043E+02  0.47395531043E+02  0.00000000000E+00 0. -1.
          6    1    1    2  501    0  0.12990820419E+03  0.97454241850E+02  0.52634609793E+03  0.57705951649E+03  0.17200000000E+03 0.  1.
         -6    1    1    2    0  502 -0.12990820419E+03 -0.97454241850E+02  0.61272141379E+03  0.65679905731E+03  0.17200000000E+03 0.  1.
</event>
<event>
 4    1  0.5808486E+000  0.1787331E+03  0.7818608E-02  0.1169035E+00
         21   -1    0    0  503  502  0.00000000000E+00  0.00000000000E+00  0.82296794504E+03  0.82296794504E+03  0.00000000000E+00 0.  1.
         21   -1    0    0  501  503 -0.00000000000E+00 -0.00000000000E+00 -0.38824681458E+02  0.38824681458E+02  0.00000000000E+00 0.  1.
          6    1    1    2  501    0  0.38710047208E+02 -0.29377938590E+02  0.38619780230E+03  0.42555172839E+03  0.17200000000E+03 0. -1.
         -6    1    1    2    0  502 -0.38710047208E+02  0.29377938590E+02  0.39794546128E+03  0.43624089811E+03  0.17200000000E+03 0. -1.
</event>
<event>
 4    1  0.5808486E+000  0.1789151E+03  0.7818608E-02  0.1168857E+00
         21   -1    0    0  503  502  0.00000000000E+00  0.00000000000E+00  0.14390955335E+03  0.14390955335E+03  0.00000000000E+00 0.  1.
         21   -1    0    0  501  503 -0.00000000000E+00 -0.00000000000E+00 -0.34447593157E+03  0.34447593157E+03  0.00000000000E+00 0.  1.
          6    1    1    2  501    0  0.43210949167E+02  0.23651979688E+02 -0.24562985337E+03  0.30388258775E+03  0.17200000000E+03 0.  1.
         -6    1    1    2    0  502 -0.43210949167E+02 -0.23651979688E+02  0.45063475147E+02  0.18450289717E+03  0.17200000000E+03 0.  1.
</event>
<event>
 4    1  0.5808486E+000  0.1895718E+03  0.7818608E-02  0.1158848E+00
         21   -1    0    0  503  502  0.00000000000E+00  0.00000000000E+00  0.11441240634E+04  0.11441240634E+04  0.00000000000E+00 0.  1.
         21   -1    0    0  501  503 -0.00000000000E+00 -0.00000000000E+00 -0.18063830649E+03  0.18063830649E+03  0.00000000000E+00 0.  1.
          6    1    1    2  501    0 -0.59247925580E+02 -0.53321137597E+02 -0.12030079994E+03  0.22452114125E+03  0.17200000000E+03 0.  1.
         -6    1    1    2    0  502  0.59247925580E+02  0.53321137597E+02  0.10837865569E+04  0.11002412286E+04  0.17200000000E+03 0.  1.
</event>
<event>
 4    1  0.5808486E+000  0.3542163E+03  0.7818608E-02  0.1060898E+00
         21   -1    0    0  501  502  0.00000000000E+00  0.00000000000E+00  0.10671927630E+04  0.10671927630E+04  0.00000000000E+00 0.  1.
         21   -1    0    0  502  503 -0.00000000000E+00 -0.00000000000E+00 -0.13331006302E+03  0.13331006302E+03  0.00000000000E+00 0. -1.
          6    1    1    2  501    0  0.28107033479E+03 -0.12994089463E+03  0.67320077321E+03  0.76070260303E+03  0.17200000000E+03 0.  1.
         -6    1    1    2    0  503 -0.28107033479E+03  0.12994089463E+03  0.26068192675E+03  0.43980022298E+03  0.17200000000E+03 0.  1.
</event>
<event>
 4    1  0.5808486E+000  0.1929247E+03  0.7818608E-02  0.1155850E+00
         21   -1    0    0  503  502  0.00000000000E+00  0.00000000000E+00  0.15985016488E+03  0.15985016488E+03  0.00000000000E+00 0. -1.
         21   -1    0    0  501  503 -0.00000000000E+00 -0.00000000000E+00 -0.38095665735E+03  0.38095665735E+03  0.00000000000E+00 0. -1.
          6    1    1    2  501    0  0.87185038326E+02  0.58899742433E+01 -0.27915906954E+03  0.33933716097E+03  0.17200000000E+03 0. -1.
         -6    1    1    2    0  502 -0.87185038326E+02 -0.58899742433E+01  0.58052577068E+02  0.20146966126E+03  0.17200000000E+03 0. -1.
</event>
<event>
 4    1  0.5808486E+000  0.2798027E+03  0.7818608E-02  0.1095797E+00
         21   -1    0    0  501  502  0.00000000000E+00  0.00000000000E+00  0.56551238611E+03  0.56551238611E+03  0.00000000000E+00 0.  1.
         21   -1    0    0  502  503 -0.00000000000E+00 -0.00000000000E+00 -0.16178078549E+03  0.16178078549E+03  0.00000000000E+00 0. -1.
          6    1    1    2  501    0  0.20644894400E+03 -0.78002552733E+02  0.33999111646E+03  0.44032206847E+03  0.17200000000E+03 0.  1.
         -6    1    1    2    0  503 -0.20644894400E+03  0.78002552733E+02  0.63740484159E+02  0.28697110313E+03  0.17200000000E+03 0. -1.
</event>
<event>
 4    1  0.5808486E+000  0.2325136E+03  0.7818608E-02  0.1124883E+00
         21   -1    0    0  501  502  0.00000000000E+00  0.00000000000E+00  0.70036067594E+03  0.70036067594E+03  0.00000000000E+00 0.  1.
         21   -1    0    0  502  503 -0.00000000000E+00 -0.00000000000E+00 -0.82356098225E+02  0.82356098225E+02  0.00000000000E+00 0. -1.
          6    1    1    2  501    0 -0.13244002862E+03 -0.83295816625E+02  0.40699758304E+03  0.46873189228E+03  0.17200000000E+03 0.  1.
         -6    1    1    2    0  503  0.13244002862E+03  0.83295816625E+02  0.21100699468E+03  0.31398488188E+03  0.17200000000E+03 0.  1.
</event>
<event>
 4    1  0.5808486E+000  0.1955655E+03  0.7818608E-02  0.1153535E+00
         21   -1    0    0  503  502  0.00000000000E+00  0.00000000000E+00  0.21562268024E+03  0.21562268024E+03  0.00000000000E+00 0.  1.
         21   -1    0    0  501  503 -0.00000000000E+00 -0.00000000000E+00 -0.37832500478E+03  0.37832500478E+03  0.00000000000E+00 0.  1.
          6    1    1    2  501    0  0.28151020282E+02  0.88709626818E+02 -0.29778774245E+03  0.35626312943E+03  0.17200000000E+03 0.  1.
         -6    1    1    2    0  502 -0.28151020282E+02 -0.88709626818E+02  0.13508541791E+03  0.23768455559E+03  0.17200000000E+03 0.  1.
</event>
<event>
 4    1  0.5808486E+000  0.2079166E+03  0.7818608E-02  0.1143227E+00
         21   -1    0    0  503  502  0.00000000000E+00  0.00000000000E+00  0.72398132678E+02  0.72398132678E+02  0.00000000000E+00 0. -1.
         21   -1    0    0  501  503 -0.00000000000E+00 -0.00000000000E+00 -0.66378435638E+03  0.66378435638E+03  0.00000000000E+00 0. -1.
          6    1    1    2  501    0  0.10079544475E+03 -0.59038737550E+02 -0.17902897921E+03  0.27437323049E+03  0.17200000000E+03 0. -1.
         -6    1    1    2    0  502 -0.10079544475E+03  0.59038737550E+02 -0.41235724448E+03  0.46180925856E+03  0.17200000000E+03 0. -1.
</event>
<event>
 4    1  0.5808486E+000  0.1740052E+03  0.7818608E-02  0.1173734E+00
         21   -1    0    0  501  502  0.00000000000E+00  0.00000000000E+00  0.12939528715E+04  0.12939528715E+04  0.00000000000E+00 0.  1.
         21   -1    0    0  502  503 -0.00000000000E+00 -0.00000000000E+00 -0.34551097300E+02  0.34551097300E+02  0.00000000000E+00 0.  1.
          6    1    1    2  501    0  0.26258626908E+02 -0.20728250609E+01  0.10070740840E+04  0.10219960972E+04  0.17200000000E+03 0.  1.
         -6    1    1    2    0  503 -0.26258626908E+02  0.20728250609E+01  0.25232769019E+03  0.30650787156E+03  0.17200000000E+03 0.  1.
</event>
<event>
 4    1  0.5808486E+000  0.1861260E+03  0.7818608E-02  0.1162003E+00
         21   -1    0    0  501  502  0.00000000000E+00  0.00000000000E+00  0.22869441463E+03  0.22869441463E+03  0.00000000000E+00 0.  1.
         21   -1    0    0  502  503 -0.00000000000E+00 -0.00000000000E+00 -0.17226350303E+03  0.17226350303E+03  0.00000000000E+00 0.  1.
          6    1    1    2  501    0 -0.50756668051E+02 -0.49826314023E+02  0.97849104894E+02  0.21027921497E+03  0.17200000000E+03 0. -1.
         -6    1    1    2    0  503  0.50756668051E+02  0.49826314023E+02 -0.41418193296E+02  0.19067870268E+03  0.17200000000E+03 0. -1.
</event>
<event>
 4    1  0.5808486E+000  0.1851596E+03  0.7818608E-02  0.1162901E+00
         21   -1    0    0  501  502  0.00000000000E+00  0.00000000000E+00  0.56227211781E+03  0.56227211781E+03  0.00000000000E+00 0.  1.
         21   -1    0    0  502  503 -0.00000000000E+00 -0.00000000000E+00 -0.70189650156E+02  0.70189650156E+02  0.00000000000E+00 0.  1.
          6    1    1    2  501    0  0.29131654850E+02 -0.62059871245E+02  0.36062590108E+03  0.40538268520E+03  0.17200000000E+03 0.  1.
         -6    1    1    2    0  503 -0.29131654850E+02  0.62059871245E+02  0.13145656658E+03  0.22707908277E+03  0.17200000000E+03 0.  1.
</event>
<event>
 4    1  0.5808486E+000  0.1732011E+03  0.7818608E-02  0.1174550E+00
         21   -1    0    0  503  502  0.00000000000E+00  0.00000000000E+00  0.36444536334E+03  0.36444536334E+03  0.00000000000E+00 0. -1.
         21   -1    0    0  501  503 -0.00000000000E+00 -0.00000000000E+00 -0.17011907878E+03  0.17011907878E+03  0.00000000000E+00 0. -1.
          6    1    1    2  501    0  0.20360913688E+02 -0.20103347028E+00 -0.94860959856E+02  0.19747710988E+03  0.17200000000E+03 0. -1.
         -6    1    1    2    0  502 -0.20360913688E+02  0.20103347028E+00  0.28918724442E+03  0.33708733224E+03  0.17200000000E+03 0. -1.
</event>
<event>
 4    1  0.5808486E+000  0.1785248E+03  0.7818608E-02  0.1169238E+00
         21   -1    0    0  503  502  0.00000000000E+00  0.00000000000E+00  0.19448997825E+03  0.19448997825E+03  0.00000000000E+00 0. -1.
         21   -1    0    0  501  503 -0.00000000000E+00 -0.00000000000E+00 -0.26797573207E+03  0.26797573207E+03  0.00000000000E+00 0. -1.
          6    1    1    2  501    0  0.43998533793E+02 -0.18741518472E+02 -0.18086766155E+03  0.25413426862E+03  0.17200000000E+03 0. -1.
         -6    1    1    2    0  502 -0.43998533793E+02  0.18741518472E+02  0.10738190773E+03  0.20833144169E+03  0.17200000000E+03 0. -1.
</event>
<event>
 4    1  0.5808486E+000  0.2082425E+03  0.7818608E-02  0.1142965E+00
         21   -1    0    0  503  502  0.00000000000E+00  0.00000000000E+00  0.90472301332E+02  0.90472301332E+02  0.00000000000E+00 0. -1.
         21   -1    0    0  501  503 -0.00000000000E+00 -0.00000000000E+00 -0.49391741794E+03  0.49391741794E+03  0.00000000000E+00 0.  1.
          6    1    1    2  501    0  0.10389240015E+03 -0.54656215941E+02 -0.25195966772E+03  0.32687705167E+03  0.17200000000E+03 0.  1.
         -6    1    1    2    0  502 -0.10389240015E+03  0.54656215941E+02 -0.15148544888E+03  0.25751266760E+03  0.17200000000E+03 0. -1.
</event>
<event>
 4    1  0.5808486E+000  0.2280358E+03  0.7818608E-02  0.1128030E+00
         21   -1    0    0  501  502  0.00000000000E+00  0.00000000000E+00  0.86040374714E+03  0.86040374714E+03  0.00000000000E+00 0. -1.
         21   -1    0    0  502  503 -0.00000000000E+00 -0.00000000000E+00 -0.67192288331E+02  0.67192288331E+02  0.00000000000E+00 0. -1.
          6    1    1    2  501    0 -0.14156541301E+03 -0.48739748460E+02  0.54366319719E+03  0.58955067740E+03  0.17200000000E+03 0. -1.
         -6    1    1    2    0  503  0.14156541301E+03  0.48739748460E+02  0.24954826162E+03  0.33804535808E+03  0.17200000000E+03 0. -1.
</event>
<event>
 4    1  0.5808486E+000  0.2114383E+03  0.7818608E-02  0.1140432E+00
         21   -1    0    0  501  502  0.00000000000E+00  0.00000000000E+00  0.34838669340E+02  0.34838669340E+02  0.00000000000E+00 0. -1.
         21   -1    0    0  502  503 -0.00000000000E+00 -0.00000000000E+00 -0.17608016164E+04  0.17608016164E+04  0.00000000000E+00 0. -1.
          6    1    1    2  501    0  0.12205252273E+03 -0.15011616747E+02 -0.39540619599E+03  0.44838847752E+03  0.17200000000E+03 0. -1.
         -6    1    1    2    0  503 -0.12205252273E+03  0.15011616747E+02 -0.13305567511E+04  0.13472518082E+04  0.17200000000E+03 0. -1.
</event>
<event>
 4    1  0.5808486E+000  0.2287976E+03  0.7818608E-02  0.1127489E+00
         21   -1    0    0  503  502  0.00000000000E+00  0.00000000000E+00  0.10550448114E+03  0.10550448114E+03  0.00000000000E+00 0.  1.
         21   -1    0    0  501  503 -0.00000000000E+00 -0.00000000000E+00 -0.50567435318E+03  0.50567435318E+03  0.00000000000E+00 0. -1.
          6    1    1    2  501    0  0.13935988410E+03 -0.57820180111E+02 -0.24197610907E+03  0.33301769906E+03  0.17200000000E+03 0.  1.
         -6    1    1    2    0  502 -0.13935988410E+03  0.57820180111E+02 -0.15819376297E+03  0.27816113526E+03  0.17200000000E+03 0.  1.
</event>
<event>
 4    1  0.5808486E+000  0.1974234E+03  0.7818608E-02  0.1151931E+00
         21   -1    0    0  501  502  0.00000000000E+00  0.00000000000E+00  0.22989598344E+03  0.22989598344E+03  0.00000000000E+00 0.  1.
         21   -1    0    0  502  503 -0.00000000000E+00 -0.00000000000E+00 -0.18598797333E+03  0.18598797333E+03  0.00000000000E+00 0. -1.
          6    1    1    2  501    0 -0.82324414857E+02  0.51133863483E+02  0.83796849619E+02  0.21447119453E+03  0.17200000000E+03 0. -1.
         -6    1    1    2    0  503  0.82324414857E+02 -0.51133863483E+02 -0.39888839515E+02  0.20141276224E+03  0.17200000000E+03 0. -1.
</event>
<event>
 4    1  0.5808486E+000  0.2227193E+03  0.7818608E-02  0.1131872E+00
         21   -1    0    0  503  502  0.00000000000E+00  0.00000000000E+00  0.10373504438E+03  0.10373504438E+03  0.00000000000E+00 0. -1.
         21   -1    0    0  501  503 -0.00000000000E+00 -0.00000000000E+00 -0.54438193895E+03  0.54438193895E+03  0.00000000000E+00 0. -1.
          6    1    1    2  501    0  0.61122916371E+01  0.14135964297E+03 -0.33333179766E+03  0.40089150166E+03  0.17200000000E+03 0. -1.
         -6    1    1    2    0  502 -0.61122916371E+01 -0.14135964297E+03 -0.10731509691E+03  0.24722548168E+03  0.17200000000E+03 0. -1.
</event>
<event>
 4    1  0.5808486E+000  0.1919534E+03  0.7818608E-02  0.1156711E+00
         21   -1    0    0  503  502  0.00000000000E+00  0.00000000000E+00  0.36172119665E+03  0.36172119665E+03  0.00000000000E+00 0. -1.
         21   -1    0    0  501  503 -0.00000000000E+00 -0.00000000000E+00 -0.29844189653E+03  0.29844189653E+03  0.00000000000E+00 0. -1.
          6    1    1    2  501    0 -0.65689958967E+02 -0.54285853605E+02 -0.23625215895E+03  0.30440303418E+03  0.17200000000E+03 0. -1.
         -6    1    1    2    0  502  0.65689958967E+02  0.54285853605E+02  0.29953145906E+03  0.35576005900E+03  0.17200000000E+03 0. -1.
</event>
<event>
 4    1  0.5808486E+000  0.2031789E+03  0.7818608E-02  0.1147084E+00
         21   -1    0    0  501  502  0.00000000000E+00  0.00000000000E+00  0.10487874895E+04  0.10487874895E+04  0.00000000000E+00 0.  1.
         21   -1    0    0  502  503 -0.00000000000E+00 -0.00000000000E+00 -0.46914916045E+02  0.46914916045E+02  0.00000000000E+00 0.  1.
          6    1    1    2  501    0  0.19918094785E+02 -0.10630576153E+03  0.72076500336E+03  0.74885501634E+03  0.17200000000E+03 0.  1.
         -6    1    1    2    0  503 -0.19918094785E+02  0.10630576153E+03  0.28110757012E+03  0.34684738922E+03  0.17200000000E+03 0.  1.
</event>
<event>
 4    1  0.5808486E+000  0.1728556E+03  0.7818608E-02  0.1174902E+00
         21   -1    0    0  501  502  0.00000000000E+00  0.00000000000E+00  0.41939205885E+02  0.41939205885E+02  0.00000000000E+00 0.  1.
         21   -1    0    0  502  503 -0.00000000000E+00 -0.00000000000E+00 -0.72501106031E+03  0.72501106031E+03  0.00000000000E+00 0.  1.
          6    1    1    2  501    0  0.63462969283E+01  0.15962001567E+02 -0.29103552294E+03  0.33849776453E+03  0.17200000000E+03 0.  1.
         -6    1    1    2    0  503 -0.63462969283E+01 -0.15962001567E+02 -0.39203633149E+03  0.42845250167E+03  0.17200000000E+03 0.  1.
</event>
<event>
 4    1  0.5808486E+000  0.1925911E+03  0.7818608E-02  0.1156145E+00
         21   -1    0    0  501  502  0.00000000000E+00  0.00000000000E+00  0.72271995075E+03  0.72271995075E+03  0.00000000000E+00 0. -1.
         21   -1    0    0  502  503 -0.00000000000E+00 -0.00000000000E+00 -0.10159086990E+03  0.10159086990E+03  0.00000000000E+00 0. -1.
          6    1    1    2  501    0  0.42435988601E+02 -0.75541451881E+02  0.60048834787E+03  0.63061682503E+03  0.17200000000E+03 0. -1.
         -6    1    1    2    0  503 -0.42435988601E+02  0.75541451881E+02  0.20640732980E+02  0.19369399562E+03  0.17200000000E+03 0. -1.
</event>
<event>
 4    1  0.5808486E+000  0.1899850E+03  0.7818608E-02  0.1158475E+00
         21   -1    0    0  503  502  0.00000000000E+00  0.00000000000E+00  0.69529846933E+02  0.69529846933E+02  0.00000000000E+00 0. -1.
         21   -1    0    0  501  503 -0.00000000000E+00 -0.00000000000E+00 -0.10358168012E+04  0.10358168012E+04  0.00000000000E+00 0. -1.
          6    1    1    2  501    0 -0.54441330753E+02 -0.59551933474E+02 -0.87348537827E+03  0.89390771186E+03  0.17200000000E+03 0. -1.
         -6    1    1    2    0  502  0.54441330753E+02  0.59551933474E+02 -0.92801576043E+02  0.21143893632E+03  0.17200000000E+03 0. -1.
</event>
<event>
 4    1  0.5808486E+000  0.2164525E+03  0.7818608E-02  0.1136556E+00
         21   -1    0    0  503  502  0.00000000000E+00  0.00000000000E+00  0.43967292283E+03  0.43967292283E+03  0.00000000000E+00 0.  1.
         21   -1    0    0  501  503 -0.00000000000E+00 -0.00000000000E+00 -0.12952355202E+03  0.12952355202E+03  0.00000000000E+00 0. -1.
          6    1    1    2  501    0  0.55025650022E+02 -0.11933084618E+03  0.35242177467E+02  0.21930272247E+03  0.17200000000E+03 0. -1.
         -6    1    1    2    0  502 -0.55025650022E+02  0.11933084618E+03  0.27490719334E+03  0.34989375239E+03  0.17200000000E+03 0.  1.
</event>
<event>
 4    1  0.5808486E+000  0.2172418E+03  0.7818608E-02  0.1135956E+00
         21   -1    0    0  503  502  0.00000000000E+00  0.00000000000E+00  0.82572797637E+02  0.82572797637E+02  0.00000000000E+00 0. -1.
         21   -1    0    0  501  503 -0.00000000000E+00 -0.00000000000E+00 -0.59532499446E+03  0.59532499446E+03  0.00000000000E+00 0.  1.
          6    1    1    2  501    0 -0.12477728740E+02 -0.13211481296E+03 -0.32411978114E+03  0.39018924901E+03  0.17200000000E+03 0.  1.
         -6    1    1    2    0  502  0.12477728740E+02  0.13211481296E+03 -0.18863241568E+03  0.28770854308E+03  0.17200000000E+03 0. -1.
</event>
<event>
 4    1  0.5808486E+000  0.1754767E+03  0.7818608E-02  0.1172254E+00
         21   -1    0    0  501  502  0.00000000000E+00  0.00000000000E+00  0.85998609418E+03  0.85998609418E+03  0.00000000000E+00 0.  1.
         21   -1    0    0  502  503 -0.00000000000E+00 -0.00000000000E+00 -0.52354067434E+02  0.52354067434E+02  0.00000000000E+00 0. -1.
          6    1    1    2  501    0 -0.17376463701E+02 -0.30101881886E+02  0.66028469439E+03  0.68320417331E+03  0.17200000000E+03 0.  1.
         -6    1    1    2    0  503  0.17376463701E+02  0.30101881886E+02  0.14734733236E+03  0.22913598831E+03  0.17200000000E+03 0. -1.
</event>
<event>
 4    1  0.5808486E+000  0.1825795E+03  0.7818608E-02  0.1165330E+00
         21   -1    0    0  501  502  0.00000000000E+00  0.00000000000E+00  0.45900087325E+02  0.45900087325E+02  0.00000000000E+00 0.  1.
         21   -1    0    0  502  503 -0.00000000000E+00 -0.00000000000E+00 -0.79751367785E+03  0.79751367785E+03  0.00000000000E+00 0.  1.
          6    1    1    2  501    0 -0.58803026917E+02  0.17130971564E+02 -0.24975356579E+03  0.30937373804E+03  0.17200000000E+03 0.  1.
         -6    1    1    2    0  503  0.58803026917E+02 -0.17130971564E+02 -0.50186002474E+03  0.53404002714E+03  0.17200000000E+03 0.  1.
</event>
<event>
 4    1  0.5808486E+000  0.2114554E+03  0.7818608E-02  0.1140419E+00
         21   -1    0    0  503  502  0.00000000000E+00  0.00000000000E+00  0.53167694900E+02  0.53167694900E+02  0.00000000000E+00 0. -1.
         21   -1    0    0  501  503 -0.00000000000E+00 -0.00000000000E+00 -0.90049760108E+03  0.90049760108E+03  0.00000000000E+00 0. -1.
          6    1    1    2  501    0 -0.92929332449E+02 -0.80582420682E+02 -0.54624467664E+03  0.58574451266E+03  0.17200000000E+03 0. -1.
         -6    1    1    2    0  502  0.92929332449E+02  0.80582420682E+02 -0.30108522954E+03  0.36792078332E+03  0.17200000000E+03 0. -1.
</event>
<event>
 4    1  0.5808486E+000  0.1991013E+03  0.7818608E-02  0.1150499E+00
         21   -1    0    0  501  502  0.00000000000E+00  0.00000000000E+00  0.56603012931E+02  0.56603012931E+02  0.00000000000E+00 0.  1.
         21   -1    0    0  502  503 -0.00000000000E+00 -0.00000000000E+00 -0.10190525663E+04  0.10190525663E+04  0.00000000000E+00 0.  1.
          6    1    1    2  501    0 -0.68646535081E+02 -0.73109493650E+02 -0.18044775830E+03  0.26870567228E+03  0.17200000000E+03 0.  1.
         -6    1    1    2    0  503  0.68646535081E+02  0.73109493650E+02 -0.78200179508E+03  0.80694990697E+03  0.17200000000E+03 0.  1.
</event>
<event>
 4    1  0.5808486E+000  0.1986920E+03  0.7818608E-02  0.1150847E+00
         21   -1    0    0  503  502  0.00000000000E+00  0.00000000000E+00  0.11139093333E+03  0.11139093333E+03  0.00000000000E+00 0. -1.
         21   -1    0    0  501  503 -0.00000000000E+00 -0.00000000000E+00 -0.40269228215E+03  0.40269228215E+03  0.00000000000E+00 0. -1.
          6    1    1    2  501    0  0.30745577816E+02  0.94600332462E+02 -0.23465116261E+03  0.30747305828E+03  0.17200000000E+03 0. -1.
         -6    1    1    2    0  502 -0.30745577816E+02 -0.94600332462E+02 -0.56650186218E+02  0.20661015719E+03  0.17200000000E+03 0. -1.
</event>
<event>
 4    1  0.5808486E+000  0.2324523E+03  0.7818608E-02  0.1124926E+00
         21   -1    0    0  503  502  0.00000000000E+00  0.00000000000E+00  0.34995227844E+03  0.34995227844E+03  0.00000000000E+00 0.  1.
         21   -1    0    0  501  503 -0.00000000000E+00 -0.00000000000E+00 -0.21724256271E+03  0.21724256271E+03  0.00000000000E+00 0.  1.
          6    1    1    2  501    0 -0.12354718555E+03  0.95844412766E+02 -0.86170718056E+02  0.24791016753E+03  0.17200000000E+03 0.  1.
         -6    1    1    2    0  502  0.12354718555E+03 -0.95844412766E+02  0.21888043378E+03  0.31928467362E+03  0.17200000000E+03 0.  1.
</event>
<event>
 4    1  0.5808486E+000  0.1740415E+03  0.7818608E-02  0.1173698E+00
         21   -1    0    0  503  502  0.00000000000E+00  0.00000000000E+00  0.21352121671E+03  0.21352121671E+03  0.00000000000E+00 0.  1.
         21   -1    0    0  501  503 -0.00000000000E+00 -0.00000000000E+00 -0.48215032872E+03  0.48215032872E+03  0.00000000000E+00 0.  1.
          6    1    1    2  501    0 -0.16946375507E+02  0.20476246410E+02 -0.42653245122E+03  0.46067384151E+03  0.17200000000E+03 0.  1.
         -6    1    1    2    0  502  0.16946375507E+02 -0.20476246410E+02  0.15790333921E+03  0.23499770391E+03  0.17200000000E+03 0.  1.
</event>
<event>
 4    1  0.5808486E+000  0.2064793E+03  0.7818608E-02  0.1144385E+00
         21   -1    0    0  501  502  0.00000000000E+00  0.00000000000E+00  0.60473490322E+03  0.60473490322E+03  0.00000000000E+00 0. -1.
         21   -1    0    0  502  503 -0.00000000000E+00 -0.00000000000E+00 -0.20437864111E+03  0.20437864111E+03  0.00000000000E+00 0.  1.
          6    1    1    2  501    0  0.25420553035E+02  0.11137096576E+03  0.52760753374E+03  0.56657162494E+03  0.17200000000E+03 0. -1.
         -6    1    1    2    0  503 -0.25420553035E+02 -0.11137096576E+03 -0.12725127163E+03  0.24254191939E+03  0.17200000000E+03 0.  1.
</event>
<event>
 4    1  0.5808486E+000  0.1830456E+03  0.7818608E-02  0.1164888E+00
         21   -1    0    0  503  502  0.00000000000E+00  0.00000000000E+00  0.39120707077E+03  0.39120707077E+03  0.00000000000E+00 0.  1.
         21   -1    0    0  501  503 -0.00000000000E+00 -0.00000000000E+00 -0.11718690979E+03  0.11718690979E+03  0.00000000000E+00 0. -1.
          6    1    1    2  501    0 -0.59900011221E+02 -0.18266956435E+02  0.51354031671E+01  0.18311762724E+03  0.17200000000E+03 0. -1.
         -6    1    1    2    0  502  0.59900011221E+02  0.18266956435E+02  0.26888475781E+03  0.32527635331E+03  0.17200000000E+03 0.  1.
</event>
<event>
 4    1  0.5808486E+000  0.1893399E+03  0.7818608E-02  0.1159058E+00
         21   -1    0    0  503  502  0.00000000000E+00  0.00000000000E+00  0.83205436066E+03  0.83205436066E+03  0.00000000000E+00 0. -1.
         21   -1    0    0  501  503 -0.00000000000E+00 -0.00000000000E+00 -0.43095343821E+02  0.43095343821E+02  0.00000000000E+00 0. -1.
          6    1    1    2  501    0 -0.46693013499E+02 -0.63916721736E+02  0.40104961498E+03  0.44349789008E+03  0.17200000000E+03 0.  1.
         -6    1    1    2    0  502  0.46693013499E+02  0.63916721736E+02  0.38790940185E+03  0.43165181440E+03  0.17200000000E+03 0.  1.
</event>
<event>
 4    1  0.5808486E+000  0.2136506E+03  0.7818608E-02  0.1138707E+00
         21   -1    0    0  501  502  0.00000000000E+00  0.00000000000E+00  0.45580599103E+02  0.45580599103E+02  0.00000000000E+00 0.  1.
         21   -1    0    0  502  503 -0.00000000000E+00 -0.00000000000E+00 -0.10328403863E+04  0.10328403863E+04  0.00000000000E+00 0. -1.
          6    1    1    2  501    0 -0.37343069881E+02 -0.12111179900E+03 -0.39962336743E+03  0.45315053627E+03  0.17200000000E+03 0.  1.
         -6    1    1    2    0  503  0.37343069881E+02  0.12111179900E+03 -0.58763641982E+03  0.62527044918E+03  0.17200000000E+03 0. -1.
</event>
<event>
 4    1  0.5808486E+000  0.3090527E+03  0.7818608E-02  0.1080801E+00
         21   -1    0    0  503  502  0.00000000000E+00  0.00000000000E+00  0.79727531010E+03  0.79727531010E+03  0.00000000000E+00 0. -1.
         21   -1    0    0  501  503 -0.00000000000E+00 -0.00000000000E+00 -0.25537552709E+03  0.25537552709E+03  0.00000000000E+00 0.  1.
          6    1    1    2  501    0 -0.25667106719E+03  0.70364637682E+01 -0.11254132808E+03  0.32890591220E+03  0.17200000000E+03 0.  1.
         -6    1    1    2    0  502  0.25667106719E+03 -0.70364637682E+01  0.65444111110E+03  0.72374492499E+03  0.17200000000E+03 0. -1.
</event>
<event>
 4    1  0.5808486E+000  0.2346033E+03  0.7818608E-02  0.1123441E+00
         21   -1    0    0  501  502  0.00000000000E+00  0.00000000000E+00  0.11713914391E+04  0.11713914391E+04  0.00000000000E+00 0. -1.
         21   -1    0    0  502  503 -0.00000000000E+00 -0.00000000000E+00 -0.47437908599E+02  0.47437908599E+02  0.00000000000E+00 0.  1.
          6    1    1    2  501    0 -0.88448800591E+02  0.13278369613E+03  0.50247941864E+03  0.55454870520E+03  0.17200000000E+03 0.  1.
         -6    1    1    2    0  503  0.88448800591E+02 -0.13278369613E+03  0.62147411187E+03  0.66428064250E+03  0.17200000000E+03 0. -1.
</event>
<event>
 4    1  0.5808486E+000  0.1858447E+03  0.7818608E-02  0.1162263E+00
         21   -1    0    0  503  502  0.00000000000E+00  0.00000000000E+00  0.55111569381E+02  0.55111569381E+02  0.00000000000E+00 0.  1.
         21   -1    0    0  501  503 -0.00000000000E+00 -0.00000000000E+00 -0.11946601887E+04  0.11946601887E+04  0.00000000000E+00 0.  1.
          6    1    1    2  501    0 -0.70354447525E+02  0.21254048118E+01 -0.10006366509E+04  0.10177484821E+04  0.17200000000E+03 0.  1.
         -6    1    1    2    0  502  0.70354447525E+02 -0.21254048118E+01 -0.13891196837E+03  0.23202327596E+03  0.17200000000E+03 0.  1.
</event>
<event>
 4    1  0.5808486E+000  0.2660348E+03  0.7818608E-02  0.1103571E+00
         21   -1    0    0  501  502  0.00000000000E+00  0.00000000000E+00  0.15593588938E+04  0.15593588938E+04  0.00000000000E+00 0. -1.
         21   -1    0    0  502  503 -0.00000000000E+00 -0.00000000000E+00 -0.58343024855E+02  0.58343024855E+02  0.00000000000E+00 0. -1.
          6    1    1    2  501    0  0.19687533931E+03  0.49301233168E+02  0.11316712680E+04  0.11625206964E+04  0.17200000000E+03 0. -1.
         -6    1    1    2    0  503 -0.19687533931E+03 -0.49301233168E+02  0.36934460096E+03  0.45518122224E+03  0.17200000000E+03 0. -1.
</event>
<event>
 4    1  0.5808486E+000  0.3404936E+03  0.7818608E-02  0.1066586E+00
         21   -1    0    0  503  502  0.00000000000E+00  0.00000000000E+00  0.10731375558E+04  0.10731375558E+04  0.00000000000E+00 0.  1.
         21   -1    0    0  501  503 -0.00000000000E+00 -0.00000000000E+00 -0.14866957086E+03  0.14866957086E+03  0.00000000000E+00 0. -1.
          6    1    1    2  501    0  0.25013655678E+03 -0.15421923571E+03  0.14285071535E+03  0.36924544219E+03  0.17200000000E+03 0.  1.
         -6    1    1    2    0  502 -0.25013655678E+03  0.15421923571E+03  0.78161726955E+03  0.85256168443E+03  0.17200000000E+03 0. -1.
</event>
<event>
 4    1  0.5808486E+000  0.2948092E+03  0.7818608E-02  0.1087865E+00
         21   -1    0    0  501  502  0.00000000000E+00  0.00000000000E+00  0.14658335767E+04  0.14658335767E+04  0.00000000000E+00 0. -1.
         21   -1    0    0  502  503 -0.00000000000E+00 -0.00000000000E+00 -0.10633015855E+03  0.10633015855E+03  0.00000000000E+00 0.  1.
          6    1    1    2  501    0 -0.76857546386E+02 -0.22676276717E+03  0.12025858962E+04  0.12381943598E+04  0.17200000000E+03 0. -1.
         -6    1    1    2    0  503  0.76857546386E+02  0.22676276717E+03  0.15691752196E+03  0.33396937541E+03  0.17200000000E+03 0.  1.
</event>
<event>
 4    1  0.5808486E+000  0.1898868E+03  0.7818608E-02  0.1158563E+00
         21   -1    0    0  501  502  0.00000000000E+00  0.00000000000E+00  0.40415482514E+03  0.40415482514E+03  0.00000000000E+00 0.  1.
         21   -1    0    0  502  503 -0.00000000000E+00 -0.00000000000E+00 -0.94599720562E+02  0.94599720562E+02  0.00000000000E+00 0.  1.
          6    1    1    2  501    0 -0.52627552013E+02 -0.60855166676E+02  0.21426972360E+03  0.28630145825E+03  0.17200000000E+03 0.  1.
         -6    1    1    2    0  503  0.52627552013E+02  0.60855166676E+02  0.95285380980E+02  0.21245308746E+03  0.17200000000E+03 0.  1.
</event>
<event>
 4    1  0.5808486E+000  0.1753462E+03  0.7818608E-02  0.1172385E+00
         21   -1    0    0  503  502  0.00000000000E+00  0.00000000000E+00  0.38965609733E+03  0.38965609733E+03  0.00000000000E+00 0. -1.
         21   -1    0    0  501  503 -0.00000000000E+00 -0.00000000000E+00 -0.10178926137E+03  0.10178926137E+03  0.00000000000E+00 0. -1.
          6    1    1    2  501    0  0.88035431109E+01 -0.32936180435E+02  0.27426685783E+02  0.17747821682E+03  0.17200000000E+03 0. -1.
         -6    1    1    2    0  502 -0.88035431109E+01  0.32936180435E+02  0.26044015018E+03  0.31396714188E+03  0.17200000000E+03 0. -1.
</event>
<event>
 4    1  0.5808486E+000  0.2131153E+03  0.7818608E-02  0.1139123E+00
         21   -1    0    0  501  502  0.00000000000E+00  0.00000000000E+00  0.38847317220E+03  0.38847317220E+03  0.00000000000E+00 0.  1.
         21   -1    0    0  502  503 -0.00000000000E+00 -0.00000000000E+00 -0.12488320449E+03  0.12488320449E+03  0.00000000000E+00 0.  1.
          6    1    1    2  501    0 -0.53901688446E+02 -0.11370455321E+03  0.19663346922E+03  0.28997040997E+03  0.17200000000E+03 0.  1.
         -6    1    1    2    0  503  0.53901688446E+02  0.11370455321E+03  0.66956498493E+02  0.22338596672E+03  0.17200000000E+03 0.  1.
</event>
<event>
 4    1  0.5808486E+000  0.2038616E+03  0.7818608E-02  0.1146521E+00
         21   -1    0    0  501  502  0.00000000000E+00  0.00000000000E+00  0.18735993139E+04  0.18735993139E+04  0.00000000000E+00 0.  1.
         21   -1    0    0  502  503 -0.00000000000E+00 -0.00000000000E+00 -0.23502168279E+02  0.23502168279E+02  0.00000000000E+00 0.  1.
          6    1    1    2  501    0  0.10942887595E+03 -0.93915160855E+00  0.11498896159E+04  0.11678209151E+04  0.17200000000E+03 0.  1.
         -6    1    1    2    0  503 -0.10942887595E+03  0.93915160855E+00  0.70020752971E+03  0.72928056711E+03  0.17200000000E+03 0.  1.
</event>
<event>
 4    1  0.5808486E+000  0.2006980E+03  0.7818608E-02  0.1149151E+00
         21   -1    0    0  503  502  0.00000000000E+00  0.00000000000E+00  0.24069209035E+03  0.24069209035E+03  0.00000000000E+00 0.  1.
         21   -1    0    0  501  503 -0.00000000000E+00 -0.00000000000E+00 -0.16799657058E+03  0.16799657058E+03  0.00000000000E+00 0. -1.
          6    1    1    2  501    0 -0.33938698152E+02  0.97692626529E+02  0.23665076112E+02  0.20208839734E+03  0.17200000000E+03 0.  1.
         -6    1    1    2    0  502  0.33938698152E+02 -0.97692626529E+02  0.49030443662E+02  0.20660026359E+03  0.17200000000E+03 0. -1.
</event>
<event>
 4    1  0.5808486E+000  0.2928626E+03  0.7818608E-02  0.1088864E+00
         21   -1    0    0  501  502  0.00000000000E+00  0.00000000000E+00  0.50990509558E+03  0.50990509558E+03  0.00000000000E+00 0.  1.
         21   -1    0    0  502  503 -0.00000000000E+00 -0.00000000000E+00 -0.23772568139E+03  0.23772568139E+03  0.00000000000E+00 0. -1.
          6    1    1    2  501    0  0.46540870414E+02  0.23241868632E+03 -0.66061656736E+02  0.30022098671E+03  0.17200000000E+03 0. -1.
         -6    1    1    2    0  503 -0.46540870414E+02 -0.23241868632E+03  0.33824107092E+03  0.44740979026E+03  0.17200000000E+03 0.  1.
</event>
<event>
 4    1  0.5808486E+000  0.1737940E+03  0.7818608E-02  0.1173948E+00
         21   -1    0    0  503  502  0.00000000000E+00  0.00000000000E+00  0.60152141030E+03  0.60152141030E+03  0.00000000000E+00 0.  1.
         21   -1    0    0  501  503 -0.00000000000E+00 -0.00000000000E+00 -0.12678001873E+03  0.12678001873E+03  0.00000000000E+00 0.  1.
          6    1    1    2  501    0 -0.52281676906E+01  0.24352018198E+02 -0.45622422869E+02  0.17968238644E+03  0.17200000000E+03 0.  1.
         -6    1    1    2    0  502  0.52281676906E+01 -0.24352018198E+02  0.52036381443E+03  0.54861904260E+03  0.17200000000E+03 0.  1.
</event>
<event>
 4    1  0.5808486E+000  0.2424110E+03  0.7818608E-02  0.1118197E+00
         21   -1    0    0  503  502  0.00000000000E+00  0.00000000000E+00  0.41450329720E+02  0.41450329720E+02  0.00000000000E+00 0. -1.
         21   -1    0    0  501  503 -0.00000000000E+00 -0.00000000000E+00 -0.14178549340E+04  0.14178549340E+04  0.00000000000E+00 0.  1.
          6    1    1    2  501    0 -0.51024912624E+01 -0.17074266452E+03 -0.67998077662E+03  0.72189815727E+03  0.17200000000E+03 0.  1.
         -6    1    1    2    0  502  0.51024912624E+01  0.17074266452E+03 -0.69642382767E+03  0.73740710646E+03  0.17200000000E+03 0. -1.
</event>
<event>
 4    1  0.5808486E+000  0.4824243E+03  0.7818608E-02  0.1018471E+00
         21   -1    0    0  503  502  0.00000000000E+00  0.00000000000E+00  0.47423266871E+03  0.47423266871E+03  0.00000000000E+00 0. -1.
         21   -1    0    0  501  503 -0.00000000000E+00 -0.00000000000E+00 -0.60390227685E+03  0.60390227685E+03  0.00000000000E+00 0.  1.
          6    1    1    2  501    0  0.24021708711E+03  0.38137241121E+03  0.16849883172E+03  0.51100393468E+03  0.17200000000E+03 0. -1.
         -6    1    1    2    0  502 -0.24021708711E+03 -0.38137241121E+03 -0.29816843985E+03  0.56713101088E+03  0.17200000000E+03 0.  1.
</event>
<event>
 4    1  0.5808486E+000  0.2871161E+03  0.7818608E-02  0.1091865E+00
         21   -1    0    0  503  502  0.00000000000E+00  0.00000000000E+00  0.61098267684E+03  0.61098267684E+03  0.00000000000E+00 0.  1.
         21   -1    0    0  501  503 -0.00000000000E+00 -0.00000000000E+00 -0.20047441650E+03  0.20047441650E+03  0.00000000000E+00 0. -1.
          6    1    1    2  501    0  0.18589452956E+03 -0.13525854464E+03 -0.26750654043E+02  0.28835958023E+03  0.17200000000E+03 0. -1.
         -6    1    1    2    0  502 -0.18589452956E+03  0.13525854464E+03  0.43725891438E+03  0.52309751311E+03  0.17200000000E+03 0.  1.
</event>
<event>
 4    1  0.5808486E+000  0.1727110E+03  0.7818608E-02  0.1175050E+00
         21   -1    0    0  501  502  0.00000000000E+00  0.00000000000E+00  0.10725237981E+04  0.10725237981E+04  0.00000000000E+00 0.  1.
         21   -1    0    0  502  503 -0.00000000000E+00 -0.00000000000E+00 -0.47623714259E+02  0.47623714259E+02  0.00000000000E+00 0.  1.
          6    1    1    2  501    0 -0.15411822181E+02  0.27510175703E+01  0.87368851744E+03  0.89059570955E+03  0.17200000000E+03 0.  1.
         -6    1    1    2    0  503  0.15411822181E+02 -0.27510175703E+01  0.15121156640E+03  0.22955180281E+03  0.17200000000E+03 0.  1.
</event>
<event>
 4    1  0.5808486E+000  0.2847768E+03  0.7818608E-02  0.1093108E+00
         21   -1    0    0  501  502  0.00000000000E+00  0.00000000000E+00  0.10239763281E+04  0.10239763281E+04  0.00000000000E+00 0.  1.
         21   -1    0    0  502  503 -0.00000000000E+00 -0.00000000000E+00 -0.92616749809E+02  0.92616749809E+02  0.00000000000E+00 0. -1.
          6    1    1    2  501    0 -0.10399118746E+02 -0.22672818043E+03  0.67818102589E+03  0.73554558890E+03  0.17200000000E+03 0.  1.
         -6    1    1    2    0  503  0.10399118746E+02  0.22672818043E+03  0.25317855236E+03  0.38104748897E+03  0.17200000000E+03 0. -1.
</event>
<event>
 4    1  0.5808486E+000  0.1797778E+03  0.7818608E-02  0.1168018E+00
         21   -1    0    0  501  502  0.00000000000E+00  0.00000000000E+00  0.62468860605E+02  0.62468860605E+02  0.00000000000E+00 0.  1.
         21   -1    0    0  502  503 -0.00000000000E+00 -0.00000000000E+00 -0.11406058234E+04  0.11406058234E+04  0.00000000000E+00 0.  1.
          6    1    1    2  501    0 -0.54529843315E+01 -0.52022430536E+02 -0.94418872126E+02  0.20306400895E+03  0.17200000000E+03 0.  1.
         -6    1    1    2    0  503  0.54529843315E+01  0.52022430536E+02 -0.98371809065E+03  0.10000106750E+04  0.17200000000E+03 0.  1.
</event>
<event>
 4    1  0.5808486E+000  0.1859470E+03  0.7818608E-02  0.1162168E+00
         21   -1    0    0  503  502  0.00000000000E+00  0.00000000000E+00  0.76767040412E+03  0.76767040412E+03  0.00000000000E+00 0.  1.
         21   -1    0    0  501  503 -0.00000000000E+00 -0.00000000000E+00 -0.67759001657E+02  0.67759001657E+02  0.00000000000E+00 0.  1.
          6    1    1    2  501    0 -0.59854962390E+02  0.37545592010E+02  0.10808361968E+03  0.21507756007E+03  0.17200000000E+03 0.  1.
         -6    1    1    2    0  502  0.59854962390E+02 -0.37545592010E+02  0.59182778278E+03  0.62035184570E+03  0.17200000000E+03 0.  1.
</event>
<event>
 4    1  0.5808486E+000  0.2016072E+03  0.7818608E-02  0.1148390E+00
         21   -1    0    0  501  502  0.00000000000E+00  0.00000000000E+00  0.16118591388E+03  0.16118591388E+03  0.00000000000E+00 0.  1.
         21   -1    0    0  502  503 -0.00000000000E+00 -0.00000000000E+00 -0.53921728168E+03  0.53921728168E+03  0.00000000000E+00 0.  1.
          6    1    1    2  501    0  0.21934759284E+02  0.10286067462E+03  0.66499489386E+02  0.21229138969E+03  0.17200000000E+03 0.  1.
         -6    1    1    2    0  503 -0.21934759284E+02 -0.10286067462E+03 -0.44453085719E+03  0.48811180588E+03  0.17200000000E+03 0.  1.
</event>
<event>
 4    1  0.5808486E+000  0.3079847E+03  0.7818608E-02  0.1081316E+00
         21   -1    0    0  503  502  0.00000000000E+00  0.00000000000E+00  0.20745875829E+03  0.20745875829E+03  0.00000000000E+00 0.  1.
         21   -1    0    0  501  503 -0.00000000000E+00 -0.00000000000E+00 -0.47221438493E+03  0.47221438493E+03  0.00000000000E+00 0. -1.
          6    1    1    2  501    0  0.20067599559E+03 -0.15811290862E+03 -0.19293241210E+03  0.36342463141E+03  0.17200000000E+03 0.  1.
         -6    1    1    2    0  502 -0.20067599559E+03  0.15811290862E+03 -0.71823214544E+02  0.31624851182E+03  0.17200000000E+03 0. -1.
</event>
<event>
 4    1  0.5808486E+000  0.2163280E+03  0.7818608E-02  0.1136651E+00
         21   -1    0    0  501  502  0.00000000000E+00  0.00000000000E+00  0.13147605321E+04  0.13147605321E+04  0.00000000000E+00 0.  1.
         21   -1    0    0  502  503 -0.00000000000E+00 -0.00000000000E+00 -0.35668230776E+02  0.35668230776E+02  0.00000000000E+00 0. -1.
          6    1    1    2  501    0  0.39450432806E+02  0.12512982174E+03  0.67031400059E+03  0.70435691828E+03  0.17200000000E+03 0.  1.
         -6    1    1    2    0  503 -0.39450432806E+02 -0.12512982174E+03  0.60877830071E+03  0.64607184457E+03  0.17200000000E+03 0.  1.
</event>
<event>
 4    1  0.5808486E+000  0.1860802E+03  0.7818608E-02  0.1162045E+00
         21   -1    0    0  503  502  0.00000000000E+00  0.00000000000E+00  0.48165996855E+03  0.48165996855E+03  0.00000000000E+00 0.  1.
         21   -1    0    0  501  503 -0.00000000000E+00 -0.00000000000E+00 -0.18448611988E+03  0.18448611988E+03  0.00000000000E+00 0.  1.
          6    1    1    2  501    0 -0.64302452945E+02  0.30117333124E+02 -0.11162192173E+03  0.21699150357E+03  0.17200000000E+03 0.  1.
         -6    1    1    2    0  502  0.64302452945E+02 -0.30117333124E+02  0.40879577040E+03  0.44915458487E+03  0.17200000000E+03 0.  1.
</event>
<event>
 4    1  0.5808486E+000  0.2348133E+03  0.7818608E-02  0.1123297E+00
         21   -1    0    0  501  502  0.00000000000E+00  0.00000000000E+00  0.18671455351E+03  0.18671455351E+03  0.00000000000E+00 0. -1.
         21   -1    0    0  502  503 -0.00000000000E+00 -0.00000000000E+00 -0.30857192803E+03  0.30857192803E+03  0.00000000000E+00 0.  1.
          6    1    1    2  501    0  0.15945020828E+03 -0.11354532362E+02 -0.95748819490E+01  0.23500845238E+03  0.17200000000E+03 0. -1.
         -6    1    1    2    0  503 -0.15945020828E+03  0.11354532362E+02 -0.11228249257E+03  0.26027802916E+03  0.17200000000E+03 0.  1.
</event>
<event>
 4    1  0.5808486E+000  0.3162438E+03  0.7818608E-02  0.1077391E+00
         21   -1    0    0  501  502  0.00000000000E+00  0.00000000000E+00  0.36864952371E+03  0.36864952371E+03  0.00000000000E+00 0.  1.
         21   -1    0    0  502  503 -0.00000000000E+00 -0.00000000000E+00 -0.85932175742E+03  0.85932175742E+03  0.00000000000E+00 0. -1.
          6    1    1    2  501    0  0.11048253802E+03  0.24128774996E+03  0.26256768312E+03  0.41103765972E+03  0.17200000000E+03 0.  1.
         -6    1    1    2    0  503 -0.11048253802E+03 -0.24128774996E+03 -0.75323991683E+03  0.81693362141E+03  0.17200000000E+03 0. -1.
</event>
<event>
 4    1  0.5808486E+000  0.2723718E+03  0.7818608E-02  0.1099930E+00
         21   -1    0    0  503  502  0.00000000000E+00  0.00000000000E+00  0.11959875013E+04  0.11959875013E+04  0.00000000000E+00 0.  1.
         21   -1    0    0  501  503 -0.00000000000E+00 -0.00000000000E+00 -0.94412179003E+02  0.94412179003E+02  0.00000000000E+00 0. -1.
          6    1    1    2  501    0  0.20794745926E+03  0.36881865105E+02  0.17292226126E+03  0.32262753482E+03  0.17200000000E+03 0. -1.
         -6    1    1    2    0  502 -0.20794745926E+03 -0.36881865105E+02  0.92865306099E+03  0.96777214543E+03  0.17200000000E+03 0.  1.
</event>
<event>
 4    1  0.5808486E+000  0.3130601E+03  0.7818608E-02  0.1078888E+00
         21   -1    0    0  503  502  0.00000000000E+00  0.00000000000E+00  0.63199779201E+02  0.63199779201E+02  0.00000000000E+00 0. -1.
         21   -1    0    0  501  503 -0.00000000000E+00 -0.00000000000E+00 -0.16950667542E+04  0.16950667542E+04  0.00000000000E+00 0.  1.
          6    1    1    2  501    0  0.25299915705E+03  0.66438527269E+02 -0.10724582881E+04  0.11172168237E+04  0.17200000000E+03 0.  1.
         -6    1    1    2    0  502 -0.25299915705E+03 -0.66438527269E+02 -0.55940868693E+03  0.64104970977E+03  0.17200000000E+03 0. -1.
</event>
<event>
 4    1  0.5808486E+000  0.1886768E+03  0.7818608E-02  0.1159660E+00
         21   -1    0    0  503  502  0.00000000000E+00  0.00000000000E+00  0.27679755233E+03  0.27679755233E+03  0.00000000000E+00 0.  1.
         21   -1    0    0  501  503 -0.00000000000E+00 -0.00000000000E+00 -0.16111355657E+03  0.16111355657E+03  0.00000000000E+00 0.  1.
          6    1    1    2  501    0  0.76909197024E+02  0.99964353473E+01 -0.40503590175E+02  0.19297537181E+03  0.17200000000E+03 0.  1.
         -6    1    1    2    0  502 -0.76909197024E+02 -0.99964353473E+01  0.15618758593E+03  0.24493573709E+03  0.17200000000E+03 0.  1.
</event>
<event>
 4    1  0.5808486E+000  0.1877908E+03  0.7818608E-02  0.1160469E+00
         21   -1    0    0  501  502  0.00000000000E+00  0.00000000000E+00  0.11212210617E+04  0.11212210617E+04  0.00000000000E+00 0.  1.
         21   -1    0    0  502  503 -0.00000000000E+00 -0.00000000000E+00 -0.60296428373E+02  0.60296428373E+02  0.00000000000E+00 0.  1.
          6    1    1    2  501    0  0.13446753443E+02 -0.74165841587E+02  0.93905477751E+03  0.95764777576E+03  0.17200000000E+03 0.  1.
         -6    1    1    2    0  503 -0.13446753443E+02  0.74165841587E+02  0.12186985583E+03  0.22386971434E+03  0.17200000000E+03 0.  1.
</event>
<event>
 4    1  0.5808486E+000  0.2027482E+03  0.7818608E-02  0.1147441E+00
         21   -1    0    0  501  502  0.00000000000E+00  0.00000000000E+00  0.57058610882E+02  0.57058610882E+02  0.00000000000E+00 0. -1.
         21   -1    0    0  502  503 -0.00000000000E+00 -0.00000000000E+00 -0.96274153970E+03  0.96274153970E+03  0.00000000000E+00 0. -1.
          6    1    1    2  501    0  0.42381165642E+02  0.98623815506E+02 -0.19703239845E+03  0.28271644138E+03  0.17200000000E+03 0. -1.
         -6    1    1    2    0  503 -0.42381165642E+02 -0.98623815506E+02 -0.70865053037E+03  0.73708370920E+03  0.17200000000E+03 0. -1.
</event>
<event>
 4    1  0.5808486E+000  0.2039255E+03  0.7818608E-02  0.1146469E+00
         21   -1    0    0  501  502  0.00000000000E+00  0.00000000000E+00  0.21700303958E+03  0.21700303958E+03  0.00000000000E+00 0.  1.
         21   -1    0    0  502  503 -0.00000000000E+00 -0.00000000000E+00 -0.22406721448E+03  0.22406721448E+03  0.00000000000E+00 0.  1.
          6    1    1    2  501    0  0.87644570640E+02  0.65726997296E+02 -0.87433597461E+02  0.22187889242E+03  0.17200000000E+03 0.  1.
         -6    1    1    2    0  503 -0.87644570640E+02 -0.65726997296E+02  0.80369422564E+02  0.21919136164E+03  0.17200000000E+03 0.  1.
</event>
<event>
 4    1  0.5808486E+000  0.1948732E+03  0.7818608E-02  0.1154138E+00
         21   -1    0    0  501  502  0.00000000000E+00  0.00000000000E+00  0.14268534601E+04  0.14268534601E+04  0.00000000000E+00 0. -1.
         21   -1    0    0  502  503 -0.00000000000E+00 -0.00000000000E+00 -0.66371793956E+03  0.66371793956E+03  0.00000000000E+00 0. -1.
          6    1    1    2  501    0 -0.22050761850E+02  0.88911957553E+02  0.14056812033E+04  0.14191248069E+04  0.17200000000E+03 0. -1.
         -6    1    1    2    0  503  0.22050761850E+02 -0.88911957553E+02 -0.64254568283E+03  0.67144659268E+03  0.17200000000E+03 0. -1.
</event>
<event>
 4    1  0.5808486E+000  0.2058100E+03  0.7818608E-02  0.1144928E+00
         21   -1    0    0  501  502  0.00000000000E+00  0.00000000000E+00  0.59959198587E+02  0.59959198587E+02  0.00000000000E+00 0.  1.
         21   -1    0    0  502  503 -0.00000000000E+00 -0.00000000000E+00 -0.89823030453E+03  0.89823030453E+03  0.00000000000E+00 0. -1.
          6    1    1    2  501    0  0.50953447685E+02  0.10088364177E+03 -0.19775607481E+03  0.28542114171E+03  0.17200000000E+03 0.  1.
         -6    1    1    2    0  503 -0.50953447685E+02 -0.10088364177E+03 -0.64051503113E+03  0.67276836141E+03  0.17200000000E+03 0. -1.
</event>
<event>
 4    1  0.5808486E+000  0.1838144E+03  0.7818608E-02  0.1164162E+00
         21   -1    0    0  503  502  0.00000000000E+00  0.00000000000E+00  0.14134986398E+03  0.14134986398E+03  0.00000000000E+00 0. -1.
         21   -1    0    0  501  503 -0.00000000000E+00 -0.00000000000E+00 -0.35674103044E+03  0.35674103044E+03  0.00000000000E+00 0. -1.
          6    1    1    2  501    0  0.45000400694E+02 -0.46676668114E+02 -0.25074926782E+03  0.31090664631E+03  0.17200000000E+03 0. -1.
         -6    1    1    2    0  502 -0.45000400694E+02  0.46676668114E+02  0.35358101362E+02  0.18718424811E+03  0.17200000000E+03 0. -1.
</event>
<event>
 4    1  0.5808486E+000  0.2112283E+03  0.7818608E-02  0.1140597E+00
         21   -1    0    0  503  502  0.00000000000E+00  0.00000000000E+00  0.87961551328E+03  0.87961551328E+03  0.00000000000E+00 0. -1.
         21   -1    0    0  501  503 -0.00000000000E+00 -0.00000000000E+00 -0.51567303146E+02  0.51567303146E+02  0.00000000000E+00 0. -1.
          6    1    1    2  501    0 -0.10568602307E+03  0.62159950908E+02  0.47357313369E+03  0.51854499122E+03  0.17200000000E+03 0. -1.
         -6    1    1    2    0  502  0.10568602307E+03 -0.62159950908E+02  0.35447507644E+03  0.41263782520E+03  0.17200000000E+03 0. -1.
</event>
<event>
 4    1  0.5808486E+000  0.2050757E+03  0.7818608E-02  0.1145526E+00
         21   -1    0    0  501  502  0.00000000000E+00  0.00000000000E+00  0.35036026483E+03  0.35036026483E+03  0.00000000000E+00 0.  1.
         21   -1    0    0  502  503 -0.00000000000E+00 -0.00000000000E+00 -0.12031176604E+03  0.12031176604E+03  0.00000000000E+00 0.  1.
          6    1    1    2  501    0  0.10344475752E+03  0.42086004479E+02  0.10376929402E+03  0.22983497561E+03  0.17200000000E+03 0.  1.
         -6    1    1    2    0  503 -0.10344475752E+03 -0.42086004479E+02  0.12627920476E+03  0.24083705526E+03  0.17200000000E+03 0.  1.
</event>
<event>
 4    1  0.5808486E+000  0.1908369E+03  0.7818608E-02  0.1157709E+00
         21   -1    0    0  501  502  0.00000000000E+00  0.00000000000E+00  0.63972332454E+02  0.63972332454E+02  0.00000000000E+00 0.  1.
         21   -1    0    0  502  503 -0.00000000000E+00 -0.00000000000E+00 -0.70312725612E+03  0.70312725612E+03  0.00000000000E+00 0.  1.
          6    1    1    2  501    0  0.27288151145E+02 -0.78038900068E+02 -0.15223901449E+03  0.24412175374E+03  0.17200000000E+03 0.  1.
         -6    1    1    2    0  503 -0.27288151145E+02  0.78038900068E+02 -0.48691590918E+03  0.52297783483E+03  0.17200000000E+03 0.  1.
</event>
<event>
 4    1  0.5808486E+000  0.2343581E+03  0.7818608E-02  0.1123609E+00
         21   -1    0    0  501  502  0.00000000000E+00  0.00000000000E+00  0.36311053161E+03  0.36311053161E+03  0.00000000000E+00 0.  1.
         21   -1    0    0  502  503 -0.00000000000E+00 -0.00000000000E+00 -0.18783337997E+04  0.18783337997E+04  0.00000000000E+00 0.  1.
          6    1    1    2  501    0  0.27278026039E+02 -0.15682999149E+03 -0.18322618939E+04  0.18471890495E+04  0.17200000000E+03 0.  1.
         -6    1    1    2    0  503 -0.27278026039E+02  0.15682999149E+03  0.31703862582E+03  0.39425528176E+03  0.17200000000E+03 0.  1.
</event>
<event>
 4    1  0.5808486E+000  0.2202990E+03  0.7818608E-02  0.1133660E+00
         21   -1    0    0  503  502  0.00000000000E+00  0.00000000000E+00  0.12537908484E+04  0.12537908484E+04  0.00000000000E+00 0. -1.
         21   -1    0    0  501  503 -0.00000000000E+00 -0.00000000000E+00 -0.45713689074E+02  0.45713689074E+02  0.00000000000E+00 0. -1.
          6    1    1    2  501    0 -0.12515274420E+03  0.57309959789E+02  0.85840071056E+03  0.88621860777E+03  0.17200000000E+03 0. -1.
         -6    1    1    2    0  502  0.12515274420E+03 -0.57309959789E+02  0.34967644878E+03  0.41328592972E+03  0.17200000000E+03 0. -1.
</event>
<event>
 4    1  0.5808486E+000  0.1816835E+03  0.7818608E-02  0.1166184E+00
         21   -1    0    0  501  502  0.00000000000E+00  0.00000000000E+00  0.42702981601E+02  0.42702981601E+02  0.00000000000E+00 0.  1.
         21   -1    0    0  502  503 -0.00000000000E+00 -0.00000000000E+00 -0.78055721609E+03  0.78055721609E+03  0.00000000000E+00 0.  1.
          6    1    1    2  501    0 -0.45910831876E+02  0.36291569810E+02 -0.32839149909E+03  0.37529969251E+03  0.17200000000E+03 0.  1.
         -6    1    1    2    0  503  0.45910831876E+02 -0.36291569810E+02 -0.40946273540E+03  0.44796050519E+03  0.17200000000E+03 0.  1.
</event>
<event>
 4    1  0.5808486E+000  0.1729668E+03  0.7818608E-02  0.1174789E+00
         21   -1    0    0  501  502  0.00000000000E+00  0.00000000000E+00  0.48616401201E+02  0.48616401201E+02  0.00000000000E+00 0. -1.
         21   -1    0    0  502  503 -0.00000000000E+00 -0.00000000000E+00 -0.84982393809E+03  0.84982393809E+03  0.00000000000E+00 0. -1.
          6    1    1    2  501    0 -0.10686096637E+02 -0.14809303875E+02 -0.16465632403E+03  0.23880790018E+03  0.17200000000E+03 0. -1.
         -6    1    1    2    0  503  0.10686096637E+02  0.14809303875E+02 -0.63655121286E+03  0.65963243911E+03  0.17200000000E+03 0. -1.
</event>
<event>
 4    1  0.5808486E+000  0.2599815E+03  0.7818608E-02  0.1107154E+00
         21   -1    0    0  503  502  0.00000000000E+00  0.00000000000E+00  0.55419974100E+03  0.55419974100E+03  0.00000000000E+00 0. -1.
         21   -1    0    0  501  503 -0.00000000000E+00 -0.00000000000E+00 -0.27457032190E+03  0.27457032190E+03  0.00000000000E+00 0.  1.
          6    1    1    2  501    0 -0.19145249626E+03  0.36773661346E+02 -0.16912149454E+03  0.31014906160E+03  0.17200000000E+03 0.  1.
         -6    1    1    2    0  502  0.19145249626E+03 -0.36773661346E+02  0.44875091364E+03  0.51862100130E+03  0.17200000000E+03 0. -1.
</event>
<event>
 4    1  0.5808486E+000  0.1783480E+03  0.7818608E-02  0.1169411E+00
         21   -1    0    0  503  502  0.00000000000E+00  0.00000000000E+00  0.12571201512E+04  0.12571201512E+04  0.00000000000E+00 0. -1.
         21   -1    0    0  501  503 -0.00000000000E+00 -0.00000000000E+00 -0.42512635200E+02  0.42512635200E+02  0.00000000000E+00 0.  1.
          6    1    1    2  501    0 -0.33403005770E+02  0.33290411597E+02  0.19385041817E+03  0.26341221863E+03  0.17200000000E+03 0.  1.
         -6    1    1    2    0  502  0.33403005770E+02 -0.33290411597E+02  0.10207570978E+04  0.10362205677E+04  0.17200000000E+03 0. -1.
</event>
<event>
 4    1  0.5808486E+000  0.1898554E+03  0.7818608E-02  0.1158592E+00
         21   -1    0    0  503  502  0.00000000000E+00  0.00000000000E+00  0.85031447385E+02  0.85031447385E+02  0.00000000000E+00 0. -1.
         21   -1    0    0  501  503 -0.00000000000E+00 -0.00000000000E+00 -0.57938164399E+03  0.57938164399E+03  0.00000000000E+00 0. -1.
          6    1    1    2  501    0 -0.71029830288E+02 -0.37627557824E+02 -0.41926740277E+03  0.46025017645E+03  0.17200000000E+03 0. -1.
         -6    1    1    2    0  502  0.71029830288E+02  0.37627557824E+02 -0.75082793830E+02  0.20416291492E+03  0.17200000000E+03 0. -1.
</event>
<event>
 4    1  0.5808486E+000  0.2777355E+03  0.7818608E-02  0.1096932E+00
         21   -1    0    0  503  502  0.00000000000E+00  0.00000000000E+00  0.68090245162E+03  0.68090245162E+03  0.00000000000E+00 0.  1.
         21   -1    0    0  501  503 -0.00000000000E+00 -0.00000000000E+00 -0.19816506341E+03  0.19816506341E+03  0.00000000000E+00 0. -1.
          6    1    1    2  501    0 -0.63803456940E+02  0.20852366713E+03 -0.46290266110E+02  0.28156666991E+03  0.17200000000E+03 0. -1.
         -6    1    1    2    0  502  0.63803456940E+02 -0.20852366713E+03  0.52902765433E+03  0.59750084511E+03  0.17200000000E+03 0.  1.
</event>
<event>
 4    1  0.5808486E+000  0.3913146E+03  0.7818608E-02  0.1046829E+00
         21   -1    0    0  503  502  0.00000000000E+00  0.00000000000E+00  0.51039156476E+03  0.51039156476E+03  0.00000000000E+00 0.  1.
         21   -1    0    0  501  503 -0.00000000000E+00 -0.00000000000E+00 -0.39054402302E+03  0.39054402302E+03  0.00000000000E+00 0. -1.
          6    1    1    2  501    0  0.16484830894E+03  0.31043226174E+03 -0.15695304619E+03  0.42161761443E+03  0.17200000000E+03 0.  1.
         -6    1    1    2    0  502 -0.16484830894E+03 -0.31043226174E+03  0.27680058794E+03  0.47931797335E+03  0.17200000000E+03 0.  1.
</event>
<event>
 4    1  0.5808486E+000  0.1972387E+03  0.7818608E-02  0.1152090E+00
         21   -1    0    0  501  502  0.00000000000E+00  0.00000000000E+00  0.10590948647E+03  0.10590948647E+03  0.00000000000E+00 0. -1.
         21   -1    0    0  502  503 -0.00000000000E+00 -0.00000000000E+00 -0.41892791791E+03  0.41892791791E+03  0.00000000000E+00 0. -1.
          6    1    1    2  501    0 -0.23953531369E+02  0.93516396660E+02 -0.64407697054E+02  0.20748840823E+03  0.17200000000E+03 0. -1.
         -6    1    1    2    0  503  0.23953531369E+02 -0.93516396660E+02 -0.24861073438E+03  0.31734899615E+03  0.17200000000E+03 0. -1.
</event>
<event>
 4    1  0.5808486E+000  0.2432797E+03  0.7818608E-02  0.1117627E+00
         21   -1    0    0  501  502  0.00000000000E+00  0.00000000000E+00  0.23731945863E+02  0.23731945863E+02  0.00000000000E+00 0.  1.
         21   -1    0    0  502  503 -0.00000000000E+00 -0.00000000000E+00 -0.27440163860E+04  0.27440163860E+04  0.00000000000E+00 0. -1.
          6    1    1    2  501    0  0.17055658894E+03 -0.22615516722E+02 -0.94233345244E+03  0.97323036698E+03  0.17200000000E+03 0.  1.
         -6    1    1    2    0  503 -0.17055658894E+03  0.22615516722E+02 -0.17779509877E+04  0.17945179649E+04  0.17200000000E+03 0. -1.
</event>
<event>
 4    1  0.5808486E+000  0.1816490E+03  0.7818608E-02  0.1166217E+00
         21   -1    0    0  503  502  0.00000000000E+00  0.00000000000E+00  0.11890546240E+04  0.11890546240E+04  0.00000000000E+00 0.  1.
         21   -1    0    0  501  503 -0.00000000000E+00 -0.00000000000E+00 -0.27750085915E+02  0.27750085915E+02  0.00000000000E+00 0.  1.
          6    1    1    2  501    0 -0.35821807350E+02  0.46142597582E+02  0.58120037522E+03  0.60892546124E+03  0.17200000000E+03 0.  1.
         -6    1    1    2    0  502  0.35821807350E+02 -0.46142597582E+02  0.58010416287E+03  0.60787924868E+03  0.17200000000E+03 0.  1.
</event>
<event>
 4    1  0.5808486E+000  0.1734628E+03  0.7818608E-02  0.1174284E+00
         21   -1    0    0  503  502  0.00000000000E+00  0.00000000000E+00  0.97770326538E+02  0.97770326538E+02  0.00000000000E+00 0. -1.
         21   -1    0    0  501  503 -0.00000000000E+00 -0.00000000000E+00 -0.60031503051E+03  0.60031503051E+03  0.00000000000E+00 0. -1.
          6    1    1    2  501    0  0.12847226235E+02 -0.18447268318E+02 -0.49493898966E+03  0.52445586698E+03  0.17200000000E+03 0. -1.
         -6    1    1    2    0  502 -0.12847226235E+02  0.18447268318E+02 -0.76057143171E+01  0.17362949007E+03  0.17200000000E+03 0. -1.
</event>
<event>
 4    1  0.5808486E+000  0.1732995E+03  0.7818608E-02  0.1174450E+00
         21   -1    0    0  501  502  0.00000000000E+00  0.00000000000E+00  0.18982643283E+04  0.18982643283E+04  0.00000000000E+00 0. -1.
         21   -1    0    0  502  503 -0.00000000000E+00 -0.00000000000E+00 -0.44367184929E+02  0.44367184929E+02  0.00000000000E+00 0. -1.
          6    1    1    2  501    0 -0.14335634383E+02  0.15595080666E+02  0.17060651120E+04  0.17148442738E+04  0.17200000000E+03 0. -1.
         -6    1    1    2    0  503  0.14335634383E+02 -0.15595080666E+02  0.14783203138E+03  0.22778723945E+03  0.17200000000E+03 0. -1.
</event>
<event>
 4    1  0.5808486E+000  0.1959516E+03  0.7818608E-02  0.1153200E+00
         21   -1    0    0  503  502  0.00000000000E+00  0.00000000000E+00  0.14428074860E+03  0.14428074860E+03  0.00000000000E+00 0.  1.
         21   -1    0    0  501  503 -0.00000000000E+00 -0.00000000000E+00 -0.30085244777E+03  0.30085244777E+03  0.00000000000E+00 0. -1.
          6    1    1    2  501    0  0.91059974326E+02  0.22827860329E+02 -0.15390050113E+03  0.24916338892E+03  0.17200000000E+03 0. -1.
         -6    1    1    2    0  502 -0.91059974326E+02 -0.22827860329E+02 -0.26711980433E+01  0.19596980745E+03  0.17200000000E+03 0.  1.
</event>
<event>
 4    1  0.5808486E+000  0.1844184E+03  0.7818608E-02  0.1163594E+00
         21   -1    0    0  503  502  0.00000000000E+00  0.00000000000E+00  0.23826051880E+03  0.23826051880E+03  0.00000000000E+00 0. -1.
         21   -1    0    0  501  503 -0.00000000000E+00 -0.00000000000E+00 -0.15423886853E+03  0.15423886853E+03  0.00000000000E+00 0. -1.
          6    1    1    2  501    0  0.66093345900E+02  0.76024951959E+01  0.95587342258E+02  0.20771872401E+03  0.17200000000E+03 0. -1.
         -6    1    1    2    0  502 -0.66093345900E+02 -0.76024951959E+01 -0.11565691986E+02  0.18478066332E+03  0.17200000000E+03 0. -1.
</event>
<event>
 4    1  0.5808486E+000  0.1801395E+03  0.7818608E-02  0.1167668E+00
         21   -1    0    0  503  502  0.00000000000E+00  0.00000000000E+00  0.17622279959E+03  0.17622279959E+03  0.00000000000E+00 0. -1.
         21   -1    0    0  501  503 -0.00000000000E+00 -0.00000000000E+00 -0.36857771961E+03  0.36857771961E+03  0.00000000000E+00 0. -1.
          6    1    1    2  501    0  0.53209967073E+02 -0.59096231212E+01 -0.28886965425E+03  0.34043487100E+03  0.17200000000E+03 0. -1.
         -6    1    1    2    0  502 -0.53209967073E+02  0.59096231212E+01  0.96514734236E+02  0.20436564820E+03  0.17200000000E+03 0. -1.
</event>
<event>
 4    1  0.5808486E+000  0.2439932E+03  0.7818608E-02  0.1117161E+00
         21   -1    0    0  501  502  0.00000000000E+00  0.00000000000E+00  0.21449491377E+03  0.21449491377E+03  0.00000000000E+00 0. -1.
         21   -1    0    0  502  503 -0.00000000000E+00 -0.00000000000E+00 -0.32123734180E+03  0.32123734180E+03  0.00000000000E+00 0.  1.
          6    1    1    2  501    0 -0.14043494034E+03 -0.10112709740E+03  0.45413987650E+02  0.24818358642E+03  0.17200000000E+03 0. -1.
         -6    1    1    2    0  503  0.14043494034E+03  0.10112709740E+03 -0.15215641568E+03  0.28754866915E+03  0.17200000000E+03 0.  1.
</event>
<event>
 4    1  0.5808486E+000  0.2302397E+03  0.7818608E-02  0.1126471E+00
         21   -1    0    0  501  502  0.00000000000E+00  0.00000000000E+00  0.14765131403E+04  0.14765131403E+04  0.00000000000E+00 0.  1.
         21   -1    0    0  502  503 -0.00000000000E+00 -0.00000000000E+00 -0.10007020110E+03  0.10007020110E+03  0.00000000000E+00 0. -1.
          6    1    1    2  501    0  0.35333107750E+02  0.14892239373E+03  0.13194596538E+04  0.13393969112E+04  0.17200000000E+03 0.  1.
         -6    1    1    2    0  503 -0.35333107750E+02 -0.14892239373E+03  0.56983285479E+02  0.23718643022E+03  0.17200000000E+03 0. -1.
</event>
<event>
 4    1  0.5808486E+000  0.1755575E+03  0.7818608E-02  0.1172173E+00
         21   -1    0    0  501  502  0.00000000000E+00  0.00000000000E+00  0.17413607183E+03  0.17413607183E+03  0.00000000000E+00 0.  1.
         21   -1    0    0  502  503 -0.00000000000E+00 -0.00000000000E+00 -0.24221969695E+03  0.24221969695E+03  0.00000000000E+00 0.  1.
          6    1    1    2  501    0  0.17281441931E+01 -0.35120652914E+02  0.73989727270E+02  0.19051227384E+03  0.17200000000E+03 0.  1.
         -6    1    1    2    0  503 -0.17281441931E+01  0.35120652914E+02 -0.14207335240E+03  0.22584349494E+03  0.17200000000E+03 0.  1.
</event>
<event>
 4    1  0.5808486E+000  0.2709361E+03  0.7818608E-02  0.1100745E+00
         21   -1    0    0  501  502  0.00000000000E+00  0.00000000000E+00  0.64262795219E+02  0.64262795219E+02  0.00000000000E+00 0.  1.
         21   -1    0    0  502  503 -0.00000000000E+00 -0.00000000000E+00 -0.11530562448E+04  0.11530562448E+04  0.00000000000E+00 0.  1.
          6    1    1    2  501    0 -0.19960730714E+03 -0.63081674595E+02 -0.60322668153E+03  0.66127815936E+03  0.17200000000E+03 0.  1.
         -6    1    1    2    0  503  0.19960730714E+03  0.63081674595E+02 -0.48556676806E+03  0.55604088067E+03  0.17200000000E+03 0.  1.
</event>
<event>
 4    1  0.5808486E+000  0.2628061E+03  0.7818608E-02  0.1105469E+00
         21   -1    0    0  503  502  0.00000000000E+00  0.00000000000E+00  0.66176156196E+03  0.66176156196E+03  0.00000000000E+00 0. -1.
         21   -1    0    0  501  503 -0.00000000000E+00 -0.00000000000E+00 -0.14116214017E+03  0.14116214017E+03  0.00000000000E+00 0.  1.
          6    1    1    2  501    0  0.17477830877E+03 -0.94528226719E+02  0.55338484541E+02  0.26856915447E+03  0.17200000000E+03 0. -1.
         -6    1    1    2    0  502 -0.17477830877E+03  0.94528226719E+02  0.46526093726E+03  0.53435454765E+03  0.17200000000E+03 0. -1.
</event>
<event>
 4    1  0.5808486E+000  0.2049024E+03  0.7818608E-02  0.1145668E+00
         21   -1    0    0  503  502  0.00000000000E+00  0.00000000000E+00  0.11322025738E+04  0.11322025738E+04  0.00000000000E+00 0. -1.
         21   -1    0    0  501  503 -0.00000000000E+00 -0.00000000000E+00 -0.45753206273E+02  0.45753206273E+02  0.00000000000E+00 0. -1.
          6    1    1    2  501    0  0.13951862112E+00  0.11135962659E+03  0.79962207682E+03  0.82545772250E+03  0.17200000000E+03 0. -1.
         -6    1    1    2    0  502 -0.13951862112E+00 -0.11135962659E+03  0.28682729073E+03  0.35249805760E+03  0.17200000000E+03 0. -1.
</event>
<event>
 4    1  0.5808486E+000  0.2252585E+03  0.7818608E-02  0.1130022E+00
         21   -1    0    0  503  502  0.00000000000E+00  0.00000000000E+00  0.36143670933E+03  0.36143670933E+03  0.00000000000E+00 0. -1.
         21   -1    0    0  501  503 -0.00000000000E+00 -0.00000000000E+00 -0.14208373298E+03  0.14208373298E+03  0.00000000000E+00 0. -1.
          6    1    1    2  501    0  0.14459068178E+03 -0.15840490531E+02  0.13718013273E+03  0.26374187232E+03  0.17200000000E+03 0. -1.
         -6    1    1    2    0  502 -0.14459068178E+03  0.15840490531E+02  0.82172843616E+02  0.23977856999E+03  0.17200000000E+03 0. -1.
</event>
<event>
 4    1  0.5808486E+000  0.1852592E+03  0.7818608E-02  0.1162808E+00
         21   -1    0    0  503  502  0.00000000000E+00  0.00000000000E+00  0.24516451076E+03  0.24516451076E+03  0.00000000000E+00 0.  1.
         21   -1    0    0  501  503 -0.00000000000E+00 -0.00000000000E+00 -0.45100977070E+03  0.45100977070E+03  0.00000000000E+00 0.  1.
          6    1    1    2  501    0 -0.54970954029E+02  0.41414667908E+02 -0.39198253907E+03  0.43355656083E+03  0.17200000000E+03 0.  1.
         -6    1    1    2    0  502  0.54970954029E+02 -0.41414667908E+02  0.18613727913E+03  0.26261772063E+03  0.17200000000E+03 0.  1.
</event>
<event>
 4    1  0.5808486E+000  0.1839753E+03  0.7818608E-02  0.1164010E+00
         21   -1    0    0  503  502  0.00000000000E+00  0.00000000000E+00  0.35339854009E+03  0.35339854009E+03  0.00000000000E+00 0.  1.
         21   -1    0    0  501  503 -0.00000000000E+00 -0.00000000000E+00 -0.10846181861E+03  0.10846181861E+03  0.00000000000E+00 0.  1.
          6    1    1    2  501    0 -0.18913091686E+02  0.62491660118E+02  0.43489565040E+02  0.18904564234E+03  0.17200000000E+03 0.  1.
         -6    1    1    2    0  502  0.18913091686E+02 -0.62491660118E+02  0.20144715644E+03  0.27281471635E+03  0.17200000000E+03 0.  1.
</event>
<event>
 4    1  0.5808486E+000  0.1830794E+03  0.7818608E-02  0.1164856E+00
         21   -1    0    0  501  502  0.00000000000E+00  0.00000000000E+00  0.63327116131E+02  0.63327116131E+02  0.00000000000E+00 0. -1.
         21   -1    0    0  502  503 -0.00000000000E+00 -0.00000000000E+00 -0.61744476822E+03  0.61744476822E+03  0.00000000000E+00 0. -1.
          6    1    1    2  501    0 -0.52542114758E+02  0.34254888157E+02 -0.14843879408E+03  0.23569502917E+03  0.17200000000E+03 0. -1.
         -6    1    1    2    0  503  0.52542114758E+02 -0.34254888157E+02 -0.40567885801E+03  0.44507685519E+03  0.17200000000E+03 0. -1.
</event>
<event>
 4    1  0.5808486E+000  0.3199307E+03  0.7818608E-02  0.1075681E+00
         21   -1    0    0  501  502  0.00000000000E+00  0.00000000000E+00  0.20542389254E+03  0.20542389254E+03  0.00000000000E+00 0.  1.
         21   -1    0    0  502  503 -0.00000000000E+00 -0.00000000000E+00 -0.57728091852E+03  0.57728091852E+03  0.00000000000E+00 0.  1.
          6    1    1    2  501    0 -0.24715381237E+03 -0.10810479317E+03 -0.41141325673E+02  0.32256512824E+03  0.17200000000E+03 0.  1.
         -6    1    1    2    0  503  0.24715381237E+03  0.10810479317E+03 -0.33071570031E+03  0.46013968282E+03  0.17200000000E+03 0.  1.
</event>
<event>
 4    1  0.5808486E+000  0.1997704E+03  0.7818608E-02  0.1149933E+00
         21   -1    0    0  503  502  0.00000000000E+00  0.00000000000E+00  0.56021853565E+02  0.56021853565E+02  0.00000000000E+00 0. -1.
         21   -1    0    0  501  503 -0.00000000000E+00 -0.00000000000E+00 -0.77870206945E+03  0.77870206945E+03  0.00000000000E+00 0.  1.
          6    1    1    2  501    0  0.10126573289E+03  0.83334187910E+01 -0.48315332852E+03  0.52282438102E+03  0.17200000000E+03 0.  1.
         -6    1    1    2    0  502 -0.10126573289E+03 -0.83334187910E+01 -0.23952688737E+03  0.31189954200E+03  0.17200000000E+03 0. -1.
</event>
<event>
 4    1  0.5808486E+000  0.2009901E+03  0.7818608E-02  0.1148906E+00
         21   -1    0    0  501  502  0.00000000000E+00  0.00000000000E+00  0.30240909897E+04  0.30240909897E+04  0.00000000000E+00 0.  1.
         21   -1    0    0  502  503 -0.00000000000E+00 -0.00000000000E+00 -0.30292805936E+02  0.30292805936E+02  0.00000000000E+00 0.  1.
          6    1    1    2  501    0 -0.20613936464E+02 -0.10192191018E+03  0.26387486086E+04  0.26463921156E+04  0.17200000000E+03 0.  1.
         -6    1    1    2    0  503  0.20613936464E+02  0.10192191018E+03  0.35504957519E+03  0.40799168006E+03  0.17200000000E+03 0.  1.
</event>
<event>
 4    1  0.5808486E+000  0.2306932E+03  0.7818608E-02  0.1126153E+00
         21   -1    0    0  503  502  0.00000000000E+00  0.00000000000E+00  0.43998252136E+02  0.43998252136E+02  0.00000000000E+00 0. -1.
         21   -1    0    0  501  503 -0.00000000000E+00 -0.00000000000E+00 -0.12987227190E+04  0.12987227190E+04  0.00000000000E+00 0.  1.
          6    1    1    2  501    0  0.10829262733E+03 -0.10912409380E+03 -0.45147149262E+03  0.50699691284E+03  0.17200000000E+03 0. -1.
         -6    1    1    2    0  502 -0.10829262733E+03  0.10912409380E+03 -0.80325297427E+03  0.83572405832E+03  0.17200000000E+03 0. -1.
</event>
<event>
 4    1  0.5808486E+000  0.2439312E+03  0.7818608E-02  0.1117201E+00
         21   -1    0    0  503  502  0.00000000000E+00  0.00000000000E+00  0.59034195729E+02  0.59034195729E+02  0.00000000000E+00 0.  1.
         21   -1    0    0  501  503 -0.00000000000E+00 -0.00000000000E+00 -0.10129745016E+04  0.10129745016E+04  0.00000000000E+00 0.  1.
          6    1    1    2  501    0  0.17118097272E+01  0.17296102714E+03 -0.51478808193E+03  0.56965710432E+03  0.17200000000E+03 0.  1.
         -6    1    1    2    0  502 -0.17118097272E+01 -0.17296102714E+03 -0.43915222389E+03  0.50235159296E+03  0.17200000000E+03 0.  1.
</event>
<event>
 4    1  0.5808486E+000  0.1861461E+03  0.7818608E-02  0.1161984E+00
         21   -1    0    0  501  502  0.00000000000E+00  0.00000000000E+00  0.33485300937E+03  0.33485300937E+03  0.00000000000E+00 0.  1.
         21   -1    0    0  502  503 -0.00000000000E+00 -0.00000000000E+00 -0.10600216208E+03  0.10600216208E+03  0.00000000000E+00 0. -1.
          6    1    1    2  501    0  0.49542791856E+02  0.51106613686E+02  0.14843102101E+03  0.23808011715E+03  0.17200000000E+03 0.  1.
         -6    1    1    2    0  503 -0.49542791856E+02 -0.51106613686E+02  0.80419826287E+02  0.20277505430E+03  0.17200000000E+03 0. -1.
</event>
<event>
 4    1  0.5808486E+000  0.1790394E+03  0.7818608E-02  0.1168736E+00
         21   -1    0    0  501  502  0.00000000000E+00  0.00000000000E+00  0.22342460430E+02  0.22342460430E+02  0.00000000000E+00 0. -1.
         21   -1    0    0  502  503 -0.00000000000E+00 -0.00000000000E+00 -0.15579295718E+04  0.15579295718E+04  0.00000000000E+00 0. -1.
          6    1    1    2  501    0 -0.49655402836E+02  0.23324488730E+01 -0.54558737949E+03  0.57421310330E+03  0.17200000000E+03 0. -1.
         -6    1    1    2    0  503  0.49655402836E+02 -0.23324488730E+01 -0.98999973188E+03  0.10060589289E+04  0.17200000000E+03 0. -1.
</event>
<event>
 4    1  0.5808486E+000  0.2419765E+03  0.7818608E-02  0.1118483E+00
         21   -1    0    0  503  502  0.00000000000E+00  0.00000000000E+00  0.95185480108E+03  0.95185480108E+03  0.00000000000E+00 0. -1.
         21   -1    0    0  501  503 -0.00000000000E+00 -0.00000000000E+00 -0.15958038905E+03  0.15958038905E+03  0.00000000000E+00 0.  1.
          6    1    1    2  501    0 -0.16031476180E+03 -0.57164714238E+02 -0.39498974998E+02  0.24517911092E+03  0.17200000000E+03 0.  1.
         -6    1    1    2    0  502  0.16031476180E+03  0.57164714238E+02  0.83177338702E+03  0.86625607921E+03  0.17200000000E+03 0. -1.
</event>
<event>
 4    1  0.5808486E+000  0.3014906E+03  0.7818608E-02  0.1084498E+00
         21   -1    0    0  503  502  0.00000000000E+00  0.00000000000E+00  0.56273879926E+03  0.56273879926E+03  0.00000000000E+00 0.  1.
         21   -1    0    0  501  503 -0.00000000000E+00 -0.00000000000E+00 -0.20252222213E+03  0.20252222213E+03  0.00000000000E+00 0.  1.
          6    1    1    2  501    0 -0.26584034143E+02  0.24618265626E+03  0.79538047751E+01  0.30159554726E+03  0.17200000000E+03 0.  1.
         -6    1    1    2    0  502  0.26584034143E+02 -0.24618265626E+03  0.35226277236E+03  0.46366547413E+03  0.17200000000E+03 0.  1.
</event>
<event>
 4    1  0.5808486E+000  0.1946797E+03  0.7818608E-02  0.1154307E+00
         21   -1    0    0  503  502  0.00000000000E+00  0.00000000000E+00  0.28662666011E+02  0.28662666011E+02  0.00000000000E+00 0.  1.
         21   -1    0    0  501  503 -0.00000000000E+00 -0.00000000000E+00 -0.13515266189E+04  0.13515266189E+04  0.00000000000E+00 0.  1.
          6    1    1    2  501    0  0.49829753594E+02 -0.76375300221E+02 -0.55992336438E+03  0.59280212956E+03  0.17200000000E+03 0. -1.
         -6    1    1    2    0  502 -0.49829753594E+02  0.76375300221E+02 -0.76294058855E+03  0.78738715540E+03  0.17200000000E+03 0. -1.
</event>
<event>
 4    1  0.5808486E+000  0.1771147E+03  0.7818608E-02  0.1170625E+00
         21   -1    0    0  501  502  0.00000000000E+00  0.00000000000E+00  0.27316897207E+03  0.27316897207E+03  0.00000000000E+00 0. -1.
         21   -1    0    0  502  503 -0.00000000000E+00 -0.00000000000E+00 -0.12237470474E+03  0.12237470474E+03  0.00000000000E+00 0. -1.
          6    1    1    2  501    0  0.41114421814E+02  0.97582464972E+01  0.12448434520E+03  0.21648549895E+03  0.17200000000E+03 0. -1.
         -6    1    1    2    0  503 -0.41114421814E+02 -0.97582464972E+01  0.26309922141E+02  0.17905817786E+03  0.17200000000E+03 0. -1.
</event>
<event>
 4    1  0.5808486E+000  0.2030351E+03  0.7818608E-02  0.1147203E+00
         21   -1    0    0  501  502  0.00000000000E+00  0.00000000000E+00  0.95258090772E+03  0.95258090772E+03  0.00000000000E+00 0.  1.
         21   -1    0    0  502  503 -0.00000000000E+00 -0.00000000000E+00 -0.44253803853E+02  0.44253803853E+02  0.00000000000E+00 0.  1.
          6    1    1    2  501    0 -0.95889220081E+02  0.49441818421E+02  0.52827690673E+03  0.56595028591E+03  0.17200000000E+03 0. -1.
         -6    1    1    2    0  503  0.95889220081E+02 -0.49441818421E+02  0.38005019714E+03  0.43088442567E+03  0.17200000000E+03 0. -1.
</event>
<event>
 4    1  0.5808486E+000  0.1772102E+03  0.7818608E-02  0.1170531E+00
         21   -1    0    0  501  502  0.00000000000E+00  0.00000000000E+00  0.18675539340E+04  0.18675539340E+04  0.00000000000E+00 0. -1.
         21   -1    0    0  502  503 -0.00000000000E+00 -0.00000000000E+00 -0.18818104767E+02  0.18818104767E+02  0.00000000000E+00 0. -1.
          6    1    1    2  501    0  0.36909930393E+02  0.21380281102E+02  0.61666621192E+03  0.64162346926E+03  0.17200000000E+03 0. -1.
         -6    1    1    2    0  503 -0.36909930393E+02 -0.21380281102E+02  0.12320696173E+04  0.12447485695E+04  0.17200000000E+03 0. -1.
</event>
<event>
 4    1  0.5808486E+000  0.2242304E+03  0.7818608E-02  0.1130768E+00
         21   -1    0    0  503  502  0.00000000000E+00  0.00000000000E+00  0.51373906835E+02  0.51373906835E+02  0.00000000000E+00 0. -1.
         21   -1    0    0  501  503 -0.00000000000E+00 -0.00000000000E+00 -0.97886966274E+03  0.97886966274E+03  0.00000000000E+00 0.  1.
          6    1    1    2  501    0 -0.14349287080E+03  0.10250287862E+02 -0.47067215096E+03  0.52135548914E+03  0.17200000000E+03 0.  1.
         -6    1    1    2    0  502  0.14349287080E+03 -0.10250287862E+02 -0.45682360494E+03  0.50888808043E+03  0.17200000000E+03 0.  1.
</event>
<event>
 4    1  0.5808486E+000  0.1943790E+03  0.7818608E-02  0.1154570E+00
         21   -1    0    0  503  502  0.00000000000E+00  0.00000000000E+00  0.15599741830E+04  0.15599741830E+04  0.00000000000E+00 0.  1.
         21   -1    0    0  501  503 -0.00000000000E+00 -0.00000000000E+00 -0.19269315620E+03  0.19269315620E+03  0.00000000000E+00 0.  1.
          6    1    1    2  501    0 -0.63388246093E+02 -0.64661610959E+02 -0.13576936921E+03  0.23710022204E+03  0.17200000000E+03 0.  1.
         -6    1    1    2    0  502  0.63388246093E+02  0.64661610959E+02  0.15030503960E+04  0.15155671171E+04  0.17200000000E+03 0.  1.
</event>
<event>
 4    1  0.5808486E+000  0.1731705E+03  0.7818608E-02  0.1174581E+00
         21   -1    0    0  501  502  0.00000000000E+00  0.00000000000E+00  0.88839590791E+02  0.88839590791E+02  0.00000000000E+00 0.  1.
         21   -1    0    0  502  503 -0.00000000000E+00 -0.00000000000E+00 -0.34420555187E+03  0.34420555187E+03  0.00000000000E+00 0.  1.
          6    1    1    2  501    0 -0.15108862551E+02  0.13256348080E+02 -0.15778607328E+03  0.23427431232E+03  0.17200000000E+03 0. -1.
         -6    1    1    2    0  503  0.15108862551E+02 -0.13256348080E+02 -0.97579887803E+02  0.19877083034E+03  0.17200000000E+03 0. -1.
</event>
<event>
 4    1  0.5808486E+000  0.1975156E+03  0.7818608E-02  0.1151852E+00
         21   -1    0    0  501  502  0.00000000000E+00  0.00000000000E+00  0.11128122797E+04  0.11128122797E+04  0.00000000000E+00 0. -1.
         21   -1    0    0  502  503 -0.00000000000E+00 -0.00000000000E+00 -0.51765330864E+02  0.51765330864E+02  0.00000000000E+00 0. -1.
          6    1    1    2  501    0  0.59732618999E+02  0.76553409200E+02  0.86133379628E+03  0.88369017130E+03  0.17200000000E+03 0. -1.
         -6    1    1    2    0  503 -0.59732618999E+02 -0.76553409200E+02  0.19971315254E+03  0.28088743926E+03  0.17200000000E+03 0. -1.
</event>
<event>
 4    1  0.5808486E+000  0.2614526E+03  0.7818608E-02  0.1106274E+00
         21   -1    0    0  503  502  0.00000000000E+00  0.00000000000E+00  0.87559427039E+03  0.87559427039E+03  0.00000000000E+00 0. -1.
         21   -1    0    0  501  503 -0.00000000000E+00 -0.00000000000E+00 -0.80977722936E+02  0.80977722936E+02  0.00000000000E+00 0. -1.
          6    1    1    2  501    0 -0.18708191119E+03  0.61431237247E+02  0.30667263700E+03  0.40299571299E+03  0.17200000000E+03 0. -1.
         -6    1    1    2    0  502  0.18708191119E+03 -0.61431237247E+02  0.48794391045E+03  0.55357628033E+03  0.17200000000E+03 0. -1.
</event>
<event>
 4    1  0.5808486E+000  0.2018977E+03  0.7818608E-02  0.1148148E+00
         21   -1    0    0  503  502  0.00000000000E+00  0.00000000000E+00  0.84825203025E+03  0.84825203025E+03  0.00000000000E+00 0. -1.
         21   -1    0    0  501  503 -0.00000000000E+00 -0.00000000000E+00 -0.53572190986E+02  0.53572190986E+02  0.00000000000E+00 0.  1.
          6    1    1    2  501    0 -0.50219645398E+02 -0.93041289089E+02  0.25263481493E+03  0.32339920218E+03  0.17200000000E+03 0.  1.
         -6    1    1    2    0  502  0.50219645398E+02  0.93041289089E+02  0.54204502434E+03  0.57842501905E+03  0.17200000000E+03 0. -1.
</event>
<event>
 4    1  0.5808486E+000  0.1820734E+03  0.7818608E-02  0.1165811E+00
         21   -1    0    0  503  502  0.00000000000E+00  0.00000000000E+00  0.49482003576E+03  0.49482003576E+03  0.00000000000E+00 0. -1.
         21   -1    0    0  501  503 -0.00000000000E+00 -0.00000000000E+00 -0.67045140686E+02  0.67045140686E+02  0.00000000000E+00 0.  1.
          6    1    1    2  501    0 -0.55369694261E+02 -0.22381284405E+02  0.20624459013E+03  0.27511371448E+03  0.17200000000E+03 0.  1.
         -6    1    1    2    0  502  0.55369694261E+02  0.22381284405E+02  0.22153030494E+03  0.28675146197E+03  0.17200000000E+03 0.  1.
</event>
<event>
 4    1  0.5808486E+000  0.1782802E+03  0.7818608E-02  0.1169478E+00
         21   -1    0    0  503  502  0.00000000000E+00  0.00000000000E+00  0.21083279692E+03  0.21083279692E+03  0.00000000000E+00 0. -1.
         21   -1    0    0  501  503 -0.00000000000E+00 -0.00000000000E+00 -0.18770817334E+03  0.18770817334E+03  0.00000000000E+00 0. -1.
          6    1    1    2  501    0  0.46901808029E+02 -0.18124738900E+00  0.99979199386E+02  0.20440071614E+03  0.17200000000E+03 0.  1.
         -6    1    1    2    0  502 -0.46901808029E+02  0.18124738900E+00 -0.76854575812E+02  0.19414025412E+03  0.17200000000E+03 0.  1.
</event>
<event>
 4    1  0.5808486E+000  0.2281989E+03  0.7818608E-02  0.1127914E+00
         21   -1    0    0  503  502  0.00000000000E+00  0.00000000000E+00  0.37574833186E+03  0.37574833186E+03  0.00000000000E+00 0. -1.
         21   -1    0    0  501  503 -0.00000000000E+00 -0.00000000000E+00 -0.13950216314E+03  0.13950216314E+03  0.00000000000E+00 0.  1.
          6    1    1    2  501    0  0.14588931051E+03  0.34742728644E+02  0.13896171816E+03  0.26717991546E+03  0.17200000000E+03 0.  1.
         -6    1    1    2    0  502 -0.14588931051E+03 -0.34742728644E+02  0.97284450560E+02  0.24807057954E+03  0.17200000000E+03 0. -1.
</event>
<event>
 4    1  0.5808486E+000  0.2155583E+03  0.7818608E-02  0.1137239E+00
         21   -1    0    0  503  502  0.00000000000E+00  0.00000000000E+00  0.60843602842E+03  0.60843602842E+03  0.00000000000E+00 0.  1.
         21   -1    0    0  501  503 -0.00000000000E+00 -0.00000000000E+00 -0.79906063304E+02  0.79906063304E+02  0.00000000000E+00 0.  1.
          6    1    1    2  501    0  0.71663639318E+02 -0.10837756031E+03  0.19184907849E+03  0.28856791522E+03  0.17200000000E+03 0.  1.
         -6    1    1    2    0  502 -0.71663639318E+02  0.10837756031E+03  0.33668088662E+03  0.39977417650E+03  0.17200000000E+03 0.  1.
</event>
<event>
 4    1  0.5808486E+000  0.1888822E+03  0.7818608E-02  0.1159473E+00
         21   -1    0    0  503  502  0.00000000000E+00  0.00000000000E+00  0.20942647471E+02  0.20942647471E+02  0.00000000000E+00 0. -1.
         21   -1    0    0  501  503 -0.00000000000E+00 -0.00000000000E+00 -0.17687127676E+04  0.17687127676E+04  0.00000000000E+00 0. -1.
          6    1    1    2  501    0 -0.65511413716E+02 -0.42434954139E+02 -0.10456641980E+04  0.10625865073E+04  0.17200000000E+03 0. -1.
         -6    1    1    2    0  502  0.65511413716E+02  0.42434954139E+02 -0.70210592214E+03  0.72706890771E+03  0.17200000000E+03 0. -1.
</event>
<event>
 4    1  0.5808486E+000  0.1801243E+03  0.7818608E-02  0.1167683E+00
         21   -1    0    0  503  502  0.00000000000E+00  0.00000000000E+00  0.15138314598E+04  0.15138314598E+04  0.00000000000E+00 0. -1.
         21   -1    0    0  501  503 -0.00000000000E+00 -0.00000000000E+00 -0.63288065900E+02  0.63288065900E+02  0.00000000000E+00 0. -1.
          6    1    1    2  501    0  0.49748425253E+02  0.19643167401E+02  0.83985645426E+02  0.19874191425E+03  0.17200000000E+03 0. -1.
         -6    1    1    2    0  502 -0.49748425253E+02 -0.19643167401E+02  0.13665577485E+04  0.13783776115E+04  0.17200000000E+03 0. -1.
</event>
<event>
 4    1  0.5808486E+000  0.3544110E+03  0.7818608E-02  0.1060819E+00
         21   -1    0    0  501  502  0.00000000000E+00  0.00000000000E+00  0.18896902251E+03  0.18896902251E+03  0.00000000000E+00 0. -1.
         21   -1    0    0  502  503 -0.00000000000E+00 -0.00000000000E+00 -0.66719240357E+03  0.66719240357E+03  0.00000000000E+00 0. -1.
          6    1    1    2  501    0 -0.28286081107E+03  0.12654210294E+03 -0.26529174571E+03  0.44270402370E+03  0.17200000000E+03 0. -1.
         -6    1    1    2    0  503  0.28286081107E+03 -0.12654210294E+03 -0.21293163535E+03  0.41345740239E+03  0.17200000000E+03 0. -1.
</event>
<event>
 4    1  0.5808486E+000  0.2149264E+03  0.7818608E-02  0.1137723E+00
         21   -1    0    0  501  502  0.00000000000E+00  0.00000000000E+00  0.45761163404E+03  0.45761163404E+03  0.00000000000E+00 0.  1.
         21   -1    0    0  502  503 -0.00000000000E+00 -0.00000000000E+00 -0.10321825233E+03  0.10321825233E+03  0.00000000000E+00 0.  1.
          6    1    1    2  501    0 -0.52197317780E+01 -0.12877161589E+03  0.13557736002E+03  0.25411531872E+03  0.17200000000E+03 0.  1.
         -6    1    1    2    0  503  0.52197317780E+01  0.12877161589E+03  0.21881602168E+03  0.30671456764E+03  0.17200000000E+03 0.  1.
</event>
<event>
 4    1  0.5808486E+000  0.3491415E+03  0.7818608E-02  0.1062968E+00
         21   -1    0    0  501  502  0.00000000000E+00  0.00000000000E+00  0.45259105992E+03  0.45259105992E+03  0.00000000000E+00 0. -1.
         21   -1    0    0  502  503 -0.00000000000E+00 -0.00000000000E+00 -0.34198922464E+03  0.34198922464E+03  0.00000000000E+00 0.  1.
          6    1    1    2  501    0  0.76885238955E+02 -0.29394636164E+03  0.23841601543E+03  0.42277890191E+03  0.17200000000E+03 0.  1.
         -6    1    1    2    0  503 -0.76885238955E+02  0.29394636164E+03 -0.12781418015E+03  0.37180138265E+03  0.17200000000E+03 0. -1.
</event>
<event>
 4    1  0.5808486E+000  0.1897581E+03  0.7818608E-02  0.1158680E+00
         21   -1    0    0  503  502  0.00000000000E+00  0.00000000000E+00  0.13221361193E+03  0.13221361193E+03  0.00000000000E+00 0. -1.
         21   -1    0    0  501  503 -0.00000000000E+00 -0.00000000000E+00 -0.29761961044E+03  0.29761961044E+03  0.00000000000E+00 0.  1.
          6    1    1    2  501    0 -0.57776379650E+02 -0.55551941292E+02 -0.14532899836E+03  0.23901599526E+03  0.17200000000E+03 0. -1.
         -6    1    1    2    0  502  0.57776379650E+02  0.55551941292E+02 -0.20077000153E+02  0.19081722711E+03  0.17200000000E+03 0.  1.
</event>
<event>
 4    1  0.5808486E+000  0.2471314E+03  0.7818608E-02  0.1115131E+00
         21   -1    0    0  501  502  0.00000000000E+00  0.00000000000E+00  0.32835224340E+03  0.32835224340E+03  0.00000000000E+00 0.  1.
         21   -1    0    0  502  503 -0.00000000000E+00 -0.00000000000E+00 -0.36466879820E+03  0.36466879820E+03  0.00000000000E+00 0. -1.
          6    1    1    2  501    0  0.16209904262E+03 -0.72206767448E+02  0.22438542421E+03  0.33380044260E+03  0.17200000000E+03 0.  1.
         -6    1    1    2    0  503 -0.16209904262E+03  0.72206767448E+02 -0.26070197901E+03  0.35922059900E+03  0.17200000000E+03 0. -1.
</event>
<event>
 4    1  0.5808486E+000  0.1940362E+03  0.7818608E-02  0.1154871E+00
         21   -1    0    0  501  502  0.00000000000E+00  0.00000000000E+00  0.49605455510E+02  0.49605455510E+02  0.00000000000E+00 0. -1.
         21   -1    0    0  502  503 -0.00000000000E+00 -0.00000000000E+00 -0.11714115500E+04  0.11714115500E+04  0.00000000000E+00 0. -1.
          6    1    1    2  501    0  0.89810421519E+02 -0.35424171876E+00 -0.19865361011E+03  0.27769280529E+03  0.17200000000E+03 0. -1.
         -6    1    1    2    0  503 -0.89810421519E+02  0.35424171876E+00 -0.92315248434E+03  0.94332420017E+03  0.17200000000E+03 0. -1.
</event>
<event>
 4    1  0.5808486E+000  0.2041550E+03  0.7818608E-02  0.1146280E+00
         21   -1    0    0  501  502  0.00000000000E+00  0.00000000000E+00  0.19294150496E+03  0.19294150496E+03  0.00000000000E+00 0. -1.
         21   -1    0    0  502  503 -0.00000000000E+00 -0.00000000000E+00 -0.25894340336E+03  0.25894340336E+03  0.00000000000E+00 0.  1.
          6    1    1    2  501    0 -0.61452461471E+02 -0.91207798052E+02  0.58989205424E+02  0.21250645591E+03  0.17200000000E+03 0. -1.
         -6    1    1    2    0  503  0.61452461471E+02  0.91207798052E+02 -0.12499110381E+03  0.23937845241E+03  0.17200000000E+03 0.  1.
</event>
<event>
 4    1  0.5808486E+000  0.1818710E+03  0.7818608E-02  0.1166004E+00
         21   -1    0    0  501  502  0.00000000000E+00  0.00000000000E+00  0.66562544069E+03  0.66562544069E+03  0.00000000000E+00 0.  1.
         21   -1    0    0  502  503 -0.00000000000E+00 -0.00000000000E+00 -0.63284171906E+02  0.63284171906E+02  0.00000000000E+00 0.  1.
          6    1    1    2  501    0  0.56868818643E+02  0.16093362459E+02  0.47006741510E+03  0.50402423908E+03  0.17200000000E+03 0.  1.
         -6    1    1    2    0  503 -0.56868818643E+02 -0.16093362459E+02  0.13227385368E+03  0.22488537351E+03  0.17200000000E+03 0.  1.
</event>
<event>
 4    1  0.5808486E+000  0.1837880E+03  0.7818608E-02  0.1164187E+00
         21   -1    0    0  501  502  0.00000000000E+00  0.00000000000E+00  0.20691047642E+03  0.20691047642E+03  0.00000000000E+00 0. -1.
         21   -1    0    0  502  503 -0.00000000000E+00 -0.00000000000E+00 -0.16465808155E+03  0.16465808155E+03  0.00000000000E+00 0. -1.
          6    1    1    2  501    0 -0.64207788962E+02  0.84489714746E+01  0.39426310485E+01  0.18383027395E+03  0.17200000000E+03 0. -1.
         -6    1    1    2    0  503  0.64207788962E+02 -0.84489714746E+01  0.38309763813E+02  0.18773828402E+03  0.17200000000E+03 0. -1.
</event>
<event>
 4    1  0.5808486E+000  0.1757740E+03  0.7818608E-02  0.1171957E+00
         21   -1    0    0  501  502  0.00000000000E+00  0.00000000000E+00  0.72644561068E+03  0.72644561068E+03  0.00000000000E+00 0.  1.
         21   -1    0    0  502  503 -0.00000000000E+00 -0.00000000000E+00 -0.48778230834E+02  0.48778230834E+02  0.00000000000E+00 0.  1.
          6    1    1    2  501    0 -0.17361157574E+02  0.31797890917E+02  0.20011814466E+03  0.26635275009E+03  0.17200000000E+03 0.  1.
         -6    1    1    2    0  503  0.17361157574E+02 -0.31797890917E+02  0.47754923518E+03  0.50887109142E+03  0.17200000000E+03 0.  1.
</event>
<event>
 4    1  0.5808486E+000  0.1946130E+03  0.7818608E-02  0.1154365E+00
         21   -1    0    0  501  502  0.00000000000E+00  0.00000000000E+00  0.43898975210E+02  0.43898975210E+02  0.00000000000E+00 0. -1.
         21   -1    0    0  502  503 -0.00000000000E+00 -0.00000000000E+00 -0.12674837242E+04  0.12674837242E+04  0.00000000000E+00 0. -1.
          6    1    1    2  501    0  0.83407155683E+02 -0.36516466107E+02 -0.24127507197E+03  0.30998042885E+03  0.17200000000E+03 0. -1.
         -6    1    1    2    0  503 -0.83407155683E+02  0.36516466107E+02 -0.98230967706E+03  0.10014022706E+04  0.17200000000E+03 0. -1.
</event>
<event>
 4    1  0.5808486E+000  0.1853154E+03  0.7818608E-02  0.1162756E+00
         21   -1    0    0  501  502  0.00000000000E+00  0.00000000000E+00  0.81141416474E+02  0.81141416474E+02  0.00000000000E+00 0. -1.
         21   -1    0    0  502  503 -0.00000000000E+00 -0.00000000000E+00 -0.93735191194E+03  0.93735191194E+03  0.00000000000E+00 0.  1.
          6    1    1    2  501    0 -0.68735064527E+02  0.57694401393E+01 -0.50960311145E+02  0.19219455988E+03  0.17200000000E+03 0. -1.
         -6    1    1    2    0  503  0.68735064527E+02 -0.57694401393E+01 -0.80525018432E+03  0.82629876853E+03  0.17200000000E+03 0.  1.
</event>
<event>
 4    1  0.5808486E+000  0.1804927E+03  0.7818608E-02  0.1167327E+00
         21   -1    0    0  501  502  0.00000000000E+00  0.00000000000E+00  0.60805073207E+02  0.60805073207E+02  0.00000000000E+00 0.  1.
         21   -1    0    0  502  503 -0.00000000000E+00 -0.00000000000E+00 -0.62477367785E+03  0.62477367785E+03  0.00000000000E+00 0.  1.
          6    1    1    2  501    0  0.22607963963E+01 -0.54667059662E+02 -0.15260423353E+03  0.23635915616E+03  0.17200000000E+03 0.  1.
         -6    1    1    2    0  503 -0.22607963963E+01  0.54667059662E+02 -0.41136437112E+03  0.44921959489E+03  0.17200000000E+03 0.  1.
</event>
<event>
 4    1  0.5808486E+000  0.3950455E+03  0.7818608E-02  0.1045509E+00
         21   -1    0    0  503  502  0.00000000000E+00  0.00000000000E+00  0.45940957168E+03  0.45940957168E+03  0.00000000000E+00 0. -1.
         21   -1    0    0  501  503 -0.00000000000E+00 -0.00000000000E+00 -0.64586193276E+03  0.64586193276E+03  0.00000000000E+00 0.  1.
          6    1    1    2  501    0  0.33503208879E+03  0.11929135005E+03  0.28726580067E+03  0.48844914469E+03  0.17200000000E+03 0. -1.
         -6    1    1    2    0  502 -0.33503208879E+03 -0.11929135005E+03 -0.47371816175E+03  0.61682235975E+03  0.17200000000E+03 0.  1.
</event>
<event>
 4    1  0.5808486E+000  0.1734745E+03  0.7818608E-02  0.1174272E+00
         21   -1    0    0  503  502  0.00000000000E+00  0.00000000000E+00  0.59179069195E+02  0.59179069195E+02  0.00000000000E+00 0. -1.
         21   -1    0    0  501  503 -0.00000000000E+00 -0.00000000000E+00 -0.60997604166E+03  0.60997604166E+03  0.00000000000E+00 0. -1.
          6    1    1    2  501    0 -0.18991266707E+02  0.12195553456E+02 -0.41185418812E+03  0.44689738420E+03  0.17200000000E+03 0.  1.
         -6    1    1    2    0  502  0.18991266707E+02 -0.12195553456E+02 -0.13894278434E+03  0.22225772665E+03  0.17200000000E+03 0.  1.
</event>
<event>
 4    1  0.5808486E+000  0.1868253E+03  0.7818608E-02  0.1161356E+00
         21   -1    0    0  503  502  0.00000000000E+00  0.00000000000E+00  0.10599416971E+03  0.10599416971E+03  0.00000000000E+00 0.  1.
         21   -1    0    0  501  503 -0.00000000000E+00 -0.00000000000E+00 -0.37611783881E+03  0.37611783881E+03  0.00000000000E+00 0.  1.
          6    1    1    2  501    0  0.71123331043E+02  0.16160280595E+02 -0.22011104720E+03  0.28870842729E+03  0.17200000000E+03 0.  1.
         -6    1    1    2    0  502 -0.71123331043E+02 -0.16160280595E+02 -0.50012621900E+02  0.19340358124E+03  0.17200000000E+03 0.  1.
</event>
<event>
 4    1  0.5808486E+000  0.2227711E+03  0.7818608E-02  0.1131834E+00
         21   -1    0    0  503  502  0.00000000000E+00  0.00000000000E+00  0.13578949391E+03  0.13578949391E+03  0.00000000000E+00 0. -1.
         21   -1    0    0  501  503 -0.00000000000E+00 -0.00000000000E+00 -0.44273525266E+03  0.44273525266E+03  0.00000000000E+00 0.  1.
          6    1    1    2  501    0 -0.59378617897E+02 -0.12851896300E+03 -0.27431348178E+03  0.35337632971E+03  0.17200000000E+03 0.  1.
         -6    1    1    2    0  502  0.59378617897E+02  0.12851896300E+03 -0.32632276966E+02  0.22514841686E+03  0.17200000000E+03 0.  1.
</event>
<event>
 4    1  0.5808486E+000  0.2024922E+03  0.7818608E-02  0.1147653E+00
         21   -1    0    0  503  502  0.00000000000E+00  0.00000000000E+00  0.63111159702E+03  0.63111159702E+03  0.00000000000E+00 0.  1.
         21   -1    0    0  501  503 -0.00000000000E+00 -0.00000000000E+00 -0.79495902113E+02  0.79495902113E+02  0.00000000000E+00 0.  1.
          6    1    1    2  501    0 -0.10614262336E+03 -0.12363181281E+02  0.42768907051E+03  0.47320296468E+03  0.17200000000E+03 0.  1.
         -6    1    1    2    0  502  0.10614262336E+03  0.12363181281E+02  0.12392662440E+03  0.23740453446E+03  0.17200000000E+03 0.  1.
</event>
<event>
 4    1  0.5808486E+000  0.2058946E+03  0.7818608E-02  0.1144859E+00
         21   -1    0    0  503  502  0.00000000000E+00  0.00000000000E+00  0.46562200030E+03  0.46562200030E+03  0.00000000000E+00 0.  1.
         21   -1    0    0  501  503 -0.00000000000E+00 -0.00000000000E+00 -0.55769511641E+03  0.55769511641E+03  0.00000000000E+00 0.  1.
          6    1    1    2  501    0 -0.88753836656E+02  0.70223604592E+02 -0.51407062808E+03  0.55376999631E+03  0.17200000000E+03 0.  1.
         -6    1    1    2    0  502  0.88753836656E+02 -0.70223604592E+02  0.42199751197E+03  0.46954712039E+03  0.17200000000E+03 0.  1.
</event>
<event>
 4    1  0.5808486E+000  0.1903200E+03  0.7818608E-02  0.1158173E+00
         21   -1    0    0  503  502  0.00000000000E+00  0.00000000000E+00  0.45615948733E+02  0.45615948733E+02  0.00000000000E+00 0. -1.
         21   -1    0    0  501  503 -0.00000000000E+00 -0.00000000000E+00 -0.79406821927E+03  0.79406821927E+03  0.00000000000E+00 0. -1.
          6    1    1    2  501    0 -0.39163525408E+02 -0.71441784726E+02 -0.37272210462E+03  0.41850146666E+03  0.17200000000E+03 0. -1.
         -6    1    1    2    0  502  0.39163525408E+02  0.71441784726E+02 -0.37573016591E+03  0.42118270134E+03  0.17200000000E+03 0. -1.
</event>
<event>
 4    1  0.5808486E+000  0.2462759E+03  0.7818608E-02  0.1115681E+00
         21   -1    0    0  501  502  0.00000000000E+00  0.00000000000E+00  0.94377053029E+03  0.94377053029E+03  0.00000000000E+00 0. -1.
         21   -1    0    0  502  503 -0.00000000000E+00 -0.00000000000E+00 -0.75435687893E+02  0.75435687893E+02  0.00000000000E+00 0. -1.
          6    1    1    2  501    0  0.15965381987E+03 -0.74689285675E+02  0.63026624151E+03  0.67667375210E+03  0.17200000000E+03 0. -1.
         -6    1    1    2    0  503 -0.15965381987E+03  0.74689285675E+02  0.23806860089E+03  0.34253246609E+03  0.17200000000E+03 0. -1.
</event>
<event>
 4    1  0.5808486E+000  0.2187034E+03  0.7818608E-02  0.1134853E+00
         21   -1    0    0  503  502  0.00000000000E+00  0.00000000000E+00  0.44568206918E+03  0.44568206918E+03  0.00000000000E+00 0. -1.
         21   -1    0    0  501  503 -0.00000000000E+00 -0.00000000000E+00 -0.10734263982E+03  0.10734263982E+03  0.00000000000E+00 0. -1.
          6    1    1    2  501    0  0.11271101524E+03 -0.74454166436E+02  0.16527442459E+03  0.27412922369E+03  0.17200000000E+03 0. -1.
         -6    1    1    2    0  502 -0.11271101524E+03  0.74454166436E+02  0.17306500477E+03  0.27889548532E+03  0.17200000000E+03 0. -1.
</event>
<event>
 4    1  0.5808486E+000  0.1983821E+03  0.7818608E-02  0.1151111E+00
         21   -1    0    0  501  502  0.00000000000E+00  0.00000000000E+00  0.40098849314E+03  0.40098849314E+03  0.00000000000E+00 0.  1.
         21   -1    0    0  502  503 -0.00000000000E+00 -0.00000000000E+00 -0.16505496963E+03  0.16505496963E+03  0.00000000000E+00 0.  1.
          6    1    1    2  501    0  0.81600809043E+01 -0.98513353104E+02  0.29816363009E+03  0.35812988980E+03  0.17200000000E+03 0.  1.
         -6    1    1    2    0  503 -0.81600809043E+01  0.98513353104E+02 -0.62230106576E+02  0.20791357297E+03  0.17200000000E+03 0.  1.
</event>
<event>
 4    1  0.5808486E+000  0.1956618E+03  0.7818608E-02  0.1153452E+00
         21   -1    0    0  501  502  0.00000000000E+00  0.00000000000E+00  0.16682202502E+04  0.16682202502E+04  0.00000000000E+00 0. -1.
         21   -1    0    0  502  503 -0.00000000000E+00 -0.00000000000E+00 -0.38377443021E+02  0.38377443021E+02  0.00000000000E+00 0. -1.
          6    1    1    2  501    0 -0.91284399572E+02  0.19149558745E+02  0.13559595640E+04  0.13700036081E+04  0.17200000000E+03 0. -1.
         -6    1    1    2    0  503  0.91284399572E+02 -0.19149558745E+02  0.27388324327E+03  0.33659408514E+03  0.17200000000E+03 0. -1.
</event>
<event>
 4    1  0.5808486E+000  0.1777185E+03  0.7818608E-02  0.1170030E+00
         21   -1    0    0  501  502  0.00000000000E+00  0.00000000000E+00  0.86779111430E+03  0.86779111430E+03  0.00000000000E+00 0.  1.
         21   -1    0    0  502  503 -0.00000000000E+00 -0.00000000000E+00 -0.36489397433E+02  0.36489397433E+02  0.00000000000E+00 0.  1.
          6    1    1    2  501    0 -0.42460621178E+02 -0.14033837198E+02  0.39273764264E+03  0.43107622166E+03  0.17200000000E+03 0.  1.
         -6    1    1    2    0  503  0.42460621178E+02  0.14033837198E+02  0.43856407423E+03  0.47320429007E+03  0.17200000000E+03 0.  1.
</event>
<event>
 4    1  0.5808486E+000  0.2268840E+03  0.7818608E-02  0.1128852E+00
         21   -1    0    0  501  502  0.00000000000E+00  0.00000000000E+00  0.22098062898E+03  0.22098062898E+03  0.00000000000E+00 0. -1.
         21   -1    0    0  502  503 -0.00000000000E+00 -0.00000000000E+00 -0.27917825172E+03  0.27917825172E+03  0.00000000000E+00 0. -1.
          6    1    1    2  501    0  0.48440199587E+02  0.13980668919E+03  0.72669780473E+02  0.23823782293E+03  0.17200000000E+03 0. -1.
         -6    1    1    2    0  503 -0.48440199587E+02 -0.13980668919E+03 -0.13086740322E+03  0.26192105777E+03  0.17200000000E+03 0. -1.
</event>
<event>
 4    1  0.5808486E+000  0.2119581E+03  0.7818608E-02  0.1140025E+00
         21   -1    0    0  503  502  0.00000000000E+00  0.00000000000E+00  0.25883509480E+03  0.25883509480E+03  0.00000000000E+00 0.  1.
         21   -1    0    0  501  503 -0.00000000000E+00 -0.00000000000E+00 -0.18591116101E+03  0.18591116101E+03  0.00000000000E+00 0. -1.
          6    1    1    2  501    0 -0.90826481375E+02 -0.84218591864E+02  0.93753845969E+02  0.23176713436E+03  0.17200000000E+03 0.  1.
         -6    1    1    2    0  502  0.90826481375E+02  0.84218591864E+02 -0.20829912177E+02  0.21297912146E+03  0.17200000000E+03 0. -1.
</event>
<event>
 4    1  0.5808486E+000  0.1735479E+03  0.7818608E-02  0.1174198E+00
         21   -1    0    0  503  502  0.00000000000E+00  0.00000000000E+00  0.29327008208E+03  0.29327008208E+03  0.00000000000E+00 0. -1.
         21   -1    0    0  501  503 -0.00000000000E+00 -0.00000000000E+00 -0.28528873449E+03  0.28528873449E+03  0.00000000000E+00 0. -1.
          6    1    1    2  501    0  0.91462798851E+01  0.21242180439E+02 -0.22743525049E+03  0.28608683617E+03  0.17200000000E+03 0. -1.
         -6    1    1    2    0  502 -0.91462798851E+01 -0.21242180439E+02  0.23541659809E+03  0.29247198040E+03  0.17200000000E+03 0. -1.
</event>
<event>
 4    1  0.5808486E+000  0.1950395E+03  0.7818608E-02  0.1153993E+00
         21   -1    0    0  503  502  0.00000000000E+00  0.00000000000E+00  0.12379844953E+03  0.12379844953E+03  0.00000000000E+00 0. -1.
         21   -1    0    0  501  503 -0.00000000000E+00 -0.00000000000E+00 -0.33611867904E+03  0.33611867904E+03  0.00000000000E+00 0. -1.
          6    1    1    2  501    0  0.14791389413E+02 -0.90761374751E+02 -0.38798301812E+02  0.19886105846E+03  0.17200000000E+03 0. -1.
         -6    1    1    2    0  502 -0.14791389413E+02  0.90761374751E+02 -0.17352192770E+03  0.26105607011E+03  0.17200000000E+03 0. -1.
</event>
<event>
 4    1  0.5808486E+000  0.2670169E+03  0.7818608E-02  0.1102999E+00
         21   -1    0    0  503  502  0.00000000000E+00  0.00000000000E+00  0.82854550442E+02  0.82854550442E+02  0.00000000000E+00 0. -1.
         21   -1    0    0  501  503 -0.00000000000E+00 -0.00000000000E+00 -0.11592154254E+04  0.11592154254E+04  0.00000000000E+00 0.  1.
          6    1    1    2  501    0  0.19775799359E+03 -0.51047272684E+02 -0.85342516843E+03  0.89422176567E+03  0.17200000000E+03 0.  1.
         -6    1    1    2    0  502 -0.19775799359E+03  0.51047272684E+02 -0.22293570653E+03  0.34784821018E+03  0.17200000000E+03 0.  1.
</event>
<event>
 4    1  0.5808486E+000  0.1873530E+03  0.7818608E-02  0.1160871E+00
         21   -1    0    0  503  502  0.00000000000E+00  0.00000000000E+00  0.40139943641E+03  0.40139943641E+03  0.00000000000E+00 0. -1.
         21   -1    0    0  501  503 -0.00000000000E+00 -0.00000000000E+00 -0.14697245960E+03  0.14697245960E+03  0.00000000000E+00 0.  1.
          6    1    1    2  501    0 -0.74123301965E+02 -0.47828961665E+01 -0.47279878666E+02  0.19322662062E+03  0.17200000000E+03 0.  1.
         -6    1    1    2    0  502  0.74123301965E+02  0.47828961665E+01  0.30170685547E+03  0.35514527539E+03  0.17200000000E+03 0. -1.
</event>
<event>
 4    1  0.5808486E+000  0.2299771E+03  0.7818608E-02  0.1126656E+00
         21   -1    0    0  501  502  0.00000000000E+00  0.00000000000E+00  0.15012429022E+03  0.15012429022E+03  0.00000000000E+00 0. -1.
         21   -1    0    0  502  503 -0.00000000000E+00 -0.00000000000E+00 -0.47349082399E+03  0.47349082399E+03  0.00000000000E+00 0. -1.
          6    1    1    2  501    0 -0.32940224215E+02  0.14906508804E+03 -0.31942903200E+03  0.39360432585E+03  0.17200000000E+03 0. -1.
         -6    1    1    2    0  503  0.32940224215E+02 -0.14906508804E+03 -0.39375017795E+01  0.23001078836E+03  0.17200000000E+03 0. -1.
</event>
<event>
 4    1  0.5808486E+000  0.2898905E+03  0.7818608E-02  0.1090406E+00
         21   -1    0    0  501  502  0.00000000000E+00  0.00000000000E+00  0.76388261122E+02  0.76388261122E+02  0.00000000000E+00 0.  1.
         21   -1    0    0  502  503 -0.00000000000E+00 -0.00000000000E+00 -0.11220106126E+04  0.11220106126E+04  0.00000000000E+00 0. -1.
          6    1    1    2  501    0  0.22072482832E+03  0.75716872532E+02 -0.43912174767E+03  0.52617906068E+03  0.17200000000E+03 0. -1.
         -6    1    1    2    0  503 -0.22072482832E+03 -0.75716872532E+02 -0.60650060378E+03  0.67221981301E+03  0.17200000000E+03 0.  1.
</event>
<event>
 4    1  0.5808486E+000  0.1942485E+03  0.7818608E-02  0.1154684E+00
         21   -1    0    0  501  502  0.00000000000E+00  0.00000000000E+00  0.86887014134E+03  0.86887014134E+03  0.00000000000E+00 0. -1.
         21   -1    0    0  502  503 -0.00000000000E+00 -0.00000000000E+00 -0.45266159132E+02  0.45266159132E+02  0.00000000000E+00 0.  1.
          6    1    1    2  501    0  0.88551952137E+02  0.17522016520E+02  0.50393125168E+03  0.54007330587E+03  0.17200000000E+03 0.  1.
         -6    1    1    2    0  503 -0.88551952137E+02 -0.17522016520E+02  0.31967273053E+03  0.37406299461E+03  0.17200000000E+03 0.  1.
</event>
<event>
 4    1  0.5808486E+000  0.2645534E+03  0.7818608E-02  0.1104438E+00
         21   -1    0    0  503  502  0.00000000000E+00  0.00000000000E+00  0.78786466241E+03  0.78786466241E+03  0.00000000000E+00 0.  1.
         21   -1    0    0  501  503 -0.00000000000E+00 -0.00000000000E+00 -0.22963461937E+03  0.22963461937E+03  0.00000000000E+00 0. -1.
          6    1    1    2  501    0 -0.17224230195E+03 -0.10361990286E+03 -0.11925719097E+03  0.29019092413E+03  0.17200000000E+03 0. -1.
         -6    1    1    2    0  502  0.17224230195E+03  0.10361990286E+03  0.67748723402E+03  0.72730835765E+03  0.17200000000E+03 0.  1.
</event>
<event>
 4    1  0.5808486E+000  0.3841679E+03  0.7818608E-02  0.1049404E+00
         21   -1    0    0  501  502  0.00000000000E+00  0.00000000000E+00  0.37054060663E+03  0.37054060663E+03  0.00000000000E+00 0.  1.
         21   -1    0    0  502  503 -0.00000000000E+00 -0.00000000000E+00 -0.40147460264E+03  0.40147460264E+03  0.00000000000E+00 0. -1.
          6    1    1    2  501    0 -0.17943899820E+03  0.29292086456E+03  0.18877574328E+02  0.38463144669E+03  0.17200000000E+03 0.  1.
         -6    1    1    2    0  503  0.17943899820E+03 -0.29292086456E+03 -0.49811570342E+02  0.38738376258E+03  0.17200000000E+03 0.  1.
</event>
<event>
 4    1  0.5808486E+000  0.1988468E+03  0.7818608E-02  0.1150716E+00
         21   -1    0    0  503  502  0.00000000000E+00  0.00000000000E+00  0.15868468589E+04  0.15868468589E+04  0.00000000000E+00 0. -1.
         21   -1    0    0  501  503 -0.00000000000E+00 -0.00000000000E+00 -0.36153145710E+02  0.36153145710E+02  0.00000000000E+00 0.  1.
          6    1    1    2  501    0 -0.94582841347E+02 -0.31782652138E+02  0.32295268229E+03  0.37926044594E+03  0.17200000000E+03 0.  1.
         -6    1    1    2    0  502  0.94582841347E+02  0.31782652138E+02  0.12277410309E+04  0.12437395587E+04  0.17200000000E+03 0. -1.
</event>
<event>
 4    1  0.5808486E+000  0.1837494E+03  0.7818608E-02  0.1164223E+00
         21   -1    0    0  501  502  0.00000000000E+00  0.00000000000E+00  0.98650329877E+02  0.98650329877E+02  0.00000000000E+00 0. -1.
         21   -1    0    0  502  503 -0.00000000000E+00 -0.00000000000E+00 -0.43885807776E+03  0.43885807776E+03  0.00000000000E+00 0. -1.
          6    1    1    2  501    0 -0.55599708767E+02 -0.32992853604E+02 -0.44013436376E+02  0.18894718465E+03  0.17200000000E+03 0. -1.
         -6    1    1    2    0  503  0.55599708767E+02  0.32992853604E+02 -0.29619431151E+03  0.34856122299E+03  0.17200000000E+03 0. -1.
</event>
<event>
 4    1  0.5808486E+000  0.2320424E+03  0.7818608E-02  0.1125210E+00
         21   -1    0    0  503  502  0.00000000000E+00  0.00000000000E+00  0.13730103286E+03  0.13730103286E+03  0.00000000000E+00 0.  1.
         21   -1    0    0  501  503 -0.00000000000E+00 -0.00000000000E+00 -0.15515007989E+04  0.15515007989E+04  0.00000000000E+00 0.  1.
          6    1    1    2  501    0  0.72739661371E+02 -0.13772660877E+03 -0.14370255871E+04  0.14556394523E+04  0.17200000000E+03 0.  1.
         -6    1    1    2    0  502 -0.72739661371E+02  0.13772660877E+03  0.22825821036E+02  0.23316237948E+03  0.17200000000E+03 0.  1.
</event>
<event>
 4    1  0.5808486E+000  0.3088051E+03  0.7818608E-02  0.1080920E+00
         21   -1    0    0  503  502  0.00000000000E+00  0.00000000000E+00  0.18676736549E+03  0.18676736549E+03  0.00000000000E+00 0. -1.
         21   -1    0    0  501  503 -0.00000000000E+00 -0.00000000000E+00 -0.56640360947E+03  0.56640360947E+03  0.00000000000E+00 0. -1.
          6    1    1    2  501    0 -0.32072365812E+02  0.25445617785E+03 -0.30803806648E+03  0.43617431549E+03  0.17200000000E+03 0. -1.
         -6    1    1    2    0  502  0.32072365812E+02 -0.25445617785E+03 -0.71598177501E+02  0.31699665947E+03  0.17200000000E+03 0. -1.
</event>
<event>
 4    1  0.5808486E+000  0.1748491E+03  0.7818608E-02  0.1172883E+00
         21   -1    0    0  501  502  0.00000000000E+00  0.00000000000E+00  0.28556210328E+03  0.28556210328E+03  0.00000000000E+00 0.  1.
         21   -1    0    0  502  503 -0.00000000000E+00 -0.00000000000E+00 -0.22064885773E+03  0.22064885773E+03  0.00000000000E+00 0.  1.
          6    1    1    2  501    0  0.28194544829E+02 -0.13902129927E+02  0.21405798012E+03  0.27639287333E+03  0.17200000000E+03 0.  1.
         -6    1    1    2    0  503 -0.28194544829E+02  0.13902129927E+02 -0.14914473457E+03  0.22981808768E+03  0.17200000000E+03 0.  1.
</event>
<event>
 4    1  0.5808486E+000  0.2921095E+03  0.7818608E-02  0.1089253E+00
         21   -1    0    0  503  502  0.00000000000E+00  0.00000000000E+00  0.57193570750E+03  0.57193570750E+03  0.00000000000E+00 0.  1.
         21   -1    0    0  501  503 -0.00000000000E+00 -0.00000000000E+00 -0.21077807085E+03  0.21077807085E+03  0.00000000000E+00 0.  1.
          6    1    1    2  501    0  0.80904045867E+02 -0.22180734152E+03 -0.30966387706E+02  0.29374628263E+03  0.17200000000E+03 0.  1.
         -6    1    1    2    0  502 -0.80904045867E+02  0.22180734152E+03  0.39212402436E+03  0.48896749572E+03  0.17200000000E+03 0.  1.
</event>
<event>
 4    1  0.5808486E+000  0.1743967E+03  0.7818608E-02  0.1173339E+00
         21   -1    0    0  503  502  0.00000000000E+00  0.00000000000E+00  0.27337545840E+03  0.27337545840E+03  0.00000000000E+00 0. -1.
         21   -1    0    0  501  503 -0.00000000000E+00 -0.00000000000E+00 -0.12264559258E+03  0.12264559258E+03  0.00000000000E+00 0. -1.
          6    1    1    2  501    0  0.28738785920E+02  0.20728232916E+01  0.15019074249E+02  0.17504224348E+03  0.17200000000E+03 0. -1.
         -6    1    1    2    0  502 -0.28738785920E+02 -0.20728232916E+01  0.13571079157E+03  0.22097880749E+03  0.17200000000E+03 0. -1.
</event>
<event>
 4    1  0.5808486E+000  0.2000589E+03  0.7818608E-02  0.1149689E+00
         21   -1    0    0  503  502  0.00000000000E+00  0.00000000000E+00  0.23921360055E+03  0.23921360055E+03  0.00000000000E+00 0. -1.
         21   -1    0    0  501  503 -0.00000000000E+00 -0.00000000000E+00 -0.17387992343E+03  0.17387992343E+03  0.00000000000E+00 0.  1.
          6    1    1    2  501    0  0.91240180650E+02  0.45986833123E+02 -0.74727280449E+01  0.20019840421E+03  0.17200000000E+03 0.  1.
         -6    1    1    2    0  502 -0.91240180650E+02 -0.45986833123E+02  0.72806405169E+02  0.21289511976E+03  0.17200000000E+03 0. -1.
</event>
<event>
 4    1  0.5808486E+000  0.1861898E+03  0.7818608E-02  0.1161943E+00
         21   -1    0    0  501  502  0.00000000000E+00  0.00000000000E+00  0.10074478678E+04  0.10074478678E+04  0.00000000000E+00 0.  1.
         21   -1    0    0  502  503 -0.00000000000E+00 -0.00000000000E+00 -0.34890686433E+02  0.34890686433E+02  0.00000000000E+00 0.  1.
          6    1    1    2  501    0 -0.20594887559E+02  0.68253191876E+02  0.54742776485E+03  0.57822470142E+03  0.17200000000E+03 0.  1.
         -6    1    1    2    0  503  0.20594887559E+02 -0.68253191876E+02  0.42512941656E+03  0.46411385286E+03  0.17200000000E+03 0.  1.
</event>
<event>
 4    1  0.5808486E+000  0.2228070E+03  0.7818608E-02  0.1131807E+00
         21   -1    0    0  503  502  0.00000000000E+00  0.00000000000E+00  0.43438056115E+03  0.43438056115E+03  0.00000000000E+00 0.  1.
         21   -1    0    0  501  503 -0.00000000000E+00 -0.00000000000E+00 -0.12635163358E+03  0.12635163358E+03  0.00000000000E+00 0.  1.
          6    1    1    2  501    0 -0.10462077473E+03 -0.95464485278E+02  0.67370812818E+02  0.23276984529E+03  0.17200000000E+03 0.  1.
         -6    1    1    2    0  502  0.10462077473E+03  0.95464485278E+02  0.24065811476E+03  0.32796234944E+03  0.17200000000E+03 0.  1.
</event>
<event>
 4    1  0.5808486E+000  0.2249268E+03  0.7818608E-02  0.1130262E+00
         21   -1    0    0  501  502  0.00000000000E+00  0.00000000000E+00  0.33855906465E+02  0.33855906465E+02  0.00000000000E+00 0. -1.
         21   -1    0    0  502  503 -0.00000000000E+00 -0.00000000000E+00 -0.15847224147E+04  0.15847224147E+04  0.00000000000E+00 0.  1.
          6    1    1    2  501    0 -0.14292933657E+03  0.24067595673E+02 -0.58215515915E+03  0.62409668621E+03  0.17200000000E+03 0. -1.
         -6    1    1    2    0  503  0.14292933657E+03 -0.24067595673E+02 -0.96871134906E+03  0.99448163493E+03  0.17200000000E+03 0.  1.
</event>
<event>
 4    1  0.5808486E+000  0.2425129E+03  0.7818608E-02  0.1118130E+00
         21   -1    0    0  503  502  0.00000000000E+00  0.00000000000E+00  0.31116438200E+03  0.31116438200E+03  0.00000000000E+00 0.  1.
         21   -1    0    0  501  503 -0.00000000000E+00 -0.00000000000E+00 -0.44085661742E+03  0.44085661742E+03  0.00000000000E+00 0. -1.
          6    1    1    2  501    0 -0.16556870173E+03 -0.42608899790E+02 -0.34904423608E+03  0.42502281360E+03  0.17200000000E+03 0. -1.
         -6    1    1    2    0  502  0.16556870173E+03  0.42608899790E+02  0.21935200066E+03  0.32699818582E+03  0.17200000000E+03 0.  1.
</event>
<event>
 4    1  0.5808486E+000  0.1812161E+03  0.7818608E-02  0.1166631E+00
         21   -1    0    0  503  502  0.00000000000E+00  0.00000000000E+00  0.90728660270E+02  0.90728660270E+02  0.00000000000E+00 0. -1.
         21   -1    0    0  501  503 -0.00000000000E+00 -0.00000000000E+00 -0.38472282351E+03  0.38472282351E+03  0.00000000000E+00 0. -1.
          6    1    1    2  501    0 -0.67168513547E+01 -0.56658205697E+02 -0.20483431973E+03  0.27348924459E+03  0.17200000000E+03 0.  1.
         -6    1    1    2    0  502  0.67168513547E+01  0.56658205697E+02 -0.89159843509E+02  0.20196223919E+03  0.17200000000E+03 0.  1.
</event>
<event>
 4    1  0.5808486E+000  0.1945682E+03  0.7818608E-02  0.1154404E+00
         21   -1    0    0  503  502  0.00000000000E+00  0.00000000000E+00  0.75295401172E+03  0.75295401172E+03  0.00000000000E+00 0. -1.
         21   -1    0    0  501  503 -0.00000000000E+00 -0.00000000000E+00 -0.50320121835E+02  0.50320121835E+02  0.00000000000E+00 0.  1.
          6    1    1    2  501    0 -0.72382109313E+02 -0.55078186244E+02  0.36298210354E+03  0.41184072630E+03  0.17200000000E+03 0. -1.
         -6    1    1    2    0  502  0.72382109313E+02  0.55078186244E+02  0.33965178634E+03  0.39143340725E+03  0.17200000000E+03 0. -1.
</event>
<event>
 4    1  0.5808486E+000  0.2522987E+03  0.7818608E-02  0.1111861E+00
         21   -1    0    0  503  502  0.00000000000E+00  0.00000000000E+00  0.10991829492E+03  0.10991829492E+03  0.00000000000E+00 0. -1.
         21   -1    0    0  501  503 -0.00000000000E+00 -0.00000000000E+00 -0.13392624880E+04  0.13392624880E+04  0.00000000000E+00 0. -1.
          6    1    1    2  501    0 -0.11840368020E+03 -0.14160227525E+03 -0.11605687896E+04  0.11876761138E+04  0.17200000000E+03 0. -1.
         -6    1    1    2    0  502  0.11840368020E+03  0.14160227525E+03 -0.68775403419E+02  0.26150466909E+03  0.17200000000E+03 0. -1.
</event>
<event>
 4    1  0.5808486E+000  0.2652523E+03  0.7818608E-02  0.1104028E+00
         21   -1    0    0  501  502  0.00000000000E+00  0.00000000000E+00  0.28014869593E+03  0.28014869593E+03  0.00000000000E+00 0. -1.
         21   -1    0    0  502  503 -0.00000000000E+00 -0.00000000000E+00 -0.26050006742E+03  0.26050006742E+03  0.00000000000E+00 0.  1.
          6    1    1    2  501    0  0.91353334938E+02 -0.18008154291E+03  0.61043698038E+02  0.27218583168E+03  0.17200000000E+03 0. -1.
         -6    1    1    2    0  503 -0.91353334938E+02  0.18008154291E+03 -0.41395069522E+02  0.26846293167E+03  0.17200000000E+03 0.  1.
</event>
<event>
 4    1  0.5808486E+000  0.1797944E+03  0.7818608E-02  0.1168002E+00
         21   -1    0    0  503  502  0.00000000000E+00  0.00000000000E+00  0.99374888232E+03  0.99374888232E+03  0.00000000000E+00 0. -1.
         21   -1    0    0  501  503 -0.00000000000E+00 -0.00000000000E+00 -0.36381451905E+02  0.36381451905E+02  0.00000000000E+00 0. -1.
          6    1    1    2  501    0  0.46881911265E+02  0.23325899271E+02  0.31108498968E+03  0.35930472024E+03  0.17200000000E+03 0. -1.
         -6    1    1    2    0  502 -0.46881911265E+02 -0.23325899271E+02  0.64628244073E+03  0.67082561398E+03  0.17200000000E+03 0. -1.
</event>
<event>
 4    1  0.5808486E+000  0.1892522E+03  0.7818608E-02  0.1159138E+00
         21   -1    0    0  501  502  0.00000000000E+00  0.00000000000E+00  0.69706370576E+02  0.69706370576E+02  0.00000000000E+00 0. -1.
         21   -1    0    0  502  503 -0.00000000000E+00 -0.00000000000E+00 -0.51381796571E+03  0.51381796571E+03  0.00000000000E+00 0. -1.
          6    1    1    2  501    0  0.77234228144E+02  0.16348056840E+02 -0.22209250261E+03  0.29179010380E+03  0.17200000000E+03 0. -1.
         -6    1    1    2    0  503 -0.77234228144E+02 -0.16348056840E+02 -0.22201909252E+03  0.29173423249E+03  0.17200000000E+03 0. -1.
</event>
<event>
 4    1  0.5808486E+000  0.1756455E+03  0.7818608E-02  0.1172085E+00
         21   -1    0    0  503  502  0.00000000000E+00  0.00000000000E+00  0.75560293255E+03  0.75560293255E+03  0.00000000000E+00 0.  1.
         21   -1    0    0  501  503 -0.00000000000E+00 -0.00000000000E+00 -0.26530275432E+03  0.26530275432E+03  0.00000000000E+00 0.  1.
          6    1    1    2  501    0  0.28993876264E+01 -0.35481239241E+02 -0.22438331269E+03  0.28495472588E+03  0.17200000000E+03 0.  1.
         -6    1    1    2    0  502 -0.28993876264E+01  0.35481239241E+02  0.71468349092E+03  0.73595096099E+03  0.17200000000E+03 0.  1.
</event>
<event>
 4    1  0.5808486E+000  0.2179442E+03  0.7818608E-02  0.1135425E+00
         21   -1    0    0  501  502  0.00000000000E+00  0.00000000000E+00  0.21607907327E+03  0.21607907327E+03  0.00000000000E+00 0. -1.
         21   -1    0    0  502  503 -0.00000000000E+00 -0.00000000000E+00 -0.42417436970E+03  0.42417436970E+03  0.00000000000E+00 0. -1.
          6    1    1    2  501    0  0.38723599458E+02  0.12812552269E+03  0.11814820591E+03  0.24790858250E+03  0.17200000000E+03 0. -1.
         -6    1    1    2    0  503 -0.38723599458E+02 -0.12812552269E+03 -0.32624350234E+03  0.39234486047E+03  0.17200000000E+03 0. -1.
</event>
<event>
 4    1  0.5808486E+000  0.2314163E+03  0.7818608E-02  0.1125647E+00
         21   -1    0    0  503  502  0.00000000000E+00  0.00000000000E+00  0.29059331181E+03  0.29059331181E+03  0.00000000000E+00 0. -1.
         21   -1    0    0  501  503 -0.00000000000E+00 -0.00000000000E+00 -0.34812548218E+03  0.34812548218E+03  0.00000000000E+00 0.  1.
          6    1    1    2  501    0 -0.14413899184E+03  0.56510526531E+02 -0.24785255591E+03  0.33909346506E+03  0.17200000000E+03 0.  1.
         -6    1    1    2    0  502  0.14413899184E+03 -0.56510526531E+02  0.19032038555E+03  0.29962532893E+03  0.17200000000E+03 0. -1.
</event>
<event>
 4    1  0.5808486E+000  0.1990532E+03  0.7818608E-02  0.1150540E+00
         21   -1    0    0  503  502  0.00000000000E+00  0.00000000000E+00  0.50376178780E+02  0.50376178780E+02  0.00000000000E+00 0.  1.
         21   -1    0    0  501  503 -0.00000000000E+00 -0.00000000000E+00 -0.83174710097E+03  0.83174710097E+03  0.00000000000E+00 0. -1.
          6    1    1    2  501    0 -0.92237525514E+02  0.39120318175E+02 -0.28784227119E+03  0.34996476036E+03  0.17200000000E+03 0. -1.
         -6    1    1    2    0  502  0.92237525514E+02 -0.39120318175E+02 -0.49352865100E+03  0.53215851939E+03  0.17200000000E+03 0. -1.
</event>
<event>
 4    1  0.5808486E+000  0.1802420E+03  0.7818608E-02  0.1167569E+00
         21   -1    0    0  503  502  0.00000000000E+00  0.00000000000E+00  0.60537875734E+03  0.60537875734E+03  0.00000000000E+00 0. -1.
         21   -1    0    0  501  503 -0.00000000000E+00 -0.00000000000E+00 -0.10642758951E+04  0.10642758951E+04  0.00000000000E+00 0. -1.
          6    1    1    2  501    0  0.53858587530E+02  0.15542758020E+01 -0.10429563372E+04  0.10584163096E+04  0.17200000000E+03 0. -1.
         -6    1    1    2    0  502 -0.53858587530E+02 -0.15542758020E+01  0.58405919945E+03  0.61123834278E+03  0.17200000000E+03 0. -1.
</event>
<event>
 4    1  0.5808486E+000  0.2166027E+03  0.7818608E-02  0.1136441E+00
         21   -1    0    0  501  502  0.00000000000E+00  0.00000000000E+00  0.26610329221E+03  0.26610329221E+03  0.00000000000E+00 0. -1.
         21   -1    0    0  502  503 -0.00000000000E+00 -0.00000000000E+00 -0.19416207589E+03  0.19416207589E+03  0.00000000000E+00 0.  1.
          6    1    1    2  501    0 -0.97068189139E+02 -0.88941051373E+02  0.10575160143E+03  0.24103971699E+03  0.17200000000E+03 0.  1.
         -6    1    1    2    0  503  0.97068189139E+02  0.88941051373E+02 -0.33810385106E+02  0.21922565111E+03  0.17200000000E+03 0. -1.
</event>
<event>
 4    1  0.5808486E+000  0.1888222E+03  0.7818608E-02  0.1159528E+00
         21   -1    0    0  503  502  0.00000000000E+00  0.00000000000E+00  0.40382487539E+03  0.40382487539E+03  0.00000000000E+00 0.  1.
         21   -1    0    0  501  503 -0.00000000000E+00 -0.00000000000E+00 -0.10967428362E+03  0.10967428362E+03  0.00000000000E+00 0.  1.
          6    1    1    2  501    0  0.23592001609E+02 -0.74251092318E+02  0.33704303079E+02  0.19180664039E+03  0.17200000000E+03 0.  1.
         -6    1    1    2    0  502 -0.23592001609E+02  0.74251092318E+02  0.26044628869E+03  0.32169251863E+03  0.17200000000E+03 0.  1.
</event>
<event>
 4    1  0.5808486E+000  0.1723033E+03  0.7818608E-02  0.1175467E+00
         21   -1    0    0  501  502  0.00000000000E+00  0.00000000000E+00  0.48959994112E+02  0.48959994112E+02  0.00000000000E+00 0.  1.
         21   -1    0    0  502  503 -0.00000000000E+00 -0.00000000000E+00 -0.14526062291E+04  0.14526062291E+04  0.00000000000E+00 0.  1.
          6    1    1    2  501    0 -0.52120403263E+01  0.87899008823E+01 -0.12878509894E+03  0.21511399171E+03  0.17200000000E+03 0.  1.
         -6    1    1    2    0  503  0.52120403263E+01 -0.87899008823E+01 -0.12748611361E+04  0.12864522315E+04  0.17200000000E+03 0.  1.
</event>
<event>
 4    1  0.5808486E+000  0.2075138E+03  0.7818608E-02  0.1143550E+00
         21   -1    0    0  501  502  0.00000000000E+00  0.00000000000E+00  0.69470506579E+03  0.69470506579E+03  0.00000000000E+00 0. -1.
         21   -1    0    0  502  503 -0.00000000000E+00 -0.00000000000E+00 -0.97447613746E+02  0.97447613746E+02  0.00000000000E+00 0. -1.
          6    1    1    2  501    0 -0.45660061453E+02  0.10673867470E+03  0.53755976055E+03  0.57622259766E+03  0.17200000000E+03 0. -1.
         -6    1    1    2    0  503  0.45660061453E+02 -0.10673867470E+03  0.59697691489E+02  0.21593008187E+03  0.17200000000E+03 0. -1.
</event>
<event>
 4    1  0.5808486E+000  0.2505037E+03  0.7818608E-02  0.1112987E+00
         21   -1    0    0  501  502  0.00000000000E+00  0.00000000000E+00  0.23576186350E+03  0.23576186350E+03  0.00000000000E+00 0. -1.
         21   -1    0    0  502  503 -0.00000000000E+00 -0.00000000000E+00 -0.47826356958E+03  0.47826356958E+03  0.00000000000E+00 0.  1.
          6    1    1    2  501    0 -0.90217677648E+02 -0.15820513437E+03  0.11649698197E+03  0.27626733558E+03  0.17200000000E+03 0.  1.
         -6    1    1    2    0  503  0.90217677648E+02  0.15820513437E+03 -0.35899868805E+03  0.43775809749E+03  0.17200000000E+03 0.  1.
</event>
<event>
 4    1  0.5808486E+000  0.1858987E+03  0.7818608E-02  0.1162213E+00
         21   -1    0    0  503  502  0.00000000000E+00  0.00000000000E+00  0.18803244076E+04  0.18803244076E+04  0.00000000000E+00 0. -1.
         21   -1    0    0  501  503 -0.00000000000E+00 -0.00000000000E+00 -0.54885101882E+02  0.54885101882E+02  0.00000000000E+00 0. -1.
          6    1    1    2  501    0 -0.86186255469E+01 -0.70000412551E+02  0.12357986245E+03  0.22322706123E+03  0.17200000000E+03 0. -1.
         -6    1    1    2    0  502  0.86186255469E+01  0.70000412551E+02  0.17018594433E+04  0.17119824482E+04  0.17200000000E+03 0. -1.
</event>
<event>
 4    1  0.5808486E+000  0.1895674E+03  0.7818608E-02  0.1158852E+00
         21   -1    0    0  501  502  0.00000000000E+00  0.00000000000E+00  0.57464716309E+03  0.57464716309E+03  0.00000000000E+00 0. -1.
         21   -1    0    0  502  503 -0.00000000000E+00 -0.00000000000E+00 -0.88325892745E+02  0.88325892745E+02  0.00000000000E+00 0. -1.
          6    1    1    2  501    0  0.36751332660E+01 -0.79613333307E+02  0.42228377604E+03  0.46288160144E+03  0.17200000000E+03 0. -1.
         -6    1    1    2    0  503 -0.36751332660E+01  0.79613333307E+02  0.64037494304E+02  0.20009145439E+03  0.17200000000E+03 0. -1.
</event>
<event>
 4    1  0.5808486E+000  0.2036867E+03  0.7818608E-02  0.1146665E+00
         21   -1    0    0  503  502  0.00000000000E+00  0.00000000000E+00  0.27380804282E+03  0.27380804282E+03  0.00000000000E+00 0.  1.
         21   -1    0    0  501  503 -0.00000000000E+00 -0.00000000000E+00 -0.15254428901E+03  0.15254428901E+03  0.00000000000E+00 0. -1.
          6    1    1    2  501    0 -0.10900175875E+03  0.47846552783E+01  0.43191004783E+02  0.20821560756E+03  0.17200000000E+03 0. -1.
         -6    1    1    2    0  502  0.10900175875E+03 -0.47846552783E+01  0.78072749026E+02  0.21813672427E+03  0.17200000000E+03 0.  1.
</event>
<event>
 4    1  0.5808486E+000  0.1874680E+03  0.7818608E-02  0.1160765E+00
         21   -1    0    0  501  502  0.00000000000E+00  0.00000000000E+00  0.87346291974E+03  0.87346291974E+03  0.00000000000E+00 0.  1.
         21   -1    0    0  502  503 -0.00000000000E+00 -0.00000000000E+00 -0.40634094370E+02  0.40634094370E+02  0.00000000000E+00 0.  1.
          6    1    1    2  501    0 -0.73436665414E+02  0.12934506161E+02  0.46167968492E+03  0.49828945076E+03  0.17200000000E+03 0. -1.
         -6    1    1    2    0  503  0.73436665414E+02 -0.12934506161E+02  0.37114914046E+03  0.41580756335E+03  0.17200000000E+03 0. -1.
</event>
<event>
 4    1  0.5808486E+000  0.2017490E+03  0.7818608E-02  0.1148272E+00
         21   -1    0    0  503  502  0.00000000000E+00  0.00000000000E+00  0.34969536975E+03  0.34969536975E+03  0.00000000000E+00 0.  1.
         21   -1    0    0  501  503 -0.00000000000E+00 -0.00000000000E+00 -0.11649593556E+03  0.11649593556E+03  0.00000000000E+00 0.  1.
          6    1    1    2  501    0 -0.48529188468E+02  0.93613903388E+02  0.12347525279E+03  0.23653495110E+03  0.17200000000E+03 0.  1.
         -6    1    1    2    0  502  0.48529188468E+02 -0.93613903388E+02  0.10972418140E+03  0.22965635420E+03  0.17200000000E+03 0.  1.
</event>
<event>
 4    1  0.5808486E+000  0.2288192E+03  0.7818608E-02  0.1127474E+00
         21   -1    0    0  503  502  0.00000000000E+00  0.00000000000E+00  0.20953212031E+03  0.20953212031E+03  0.00000000000E+00 0.  1.
         21   -1    0    0  501  503 -0.00000000000E+00 -0.00000000000E+00 -0.31885013580E+03  0.31885013580E+03  0.00000000000E+00 0.  1.
          6    1    1    2  501    0 -0.10707971192E+03  0.10633992070E+03 -0.17753020755E+03  0.28961218557E+03  0.17200000000E+03 0.  1.
         -6    1    1    2    0  502  0.10707971192E+03 -0.10633992070E+03  0.68212192053E+02  0.23877007054E+03  0.17200000000E+03 0.  1.
</event>
<event>
 4    1  0.5808486E+000  0.2372653E+03  0.7818608E-02  0.1121628E+00
         21   -1    0    0  503  502  0.00000000000E+00  0.00000000000E+00  0.16926133179E+03  0.16926133179E+03  0.00000000000E+00 0. -1.
         21   -1    0    0  501  503 -0.00000000000E+00 -0.00000000000E+00 -0.88496937617E+03  0.88496937617E+03  0.00000000000E+00 0. -1.
          6    1    1    2  501    0 -0.80931277525E+02  0.14198924483E+03 -0.77430111004E+03  0.80983765431E+03  0.17200000000E+03 0. -1.
         -6    1    1    2    0  502  0.80931277525E+02 -0.14198924483E+03  0.58593065665E+02  0.24439305365E+03  0.17200000000E+03 0. -1.
</event>
<event>
 4    1  0.5808486E+000  0.1945739E+03  0.7818608E-02  0.1154399E+00
         21   -1    0    0  503  502  0.00000000000E+00  0.00000000000E+00  0.27461702312E+03  0.27461702312E+03  0.00000000000E+00 0. -1.
         21   -1    0    0  501  503 -0.00000000000E+00 -0.00000000000E+00 -0.18417368532E+03  0.18417368532E+03  0.00000000000E+00 0. -1.
          6    1    1    2  501    0  0.70336962270E+02  0.57686505142E+02 -0.69810700199E+02  0.20671854053E+03  0.17200000000E+03 0. -1.
         -6    1    1    2    0  502 -0.70336962270E+02 -0.57686505142E+02  0.16025403800E+03  0.25207216791E+03  0.17200000000E+03 0. -1.
</event>
<event>
 4    1  0.5808486E+000  0.2292905E+03  0.7818608E-02  0.1127140E+00
         21   -1    0    0  501  502  0.00000000000E+00  0.00000000000E+00  0.18814954827E+04  0.18814954827E+04  0.00000000000E+00 0.  1.
         21   -1    0    0  502  503 -0.00000000000E+00 -0.00000000000E+00 -0.31839581679E+02  0.31839581679E+02  0.00000000000E+00 0.  1.
          6    1    1    2  501    0  0.14403573968E+03 -0.47369299608E+02  0.59014501587E+03  0.63312343552E+03  0.17200000000E+03 0.  1.
         -6    1    1    2    0  503 -0.14403573968E+03  0.47369299608E+02  0.12595108852E+04  0.12802116289E+04  0.17200000000E+03 0.  1.
</event>
<event>
 4    1  0.5808486E+000  0.2568672E+03  0.7818608E-02  0.1109040E+00
         21   -1    0    0  501  502  0.00000000000E+00  0.00000000000E+00  0.19475426060E+03  0.19475426060E+03  0.00000000000E+00 0. -1.
         21   -1    0    0  502  503 -0.00000000000E+00 -0.00000000000E+00 -0.34123244311E+03  0.34123244311E+03  0.00000000000E+00 0. -1.
          6    1    1    2  501    0  0.38684850606E+02 -0.18681605842E+03 -0.50565061533E+02  0.26179683496E+03  0.17200000000E+03 0.  1.
         -6    1    1    2    0  503 -0.38684850606E+02  0.18681605842E+03 -0.95913120978E+02  0.27418986875E+03  0.17200000000E+03 0.  1.
</event>
<event>
 4    1  0.5808486E+000  0.1768307E+03  0.7818608E-02  0.1170906E+00
         21   -1    0    0  503  502  0.00000000000E+00  0.00000000000E+00  0.40338887615E+03  0.40338887615E+03  0.00000000000E+00 0.  1.
         21   -1    0    0  501  503 -0.00000000000E+00 -0.00000000000E+00 -0.19458307588E+03  0.19458307588E+03  0.00000000000E+00 0.  1.
          6    1    1    2  501    0 -0.24469587662E+02 -0.32959717855E+02 -0.12750503979E+03  0.21800605242E+03  0.17200000000E+03 0.  1.
         -6    1    1    2    0  502  0.24469587662E+02  0.32959717855E+02  0.33631084006E+03  0.37996589960E+03  0.17200000000E+03 0.  1.
</event>
<event>
 4    1  0.5808486E+000  0.3281529E+03  0.7818608E-02  0.1071957E+00
         21   -1    0    0  501  502  0.00000000000E+00  0.00000000000E+00  0.24802032040E+03  0.24802032040E+03  0.00000000000E+00 0. -1.
         21   -1    0    0  502  503 -0.00000000000E+00 -0.00000000000E+00 -0.48481645877E+03  0.48481645877E+03  0.00000000000E+00 0. -1.
          6    1    1    2  501    0  0.27709711806E+03 -0.36297220513E+02  0.26095910803E-01  0.32815286337E+03  0.17200000000E+03 0. -1.
         -6    1    1    2    0  503 -0.27709711806E+03  0.36297220513E+02 -0.23682223429E+03  0.40468391580E+03  0.17200000000E+03 0. -1.
</event>
<event>
 4    1  0.5808486E+000  0.2049744E+03  0.7818608E-02  0.1145609E+00
         21   -1    0    0  503  502  0.00000000000E+00  0.00000000000E+00  0.76384186774E+03  0.76384186774E+03  0.00000000000E+00 0.  1.
         21   -1    0    0  501  503 -0.00000000000E+00 -0.00000000000E+00 -0.55521981099E+02  0.55521981099E+02  0.00000000000E+00 0.  1.
          6    1    1    2  501    0  0.94608096249E+02 -0.58990041685E+02  0.31459740842E+03  0.37548108645E+03  0.17200000000E+03 0.  1.
         -6    1    1    2    0  502 -0.94608096249E+02  0.58990041685E+02  0.39372247822E+03  0.44388276240E+03  0.17200000000E+03 0.  1.
</event>
<event>
 4    1  0.5808486E+000  0.2773765E+03  0.7818608E-02  0.1097131E+00
         21   -1    0    0  501  502  0.00000000000E+00  0.00000000000E+00  0.53894720145E+03  0.53894720145E+03  0.00000000000E+00 0. -1.
         21   -1    0    0  502  503 -0.00000000000E+00 -0.00000000000E+00 -0.15262300440E+03  0.15262300440E+03  0.00000000000E+00 0. -1.
          6    1    1    2  501    0  0.21704722078E+03  0.15627754399E+02  0.28108420506E+03  0.39490005456E+03  0.17200000000E+03 0. -1.
         -6    1    1    2    0  503 -0.21704722078E+03 -0.15627754399E+02  0.10523999199E+03  0.29667015130E+03  0.17200000000E+03 0. -1.
</event>
<event>
 4    1  0.5808486E+000  0.1891288E+03  0.7818608E-02  0.1159249E+00
         21   -1    0    0  503  502  0.00000000000E+00  0.00000000000E+00  0.83002552514E+02  0.83002552514E+02  0.00000000000E+00 0. -1.
         21   -1    0    0  501  503 -0.00000000000E+00 -0.00000000000E+00 -0.63829965691E+03  0.63829965691E+03  0.00000000000E+00 0.  1.
          6    1    1    2  501    0  0.68886992590E+02 -0.37950956233E+02 -0.72092690066E+02  0.20240318374E+03  0.17200000000E+03 0. -1.
         -6    1    1    2    0  502 -0.68886992590E+02  0.37950956233E+02 -0.48320441433E+03  0.51889902568E+03  0.17200000000E+03 0.  1.
</event>
<event>
 4    1  0.5808486E+000  0.1960668E+03  0.7818608E-02  0.1153101E+00
         21   -1    0    0  503  502  0.00000000000E+00  0.00000000000E+00  0.99408411910E+03  0.99408411910E+03  0.00000000000E+00 0. -1.
         21   -1    0    0  501  503 -0.00000000000E+00 -0.00000000000E+00 -0.76578519308E+02  0.76578519308E+02  0.00000000000E+00 0. -1.
          6    1    1    2  501    0 -0.60421081499E+02 -0.72162813534E+02  0.82107866095E+02  0.21256500281E+03  0.17200000000E+03 0. -1.
         -6    1    1    2    0  502  0.60421081499E+02  0.72162813534E+02  0.83539773370E+03  0.85809763559E+03  0.17200000000E+03 0. -1.
</event>
<event>
 4    1  0.5808486E+000  0.2471496E+03  0.7818608E-02  0.1115120E+00
         21   -1    0    0  503  502  0.00000000000E+00  0.00000000000E+00  0.46078690583E+03  0.46078690583E+03  0.00000000000E+00 0. -1.
         21   -1    0    0  501  503 -0.00000000000E+00 -0.00000000000E+00 -0.13776266049E+03  0.13776266049E+03  0.00000000000E+00 0.  1.
          6    1    1    2  501    0  0.16629098145E+03  0.62017977960E+02  0.21965891963E+03  0.33065535090E+03  0.17200000000E+03 0. -1.
         -6    1    1    2    0  502 -0.16629098145E+03 -0.62017977960E+02  0.10336532571E+03  0.26789421543E+03  0.17200000000E+03 0. -1.
</event>
<event>
 4    1  0.5808486E+000  0.2053590E+03  0.7818608E-02  0.1145295E+00
         21   -1    0    0  501  502  0.00000000000E+00  0.00000000000E+00  0.41542509400E+03  0.41542509400E+03  0.00000000000E+00 0. -1.
         21   -1    0    0  502  503 -0.00000000000E+00 -0.00000000000E+00 -0.19366204640E+03  0.19366204640E+03  0.00000000000E+00 0. -1.
          6    1    1    2  501    0  0.10140925425E+03 -0.48005028895E+02  0.32095217567E+03  0.38102836996E+03  0.17200000000E+03 0. -1.
         -6    1    1    2    0  503 -0.10140925425E+03  0.48005028895E+02 -0.99189128069E+02  0.22805877044E+03  0.17200000000E+03 0. -1.
</event>
<event>
 4    1  0.5808486E+000  0.2339177E+03  0.7818608E-02  0.1123912E+00
         21   -1    0    0  503  502  0.00000000000E+00  0.00000000000E+00  0.12422794712E+03  0.12422794712E+03  0.00000000000E+00 0. -1.
         21   -1    0    0  501  503 -0.00000000000E+00 -0.00000000000E+00 -0.58856523748E+03  0.58856523748E+03  0.00000000000E+00 0.  1.
          6    1    1    2  501    0 -0.14681565782E+03 -0.59821805038E+02 -0.41094946578E+03  0.47286039078E+03  0.17200000000E+03 0.  1.
         -6    1    1    2    0  502  0.14681565782E+03  0.59821805038E+02 -0.53387824572E+02  0.23993279382E+03  0.17200000000E+03 0. -1.
</event>
<event>
 4    1  0.5808486E+000  0.2020581E+03  0.7818608E-02  0.1148014E+00
         21   -1    0    0  503  502  0.00000000000E+00  0.00000000000E+00  0.34796094029E+03  0.34796094029E+03  0.00000000000E+00 0.  1.
         21   -1    0    0  501  503 -0.00000000000E+00 -0.00000000000E+00 -0.11945733980E+03  0.11945733980E+03  0.00000000000E+00 0.  1.
          6    1    1    2  501    0  0.10268997953E+03  0.26424042150E+02  0.14541442289E+03  0.24894339976E+03  0.17200000000E+03 0.  1.
         -6    1    1    2    0  502 -0.10268997953E+03 -0.26424042150E+02  0.83089177601E+02  0.21847488033E+03  0.17200000000E+03 0.  1.
</event>
<event>
 4    1  0.5808486E+000  0.2164788E+03  0.7818608E-02  0.1136536E+00
         21   -1    0    0  503  502  0.00000000000E+00  0.00000000000E+00  0.35995427835E+03  0.35995427835E+03  0.00000000000E+00 0.  1.
         21   -1    0    0  501  503 -0.00000000000E+00 -0.00000000000E+00 -0.14000032525E+03  0.14000032525E+03  0.00000000000E+00 0. -1.
          6    1    1    2  501    0 -0.19618923321E+02  0.12997757662E+03  0.17614365224E+03  0.27908718853E+03  0.17200000000E+03 0. -1.
         -6    1    1    2    0  502  0.19618923321E+02 -0.12997757662E+03  0.43810300863E+02  0.22086741507E+03  0.17200000000E+03 0.  1.
</event>
<event>
 4    1  0.5808486E+000  0.2125464E+03  0.7818608E-02  0.1139565E+00
         21   -1    0    0  503  502  0.00000000000E+00  0.00000000000E+00  0.95826179277E+03  0.95826179277E+03  0.00000000000E+00 0. -1.
         21   -1    0    0  501  503 -0.00000000000E+00 -0.00000000000E+00 -0.47210440007E+02  0.47210440007E+02  0.00000000000E+00 0.  1.
          6    1    1    2  501    0 -0.10522274235E+03  0.67231917358E+02  0.43661597057E+03  0.48560216431E+03  0.17200000000E+03 0.  1.
         -6    1    1    2    0  502  0.10522274235E+03 -0.67231917358E+02  0.47443538219E+03  0.51987006848E+03  0.17200000000E+03 0. -1.
</event>
<event>
 4    1  0.5808486E+000  0.2023980E+03  0.7818608E-02  0.1147731E+00
         21   -1    0    0  503  502  0.00000000000E+00  0.00000000000E+00  0.24586560675E+04  0.24586560675E+04  0.00000000000E+00 0. -1.
         21   -1    0    0  501  503 -0.00000000000E+00 -0.00000000000E+00 -0.24375109013E+02  0.24375109013E+02  0.00000000000E+00 0. -1.
          6    1    1    2  501    0  0.36715550446E+01  0.10661831133E+03  0.51873575048E+03  0.55682288337E+03  0.17200000000E+03 0. -1.
         -6    1    1    2    0  502 -0.36715550446E+01 -0.10661831133E+03  0.19155452080E+04  0.19262082932E+04  0.17200000000E+03 0. -1.
</event>
<event>
 4    1  0.5808486E+000  0.2032352E+03  0.7818608E-02  0.1147038E+00
         21   -1    0    0  503  502  0.00000000000E+00  0.00000000000E+00  0.49497806522E+02  0.49497806522E+02  0.00000000000E+00 0. -1.
         21   -1    0    0  501  503 -0.00000000000E+00 -0.00000000000E+00 -0.85663855356E+03  0.85663855356E+03  0.00000000000E+00 0.  1.
          6    1    1    2  501    0 -0.81920788274E+02 -0.70778151965E+02 -0.47645033799E+03  0.51798599104E+03  0.17200000000E+03 0. -1.
         -6    1    1    2    0  502  0.81920788274E+02  0.70778151965E+02 -0.33069040904E+03  0.38815036903E+03  0.17200000000E+03 0.  1.
</event>
<event>
 4    1  0.5808486E+000  0.3714659E+03  0.7818608E-02  0.1054134E+00
         21   -1    0    0  501  502  0.00000000000E+00  0.00000000000E+00  0.19848925777E+03  0.19848925777E+03  0.00000000000E+00 0. -1.
         21   -1    0    0  502  503 -0.00000000000E+00 -0.00000000000E+00 -0.11010192145E+04  0.11010192145E+04  0.00000000000E+00 0.  1.
          6    1    1    2  501    0 -0.32287388825E+03 -0.64462083681E+02 -0.56784436220E+02  0.37578102686E+03  0.17200000000E+03 0. -1.
         -6    1    1    2    0  503  0.32287388825E+03  0.64462083681E+02 -0.84574552052E+03  0.92372744542E+03  0.17200000000E+03 0.  1.
</event>
<event>
 4    1  0.5808486E+000  0.2155893E+03  0.7818608E-02  0.1137215E+00
         21   -1    0    0  501  502  0.00000000000E+00  0.00000000000E+00  0.45504016598E+03  0.45504016598E+03  0.00000000000E+00 0.  1.
         21   -1    0    0  502  503 -0.00000000000E+00 -0.00000000000E+00 -0.10263163818E+03  0.10263163818E+03  0.00000000000E+00 0. -1.
          6    1    1    2  501    0  0.74824181161E+02  0.10628304326E+03  0.15694606180E+03  0.26666610149E+03  0.17200000000E+03 0. -1.
         -6    1    1    2    0  503 -0.74824181161E+02 -0.10628304326E+03  0.19546246600E+03  0.29100570267E+03  0.17200000000E+03 0.  1.
</event>
<event>
 4    1  0.5808486E+000  0.1841275E+03  0.7818608E-02  0.1163867E+00
         21   -1    0    0  503  502  0.00000000000E+00  0.00000000000E+00  0.48966365815E+03  0.48966365815E+03  0.00000000000E+00 0. -1.
         21   -1    0    0  501  503 -0.00000000000E+00 -0.00000000000E+00 -0.49750700545E+03  0.49750700545E+03  0.00000000000E+00 0. -1.
          6    1    1    2  501    0  0.30076296766E+01  0.65649786906E+02 -0.46187516372E+03  0.49722390049E+03  0.17200000000E+03 0. -1.
         -6    1    1    2    0  502 -0.30076296766E+01 -0.65649786906E+02  0.45403181642E+03  0.48994676310E+03  0.17200000000E+03 0. -1.
</event>
<event>
 4    1  0.5808486E+000  0.2006170E+03  0.7818608E-02  0.1149219E+00
         21   -1    0    0  503  502  0.00000000000E+00  0.00000000000E+00  0.37662477982E+03  0.37662477982E+03  0.00000000000E+00 0. -1.
         21   -1    0    0  501  503 -0.00000000000E+00 -0.00000000000E+00 -0.10696648956E+03  0.10696648956E+03  0.00000000000E+00 0.  1.
          6    1    1    2  501    0  0.73511253600E+02 -0.72520976413E+02  0.12730265460E+03  0.23759874220E+03  0.17200000000E+03 0. -1.
         -6    1    1    2    0  502 -0.73511253600E+02  0.72520976413E+02  0.14235563566E+03  0.24599252718E+03  0.17200000000E+03 0.  1.
</event>
<event>
 4    1  0.5808486E+000  0.1746022E+03  0.7818608E-02  0.1173132E+00
         21   -1    0    0  501  502  0.00000000000E+00  0.00000000000E+00  0.40756754377E+02  0.40756754377E+02  0.00000000000E+00 0.  1.
         21   -1    0    0  502  503 -0.00000000000E+00 -0.00000000000E+00 -0.79231947076E+03  0.79231947076E+03  0.00000000000E+00 0.  1.
          6    1    1    2  501    0  0.23495213147E+02  0.18705874849E+02 -0.47429944871E+03  0.50541656269E+03  0.17200000000E+03 0. -1.
         -6    1    1    2    0  503 -0.23495213147E+02 -0.18705874849E+02 -0.27726326768E+03  0.32765966245E+03  0.17200000000E+03 0. -1.
</event>
<event>
 4    1  0.5808486E+000  0.1975063E+03  0.7818608E-02  0.1151860E+00
         21   -1    0    0  501  502  0.00000000000E+00  0.00000000000E+00  0.27117647008E+02  0.27117647008E+02  0.00000000000E+00 0.  1.
         21   -1    0    0  502  503 -0.00000000000E+00 -0.00000000000E+00 -0.14435094877E+04  0.14435094877E+04  0.00000000000E+00 0.  1.
          6    1    1    2  501    0  0.49089816179E+01 -0.96956839946E+02 -0.66487749169E+03  0.69359268008E+03  0.17200000000E+03 0.  1.
         -6    1    1    2    0  503 -0.49089816179E+01  0.96956839946E+02 -0.75151434900E+03  0.77703445462E+03  0.17200000000E+03 0.  1.
</event>
<event>
 4    1  0.5808486E+000  0.1789424E+03  0.7818608E-02  0.1168830E+00
         21   -1    0    0  503  502  0.00000000000E+00  0.00000000000E+00  0.44678972191E+03  0.44678972191E+03  0.00000000000E+00 0.  1.
         21   -1    0    0  501  503 -0.00000000000E+00 -0.00000000000E+00 -0.74910274149E+02  0.74910274149E+02  0.00000000000E+00 0.  1.
          6    1    1    2  501    0  0.48828991421E+02  0.72198431636E+01  0.24021029416E+03  0.29953527665E+03  0.17200000000E+03 0.  1.
         -6    1    1    2    0  502 -0.48828991421E+02 -0.72198431636E+01  0.13166915360E+03  0.22216471940E+03  0.17200000000E+03 0.  1.
</event>
<event>
 4    1  0.5808486E+000  0.2229913E+03  0.7818608E-02  0.1131672E+00
         21   -1    0    0  501  502  0.00000000000E+00  0.00000000000E+00  0.10450511286E+04  0.10450511286E+04  0.00000000000E+00 0.  1.
         21   -1    0    0  502  503 -0.00000000000E+00 -0.00000000000E+00 -0.73605164624E+02  0.73605164624E+02  0.00000000000E+00 0. -1.
          6    1    1    2  501    0 -0.37475687290E+02 -0.13688196853E+03  0.81830346192E+03  0.84814247402E+03  0.17200000000E+03 0.  1.
         -6    1    1    2    0  503  0.37475687290E+02  0.13688196853E+03  0.15314250207E+03  0.27051381922E+03  0.17200000000E+03 0. -1.
</event>
<event>
 4    1  0.5808486E+000  0.1877348E+03  0.7818608E-02  0.1160520E+00
         21   -1    0    0  501  502  0.00000000000E+00  0.00000000000E+00  0.14845472335E+03  0.14845472335E+03  0.00000000000E+00 0.  1.
         21   -1    0    0  502  503 -0.00000000000E+00 -0.00000000000E+00 -0.38700755615E+03  0.38700755615E+03  0.00000000000E+00 0. -1.
          6    1    1    2  501    0 -0.75204467009E+02 -0.21520856022E+01  0.47181431079E+02  0.19357280483E+03  0.17200000000E+03 0.  1.
         -6    1    1    2    0  503  0.75204467009E+02  0.21520856022E+01 -0.28573426388E+03  0.34188947466E+03  0.17200000000E+03 0. -1.
</event>
<event>
 4    1  0.5808486E+000  0.2080706E+03  0.7818608E-02  0.1143103E+00
         21   -1    0    0  501  502  0.00000000000E+00  0.00000000000E+00  0.14497783746E+03  0.14497783746E+03  0.00000000000E+00 0.  1.
         21   -1    0    0  502  503 -0.00000000000E+00 -0.00000000000E+00 -0.52179900138E+03  0.52179900138E+03  0.00000000000E+00 0. -1.
          6    1    1    2  501    0  0.10593014996E+03 -0.49881569305E+02  0.29623797128E+02  0.21016882972E+03  0.17200000000E+03 0.  1.
         -6    1    1    2    0  503 -0.10593014996E+03  0.49881569305E+02 -0.40644496105E+03  0.45660800912E+03  0.17200000000E+03 0. -1.
</event>
<event>
 4    1  0.5808486E+000  0.1763306E+03  0.7818608E-02  0.1171402E+00
         21   -1    0    0  503  502  0.00000000000E+00  0.00000000000E+00  0.17459320986E+03  0.17459320986E+03  0.00000000000E+00 0. -1.
         21   -1    0    0  501  503 -0.00000000000E+00 -0.00000000000E+00 -0.30159535907E+03  0.30159535907E+03  0.00000000000E+00 0. -1.
          6    1    1    2  501    0  0.23680550349E+02 -0.30784861588E+02 -0.21586701208E+03  0.27873113043E+03  0.17200000000E+03 0. -1.
         -6    1    1    2    0  502 -0.23680550349E+02  0.30784861588E+02  0.88864862863E+02  0.19745743850E+03  0.17200000000E+03 0. -1.
</event>
<event>
 4    1  0.5808486E+000  0.1975990E+03  0.7818608E-02  0.1151781E+00
         21   -1    0    0  503  502  0.00000000000E+00  0.00000000000E+00  0.37630746318E+03  0.37630746318E+03  0.00000000000E+00 0.  1.
         21   -1    0    0  501  503 -0.00000000000E+00 -0.00000000000E+00 -0.11536544961E+03  0.11536544961E+03  0.00000000000E+00 0.  1.
          6    1    1    2  501    0  0.68643457466E+02  0.68916112067E+02  0.20844588157E+03  0.28721949846E+03  0.17200000000E+03 0.  1.
         -6    1    1    2    0  502 -0.68643457466E+02 -0.68916112067E+02  0.52496131997E+02  0.20445341433E+03  0.17200000000E+03 0.  1.
</event>
<event>
 4    1  0.5808486E+000  0.1818103E+03  0.7818608E-02  0.1166062E+00
         21   -1    0    0  503  502  0.00000000000E+00  0.00000000000E+00  0.58232415599E+03  0.58232415599E+03  0.00000000000E+00 0.  1.
         21   -1    0    0  501  503 -0.00000000000E+00 -0.00000000000E+00 -0.57247643536E+02  0.57247643536E+02  0.00000000000E+00 0.  1.
          6    1    1    2  501    0 -0.22766164552E+02  0.54338650058E+02  0.29193440376E+03  0.34391958833E+03  0.17200000000E+03 0. -1.
         -6    1    1    2    0  502  0.22766164552E+02 -0.54338650058E+02  0.23314210869E+03  0.29565221120E+03  0.17200000000E+03 0. -1.
</event>
<event>
 4    1  0.5808486E+000  0.2615800E+03  0.7818608E-02  0.1106198E+00
         21   -1    0    0  503  502  0.00000000000E+00  0.00000000000E+00  0.28224389750E+04  0.28224389750E+04  0.00000000000E+00 0. -1.
         21   -1    0    0  501  503 -0.00000000000E+00 -0.00000000000E+00 -0.24369455184E+02  0.24369455184E+02  0.00000000000E+00 0. -1.
          6    1    1    2  501    0  0.17415999097E+03  0.92241046895E+02  0.15016095964E+04  0.15242229145E+04  0.17200000000E+03 0. -1.
         -6    1    1    2    0  502 -0.17415999097E+03 -0.92241046895E+02  0.12964599234E+04  0.13225855156E+04  0.17200000000E+03 0. -1.
</event>
<event>
 4    1  0.5808486E+000  0.1827512E+03  0.7818608E-02  0.1165167E+00
         21   -1    0    0  503  502  0.00000000000E+00  0.00000000000E+00  0.66318605592E+03  0.66318605592E+03  0.00000000000E+00 0.  1.
         21   -1    0    0  501  503 -0.00000000000E+00 -0.00000000000E+00 -0.50464122047E+02  0.50464122047E+02  0.00000000000E+00 0.  1.
          6    1    1    2  501    0 -0.57321193700E+02 -0.22984430473E+02  0.32257464331E+03  0.37074574009E+03  0.17200000000E+03 0.  1.
         -6    1    1    2    0  502  0.57321193700E+02  0.22984430473E+02  0.29014729057E+03  0.34290443787E+03  0.17200000000E+03 0.  1.
</event>
<event>
 4    1  0.5808486E+000  0.1996951E+03  0.7818608E-02  0.1149996E+00
         21   -1    0    0  503  502  0.00000000000E+00  0.00000000000E+00  0.11755951345E+04  0.11755951345E+04  0.00000000000E+00 0.  1.
         21   -1    0    0  501  503 -0.00000000000E+00 -0.00000000000E+00 -0.87471428328E+02  0.87471428328E+02  0.00000000000E+00 0.  1.
          6    1    1    2  501    0  0.37840619242E+02  0.94139428176E+02  0.49931068993E+02  0.20584279451E+03  0.17200000000E+03 0.  1.
         -6    1    1    2    0  502 -0.37840619242E+02 -0.94139428176E+02  0.10381926372E+04  0.10572237683E+04  0.17200000000E+03 0.  1.
</event>
<event>
 4    1  0.5808486E+000  0.2805557E+03  0.7818608E-02  0.1095386E+00
         21   -1    0    0  501  502  0.00000000000E+00  0.00000000000E+00  0.21373730408E+03  0.21373730408E+03  0.00000000000E+00 0.  1.
         21   -1    0    0  502  503 -0.00000000000E+00 -0.00000000000E+00 -0.56309177814E+03  0.56309177814E+03  0.00000000000E+00 0. -1.
          6    1    1    2  501    0 -0.21605419944E+03 -0.49478378526E+02  0.53794515200E+02  0.28566654845E+03  0.17200000000E+03 0.  1.
         -6    1    1    2    0  503  0.21605419944E+03  0.49478378526E+02 -0.40314898926E+03  0.49116253377E+03  0.17200000000E+03 0. -1.
</event>
<event>
 4    1  0.5808486E+000  0.2187760E+03  0.7818608E-02  0.1134799E+00
         21   -1    0    0  501  502  0.00000000000E+00  0.00000000000E+00  0.33640060338E+03  0.33640060338E+03  0.00000000000E+00 0.  1.
         21   -1    0    0  502  503 -0.00000000000E+00 -0.00000000000E+00 -0.14341470715E+03  0.14341470715E+03  0.00000000000E+00 0. -1.
          6    1    1    2  501    0  0.66153418091E+02  0.11790963395E+03  0.11783608134E+03  0.24849204931E+03  0.17200000000E+03 0. -1.
         -6    1    1    2    0  503 -0.66153418091E+02 -0.11790963395E+03  0.75149814888E+02  0.23132326122E+03  0.17200000000E+03 0. -1.
</event>
<event>
 4    1  0.5808486E+000  0.1942641E+03  0.7818608E-02  0.1154671E+00
         21   -1    0    0  503  502  0.00000000000E+00  0.00000000000E+00  0.12390626078E+03  0.12390626078E+03  0.00000000000E+00 0. -1.
         21   -1    0    0  501  503 -0.00000000000E+00 -0.00000000000E+00 -0.34725838565E+03  0.34725838565E+03  0.00000000000E+00 0.  1.
          6    1    1    2  501    0 -0.43810375042E+02 -0.78963241664E+02 -0.19427115677E+03  0.27473591838E+03  0.17200000000E+03 0.  1.
         -6    1    1    2    0  502  0.43810375042E+02  0.78963241664E+02 -0.29080968099E+02  0.19642872804E+03  0.17200000000E+03 0. -1.
</event>
<event>
 4    1  0.5808486E+000  0.1828876E+03  0.7818608E-02  0.1165037E+00
         21   -1    0    0  503  502  0.00000000000E+00  0.00000000000E+00  0.65044484206E+02  0.65044484206E+02  0.00000000000E+00 0. -1.
         21   -1    0    0  501  503 -0.00000000000E+00 -0.00000000000E+00 -0.67505001180E+03  0.67505001180E+03  0.00000000000E+00 0. -1.
          6    1    1    2  501    0 -0.21487920253E+00 -0.62159839504E+02 -0.48561944761E+03  0.51891631283E+03  0.17200000000E+03 0. -1.
         -6    1    1    2    0  502  0.21487920253E+00  0.62159839504E+02 -0.12438607998E+03  0.22117818318E+03  0.17200000000E+03 0. -1.
</event>
<event>
 4    1  0.5808486E+000  0.1798328E+03  0.7818608E-02  0.1167965E+00
         21   -1    0    0  501  502  0.00000000000E+00  0.00000000000E+00  0.69688800400E+03  0.69688800400E+03  0.00000000000E+00 0. -1.
         21   -1    0    0  502  503 -0.00000000000E+00 -0.00000000000E+00 -0.13882268106E+03  0.13882268106E+03  0.00000000000E+00 0. -1.
          6    1    1    2  501    0  0.27929488893E+02 -0.44449830216E+02  0.61996698835E+03  0.64552219977E+03  0.17200000000E+03 0. -1.
         -6    1    1    2    0  503 -0.27929488893E+02  0.44449830216E+02 -0.61901665406E+02  0.19018848529E+03  0.17200000000E+03 0. -1.
</event>
<event>
 4    1  0.5808486E+000  0.1848048E+03  0.7818608E-02  0.1163232E+00
         21   -1    0    0  501  502  0.00000000000E+00  0.00000000000E+00  0.13380276604E+03  0.13380276604E+03  0.00000000000E+00 0.  1.
         21   -1    0    0  502  503 -0.00000000000E+00 -0.00000000000E+00 -0.27351476207E+03  0.27351476207E+03  0.00000000000E+00 0.  1.
          6    1    1    2  501    0  0.57493139557E+02 -0.35543654631E+02 -0.12248804386E+03  0.22171182506E+03  0.17200000000E+03 0.  1.
         -6    1    1    2    0  503 -0.57493139557E+02  0.35543654631E+02 -0.17223952170E+02  0.18560570306E+03  0.17200000000E+03 0.  1.
</event>
<event>
 4    1  0.5808486E+000  0.2211821E+03  0.7818608E-02  0.1133005E+00
         21   -1    0    0  503  502  0.00000000000E+00  0.00000000000E+00  0.87936652250E+03  0.87936652250E+03  0.00000000000E+00 0.  1.
         21   -1    0    0  501  503 -0.00000000000E+00 -0.00000000000E+00 -0.71910719521E+02  0.71910719521E+02  0.00000000000E+00 0.  1.
          6    1    1    2  501    0  0.13831995928E+03 -0.14322117371E+02  0.17742971534E+03  0.28355394208E+03  0.17200000000E+03 0.  1.
         -6    1    1    2    0  502 -0.13831995928E+03  0.14322117371E+02  0.63002608764E+03  0.66772329995E+03  0.17200000000E+03 0.  1.
</event>
<event>
 4    1  0.5808486E+000  0.2209989E+03  0.7818608E-02  0.1133140E+00
         21   -1    0    0  503  502  0.00000000000E+00  0.00000000000E+00  0.29816569729E+03  0.29816569729E+03  0.00000000000E+00 0.  1.
         21   -1    0    0  501  503 -0.00000000000E+00 -0.00000000000E+00 -0.17723439483E+03  0.17723439483E+03  0.00000000000E+00 0. -1.
          6    1    1    2  501    0 -0.41704747158E+02 -0.13235273163E+03 -0.49694270577E+01  0.22105480477E+03  0.17200000000E+03 0. -1.
         -6    1    1    2    0  502  0.41704747158E+02  0.13235273163E+03  0.12590072951E+03  0.25434528735E+03  0.17200000000E+03 0.  1.
</event>
<event>
 4    1  0.5808486E+000  0.2934308E+03  0.7818608E-02  0.1088571E+00
         21   -1    0    0  503  502  0.00000000000E+00  0.00000000000E+00  0.11094044223E+03  0.11094044223E+03  0.00000000000E+00 0. -1.
         21   -1    0    0  501  503 -0.00000000000E+00 -0.00000000000E+00 -0.82117129274E+03  0.82117129274E+03  0.00000000000E+00 0.  1.
          6    1    1    2  501    0 -0.10622998049E+03  0.21268016867E+03 -0.24593696000E+03  0.38286636206E+03  0.17200000000E+03 0. -1.
         -6    1    1    2    0  502  0.10622998049E+03 -0.21268016867E+03 -0.46429389051E+03  0.54924537291E+03  0.17200000000E+03 0. -1.
</event>
<event>
 4    1  0.5808486E+000  0.2804610E+03  0.7818608E-02  0.1095437E+00
         21   -1    0    0  503  502  0.00000000000E+00  0.00000000000E+00  0.14127525266E+03  0.14127525266E+03  0.00000000000E+00 0.  1.
         21   -1    0    0  501  503 -0.00000000000E+00 -0.00000000000E+00 -0.64290257516E+03  0.64290257516E+03  0.00000000000E+00 0. -1.
          6    1    1    2  501    0 -0.16507370734E+03 -0.14773304616E+03 -0.10730248825E+03  0.30028687245E+03  0.17200000000E+03 0.  1.
         -6    1    1    2    0  502  0.16507370734E+03  0.14773304616E+03 -0.39432483425E+03  0.48389095537E+03  0.17200000000E+03 0. -1.
</event>
<event>
 4    1  0.5808486E+000  0.2697557E+03  0.7818608E-02  0.1101420E+00
         21   -1    0    0  503  502  0.00000000000E+00  0.00000000000E+00  0.42328501099E+03  0.42328501099E+03  0.00000000000E+00 0. -1.
         21   -1    0    0  501  503 -0.00000000000E+00 -0.00000000000E+00 -0.24316893554E+03  0.24316893554E+03  0.00000000000E+00 0.  1.
          6    1    1    2  501    0  0.18611437267E+03  0.92442169889E+02 -0.90325629638E+02  0.28447642057E+03  0.17200000000E+03 0.  1.
         -6    1    1    2    0  502 -0.18611437267E+03 -0.92442169889E+02  0.27044170509E+03  0.38197752596E+03  0.17200000000E+03 0. -1.
</event>
<event>
 4    1  0.5808486E+000  0.3187248E+03  0.7818608E-02  0.1076238E+00
         21   -1    0    0  501  502  0.00000000000E+00  0.00000000000E+00  0.12525912345E+04  0.12525912345E+04  0.00000000000E+00 0.  1.
         21   -1    0    0  502  503 -0.00000000000E+00 -0.00000000000E+00 -0.10389531898E+03  0.10389531898E+03  0.00000000000E+00 0. -1.
          6    1    1    2  501    0  0.26690188445E+03 -0.27656739302E+02  0.89204091740E+03  0.94727108552E+03  0.17200000000E+03 0.  1.
         -6    1    1    2    0  503 -0.26690188445E+03  0.27656739302E+02  0.25665499814E+03  0.40921546797E+03  0.17200000000E+03 0. -1.
</event>
<event>
 4    1  0.5808486E+000  0.2101968E+03  0.7818608E-02  0.1141410E+00
         21   -1    0    0  501  502  0.00000000000E+00  0.00000000000E+00  0.30739551275E+03  0.30739551275E+03  0.00000000000E+00 0.  1.
         21   -1    0    0  502  503 -0.00000000000E+00 -0.00000000000E+00 -0.17576447726E+03  0.17576447726E+03  0.00000000000E+00 0.  1.
          6    1    1    2  501    0 -0.11968901821E+03  0.16529288357E+02  0.16894630348E+03  0.26967671741E+03  0.17200000000E+03 0.  1.
         -6    1    1    2    0  503  0.11968901821E+03 -0.16529288357E+02 -0.37315267988E+02  0.21348327260E+03  0.17200000000E+03 0.  1.
</event>
<event>
 4    1  0.5808486E+000  0.2552237E+03  0.7818608E-02  0.1110047E+00
         21   -1    0    0  501  502  0.00000000000E+00  0.00000000000E+00  0.48270009372E+03  0.48270009372E+03  0.00000000000E+00 0.  1.
         21   -1    0    0  502  503 -0.00000000000E+00 -0.00000000000E+00 -0.14177877901E+03  0.14177877901E+03  0.00000000000E+00 0. -1.
          6    1    1    2  501    0 -0.15372989789E+03 -0.10918896943E+03  0.23899953567E+03  0.34965681832E+03  0.17200000000E+03 0.  1.
         -6    1    1    2    0  503  0.15372989789E+03  0.10918896943E+03  0.10192177903E+03  0.27482205441E+03  0.17200000000E+03 0. -1.
</event>
<event>
 4    1  0.5808486E+000  0.2731351E+03  0.7818608E-02  0.1099499E+00
         21   -1    0    0  503  502  0.00000000000E+00  0.00000000000E+00  0.55923184437E+03  0.55923184437E+03  0.00000000000E+00 0. -1.
         21   -1    0    0  501  503 -0.00000000000E+00 -0.00000000000E+00 -0.19945040142E+03  0.19945040142E+03  0.00000000000E+00 0.  1.
          6    1    1    2  501    0  0.16797170316E+03 -0.12963137714E+03 -0.38403780433E+02  0.27582174924E+03  0.17200000000E+03 0.  1.
         -6    1    1    2    0  502 -0.16797170316E+03  0.12963137714E+03  0.39818522339E+03  0.48286049655E+03  0.17200000000E+03 0. -1.
</event>
<event>
 4    1  0.5808486E+000  0.2587462E+03  0.7818608E-02  0.1107899E+00
         21   -1    0    0  501  502  0.00000000000E+00  0.00000000000E+00  0.11887511491E+04  0.11887511491E+04  0.00000000000E+00 0.  1.
         21   -1    0    0  502  503 -0.00000000000E+00 -0.00000000000E+00 -0.11627611249E+03  0.11627611249E+03  0.00000000000E+00 0. -1.
          6    1    1    2  501    0 -0.17194112773E+03  0.88328191347E+02  0.10047958242E+04  0.10375761510E+04  0.17200000000E+03 0.  1.
         -6    1    1    2    0  503  0.17194112773E+03 -0.88328191347E+02  0.67679212467E+02  0.26745111066E+03  0.17200000000E+03 0. -1.
</event>
<event>
 4    1  0.5808486E+000  0.3348647E+03  0.7818608E-02  0.1069004E+00
         21   -1    0    0  501  502  0.00000000000E+00  0.00000000000E+00  0.22809268095E+03  0.22809268095E+03  0.00000000000E+00 0. -1.
         21   -1    0    0  502  503 -0.00000000000E+00 -0.00000000000E+00 -0.50643323880E+03  0.50643323880E+03  0.00000000000E+00 0. -1.
          6    1    1    2  501    0 -0.16039541297E+03  0.23837716991E+03 -0.76353300975E+02  0.34345915362E+03  0.17200000000E+03 0. -1.
         -6    1    1    2    0  503  0.16039541297E+03 -0.23837716991E+03 -0.20198725688E+03  0.39106676613E+03  0.17200000000E+03 0. -1.
</event>
<event>
 4    1  0.5808486E+000  0.2005214E+03  0.7818608E-02  0.1149300E+00
         21   -1    0    0  503  502  0.00000000000E+00  0.00000000000E+00  0.61651667951E+03  0.61651667951E+03  0.00000000000E+00 0.  1.
         21   -1    0    0  501  503 -0.00000000000E+00 -0.00000000000E+00 -0.50232709059E+03  0.50232709059E+03  0.00000000000E+00 0. -1.
          6    1    1    2  501    0  0.10214960907E+03  0.13794367142E+02 -0.46474884293E+03  0.50616233977E+03  0.17200000000E+03 0. -1.
         -6    1    1    2    0  502 -0.10214960907E+03 -0.13794367142E+02  0.57893843185E+03  0.61268143033E+03  0.17200000000E+03 0.  1.
</event>
<event>
 4    1  0.5808486E+000  0.1870171E+03  0.7818608E-02  0.1161180E+00
         21   -1    0    0  503  502  0.00000000000E+00  0.00000000000E+00  0.16962852431E+04  0.16962852431E+04  0.00000000000E+00 0. -1.
         21   -1    0    0  501  503 -0.00000000000E+00 -0.00000000000E+00 -0.60567614107E+02  0.60567614107E+02  0.00000000000E+00 0. -1.
          6    1    1    2  501    0  0.62024893035E+02  0.39297751283E+02  0.10445242286E+03  0.21420949851E+03  0.17200000000E+03 0. -1.
         -6    1    1    2    0  502 -0.62024893035E+02 -0.39297751283E+02  0.15312652061E+04  0.15426433587E+04  0.17200000000E+03 0. -1.
</event>
<event>
 4    1  0.5808486E+000  0.2218255E+03  0.7818608E-02  0.1132529E+00
         21   -1    0    0  503  502  0.00000000000E+00  0.00000000000E+00  0.85546758596E+03  0.85546758596E+03  0.00000000000E+00 0.  1.
         21   -1    0    0  501  503 -0.00000000000E+00 -0.00000000000E+00 -0.14178567966E+03  0.14178567966E+03  0.00000000000E+00 0.  1.
          6    1    1    2  501    0 -0.88624536954E+02  0.10848153771E+03 -0.27560020483E+02  0.22353099853E+03  0.17200000000E+03 0.  1.
         -6    1    1    2    0  502  0.88624536954E+02 -0.10848153771E+03  0.74124192678E+03  0.77372226709E+03  0.17200000000E+03 0.  1.
</event>
<event>
 4    1  0.5808486E+000  0.1763663E+03  0.7818608E-02  0.1171367E+00
         21   -1    0    0  501  502  0.00000000000E+00  0.00000000000E+00  0.18618963862E+03  0.18618963862E+03  0.00000000000E+00 0.  1.
         21   -1    0    0  502  503 -0.00000000000E+00 -0.00000000000E+00 -0.18106588027E+03  0.18106588027E+03  0.00000000000E+00 0.  1.
          6    1    1    2  501    0  0.97884664822E+01  0.37752414071E+02 -0.48507089970E+02  0.18291527170E+03  0.17200000000E+03 0.  1.
         -6    1    1    2    0  503 -0.97884664822E+01 -0.37752414071E+02  0.53630848322E+02  0.18434024720E+03  0.17200000000E+03 0.  1.
</event>
<event>
 4    1  0.5808486E+000  0.2155499E+03  0.7818608E-02  0.1137245E+00
         21   -1    0    0  501  502  0.00000000000E+00  0.00000000000E+00  0.23877583615E+03  0.23877583615E+03  0.00000000000E+00 0. -1.
         21   -1    0    0  502  503 -0.00000000000E+00 -0.00000000000E+00 -0.27286115057E+03  0.27286115057E+03  0.00000000000E+00 0.  1.
          6    1    1    2  501    0 -0.82866485209E+01  0.12964993770E+03  0.11997631550E+03  0.24669027377E+03  0.17200000000E+03 0. -1.
         -6    1    1    2    0  503  0.82866485209E+01 -0.12964993770E+03 -0.15406162992E+03  0.26494671295E+03  0.17200000000E+03 0.  1.
</event>
<event>
 4    1  0.5808486E+000  0.1930709E+03  0.7818608E-02  0.1155720E+00
         21   -1    0    0  503  502  0.00000000000E+00  0.00000000000E+00  0.55930694028E+02  0.55930694028E+02  0.00000000000E+00 0. -1.
         21   -1    0    0  501  503 -0.00000000000E+00 -0.00000000000E+00 -0.69648194276E+03  0.69648194276E+03  0.00000000000E+00 0.  1.
          6    1    1    2  501    0 -0.40951433813E+02 -0.77558750894E+02 -0.24218734557E+03  0.30972744490E+03  0.17200000000E+03 0. -1.
         -6    1    1    2    0  502  0.40951433813E+02  0.77558750894E+02 -0.39836390316E+03  0.44268519188E+03  0.17200000000E+03 0.  1.
</event>
<event>
 4    1  0.5808486E+000  0.2314462E+03  0.7818608E-02  0.1125626E+00
         21   -1    0    0  503  502  0.00000000000E+00  0.00000000000E+00  0.11808787582E+04  0.11808787582E+04  0.00000000000E+00 0.  1.
         21   -1    0    0  501  503 -0.00000000000E+00 -0.00000000000E+00 -0.46914605361E+02  0.46914605361E+02  0.00000000000E+00 0. -1.
          6    1    1    2  501    0  0.12428630921E+03 -0.92391916368E+02  0.45531307576E+03  0.51076153910E+03  0.17200000000E+03 0. -1.
         -6    1    1    2    0  502 -0.12428630921E+03  0.92391916368E+02  0.67865107710E+03  0.71703182448E+03  0.17200000000E+03 0. -1.
</event>
<event>
 4    1  0.5808486E+000  0.3183163E+03  0.7818608E-02  0.1076427E+00
         21   -1    0    0  503  502  0.00000000000E+00  0.00000000000E+00  0.42415922509E+03  0.42415922509E+03  0.00000000000E+00 0. -1.
         21   -1    0    0  501  503 -0.00000000000E+00 -0.00000000000E+00 -0.23980932412E+03  0.23980932412E+03  0.00000000000E+00 0. -1.
          6    1    1    2  501    0 -0.26434699220E+03 -0.43150217485E+02  0.71563989203E+02  0.32626167122E+03  0.17200000000E+03 0. -1.
         -6    1    1    2    0  502  0.26434699220E+03  0.43150217485E+02  0.11278591177E+03  0.33770687800E+03  0.17200000000E+03 0. -1.
</event>
<event>
 4    1  0.5808486E+000  0.2047358E+03  0.7818608E-02  0.1145804E+00
         21   -1    0    0  501  502  0.00000000000E+00  0.00000000000E+00  0.57115804902E+03  0.57115804902E+03  0.00000000000E+00 0. -1.
         21   -1    0    0  502  503 -0.00000000000E+00 -0.00000000000E+00 -0.74428735503E+02  0.74428735503E+02  0.00000000000E+00 0. -1.
          6    1    1    2  501    0 -0.50369450397E+02  0.98973028264E+02  0.28651575553E+03  0.35214772472E+03  0.17200000000E+03 0. -1.
         -6    1    1    2    0  503  0.50369450397E+02 -0.98973028264E+02  0.21021355798E+03  0.29343905980E+03  0.17200000000E+03 0. -1.
</event>
<event>
 4    1  0.5808486E+000  0.1836909E+03  0.7818608E-02  0.1164278E+00
         21   -1    0    0  501  502  0.00000000000E+00  0.00000000000E+00  0.20161821954E+03  0.20161821954E+03  0.00000000000E+00 0. -1.
         21   -1    0    0  502  503 -0.00000000000E+00 -0.00000000000E+00 -0.26637577818E+03  0.26637577818E+03  0.00000000000E+00 0. -1.
          6    1    1    2  501    0  0.20004342732E+02  0.61303955733E+02  0.11028716231E+03  0.21425593781E+03  0.17200000000E+03 0.  1.
         -6    1    1    2    0  503 -0.20004342732E+02 -0.61303955733E+02 -0.17504472094E+03  0.25373805991E+03  0.17200000000E+03 0.  1.
</event>
<event>
 4    1  0.5808486E+000  0.2333511E+03  0.7818608E-02  0.1124303E+00
         21   -1    0    0  501  502  0.00000000000E+00  0.00000000000E+00  0.84779585896E+02  0.84779585896E+02  0.00000000000E+00 0.  1.
         21   -1    0    0  502  503 -0.00000000000E+00 -0.00000000000E+00 -0.73194356874E+03  0.73194356874E+03  0.00000000000E+00 0.  1.
          6    1    1    2  501    0 -0.13588879410E+03 -0.80018663482E+02 -0.18065992948E+03  0.29511143825E+03  0.17200000000E+03 0.  1.
         -6    1    1    2    0  503  0.13588879410E+03  0.80018663482E+02 -0.46650405336E+03  0.52161171638E+03  0.17200000000E+03 0.  1.
</event>
<event>
 4    1  0.5808486E+000  0.2116156E+03  0.7818608E-02  0.1140293E+00
         21   -1    0    0  503  502  0.00000000000E+00  0.00000000000E+00  0.11365008877E+03  0.11365008877E+03  0.00000000000E+00 0.  1.
         21   -1    0    0  501  503 -0.00000000000E+00 -0.00000000000E+00 -0.87286873365E+03  0.87286873365E+03  0.00000000000E+00 0. -1.
          6    1    1    2  501    0  0.36004003193E+02  0.11790188942E+03 -0.74494925750E+03  0.77442271404E+03  0.17200000000E+03 0. -1.
         -6    1    1    2    0  502 -0.36004003193E+02 -0.11790188942E+03 -0.14269387383E+02  0.21209610838E+03  0.17200000000E+03 0.  1.
</event>
<event>
 4    1  0.5808486E+000  0.1993572E+03  0.7818608E-02  0.1150283E+00
         21   -1    0    0  501  502  0.00000000000E+00  0.00000000000E+00  0.14129243188E+03  0.14129243188E+03  0.00000000000E+00 0.  1.
         21   -1    0    0  502  503 -0.00000000000E+00 -0.00000000000E+00 -0.30845489870E+03  0.30845489870E+03  0.00000000000E+00 0.  1.
          6    1    1    2  501    0 -0.97883293389E+02 -0.24044500097E+02 -0.16839715087E+02  0.20006712152E+03  0.17200000000E+03 0.  1.
         -6    1    1    2    0  503  0.97883293389E+02  0.24044500097E+02 -0.15032275173E+03  0.24968020906E+03  0.17200000000E+03 0.  1.
</event>
<event>
 4    1  0.5808486E+000  0.2063449E+03  0.7818608E-02  0.1144494E+00
         21   -1    0    0  503  502  0.00000000000E+00  0.00000000000E+00  0.25117155010E+03  0.25117155010E+03  0.00000000000E+00 0.  1.
         21   -1    0    0  501  503 -0.00000000000E+00 -0.00000000000E+00 -0.41320139584E+03  0.41320139584E+03  0.00000000000E+00 0. -1.
          6    1    1    2  501    0  0.69064728014E+02  0.90687869669E+02 -0.33611675055E+03  0.39440169417E+03  0.17200000000E+03 0. -1.
         -6    1    1    2    0  502 -0.69064728014E+02 -0.90687869669E+02  0.17408690480E+03  0.26997125178E+03  0.17200000000E+03 0.  1.
</event>
<event>
 4    1  0.5808486E+000  0.2599307E+03  0.7818608E-02  0.1107185E+00
         21   -1    0    0  503  502  0.00000000000E+00  0.00000000000E+00  0.18200168694E+03  0.18200168694E+03  0.00000000000E+00 0.  1.
         21   -1    0    0  501  503 -0.00000000000E+00 -0.00000000000E+00 -0.56574456137E+03  0.56574456137E+03  0.00000000000E+00 0.  1.
          6    1    1    2  501    0  0.37704314657E+02 -0.19120242185E+03 -0.41109801705E+03  0.48638005827E+03  0.17200000000E+03 0.  1.
         -6    1    1    2    0  502 -0.37704314657E+02  0.19120242185E+03  0.27355142615E+02  0.26136619003E+03  0.17200000000E+03 0.  1.
</event>
<event>
 4    1  0.5808486E+000  0.1837159E+03  0.7818608E-02  0.1164254E+00
         21   -1    0    0  503  502  0.00000000000E+00  0.00000000000E+00  0.22989299739E+03  0.22989299739E+03  0.00000000000E+00 0.  1.
         21   -1    0    0  501  503 -0.00000000000E+00 -0.00000000000E+00 -0.23593624313E+03  0.23593624313E+03  0.00000000000E+00 0.  1.
          6    1    1    2  501    0 -0.32539654686E+02  0.55755640684E+02  0.14012871196E+03  0.23105751775E+03  0.17200000000E+03 0.  1.
         -6    1    1    2    0  502  0.32539654686E+02 -0.55755640684E+02 -0.14617195770E+03  0.23477172277E+03  0.17200000000E+03 0.  1.
</event>
<event>
 4    1  0.5808486E+000  0.2763862E+03  0.7818608E-02  0.1097679E+00
         21   -1    0    0  501  502  0.00000000000E+00  0.00000000000E+00  0.13963970888E+03  0.13963970888E+03  0.00000000000E+00 0.  1.
         21   -1    0    0  502  503 -0.00000000000E+00 -0.00000000000E+00 -0.55729452933E+03  0.55729452933E+03  0.00000000000E+00 0. -1.
          6    1    1    2  501    0  0.14483987811E+03  0.16070698586E+03 -0.16157183978E+03  0.32014806731E+03  0.17200000000E+03 0.  1.
         -6    1    1    2    0  503 -0.14483987811E+03 -0.16070698586E+03 -0.25608298066E+03  0.37678617090E+03  0.17200000000E+03 0. -1.
</event>
<event>
 4    1  0.5808486E+000  0.2803521E+03  0.7818608E-02  0.1095497E+00
         21   -1    0    0  503  502  0.00000000000E+00  0.00000000000E+00  0.14520022434E+03  0.14520022434E+03  0.00000000000E+00 0.  1.
         21   -1    0    0  501  503 -0.00000000000E+00 -0.00000000000E+00 -0.11132245168E+04  0.11132245168E+04  0.00000000000E+00 0. -1.
          6    1    1    2  501    0  0.16883011642E+03 -0.14321201901E+03 -0.93500967103E+03  0.97613542888E+03  0.17200000000E+03 0. -1.
         -6    1    1    2    0  502 -0.16883011642E+03  0.14321201901E+03 -0.33014621441E+02  0.28228931228E+03  0.17200000000E+03 0.  1.
</event>
<event>
 4    1  0.5808486E+000  0.1869943E+03  0.7818608E-02  0.1161201E+00
         21   -1    0    0  503  502  0.00000000000E+00  0.00000000000E+00  0.28859781472E+03  0.28859781472E+03  0.00000000000E+00 0.  1.
         21   -1    0    0  501  503 -0.00000000000E+00 -0.00000000000E+00 -0.16469476696E+03  0.16469476696E+03  0.00000000000E+00 0. -1.
          6    1    1    2  501    0  0.25008309736E+02 -0.68974158365E+02 -0.54573975181E+02  0.19479519718E+03  0.17200000000E+03 0. -1.
         -6    1    1    2    0  502 -0.25008309736E+02  0.68974158365E+02  0.17847702294E+03  0.25849738450E+03  0.17200000000E+03 0.  1.
</event>
<event>
 4    1  0.5808486E+000  0.1766992E+03  0.7818608E-02  0.1171036E+00
         21   -1    0    0  503  502  0.00000000000E+00  0.00000000000E+00  0.63203262851E+03  0.63203262851E+03  0.00000000000E+00 0. -1.
         21   -1    0    0  501  503 -0.00000000000E+00 -0.00000000000E+00 -0.10041097180E+03  0.10041097180E+03  0.00000000000E+00 0. -1.
          6    1    1    2  501    0 -0.14670241937E+02  0.37727865688E+02  0.47846371026E+01  0.17676396861E+03  0.17200000000E+03 0. -1.
         -6    1    1    2    0  502  0.14670241937E+02 -0.37727865688E+02  0.52683701961E+03  0.55567963170E+03  0.17200000000E+03 0. -1.
</event>
<event>
 4    1  0.5808486E+000  0.2551564E+03  0.7818608E-02  0.1110089E+00
         21   -1    0    0  501  502  0.00000000000E+00  0.00000000000E+00  0.54693363557E+03  0.54693363557E+03  0.00000000000E+00 0. -1.
         21   -1    0    0  502  503 -0.00000000000E+00 -0.00000000000E+00 -0.11987732394E+03  0.11987732394E+03  0.00000000000E+00 0.  1.
          6    1    1    2  501    0 -0.11782588858E+03 -0.14709809947E+03  0.24145915546E+03  0.35129377256E+03  0.17200000000E+03 0. -1.
         -6    1    1    2    0  503  0.11782588858E+03  0.14709809947E+03  0.18559715616E+03  0.31551718695E+03  0.17200000000E+03 0.  1.
</event>
<event>
 4    1  0.5808486E+000  0.1799702E+03  0.7818608E-02  0.1167832E+00
         21   -1    0    0  501  502  0.00000000000E+00  0.00000000000E+00  0.27790588299E+02  0.27790588299E+02  0.00000000000E+00 0. -1.
         21   -1    0    0  502  503 -0.00000000000E+00 -0.00000000000E+00 -0.16205253802E+04  0.16205253802E+04  0.00000000000E+00 0. -1.
          6    1    1    2  501    0  0.29253375593E+02 -0.44153389987E+02 -0.12330958655E+04  0.12461599798E+04  0.17200000000E+03 0.  1.
         -6    1    1    2    0  503 -0.29253375593E+02  0.44153389987E+02 -0.35963892636E+03  0.40215598862E+03  0.17200000000E+03 0.  1.
</event>
<event>
 4    1  0.5808486E+000  0.2177044E+03  0.7818608E-02  0.1135606E+00
         21   -1    0    0  501  502  0.00000000000E+00  0.00000000000E+00  0.39891648494E+03  0.39891648494E+03  0.00000000000E+00 0. -1.
         21   -1    0    0  502  503 -0.00000000000E+00 -0.00000000000E+00 -0.42028536176E+03  0.42028536176E+03  0.00000000000E+00 0. -1.
          6    1    1    2  501    0  0.52417903259E+02 -0.12273374915E+03  0.33622395830E+03  0.40055181924E+03  0.17200000000E+03 0. -1.
         -6    1    1    2    0  503 -0.52417903259E+02  0.12273374915E+03 -0.35759283512E+03  0.41865002746E+03  0.17200000000E+03 0. -1.
</event>
<event>
 4    1  0.5808486E+000  0.1940755E+03  0.7818608E-02  0.1154836E+00
         21   -1    0    0  501  502  0.00000000000E+00  0.00000000000E+00  0.92203729777E+03  0.92203729777E+03  0.00000000000E+00 0.  1.
         21   -1    0    0  502  503 -0.00000000000E+00 -0.00000000000E+00 -0.53554846065E+02  0.53554846065E+02  0.00000000000E+00 0.  1.
          6    1    1    2  501    0 -0.89746173307E+02 -0.51906672295E+01  0.67182777690E+03  0.69929813418E+03  0.17200000000E+03 0.  1.
         -6    1    1    2    0  503  0.89746173307E+02  0.51906672295E+01  0.19665467480E+03  0.27629400965E+03  0.17200000000E+03 0.  1.
</event>
<event>
 4    1  0.5808486E+000  0.1862978E+03  0.7818608E-02  0.1161843E+00
         21   -1    0    0  501  502  0.00000000000E+00  0.00000000000E+00  0.63063891038E+02  0.63063891038E+02  0.00000000000E+00 0.  1.
         21   -1    0    0  502  503 -0.00000000000E+00 -0.00000000000E+00 -0.58114902938E+03  0.58114902938E+03  0.00000000000E+00 0. -1.
          6    1    1    2  501    0 -0.57048611534E+02  0.43224271648E+02 -0.18488403106E+03  0.26246711543E+03  0.17200000000E+03 0.  1.
         -6    1    1    2    0  503  0.57048611534E+02 -0.43224271648E+02 -0.33320110728E+03  0.38174580499E+03  0.17200000000E+03 0. -1.
</event>
<event>
 4    1  0.5808486E+000  0.4659379E+03  0.7818608E-02  0.1023073E+00
         21   -1    0    0  501  502  0.00000000000E+00  0.00000000000E+00  0.12542410085E+04  0.12542410085E+04  0.00000000000E+00 0. -1.
         21   -1    0    0  502  503 -0.00000000000E+00 -0.00000000000E+00 -0.30725731307E+03  0.30725731307E+03  0.00000000000E+00 0. -1.
          6    1    1    2  501    0  0.87262969737E+02 -0.42414541137E+03  0.98941110015E+03  0.10936326993E+04  0.17200000000E+03 0. -1.
         -6    1    1    2    0  503 -0.87262969737E+02  0.42414541137E+03 -0.42427404682E+02  0.46786562231E+03  0.17200000000E+03 0. -1.
</event>
<event>
 4    1  0.5808486E+000  0.2520363E+03  0.7818608E-02  0.1112025E+00
         21   -1    0    0  501  502  0.00000000000E+00  0.00000000000E+00  0.37415325362E+03  0.37415325362E+03  0.00000000000E+00 0.  1.
         21   -1    0    0  502  503 -0.00000000000E+00 -0.00000000000E+00 -0.17077157381E+03  0.17077157381E+03  0.00000000000E+00 0.  1.
          6    1    1    2  501    0  0.87650540006E+02 -0.16203611936E+03  0.12249211032E+03  0.28022604845E+03  0.17200000000E+03 0. -1.
         -6    1    1    2    0  503 -0.87650540006E+02  0.16203611936E+03  0.80889569487E+02  0.26469877898E+03  0.17200000000E+03 0. -1.
</event>
<event>
 4    1  0.5808486E+000  0.1738078E+03  0.7818608E-02  0.1173934E+00
         21   -1    0    0  501  502  0.00000000000E+00  0.00000000000E+00  0.28794868411E+02  0.28794868411E+02  0.00000000000E+00 0.  1.
         21   -1    0    0  502  503 -0.00000000000E+00 -0.00000000000E+00 -0.12946462397E+04  0.12946462397E+04  0.00000000000E+00 0.  1.
          6    1    1    2  501    0  0.21346387409E+02  0.13019076100E+02 -0.34475398249E+03  0.38608868546E+03  0.17200000000E+03 0.  1.
         -6    1    1    2    0  503 -0.21346387409E+02 -0.13019076100E+02 -0.92109738883E+03  0.93735242269E+03  0.17200000000E+03 0.  1.
</event>
<event>
 4    1  0.5808486E+000  0.3442051E+03  0.7818608E-02  0.1065019E+00
         21   -1    0    0  501  502  0.00000000000E+00  0.00000000000E+00  0.11085489883E+04  0.11085489883E+04  0.00000000000E+00 0. -1.
         21   -1    0    0  502  503 -0.00000000000E+00 -0.00000000000E+00 -0.25458293705E+03  0.25458293705E+03  0.00000000000E+00 0.  1.
          6    1    1    2  501    0  0.58243768959E+02 -0.29240526080E+03  0.94613419613E+03  0.10068004223E+04  0.17200000000E+03 0. -1.
         -6    1    1    2    0  503 -0.58243768959E+02  0.29240526080E+03 -0.92168144874E+02  0.35633150309E+03  0.17200000000E+03 0.  1.
</event>
<event>
 4    1  0.5808486E+000  0.2134095E+03  0.7818608E-02  0.1138894E+00
         21   -1    0    0  503  502  0.00000000000E+00  0.00000000000E+00  0.12183036401E+04  0.12183036401E+04  0.00000000000E+00 0.  1.
         21   -1    0    0  501  503 -0.00000000000E+00 -0.00000000000E+00 -0.38398800871E+02  0.38398800871E+02  0.00000000000E+00 0.  1.
          6    1    1    2  501    0 -0.84617483542E+02  0.93805711076E+02  0.48774424110E+03  0.53238902570E+03  0.17200000000E+03 0.  1.
         -6    1    1    2    0  502  0.84617483542E+02 -0.93805711076E+02  0.69216059815E+03  0.72431341530E+03  0.17200000000E+03 0.  1.
</event>
<event>
 4    1  0.5808486E+000  0.2007235E+03  0.7818608E-02  0.1149130E+00
         21   -1    0    0  501  502  0.00000000000E+00  0.00000000000E+00  0.86109031197E+02  0.86109031197E+02  0.00000000000E+00 0.  1.
         21   -1    0    0  502  503 -0.00000000000E+00 -0.00000000000E+00 -0.46808175735E+03  0.46808175735E+03  0.00000000000E+00 0.  1.
          6    1    1    2  501    0 -0.94615554744E+02  0.41878808361E+02 -0.19652937612E+03  0.28091588326E+03  0.17200000000E+03 0.  1.
         -6    1    1    2    0  503  0.94615554744E+02 -0.41878808361E+02 -0.18544335004E+03  0.27327490529E+03  0.17200000000E+03 0.  1.
</event>
<event>
 4    1  0.5808486E+000  0.1792684E+03  0.7818608E-02  0.1168513E+00
         21   -1    0    0  503  502  0.00000000000E+00  0.00000000000E+00  0.35106475778E+03  0.35106475778E+03  0.00000000000E+00 0.  1.
         21   -1    0    0  501  503 -0.00000000000E+00 -0.00000000000E+00 -0.10135239561E+03  0.10135239561E+03  0.00000000000E+00 0. -1.
          6    1    1    2  501    0  0.30842435204E+02 -0.40023670949E+02  0.54478236290E+02  0.18736335894E+03  0.17200000000E+03 0. -1.
         -6    1    1    2    0  502 -0.30842435204E+02  0.40023670949E+02  0.19523412588E+03  0.26505379445E+03  0.17200000000E+03 0.  1.
</event>
<event>
 4    1  0.5808486E+000  0.1942363E+03  0.7818608E-02  0.1154695E+00
         21   -1    0    0  501  502  0.00000000000E+00  0.00000000000E+00  0.14051257975E+03  0.14051257975E+03  0.00000000000E+00 0.  1.
         21   -1    0    0  502  503 -0.00000000000E+00 -0.00000000000E+00 -0.31982030402E+03  0.31982030402E+03  0.00000000000E+00 0.  1.
          6    1    1    2  501    0 -0.51062406593E+02 -0.74406671162E+02  0.25461026671E+01  0.19425294005E+03  0.17200000000E+03 0.  1.
         -6    1    1    2    0  503  0.51062406593E+02  0.74406671162E+02 -0.18185382693E+03  0.26607994372E+03  0.17200000000E+03 0.  1.
</event>
<event>
 4    1  0.5808486E+000  0.3560633E+03  0.7818608E-02  0.1060154E+00
         21   -1    0    0  501  502  0.00000000000E+00  0.00000000000E+00  0.13011149197E+04  0.13011149197E+04  0.00000000000E+00 0. -1.
         21   -1    0    0  502  503 -0.00000000000E+00 -0.00000000000E+00 -0.30481693976E+03  0.30481693976E+03  0.00000000000E+00 0.  1.
          6    1    1    2  501    0 -0.14945348462E+03 -0.27360692774E+03  0.11604530719E+04  0.12138502491E+04  0.17200000000E+03 0. -1.
         -6    1    1    2    0  503  0.14945348462E+03  0.27360692774E+03 -0.16415509201E+03  0.39208161039E+03  0.17200000000E+03 0.  1.
</event>
<event>
 4    1  0.5808486E+000  0.1893367E+03  0.7818608E-02  0.1159061E+00
         21   -1    0    0  501  502  0.00000000000E+00  0.00000000000E+00  0.27928923488E+04  0.27928923488E+04  0.00000000000E+00 0.  1.
         21   -1    0    0  502  503 -0.00000000000E+00 -0.00000000000E+00 -0.15208668747E+02  0.15208668747E+02  0.00000000000E+00 0.  1.
          6    1    1    2  501    0 -0.41320352955E+02 -0.67505786679E+02  0.19434596420E+04  0.19526606933E+04  0.17200000000E+03 0.  1.
         -6    1    1    2    0  503  0.41320352955E+02  0.67505786679E+02  0.83422403808E+03  0.85544032434E+03  0.17200000000E+03 0.  1.
</event>
<event>
 4    1  0.5808486E+000  0.1805059E+03  0.7818608E-02  0.1167314E+00
         21   -1    0    0  501  502  0.00000000000E+00  0.00000000000E+00  0.42412073172E+03  0.42412073172E+03  0.00000000000E+00 0.  1.
         21   -1    0    0  502  503 -0.00000000000E+00 -0.00000000000E+00 -0.80190878763E+02  0.80190878763E+02  0.00000000000E+00 0.  1.
          6    1    1    2  501    0  0.54287712368E+02 -0.71564156957E+01  0.22363784185E+03  0.28739564073E+03  0.17200000000E+03 0.  1.
         -6    1    1    2    0  503 -0.54287712368E+02  0.71564156957E+01  0.12029201110E+03  0.21691596975E+03  0.17200000000E+03 0.  1.
</event>
<event>
 4    1  0.5808486E+000  0.2202571E+03  0.7818608E-02  0.1133692E+00
         21   -1    0    0  501  502  0.00000000000E+00  0.00000000000E+00  0.49306337799E+02  0.49306337799E+02  0.00000000000E+00 0.  1.
         21   -1    0    0  502  503 -0.00000000000E+00 -0.00000000000E+00 -0.12408639551E+04  0.12408639551E+04  0.00000000000E+00 0. -1.
          6    1    1    2  501    0 -0.22396955380E+02  0.13574812846E+03 -0.88932708866E+03  0.91619640286E+03  0.17200000000E+03 0. -1.
         -6    1    1    2    0  503  0.22396955380E+02 -0.13574812846E+03 -0.30223052866E+03  0.37397389006E+03  0.17200000000E+03 0.  1.
</event>
<event>
 4    1  0.5808486E+000  0.2292702E+03  0.7818608E-02  0.1127154E+00
         21   -1    0    0  503  502  0.00000000000E+00  0.00000000000E+00  0.62258166246E+03  0.62258166246E+03  0.00000000000E+00 0.  1.
         21   -1    0    0  501  503 -0.00000000000E+00 -0.00000000000E+00 -0.89688958145E+02  0.89688958145E+02  0.00000000000E+00 0. -1.
          6    1    1    2  501    0  0.13185007114E+03 -0.74809080538E+02  0.35268014603E+03  0.42065202388E+03  0.17200000000E+03 0.  1.
         -6    1    1    2    0  502 -0.13185007114E+03  0.74809080538E+02  0.18021255828E+03  0.29161859672E+03  0.17200000000E+03 0.  1.
</event>
<event>
 4    1  0.5808486E+000  0.2332720E+03  0.7818608E-02  0.1124358E+00
         21   -1    0    0  503  502  0.00000000000E+00  0.00000000000E+00  0.33280930782E+03  0.33280930782E+03  0.00000000000E+00 0.  1.
         21   -1    0    0  501  503 -0.00000000000E+00 -0.00000000000E+00 -0.20154870315E+03  0.20154870315E+03  0.00000000000E+00 0.  1.
          6    1    1    2  501    0 -0.14830193110E+03  0.53276433707E+02 -0.50449376810E+02  0.23866499697E+03  0.17200000000E+03 0.  1.
         -6    1    1    2    0  502  0.14830193110E+03 -0.53276433707E+02  0.18170998149E+03  0.29569301400E+03  0.17200000000E+03 0.  1.
</event>
<event>
 4    1  0.5808486E+000  0.2028168E+03  0.7818608E-02  0.1147384E+00
         21   -1    0    0  501  502  0.00000000000E+00  0.00000000000E+00  0.60465106593E+02  0.60465106593E+02  0.00000000000E+00 0. -1.
         21   -1    0    0  502  503 -0.00000000000E+00 -0.00000000000E+00 -0.77815332771E+03  0.77815332771E+03  0.00000000000E+00 0. -1.
          6    1    1    2  501    0  0.23058559146E+02  0.10497129251E+03 -0.21015465446E+03  0.29206103504E+03  0.17200000000E+03 0. -1.
         -6    1    1    2    0  503 -0.23058559146E+02 -0.10497129251E+03 -0.50753356666E+03  0.54655739926E+03  0.17200000000E+03 0. -1.
</event>
<event>
 4    1  0.5808486E+000  0.1731533E+03  0.7818608E-02  0.1174599E+00
         21   -1    0    0  503  502  0.00000000000E+00  0.00000000000E+00  0.24025693983E+03  0.24025693983E+03  0.00000000000E+00 0. -1.
         21   -1    0    0  501  503 -0.00000000000E+00 -0.00000000000E+00 -0.13576685998E+03  0.13576685998E+03  0.00000000000E+00 0.  1.
          6    1    1    2  501    0  0.18452871592E+02  0.75865554842E+01  0.10570080037E+03  0.20286626997E+03  0.17200000000E+03 0. -1.
         -6    1    1    2    0  502 -0.18452871592E+02 -0.75865554842E+01 -0.12107205206E+01  0.17315752983E+03  0.17200000000E+03 0.  1.
</event>
<event>
 4    1  0.5808486E+000  0.1870321E+03  0.7818608E-02  0.1161166E+00
         21   -1    0    0  503  502  0.00000000000E+00  0.00000000000E+00  0.12720933641E+03  0.12720933641E+03  0.00000000000E+00 0. -1.
         21   -1    0    0  501  503 -0.00000000000E+00 -0.00000000000E+00 -0.71617305803E+03  0.71617305803E+03  0.00000000000E+00 0. -1.
          6    1    1    2  501    0 -0.45468685071E+02  0.57702759807E+02 -0.62545752630E+03  0.65282319736E+03  0.17200000000E+03 0. -1.
         -6    1    1    2    0  502  0.45468685071E+02 -0.57702759807E+02  0.36493804674E+02  0.19055919708E+03  0.17200000000E+03 0. -1.
</event>
<event>
 4    1  0.5808486E+000  0.2467768E+03  0.7818608E-02  0.1115359E+00
         21   -1    0    0  503  502  0.00000000000E+00  0.00000000000E+00  0.17522910681E+03  0.17522910681E+03  0.00000000000E+00 0.  1.
         21   -1    0    0  501  503 -0.00000000000E+00 -0.00000000000E+00 -0.47715492777E+03  0.47715492777E+03  0.00000000000E+00 0. -1.
          6    1    1    2  501    0  0.81721147526E+02 -0.15696005084E+03 -0.32097280386E+03  0.40487324477E+03  0.17200000000E+03 0. -1.
         -6    1    1    2    0  502 -0.81721147526E+02  0.15696005084E+03  0.19046982902E+02  0.24751078980E+03  0.17200000000E+03 0.  1.
</event>
<event>
 4    1  0.5808486E+000  0.1829595E+03  0.7818608E-02  0.1164969E+00
         21   -1    0    0  503  502  0.00000000000E+00  0.00000000000E+00  0.90941149065E+03  0.90941149065E+03  0.00000000000E+00 0.  1.
         21   -1    0    0  501  503 -0.00000000000E+00 -0.00000000000E+00 -0.44474818406E+02  0.44474818406E+02  0.00000000000E+00 0.  1.
          6    1    1    2  501    0 -0.56888016893E+02 -0.25572109592E+02  0.23445262924E+03  0.29739235803E+03  0.17200000000E+03 0.  1.
         -6    1    1    2    0  502  0.56888016893E+02  0.25572109592E+02  0.63048404300E+03  0.65649395102E+03  0.17200000000E+03 0.  1.
</event>
<event>
 4    1  0.5808486E+000  0.1976687E+03  0.7818608E-02  0.1151721E+00
         21   -1    0    0  503  502  0.00000000000E+00  0.00000000000E+00  0.82694576141E+02  0.82694576141E+02  0.00000000000E+00 0.  1.
         21   -1    0    0  501  503 -0.00000000000E+00 -0.00000000000E+00 -0.63525382874E+03  0.63525382874E+03  0.00000000000E+00 0.  1.
          6    1    1    2  501    0  0.36148331877E+02  0.90455619392E+02 -0.45798153789E+03  0.49881861436E+03  0.17200000000E+03 0.  1.
         -6    1    1    2    0  502 -0.36148331877E+02 -0.90455619392E+02 -0.94577714709E+02  0.21912979053E+03  0.17200000000E+03 0.  1.
</event>
<event>
 4    1  0.5808486E+000  0.2165102E+03  0.7818608E-02  0.1136512E+00
         21   -1    0    0  503  502  0.00000000000E+00  0.00000000000E+00  0.12294796374E+04  0.12294796374E+04  0.00000000000E+00 0.  1.
         21   -1    0    0  501  503 -0.00000000000E+00 -0.00000000000E+00 -0.57347601089E+03  0.57347601089E+03  0.00000000000E+00 0. -1.
          6    1    1    2  501    0  0.95059283562E+02 -0.90864811338E+02 -0.54299350301E+03  0.58456704119E+03  0.17200000000E+03 0. -1.
         -6    1    1    2    0  502 -0.95059283562E+02  0.90864811338E+02  0.11989971295E+04  0.12183886071E+04  0.17200000000E+03 0.  1.
</event>
<event>
 4    1  0.5808486E+000  0.1986261E+03  0.7818608E-02  0.1150903E+00
         21   -1    0    0  503  502  0.00000000000E+00  0.00000000000E+00  0.51934185982E+03  0.51934185982E+03  0.00000000000E+00 0.  1.
         21   -1    0    0  501  503 -0.00000000000E+00 -0.00000000000E+00 -0.76103286817E+02  0.76103286817E+02  0.00000000000E+00 0.  1.
          6    1    1    2  501    0  0.94256799793E+02  0.31368503911E+02  0.20897444343E+03  0.28830998136E+03  0.17200000000E+03 0.  1.
         -6    1    1    2    0  502 -0.94256799793E+02 -0.31368503911E+02  0.23426412957E+03  0.30713516528E+03  0.17200000000E+03 0.  1.
</event>
<event>
 4    1  0.5808486E+000  0.3010665E+03  0.7818608E-02  0.1084709E+00
         21   -1    0    0  501  502  0.00000000000E+00  0.00000000000E+00  0.55734601932E+03  0.55734601932E+03  0.00000000000E+00 0. -1.
         21   -1    0    0  502  503 -0.00000000000E+00 -0.00000000000E+00 -0.16332496213E+03  0.16332496213E+03  0.00000000000E+00 0. -1.
          6    1    1    2  501    0  0.47631536631E+02 -0.24246295681E+03  0.22051966468E+03  0.37318892161E+03  0.17200000000E+03 0. -1.
         -6    1    1    2    0  503 -0.47631536631E+02  0.24246295681E+03  0.17350139251E+03  0.34748205984E+03  0.17200000000E+03 0. -1.
</event>
<event>
 4    1  0.5808486E+000  0.1743041E+03  0.7818608E-02  0.1173432E+00
         21   -1    0    0  501  502  0.00000000000E+00  0.00000000000E+00  0.69328516152E+02  0.69328516152E+02  0.00000000000E+00 0.  1.
         21   -1    0    0  502  503 -0.00000000000E+00 -0.00000000000E+00 -0.91495538522E+03  0.91495538522E+03  0.00000000000E+00 0.  1.
          6    1    1    2  501    0 -0.20768022414E+02 -0.19146578053E+02 -0.67571579460E+02  0.18694336190E+03  0.17200000000E+03 0. -1.
         -6    1    1    2    0  503  0.20768022414E+02  0.19146578053E+02 -0.77805528961E+03  0.79734053948E+03  0.17200000000E+03 0. -1.
</event>
<event>
 4    1  0.5808486E+000  0.2366946E+03  0.7818608E-02  0.1122015E+00
         21   -1    0    0  501  502  0.00000000000E+00  0.00000000000E+00  0.12078433727E+03  0.12078433727E+03  0.00000000000E+00 0.  1.
         21   -1    0    0  502  503 -0.00000000000E+00 -0.00000000000E+00 -0.48136737460E+03  0.48136737460E+03  0.00000000000E+00 0.  1.
          6    1    1    2  501    0 -0.15066373289E+03  0.61161704673E+02 -0.12283675597E+03  0.26667055170E+03  0.17200000000E+03 0.  1.
         -6    1    1    2    0  503  0.15066373289E+03 -0.61161704673E+02 -0.23774628136E+03  0.33548116017E+03  0.17200000000E+03 0.  1.
</event>
<event>
 4    1  0.5808486E+000  0.2230433E+03  0.7818608E-02  0.1131634E+00
         21   -1    0    0  503  502  0.00000000000E+00  0.00000000000E+00  0.13881467727E+04  0.13881467727E+04  0.00000000000E+00 0.  1.
         21   -1    0    0  501  503 -0.00000000000E+00 -0.00000000000E+00 -0.36222438350E+02  0.36222438350E+02  0.00000000000E+00 0.  1.
          6    1    1    2  501    0  0.66367422350E+02 -0.12553751790E+03  0.74933886136E+03  0.78182928590E+03  0.17200000000E+03 0. -1.
         -6    1    1    2    0  502 -0.66367422350E+02  0.12553751790E+03  0.60258547299E+03  0.64253992515E+03  0.17200000000E+03 0. -1.
</event>
<event>
 4    1  0.5808486E+000  0.2825932E+03  0.7818608E-02  0.1094281E+00
         21   -1    0    0  503  502  0.00000000000E+00  0.00000000000E+00  0.10974035477E+03  0.10974035477E+03  0.00000000000E+00 0.  1.
         21   -1    0    0  501  503 -0.00000000000E+00 -0.00000000000E+00 -0.76477410546E+03  0.76477410546E+03  0.00000000000E+00 0. -1.
          6    1    1    2  501    0  0.17991973739E+03 -0.13380511235E+03 -0.42377993088E+03  0.50936072661E+03  0.17200000000E+03 0. -1.
         -6    1    1    2    0  502 -0.17991973739E+03  0.13380511235E+03 -0.23125381982E+03  0.36515373362E+03  0.17200000000E+03 0.  1.
</event>
<event>
 4    1  0.5808486E+000  0.1725726E+03  0.7818608E-02  0.1175191E+00
         21   -1    0    0  503  502  0.00000000000E+00  0.00000000000E+00  0.85209897593E+02  0.85209897593E+02  0.00000000000E+00 0. -1.
         21   -1    0    0  501  503 -0.00000000000E+00 -0.00000000000E+00 -0.61359979870E+03  0.61359979870E+03  0.00000000000E+00 0. -1.
          6    1    1    2  501    0  0.25573015529E+01 -0.13811590613E+02 -0.49342212751E+03  0.52273004098E+03  0.17200000000E+03 0. -1.
         -6    1    1    2    0  502 -0.25573015529E+01  0.13811590613E+02 -0.34967773603E+02  0.17607965532E+03  0.17200000000E+03 0. -1.
</event>
<event>
 4    1  0.5808486E+000  0.1781525E+03  0.7818608E-02  0.1169603E+00
         21   -1    0    0  501  502  0.00000000000E+00  0.00000000000E+00  0.25516224529E+02  0.25516224529E+02  0.00000000000E+00 0.  1.
         21   -1    0    0  502  503 -0.00000000000E+00 -0.00000000000E+00 -0.14247018781E+04  0.14247018781E+04  0.00000000000E+00 0.  1.
          6    1    1    2  501    0 -0.74404661862E+01  0.45814185226E+02 -0.95794104104E+03  0.97436612124E+03  0.17200000000E+03 0.  1.
         -6    1    1    2    0  503  0.74404661862E+01 -0.45814185226E+02 -0.44124461250E+03  0.47585198137E+03  0.17200000000E+03 0.  1.
</event>
<event>
 4    1  0.5808486E+000  0.2518333E+03  0.7818608E-02  0.1112152E+00
         21   -1    0    0  503  502  0.00000000000E+00  0.00000000000E+00  0.74138633376E+03  0.74138633376E+03  0.00000000000E+00 0. -1.
         21   -1    0    0  501  503 -0.00000000000E+00 -0.00000000000E+00 -0.97549837881E+02  0.97549837881E+02  0.00000000000E+00 0. -1.
          6    1    1    2  501    0 -0.17945572760E+03 -0.40393542689E+02  0.17475136642E+03  0.30652575182E+03  0.17200000000E+03 0. -1.
         -6    1    1    2    0  502  0.17945572760E+03  0.40393542689E+02  0.46908512946E+03  0.53241041983E+03  0.17200000000E+03 0. -1.
</event>
<event>
 4    1  0.5808486E+000  0.1934643E+03  0.7818608E-02  0.1155373E+00
         21   -1    0    0  501  502  0.00000000000E+00  0.00000000000E+00  0.32322771761E+03  0.32322771761E+03  0.00000000000E+00 0.  1.
         21   -1    0    0  502  503 -0.00000000000E+00 -0.00000000000E+00 -0.11612433504E+03  0.11612433504E+03  0.00000000000E+00 0. -1.
          6    1    1    2  501    0 -0.73218029949E+02  0.49835297368E+02  0.91868499094E+02  0.21416876032E+03  0.17200000000E+03 0. -1.
         -6    1    1    2    0  503  0.73218029949E+02 -0.49835297368E+02  0.11523488347E+03  0.22518329233E+03  0.17200000000E+03 0. -1.
</event>
<event>
 4    1  0.5808486E+000  0.1723675E+03  0.7818608E-02  0.1175401E+00
         21   -1    0    0  503  502  0.00000000000E+00  0.00000000000E+00  0.17670076315E+04  0.17670076315E+04  0.00000000000E+00 0.  1.
         21   -1    0    0  501  503 -0.00000000000E+00 -0.00000000000E+00 -0.36536421463E+02  0.36536421463E+02  0.00000000000E+00 0.  1.
          6    1    1    2  501    0  0.11054182011E+02  0.20878586380E+01  0.20269374040E+03  0.26607387412E+03  0.17200000000E+03 0.  1.
         -6    1    1    2    0  502 -0.11054182011E+02 -0.20878586380E+01  0.15277774697E+04  0.15374701789E+04  0.17200000000E+03 0.  1.
</event>
<event>
 4    1  0.5808486E+000  0.4100398E+03  0.7818608E-02  0.1040358E+00
         21   -1    0    0  501  502  0.00000000000E+00  0.00000000000E+00  0.36038611607E+03  0.36038611607E+03  0.00000000000E+00 0.  1.
         21   -1    0    0  502  503 -0.00000000000E+00 -0.00000000000E+00 -0.51232345979E+03  0.51232345979E+03  0.00000000000E+00 0. -1.
          6    1    1    2  501    0 -0.34178329403E+03  0.14742062644E+03 -0.20641943828E+03  0.45906605808E+03  0.17200000000E+03 0. -1.
         -6    1    1    2    0  503  0.34178329403E+03 -0.14742062644E+03  0.54482094553E+02  0.41364351779E+03  0.17200000000E+03 0.  1.
</event>
<event>
 4    1  0.5808486E+000  0.2431061E+03  0.7818608E-02  0.1117741E+00
         21   -1    0    0  501  502  0.00000000000E+00  0.00000000000E+00  0.79731406851E+02  0.79731406851E+02  0.00000000000E+00 0. -1.
         21   -1    0    0  502  503 -0.00000000000E+00 -0.00000000000E+00 -0.74202784046E+03  0.74202784046E+03  0.00000000000E+00 0.  1.
          6    1    1    2  501    0 -0.75438155101E+02  0.15435557958E+03 -0.34448818684E+03  0.42163096550E+03  0.17200000000E+03 0.  1.
         -6    1    1    2    0  503  0.75438155101E+02 -0.15435557958E+03 -0.31780824677E+03  0.40012828182E+03  0.17200000000E+03 0. -1.
</event>
<event>
 4    1  0.5808486E+000  0.1934851E+03  0.7818608E-02  0.1155355E+00
         21   -1    0    0  503  502  0.00000000000E+00  0.00000000000E+00  0.14149962182E+03  0.14149962182E+03  0.00000000000E+00 0.  1.
         21   -1    0    0  501  503 -0.00000000000E+00 -0.00000000000E+00 -0.27970729212E+03  0.27970729212E+03  0.00000000000E+00 0. -1.
          6    1    1    2  501    0 -0.61715396691E+02 -0.63590056153E+02 -0.20109626821E+02  0.19452733104E+03  0.17200000000E+03 0. -1.
         -6    1    1    2    0  502  0.61715396691E+02  0.63590056153E+02 -0.11809804348E+03  0.22667958290E+03  0.17200000000E+03 0.  1.
</event>
<event>
 4    1  0.5808486E+000  0.1987625E+03  0.7818608E-02  0.1150787E+00
         21   -1    0    0  503  502  0.00000000000E+00  0.00000000000E+00  0.79624211174E+02  0.79624211174E+02  0.00000000000E+00 0.  1.
         21   -1    0    0  501  503 -0.00000000000E+00 -0.00000000000E+00 -0.71630116929E+03  0.71630116929E+03  0.00000000000E+00 0.  1.
          6    1    1    2  501    0  0.77625587306E+02  0.62424199170E+02 -0.53895759140E+03  0.57444042144E+03  0.17200000000E+03 0.  1.
         -6    1    1    2    0  502 -0.77625587306E+02 -0.62424199170E+02 -0.97719366716E+02  0.22148495903E+03  0.17200000000E+03 0.  1.
</event>
<event>
 4    1  0.5808486E+000  0.1865118E+03  0.7818608E-02  0.1161646E+00
         21   -1    0    0  501  502  0.00000000000E+00  0.00000000000E+00  0.73574684227E+02  0.73574684227E+02  0.00000000000E+00 0. -1.
         21   -1    0    0  502  503 -0.00000000000E+00 -0.00000000000E+00 -0.11289422066E+04  0.11289422066E+04  0.00000000000E+00 0. -1.
          6    1    1    2  501    0  0.60223141321E+02 -0.39696532350E+02 -0.69307693229E+02  0.19897285687E+03  0.17200000000E+03 0. -1.
         -6    1    1    2    0  503 -0.60223141321E+02  0.39696532350E+02 -0.98605982910E+03  0.10035440339E+04  0.17200000000E+03 0. -1.
</event>
<event>
 4    1  0.5808486E+000  0.1769998E+03  0.7818608E-02  0.1170739E+00
         21   -1    0    0  501  502  0.00000000000E+00  0.00000000000E+00  0.82799342611E+02  0.82799342611E+02  0.00000000000E+00 0.  1.
         21   -1    0    0  502  503 -0.00000000000E+00 -0.00000000000E+00 -0.54584392718E+03  0.54584392718E+03  0.00000000000E+00 0.  1.
          6    1    1    2  501    0  0.34357951542E+02 -0.23758062175E+02 -0.57417131194E+02  0.18607966387E+03  0.17200000000E+03 0.  1.
         -6    1    1    2    0  503 -0.34357951542E+02  0.23758062175E+02 -0.40562745337E+03  0.44256360592E+03  0.17200000000E+03 0.  1.
</event>
<event>
 4    1  0.5808486E+000  0.2108481E+03  0.7818608E-02  0.1140896E+00
         21   -1    0    0  501  502  0.00000000000E+00  0.00000000000E+00  0.12886492311E+03  0.12886492311E+03  0.00000000000E+00 0.  1.
         21   -1    0    0  502  503 -0.00000000000E+00 -0.00000000000E+00 -0.83439222791E+03  0.83439222791E+03  0.00000000000E+00 0.  1.
          6    1    1    2  501    0 -0.43473099302E+02 -0.11394307861E+03  0.16095608949E+02  0.21146159026E+03  0.17200000000E+03 0.  1.
         -6    1    1    2    0  503  0.43473099302E+02  0.11394307861E+03 -0.72162291375E+03  0.75179556076E+03  0.17200000000E+03 0.  1.
</event>
<event>
 4    1  0.5808486E+000  0.2496205E+03  0.7818608E-02  0.1113545E+00
         21   -1    0    0  503  502  0.00000000000E+00  0.00000000000E+00  0.95795144399E+03  0.95795144399E+03  0.00000000000E+00 0. -1.
         21   -1    0    0  501  503 -0.00000000000E+00 -0.00000000000E+00 -0.98979620169E+02  0.98979620169E+02  0.00000000000E+00 0.  1.
          6    1    1    2  501    0 -0.11386135501E+03  0.14057729274E+03  0.12005593305E+03  0.27699063244E+03  0.17200000000E+03 0.  1.
         -6    1    1    2    0  502  0.11386135501E+03 -0.14057729274E+03  0.73891589077E+03  0.77994043172E+03  0.17200000000E+03 0. -1.
</event>
<event>
 4    1  0.5808486E+000  0.1820528E+03  0.7818608E-02  0.1165831E+00
         21   -1    0    0  503  502  0.00000000000E+00  0.00000000000E+00  0.53486762025E+03  0.53486762025E+03  0.00000000000E+00 0. -1.
         21   -1    0    0  501  503 -0.00000000000E+00 -0.00000000000E+00 -0.65860355885E+02  0.65860355885E+02  0.00000000000E+00 0. -1.
          6    1    1    2  501    0  0.51799197114E+02  0.29598545930E+02  0.16145823409E+03  0.24333514358E+03  0.17200000000E+03 0.  1.
         -6    1    1    2    0  502 -0.51799197114E+02 -0.29598545930E+02  0.30754903027E+03  0.35739283256E+03  0.17200000000E+03 0.  1.
</event>
<event>
 4    1  0.5808486E+000  0.1766303E+03  0.7818608E-02  0.1171105E+00
         21   -1    0    0  503  502  0.00000000000E+00  0.00000000000E+00  0.14237636845E+04  0.14237636845E+04  0.00000000000E+00 0.  1.
         21   -1    0    0  501  503 -0.00000000000E+00 -0.00000000000E+00 -0.24140186882E+02  0.24140186882E+02  0.00000000000E+00 0.  1.
          6    1    1    2  501    0  0.40169208401E+02  0.84219849568E+00  0.91973081061E+03  0.93653779346E+03  0.17200000000E+03 0.  1.
         -6    1    1    2    0  502 -0.40169208401E+02 -0.84219849568E+00  0.47989268703E+03  0.51136607794E+03  0.17200000000E+03 0.  1.
</event>
<event>
 4    1  0.5808486E+000  0.2158546E+03  0.7818608E-02  0.1137012E+00
         21   -1    0    0  503  502  0.00000000000E+00  0.00000000000E+00  0.69320907569E+03  0.69320907569E+03  0.00000000000E+00 0.  1.
         21   -1    0    0  501  503 -0.00000000000E+00 -0.00000000000E+00 -0.13431068890E+03  0.13431068890E+03  0.00000000000E+00 0.  1.
          6    1    1    2  501    0  0.12645502161E+03  0.31911642901E+02 -0.12995833058E+02  0.21624550197E+03  0.17200000000E+03 0.  1.
         -6    1    1    2    0  502 -0.12645502161E+03 -0.31911642901E+02  0.57189421985E+03  0.61127426262E+03  0.17200000000E+03 0.  1.
</event>
<event>
 4    1  0.5808486E+000  0.1752515E+03  0.7818608E-02  0.1172479E+00
         21   -1    0    0  503  502  0.00000000000E+00  0.00000000000E+00  0.22003982642E+03  0.22003982642E+03  0.00000000000E+00 0.  1.
         21   -1    0    0  501  503 -0.00000000000E+00 -0.00000000000E+00 -0.15521278108E+03  0.15521278108E+03  0.00000000000E+00 0.  1.
          6    1    1    2  501    0 -0.23409339051E+02 -0.24105688438E+02 -0.27132533727E+02  0.17733938016E+03  0.17200000000E+03 0.  1.
         -6    1    1    2    0  502  0.23409339051E+02  0.24105688438E+02  0.91959579068E+02  0.19791322733E+03  0.17200000000E+03 0.  1.
</event>
<event>
 4    1  0.5808486E+000  0.3169771E+03  0.7818608E-02  0.1077049E+00
         21   -1    0    0  503  502  0.00000000000E+00  0.00000000000E+00  0.53692604339E+03  0.53692604339E+03  0.00000000000E+00 0.  1.
         21   -1    0    0  501  503 -0.00000000000E+00 -0.00000000000E+00 -0.22040932907E+03  0.22040932907E+03  0.00000000000E+00 0. -1.
          6    1    1    2  501    0 -0.26598729722E+03  0.11885405066E+02  0.11116512618E+02  0.31717200694E+03  0.17200000000E+03 0. -1.
         -6    1    1    2    0  502  0.26598729722E+03 -0.11885405066E+02  0.30540020170E+03  0.44016336551E+03  0.17200000000E+03 0.  1.
</event>
<event>
 4    1  0.5808486E+000  0.1807967E+03  0.7818608E-02  0.1167034E+00
         21   -1    0    0  503  502  0.00000000000E+00  0.00000000000E+00  0.17871150256E+03  0.17871150256E+03  0.00000000000E+00 0.  1.
         21   -1    0    0  501  503 -0.00000000000E+00 -0.00000000000E+00 -0.20213252757E+03  0.20213252757E+03  0.00000000000E+00 0.  1.
          6    1    1    2  501    0 -0.32036209069E+02 -0.45575417562E+02 -0.70438822478E+02  0.19403366999E+03  0.17200000000E+03 0.  1.
         -6    1    1    2    0  502  0.32036209069E+02  0.45575417562E+02  0.47017797472E+02  0.18681036014E+03  0.17200000000E+03 0.  1.
</event>
<event>
 4    1  0.5808486E+000  0.1889650E+03  0.7818608E-02  0.1159398E+00
         21   -1    0    0  503  502  0.00000000000E+00  0.00000000000E+00  0.27511325034E+04  0.27511325034E+04  0.00000000000E+00 0.  1.
         21   -1    0    0  501  503 -0.00000000000E+00 -0.00000000000E+00 -0.18514607579E+02  0.18514607579E+02  0.00000000000E+00 0.  1.
          6    1    1    2  501    0 -0.17578932447E+02  0.76254552635E+02  0.21235044810E+04  0.21318956485E+04  0.17200000000E+03 0.  1.
         -6    1    1    2    0  502  0.17578932447E+02 -0.76254552635E+02  0.60911341488E+03  0.63775146245E+03  0.17200000000E+03 0.  1.
</event>
<event>
 4    1  0.5808486E+000  0.2093167E+03  0.7818608E-02  0.1142108E+00
         21   -1    0    0  501  502  0.00000000000E+00  0.00000000000E+00  0.42187471155E+03  0.42187471155E+03  0.00000000000E+00 0. -1.
         21   -1    0    0  502  503 -0.00000000000E+00 -0.00000000000E+00 -0.10821513298E+03  0.10821513298E+03  0.00000000000E+00 0.  1.
          6    1    1    2  501    0 -0.11104370285E+03 -0.43574953787E+02  0.21003606372E+03  0.29652761862E+03  0.17200000000E+03 0. -1.
         -6    1    1    2    0  503  0.11104370285E+03  0.43574953787E+02  0.10362351485E+03  0.23356222591E+03  0.17200000000E+03 0.  1.
</event>
<event>
 4    1  0.5808486E+000  0.1823028E+03  0.7818608E-02  0.1165593E+00
         21   -1    0    0  501  502  0.00000000000E+00  0.00000000000E+00  0.24460919736E+03  0.24460919736E+03  0.00000000000E+00 0.  1.
         21   -1    0    0  502  503 -0.00000000000E+00 -0.00000000000E+00 -0.15080616025E+03  0.15080616025E+03  0.00000000000E+00 0.  1.
          6    1    1    2  501    0 -0.47050626040E+02 -0.37901642584E+02  0.10912845069E+03  0.21246956175E+03  0.17200000000E+03 0.  1.
         -6    1    1    2    0  503  0.47050626040E+02  0.37901642584E+02 -0.15325413583E+02  0.18294579586E+03  0.17200000000E+03 0.  1.
</event>
<event>
 4    1  0.5808486E+000  0.1969201E+03  0.7818608E-02  0.1152364E+00
         21   -1    0    0  501  502  0.00000000000E+00  0.00000000000E+00  0.64102599304E+02  0.64102599304E+02  0.00000000000E+00 0.  1.
         21   -1    0    0  502  503 -0.00000000000E+00 -0.00000000000E+00 -0.70817413515E+03  0.70817413515E+03  0.00000000000E+00 0.  1.
          6    1    1    2  501    0  0.52260625804E+02  0.80388802042E+02 -0.46947306355E+03  0.50909968562E+03  0.17200000000E+03 0.  1.
         -6    1    1    2    0  503 -0.52260625804E+02 -0.80388802042E+02 -0.17459847230E+03  0.26317704883E+03  0.17200000000E+03 0.  1.
</event>
<event>
 4    1  0.5808486E+000  0.1950283E+03  0.7818608E-02  0.1154003E+00
         21   -1    0    0  501  502  0.00000000000E+00  0.00000000000E+00  0.11714375869E+03  0.11714375869E+03  0.00000000000E+00 0.  1.
         21   -1    0    0  502  503 -0.00000000000E+00 -0.00000000000E+00 -0.35437903527E+03  0.35437903527E+03  0.00000000000E+00 0.  1.
          6    1    1    2  501    0 -0.14058396727E+02  0.90853744058E+02 -0.50384221351E+02  0.20143140542E+03  0.17200000000E+03 0.  1.
         -6    1    1    2    0  503  0.14058396727E+02 -0.90853744058E+02 -0.18685105523E+03  0.27009138855E+03  0.17200000000E+03 0.  1.
</event>
<event>
 4    1  0.5808486E+000  0.1751382E+03  0.7818608E-02  0.1172593E+00
         21   -1    0    0  501  502  0.00000000000E+00  0.00000000000E+00  0.38669278130E+03  0.38669278130E+03  0.00000000000E+00 0.  1.
         21   -1    0    0  502  503 -0.00000000000E+00 -0.00000000000E+00 -0.84820159146E+02  0.84820159146E+02  0.00000000000E+00 0.  1.
          6    1    1    2  501    0  0.32875839662E+02 -0.29276575892E+01  0.21095792877E+03  0.27418358762E+03  0.17200000000E+03 0. -1.
         -6    1    1    2    0  503 -0.32875839662E+02  0.29276575892E+01  0.90914693391E+02  0.19732935283E+03  0.17200000000E+03 0. -1.
</event>
<event>
 4    1  0.5808486E+000  0.1898537E+03  0.7818608E-02  0.1158593E+00
         21   -1    0    0  501  502  0.00000000000E+00  0.00000000000E+00  0.21317064517E+03  0.21317064517E+03  0.00000000000E+00 0.  1.
         21   -1    0    0  502  503 -0.00000000000E+00 -0.00000000000E+00 -0.17968420100E+03  0.17968420100E+03  0.00000000000E+00 0. -1.
          6    1    1    2  501    0 -0.74998555195E+02  0.28907196342E+02 -0.30959198046E+02  0.19236132986E+03  0.17200000000E+03 0. -1.
         -6    1    1    2    0  503  0.74998555195E+02 -0.28907196342E+02  0.64445642210E+02  0.20049351631E+03  0.17200000000E+03 0.  1.
</event>
<event>
 4    1  0.5808486E+000  0.1836285E+03  0.7818608E-02  0.1164337E+00
         21   -1    0    0  503  502  0.00000000000E+00  0.00000000000E+00  0.60143894966E+03  0.60143894966E+03  0.00000000000E+00 0.  1.
         21   -1    0    0  501  503 -0.00000000000E+00 -0.00000000000E+00 -0.62417530145E+02  0.62417530145E+02  0.00000000000E+00 0.  1.
          6    1    1    2  501    0  0.46782522374E+02  0.44122697655E+02  0.16361486096E+03  0.24594560288E+03  0.17200000000E+03 0.  1.
         -6    1    1    2    0  502 -0.46782522374E+02 -0.44122697655E+02  0.37540655855E+03  0.41791087693E+03  0.17200000000E+03 0.  1.
</event>
<event>
 4    1  0.5808486E+000  0.1728491E+03  0.7818608E-02  0.1174909E+00
         21   -1    0    0  503  502  0.00000000000E+00  0.00000000000E+00  0.26262676871E+03  0.26262676871E+03  0.00000000000E+00 0.  1.
         21   -1    0    0  501  503 -0.00000000000E+00 -0.00000000000E+00 -0.17925971655E+03  0.17925971655E+03  0.00000000000E+00 0.  1.
          6    1    1    2  501    0 -0.39566560412E+01 -0.16648522478E+02 -0.91869563906E+02  0.19574689065E+03  0.17200000000E+03 0. -1.
         -6    1    1    2    0  502  0.39566560412E+01  0.16648522478E+02  0.17523661607E+03  0.24613959462E+03  0.17200000000E+03 0. -1.
</event>
<event>
 4    1  0.5808486E+000  0.1724231E+03  0.7818608E-02  0.1175344E+00
         21   -1    0    0  503  502  0.00000000000E+00  0.00000000000E+00  0.46867927561E+03  0.46867927561E+03  0.00000000000E+00 0.  1.
         21   -1    0    0  501  503 -0.00000000000E+00 -0.00000000000E+00 -0.11044520054E+03  0.11044520054E+03  0.00000000000E+00 0.  1.
          6    1    1    2  501    0 -0.12062452520E+02  0.47335866688E+00 -0.98011831248E+01  0.17270144765E+03  0.17200000000E+03 0.  1.
         -6    1    1    2    0  502  0.12062452520E+02 -0.47335866688E+00  0.36803525819E+03  0.40642302850E+03  0.17200000000E+03 0.  1.
</event>
<event>
 4    1  0.5808486E+000  0.2957444E+03  0.7818608E-02  0.1087388E+00
         21   -1    0    0  501  502  0.00000000000E+00  0.00000000000E+00  0.16335633007E+03  0.16335633007E+03  0.00000000000E+00 0.  1.
         21   -1    0    0  502  503 -0.00000000000E+00 -0.00000000000E+00 -0.53633842204E+03  0.53633842204E+03  0.00000000000E+00 0. -1.
          6    1    1    2  501    0  0.16227116330E+03  0.17761979775E+03 -0.17203700786E+03  0.34214244850E+03  0.17200000000E+03 0.  1.
         -6    1    1    2    0  503 -0.16227116330E+03 -0.17761979775E+03 -0.20094508411E+03  0.35755230361E+03  0.17200000000E+03 0. -1.
</event>
<event>
 4    1  0.5808486E+000  0.1729607E+03  0.7818608E-02  0.1174795E+00
         21   -1    0    0  501  502  0.00000000000E+00  0.00000000000E+00  0.68146862022E+02  0.68146862022E+02  0.00000000000E+00 0. -1.
         21   -1    0    0  502  503 -0.00000000000E+00 -0.00000000000E+00 -0.98296190268E+03  0.98296190268E+03  0.00000000000E+00 0. -1.
          6    1    1    2  501    0  0.18192215394E+02 -0.67234245412E+00 -0.66440799452E+02  0.18528299592E+03  0.17200000000E+03 0. -1.
         -6    1    1    2    0  503 -0.18192215394E+02  0.67234245412E+00 -0.84837424121E+03  0.86582576879E+03  0.17200000000E+03 0. -1.
</event>
<event>
 4    1  0.5808486E+000  0.1978643E+03  0.7818608E-02  0.1151554E+00
         21   -1    0    0  503  502  0.00000000000E+00  0.00000000000E+00  0.40912084252E+02  0.40912084252E+02  0.00000000000E+00 0. -1.
         21   -1    0    0  501  503 -0.00000000000E+00 -0.00000000000E+00 -0.12069539726E+04  0.12069539726E+04  0.00000000000E+00 0. -1.
          6    1    1    2  501    0 -0.74971795036E+02 -0.62813311409E+02 -0.29904766631E+03  0.35858024049E+03  0.17200000000E+03 0. -1.
         -6    1    1    2    0  502  0.74971795036E+02  0.62813311409E+02 -0.86699422199E+03  0.88928581632E+03  0.17200000000E+03 0. -1.
</event>
<event>
 4    1  0.5808486E+000  0.2118268E+03  0.7818608E-02  0.1140127E+00
         21   -1    0    0  503  502  0.00000000000E+00  0.00000000000E+00  0.14994743582E+04  0.14994743582E+04  0.00000000000E+00 0.  1.
         21   -1    0    0  501  503 -0.00000000000E+00 -0.00000000000E+00 -0.29943280222E+02  0.29943280222E+02  0.00000000000E+00 0. -1.
          6    1    1    2  501    0  0.43445938882E+02 -0.11575432203E+03  0.75405492884E+03  0.78324290509E+03  0.17200000000E+03 0. -1.
         -6    1    1    2    0  502 -0.43445938882E+02  0.11575432203E+03  0.71547614917E+03  0.74617473336E+03  0.17200000000E+03 0.  1.
</event>
<event>
 4    1  0.5808486E+000  0.2232709E+03  0.7818608E-02  0.1131468E+00
         21   -1    0    0  503  502  0.00000000000E+00  0.00000000000E+00  0.20646161186E+03  0.20646161186E+03  0.00000000000E+00 0. -1.
         21   -1    0    0  501  503 -0.00000000000E+00 -0.00000000000E+00 -0.24145025167E+03  0.24145025167E+03  0.00000000000E+00 0.  1.
          6    1    1    2  501    0  0.50283263115E+02  0.13318221462E+03 -0.16945556747E+02  0.22391306513E+03  0.17200000000E+03 0.  1.
         -6    1    1    2    0  502 -0.50283263115E+02 -0.13318221462E+03 -0.18043083061E+02  0.22399879841E+03  0.17200000000E+03 0. -1.
</event>
<event>
 4    1  0.5808486E+000  0.2136253E+03  0.7818608E-02  0.1138727E+00
         21   -1    0    0  501  502  0.00000000000E+00  0.00000000000E+00  0.81465981588E+02  0.81465981588E+02  0.00000000000E+00 0.  1.
         21   -1    0    0  502  503 -0.00000000000E+00 -0.00000000000E+00 -0.85734566956E+03  0.85734566956E+03  0.00000000000E+00 0. -1.
          6    1    1    2  501    0 -0.70307971996E+02 -0.10539710640E+03 -0.66429558529E+03  0.69779967440E+03  0.17200000000E+03 0. -1.
         -6    1    1    2    0  503  0.70307971996E+02  0.10539710640E+03 -0.11158410269E+03  0.24101197675E+03  0.17200000000E+03 0.  1.
</event>
<event>
 4    1  0.5808486E+000  0.2548430E+03  0.7818608E-02  0.1110282E+00
         21   -1    0    0  503  502  0.00000000000E+00  0.00000000000E+00  0.56654088946E+03  0.56654088946E+03  0.00000000000E+00 0.  1.
         21   -1    0    0  501  503 -0.00000000000E+00 -0.00000000000E+00 -0.13724505708E+03  0.13724505708E+03  0.00000000000E+00 0. -1.
          6    1    1    2  501    0  0.57900663100E+02 -0.17890910791E+03  0.71817450570E+02  0.26476914829E+03  0.17200000000E+03 0. -1.
         -6    1    1    2    0  502 -0.57900663100E+02  0.17890910791E+03  0.35747838181E+03  0.43901679825E+03  0.17200000000E+03 0.  1.
</event>
<event>
 4    1  0.5808486E+000  0.2387387E+03  0.7818608E-02  0.1120636E+00
         21   -1    0    0  501  502  0.00000000000E+00  0.00000000000E+00  0.61574220663E+02  0.61574220663E+02  0.00000000000E+00 0.  1.
         21   -1    0    0  502  503 -0.00000000000E+00 -0.00000000000E+00 -0.93509071216E+03  0.93509071216E+03  0.00000000000E+00 0.  1.
          6    1    1    2  501    0 -0.41217763913E+02 -0.16035362262E+03 -0.38668674800E+03  0.45444782916E+03  0.17200000000E+03 0.  1.
         -6    1    1    2    0  503  0.41217763913E+02  0.16035362262E+03 -0.48682974349E+03  0.54221710366E+03  0.17200000000E+03 0.  1.
</event>
<event>
 4    1  0.5808486E+000  0.1775628E+03  0.7818608E-02  0.1170183E+00
         21   -1    0    0  503  502  0.00000000000E+00  0.00000000000E+00  0.96501641082E+02  0.96501641082E+02  0.00000000000E+00 0. -1.
         21   -1    0    0  501  503 -0.00000000000E+00 -0.00000000000E+00 -0.39206061767E+03  0.39206061767E+03  0.00000000000E+00 0. -1.
          6    1    1    2  501    0 -0.41893819636E+02  0.13764489270E+02 -0.24750835120E+03  0.30461276599E+03  0.17200000000E+03 0. -1.
         -6    1    1    2    0  502  0.41893819636E+02 -0.13764489270E+02 -0.48050625388E+02  0.18394949277E+03  0.17200000000E+03 0. -1.
</event>
<event>
 4    1  0.5808486E+000  0.2882590E+03  0.7818608E-02  0.1091262E+00
         21   -1    0    0  501  502  0.00000000000E+00  0.00000000000E+00  0.70957528579E+03  0.70957528579E+03  0.00000000000E+00 0.  1.
         21   -1    0    0  502  503 -0.00000000000E+00 -0.00000000000E+00 -0.11809060608E+03  0.11809060608E+03  0.00000000000E+00 0.  1.
          6    1    1    2  501    0  0.23132061694E+03 -0.87647202755E-01  0.25789297602E+03  0.38678420674E+03  0.17200000000E+03 0.  1.
         -6    1    1    2    0  503 -0.23132061694E+03  0.87647202755E-01  0.33359170369E+03  0.44088168512E+03  0.17200000000E+03 0.  1.
</event>
<event>
 4    1  0.5808486E+000  0.2320681E+03  0.7818608E-02  0.1125193E+00
         21   -1    0    0  503  502  0.00000000000E+00  0.00000000000E+00  0.83053445160E+02  0.83053445160E+02  0.00000000000E+00 0. -1.
         21   -1    0    0  501  503 -0.00000000000E+00 -0.00000000000E+00 -0.81878721838E+03  0.81878721838E+03  0.00000000000E+00 0.  1.
          6    1    1    2  501    0 -0.14503127586E+03 -0.56899191510E+02 -0.57353903042E+03  0.61871043986E+03  0.17200000000E+03 0.  1.
         -6    1    1    2    0  502  0.14503127586E+03  0.56899191510E+02 -0.16219474280E+03  0.28313022369E+03  0.17200000000E+03 0. -1.
</event>
<event>
 4    1  0.5808486E+000  0.1790009E+03  0.7818608E-02  0.1168773E+00
         21   -1    0    0  503  502  0.00000000000E+00  0.00000000000E+00  0.13174587666E+03  0.13174587666E+03  0.00000000000E+00 0.  1.
         21   -1    0    0  501  503 -0.00000000000E+00 -0.00000000000E+00 -0.25780067370E+03  0.25780067370E+03  0.00000000000E+00 0.  1.
          6    1    1    2  501    0  0.31057332042E+01  0.49474136361E+02 -0.10937106636E+03  0.20976979264E+03  0.17200000000E+03 0.  1.
         -6    1    1    2    0  502 -0.31057332042E+01 -0.49474136361E+02 -0.16683730682E+02  0.17977675772E+03  0.17200000000E+03 0.  1.
</event>
<event>
 4    1  0.5808486E+000  0.2956832E+03  0.7818608E-02  0.1087419E+00
         21   -1    0    0  503  502  0.00000000000E+00  0.00000000000E+00  0.42217369289E+03  0.42217369289E+03  0.00000000000E+00 0.  1.
         21   -1    0    0  501  503 -0.00000000000E+00 -0.00000000000E+00 -0.21584110099E+03  0.21584110099E+03  0.00000000000E+00 0. -1.
          6    1    1    2  501    0 -0.11758152756E+03  0.20980735675E+03  0.38937438108E+02  0.29823592449E+03  0.17200000000E+03 0. -1.
         -6    1    1    2    0  502  0.11758152756E+03 -0.20980735675E+03  0.16739515380E+03  0.33977886939E+03  0.17200000000E+03 0.  1.
</event>
<event>
 4    1  0.5808486E+000  0.1817937E+03  0.7818608E-02  0.1166078E+00
         21   -1    0    0  501  502  0.00000000000E+00  0.00000000000E+00  0.24238069584E+03  0.24238069584E+03  0.00000000000E+00 0. -1.
         21   -1    0    0  502  503 -0.00000000000E+00 -0.00000000000E+00 -0.54655742778E+03  0.54655742778E+03  0.00000000000E+00 0. -1.
          6    1    1    2  501    0  0.35901783311E+02 -0.46647640505E+02 -0.49382857486E+03  0.52622770903E+03  0.17200000000E+03 0. -1.
         -6    1    1    2    0  503 -0.35901783311E+02  0.46647640505E+02  0.18965184292E+03  0.26271041458E+03  0.17200000000E+03 0. -1.
</event>
<event>
 4    1  0.5808486E+000  0.2777811E+03  0.7818608E-02  0.1096907E+00
         21   -1    0    0  503  502  0.00000000000E+00  0.00000000000E+00  0.12510865465E+03  0.12510865465E+03  0.00000000000E+00 0.  1.
         21   -1    0    0  501  503 -0.00000000000E+00 -0.00000000000E+00 -0.61701575003E+03  0.61701575003E+03  0.00000000000E+00 0. -1.
          6    1    1    2  501    0  0.13052498467E+03  0.17476150437E+03 -0.25346767388E+03  0.37604283897E+03  0.17200000000E+03 0. -1.
         -6    1    1    2    0  502 -0.13052498467E+03 -0.17476150437E+03 -0.23843942149E+03  0.36608156571E+03  0.17200000000E+03 0.  1.
</event>
<event>
 4    1  0.5808486E+000  0.1853094E+03  0.7818608E-02  0.1162761E+00
         21   -1    0    0  503  502  0.00000000000E+00  0.00000000000E+00  0.69919472389E+02  0.69919472389E+02  0.00000000000E+00 0.  1.
         21   -1    0    0  501  503 -0.00000000000E+00 -0.00000000000E+00 -0.49253127017E+03  0.49253127017E+03  0.00000000000E+00 0.  1.
          6    1    1    2  501    0  0.46586347362E+02  0.50845761741E+02 -0.19630785044E+03  0.26995620273E+03  0.17200000000E+03 0. -1.
         -6    1    1    2    0  502 -0.46586347362E+02 -0.50845761741E+02 -0.22630394734E+03  0.29249453983E+03  0.17200000000E+03 0. -1.
</event>
<event>
 4    1  0.5808486E+000  0.2148481E+03  0.7818608E-02  0.1137783E+00
         21   -1    0    0  503  502  0.00000000000E+00  0.00000000000E+00  0.29769563708E+02  0.29769563708E+02  0.00000000000E+00 0.  1.
         21   -1    0    0  501  503 -0.00000000000E+00 -0.00000000000E+00 -0.15505932407E+04  0.15505932407E+04  0.00000000000E+00 0. -1.
          6    1    1    2  501    0  0.42235226241E+02 -0.12162198780E+03 -0.76362233604E+03  0.79327094637E+03  0.17200000000E+03 0. -1.
         -6    1    1    2    0  502 -0.42235226241E+02  0.12162198780E+03 -0.75720134093E+03  0.78709185802E+03  0.17200000000E+03 0. -1.
</event>
<event>
 4    1  0.5808486E+000  0.1775742E+03  0.7818608E-02  0.1170172E+00
         21   -1    0    0  503  502  0.00000000000E+00  0.00000000000E+00  0.25738352747E+03  0.25738352747E+03  0.00000000000E+00 0.  1.
         21   -1    0    0  501  503 -0.00000000000E+00 -0.00000000000E+00 -0.16048037274E+03  0.16048037274E+03  0.00000000000E+00 0.  1.
          6    1    1    2  501    0 -0.44111886958E+02 -0.16526222110E+01 -0.53174336818E+02  0.18536477504E+03  0.17200000000E+03 0.  1.
         -6    1    1    2    0  502  0.44111886958E+02  0.16526222110E+01  0.15007749155E+03  0.23249912516E+03  0.17200000000E+03 0.  1.
</event>
<event>
 4    1  0.5808486E+000  0.2373198E+03  0.7818608E-02  0.1121591E+00
         21   -1    0    0  501  502  0.00000000000E+00  0.00000000000E+00  0.45331224811E+02  0.45331224811E+02  0.00000000000E+00 0.  1.
         21   -1    0    0  502  503 -0.00000000000E+00 -0.00000000000E+00 -0.13296071874E+04  0.13296071874E+04  0.00000000000E+00 0.  1.
          6    1    1    2  501    0 -0.15291674496E+03  0.57906422207E+02 -0.46610121380E+03  0.52304017640E+03  0.17200000000E+03 0.  1.
         -6    1    1    2    0  503  0.15291674496E+03 -0.57906422207E+02 -0.81817474877E+03  0.85189823579E+03  0.17200000000E+03 0.  1.
</event>
<event>
 4    1  0.5808486E+000  0.2845654E+03  0.7818608E-02  0.1093221E+00
         21   -1    0    0  503  502  0.00000000000E+00  0.00000000000E+00  0.10230056643E+03  0.10230056643E+03  0.00000000000E+00 0. -1.
         21   -1    0    0  501  503 -0.00000000000E+00 -0.00000000000E+00 -0.86476354161E+03  0.86476354161E+03  0.00000000000E+00 0. -1.
          6    1    1    2  501    0  0.33992344516E+02 -0.22413826574E+03 -0.52191100756E+03  0.59444809821E+03  0.17200000000E+03 0. -1.
         -6    1    1    2    0  502 -0.33992344516E+02  0.22413826574E+03 -0.24055196762E+03  0.37261600983E+03  0.17200000000E+03 0. -1.
</event>
<event>
 4    1  0.5808486E+000  0.3030651E+03  0.7818608E-02  0.1083718E+00
         21   -1    0    0  501  502  0.00000000000E+00  0.00000000000E+00  0.98637309537E+03  0.98637309537E+03  0.00000000000E+00 0. -1.
         21   -1    0    0  502  503 -0.00000000000E+00 -0.00000000000E+00 -0.93179990877E+02  0.93179990877E+02  0.00000000000E+00 0. -1.
          6    1    1    2  501    0 -0.24923849843E+03 -0.12027243873E+02  0.43260522994E+03  0.52820050044E+03  0.17200000000E+03 0. -1.
         -6    1    1    2    0  503  0.24923849843E+03  0.12027243873E+02  0.46058787455E+03  0.55135258581E+03  0.17200000000E+03 0. -1.
</event>
<event>
 4    1  0.5808486E+000  0.2041867E+03  0.7818608E-02  0.1146254E+00
         21   -1    0    0  501  502  0.00000000000E+00  0.00000000000E+00  0.40847859731E+03  0.40847859731E+03  0.00000000000E+00 0.  1.
         21   -1    0    0  502  503 -0.00000000000E+00 -0.00000000000E+00 -0.11099702485E+03  0.11099702485E+03  0.00000000000E+00 0.  1.
          6    1    1    2  501    0 -0.17132220738E+02  0.10869544118E+03  0.22241308783E+03  0.30192680165E+03  0.17200000000E+03 0.  1.
         -6    1    1    2    0  503  0.17132220738E+02 -0.10869544118E+03  0.75068484637E+02  0.21754882051E+03  0.17200000000E+03 0.  1.
</event>
<event>
 4    1  0.5808486E+000  0.2451612E+03  0.7818608E-02  0.1116402E+00
         21   -1    0    0  503  502  0.00000000000E+00  0.00000000000E+00  0.23046742932E+03  0.23046742932E+03  0.00000000000E+00 0. -1.
         21   -1    0    0  501  503 -0.00000000000E+00 -0.00000000000E+00 -0.29918347907E+03  0.29918347907E+03  0.00000000000E+00 0. -1.
          6    1    1    2  501    0  0.10794566944E+03 -0.13735992796E+03 -0.12922377282E+03  0.27713318246E+03  0.17200000000E+03 0. -1.
         -6    1    1    2    0  502 -0.10794566944E+03  0.13735992796E+03  0.60507723063E+02  0.25251772593E+03  0.17200000000E+03 0. -1.
</event>
<event>
 4    1  0.5808486E+000  0.2228883E+03  0.7818608E-02  0.1131748E+00
         21   -1    0    0  503  502  0.00000000000E+00  0.00000000000E+00  0.84945193289E+02  0.84945193289E+02  0.00000000000E+00 0. -1.
         21   -1    0    0  501  503 -0.00000000000E+00 -0.00000000000E+00 -0.73933795536E+03  0.73933795536E+03  0.00000000000E+00 0.  1.
          6    1    1    2  501    0 -0.14155927657E+03  0.74950054349E+01 -0.51559974724E+03  0.56171372001E+03  0.17200000000E+03 0.  1.
         -6    1    1    2    0  502  0.14155927657E+03 -0.74950054349E+01 -0.13879301482E+03  0.26256942864E+03  0.17200000000E+03 0.  1.
</event>
<event>
 4    1  0.5808486E+000  0.3713654E+03  0.7818608E-02  0.1054172E+00
         21   -1    0    0  503  502  0.00000000000E+00  0.00000000000E+00  0.38060284112E+03  0.38060284112E+03  0.00000000000E+00 0. -1.
         21   -1    0    0  501  503 -0.00000000000E+00 -0.00000000000E+00 -0.51257821001E+03  0.51257821001E+03  0.00000000000E+00 0.  1.
          6    1    1    2  501    0  0.24518345262E+03  0.21957531335E+03  0.17578215790E+03  0.41086690145E+03  0.17200000000E+03 0. -1.
         -6    1    1    2    0  502 -0.24518345262E+03 -0.21957531335E+03 -0.30775752679E+03  0.48231414967E+03  0.17200000000E+03 0.  1.
</event>
<event>
 4    1  0.5808486E+000  0.1899424E+03  0.7818608E-02  0.1158513E+00
         21   -1    0    0  501  502  0.00000000000E+00  0.00000000000E+00  0.29996890782E+03  0.29996890782E+03  0.00000000000E+00 0. -1.
         21   -1    0    0  502  503 -0.00000000000E+00 -0.00000000000E+00 -0.15314617167E+03  0.15314617167E+03  0.00000000000E+00 0. -1.
          6    1    1    2  501    0 -0.17228513614E+02  0.78723011674E+02  0.17837692836E+03  0.26056949710E+03  0.17200000000E+03 0. -1.
         -6    1    1    2    0  503  0.17228513614E+02 -0.78723011674E+02 -0.31554192214E+02  0.19254558238E+03  0.17200000000E+03 0. -1.
</event>
<event>
 4    1  0.5808486E+000  0.2911159E+03  0.7818608E-02  0.1089768E+00
         21   -1    0    0  503  502  0.00000000000E+00  0.00000000000E+00  0.93683642366E+03  0.93683642366E+03  0.00000000000E+00 0. -1.
         21   -1    0    0  501  503 -0.00000000000E+00 -0.00000000000E+00 -0.90463214625E+02  0.90463214625E+02  0.00000000000E+00 0.  1.
          6    1    1    2  501    0  0.42653766875E+02  0.23096560004E+03  0.42162609110E+03  0.51236414094E+03  0.17200000000E+03 0. -1.
         -6    1    1    2    0  502 -0.42653766875E+02 -0.23096560004E+03  0.42474711794E+03  0.51493549735E+03  0.17200000000E+03 0.  1.
</event>
<event>
 4    1  0.5808486E+000  0.3826620E+03  0.7818608E-02  0.1049954E+00
         21   -1    0    0  501  502  0.00000000000E+00  0.00000000000E+00  0.71114725016E+03  0.71114725016E+03  0.00000000000E+00 0.  1.
         21   -1    0    0  502  503 -0.00000000000E+00 -0.00000000000E+00 -0.29333457930E+03  0.29333457930E+03  0.00000000000E+00 0. -1.
          6    1    1    2  501    0  0.24924692540E+03 -0.23392774206E+03  0.48309822855E+03  0.61629061064E+03  0.17200000000E+03 0.  1.
         -6    1    1    2    0  503 -0.24924692540E+03  0.23392774206E+03 -0.65285557691E+02  0.38819121882E+03  0.17200000000E+03 0. -1.
</event>
<event>
 4    1  0.5808486E+000  0.1852820E+03  0.7818608E-02  0.1162787E+00
         21   -1    0    0  501  502  0.00000000000E+00  0.00000000000E+00  0.16232919751E+03  0.16232919751E+03  0.00000000000E+00 0. -1.
         21   -1    0    0  502  503 -0.00000000000E+00 -0.00000000000E+00 -0.23125139140E+03  0.23125139140E+03  0.00000000000E+00 0.  1.
          6    1    1    2  501    0 -0.21337833597E+02  0.65498925887E+02  0.23079959588E+02  0.18671394423E+03  0.17200000000E+03 0. -1.
         -6    1    1    2    0  503  0.21337833597E+02 -0.65498925887E+02 -0.92002153481E+02  0.20686664468E+03  0.17200000000E+03 0.  1.
</event>
<event>
 4    1  0.5808486E+000  0.1966472E+03  0.7818608E-02  0.1152599E+00
         21   -1    0    0  501  502  0.00000000000E+00  0.00000000000E+00  0.20106851009E+03  0.20106851009E+03  0.00000000000E+00 0. -1.
         21   -1    0    0  502  503 -0.00000000000E+00 -0.00000000000E+00 -0.30118752697E+03  0.30118752697E+03  0.00000000000E+00 0. -1.
          6    1    1    2  501    0 -0.94021640393E+02 -0.15685847530E+02  0.10092059507E+03  0.22103185558E+03  0.17200000000E+03 0. -1.
         -6    1    1    2    0  503  0.94021640393E+02  0.15685847530E+02 -0.20103961194E+03  0.28122418147E+03  0.17200000000E+03 0. -1.
</event>
<event>
 4    1  0.5808486E+000  0.1919883E+03  0.7818608E-02  0.1156680E+00
         21   -1    0    0  501  502  0.00000000000E+00  0.00000000000E+00  0.15018962633E+02  0.15018962633E+02  0.00000000000E+00 0.  1.
         21   -1    0    0  502  503 -0.00000000000E+00 -0.00000000000E+00 -0.31109605204E+04  0.31109605204E+04  0.00000000000E+00 0. -1.
          6    1    1    2  501    0  0.43730798219E+02  0.73233464055E+02 -0.82982480535E+03  0.85174452187E+03  0.17200000000E+03 0.  1.
         -6    1    1    2    0  503 -0.43730798219E+02 -0.73233464055E+02 -0.22661167525E+04  0.22742349612E+04  0.17200000000E+03 0. -1.
</event>
<event>
 4    1  0.5808486E+000  0.2214386E+03  0.7818608E-02  0.1132815E+00
         21   -1    0    0  501  502  0.00000000000E+00  0.00000000000E+00  0.20091840966E+03  0.20091840966E+03  0.00000000000E+00 0.  1.
         21   -1    0    0  502  503 -0.00000000000E+00 -0.00000000000E+00 -0.29337940413E+03  0.29337940413E+03  0.00000000000E+00 0.  1.
          6    1    1    2  501    0  0.10797102006E+03  0.88279672711E+02  0.55108595707E+02  0.22819289890E+03  0.17200000000E+03 0.  1.
         -6    1    1    2    0  503 -0.10797102006E+03 -0.88279672711E+02 -0.14756959017E+03  0.26610491489E+03  0.17200000000E+03 0.  1.
</event>
<event>
 4    1  0.5808486E+000  0.2785976E+03  0.7818608E-02  0.1096457E+00
         21   -1    0    0  501  502  0.00000000000E+00  0.00000000000E+00  0.99454877172E+03  0.99454877172E+03  0.00000000000E+00 0.  1.
         21   -1    0    0  502  503 -0.00000000000E+00 -0.00000000000E+00 -0.17799558538E+03  0.17799558538E+03  0.00000000000E+00 0. -1.
          6    1    1    2  501    0 -0.13924855162E+03  0.16924082451E+03  0.84760953615E+03  0.89222112818E+03  0.17200000000E+03 0.  1.
         -6    1    1    2    0  503  0.13924855162E+03 -0.16924082451E+03 -0.31056349808E+02  0.28032322892E+03  0.17200000000E+03 0. -1.
</event>
<event>
 4    1  0.5808486E+000  0.1987786E+03  0.7818608E-02  0.1150774E+00
         21   -1    0    0  503  502  0.00000000000E+00  0.00000000000E+00  0.70260420445E+03  0.70260420445E+03  0.00000000000E+00 0. -1.
         21   -1    0    0  501  503 -0.00000000000E+00 -0.00000000000E+00 -0.11598414917E+03  0.11598414917E+03  0.00000000000E+00 0. -1.
          6    1    1    2  501    0  0.87489169317E+02 -0.47692405313E+02 -0.44946062961E+00  0.19877907910E+03  0.17200000000E+03 0. -1.
         -6    1    1    2    0  502 -0.87489169317E+02  0.47692405313E+02  0.58706951591E+03  0.61980927452E+03  0.17200000000E+03 0. -1.
</event>
<event>
 4    1  0.5808486E+000  0.2038898E+03  0.7818608E-02  0.1146498E+00
         21   -1    0    0  503  502  0.00000000000E+00  0.00000000000E+00  0.18004946687E+02  0.18004946687E+02  0.00000000000E+00 0.  1.
         21   -1    0    0  501  503 -0.00000000000E+00 -0.00000000000E+00 -0.23206291445E+04  0.23206291445E+04  0.00000000000E+00 0.  1.
          6    1    1    2  501    0  0.23592431972E+02 -0.10691319335E+03 -0.12345585987E+04  0.12512817298E+04  0.17200000000E+03 0.  1.
         -6    1    1    2    0  502 -0.23592431972E+02  0.10691319335E+03 -0.10680655991E+04  0.10873523613E+04  0.17200000000E+03 0.  1.
</event>
<event>
 4    1  0.5808486E+000  0.1864565E+03  0.7818608E-02  0.1161697E+00
         21   -1    0    0  501  502  0.00000000000E+00  0.00000000000E+00  0.18829888771E+03  0.18829888771E+03  0.00000000000E+00 0.  1.
         21   -1    0    0  502  503 -0.00000000000E+00 -0.00000000000E+00 -0.46625545348E+03  0.46625545348E+03  0.00000000000E+00 0. -1.
          6    1    1    2  501    0  0.22469184163E+02  0.68389708611E+02  0.11537543673E+03  0.21926583838E+03  0.17200000000E+03 0.  1.
         -6    1    1    2    0  503 -0.22469184163E+02 -0.68389708611E+02 -0.39333200250E+03  0.43528850280E+03  0.17200000000E+03 0. -1.
</event>
<event>
 4    1  0.5808486E+000  0.2041863E+03  0.7818608E-02  0.1146254E+00
         21   -1    0    0  503  502  0.00000000000E+00  0.00000000000E+00  0.10521963170E+04  0.10521963170E+04  0.00000000000E+00 0.  1.
         21   -1    0    0  501  503 -0.00000000000E+00 -0.00000000000E+00 -0.43790360533E+02  0.43790360533E+02  0.00000000000E+00 0.  1.
          6    1    1    2  501    0 -0.92067693963E+02 -0.60262706864E+02  0.33516939407E+03  0.39246729397E+03  0.17200000000E+03 0.  1.
         -6    1    1    2    0  502  0.92067693963E+02  0.60262706864E+02  0.67323656242E+03  0.70351938359E+03  0.17200000000E+03 0.  1.
</event>
<event>
 4    1  0.5808486E+000  0.2077984E+03  0.7818608E-02  0.1143321E+00
         21   -1    0    0  501  502  0.00000000000E+00  0.00000000000E+00  0.58070563023E+03  0.58070563023E+03  0.00000000000E+00 0.  1.
         21   -1    0    0  502  503 -0.00000000000E+00 -0.00000000000E+00 -0.77894793647E+02  0.77894793647E+02  0.00000000000E+00 0.  1.
          6    1    1    2  501    0  0.66424395451E+02  0.95833161366E+02  0.32157252610E+03  0.38286954001E+03  0.17200000000E+03 0.  1.
         -6    1    1    2    0  503 -0.66424395451E+02 -0.95833161366E+02  0.18123831048E+03  0.27573088386E+03  0.17200000000E+03 0.  1.
</event>
<event>
 4    1  0.5808486E+000  0.1829965E+03  0.7818608E-02  0.1164934E+00
         21   -1    0    0  501  502  0.00000000000E+00  0.00000000000E+00  0.14482461874E+03  0.14482461874E+03  0.00000000000E+00 0.  1.
         21   -1    0    0  502  503 -0.00000000000E+00 -0.00000000000E+00 -0.23578676803E+03  0.23578676803E+03  0.00000000000E+00 0.  1.
          6    1    1    2  501    0  0.25007805890E+02  0.57256590227E+02 -0.19023511186E+02  0.18398261184E+03  0.17200000000E+03 0.  1.
         -6    1    1    2    0  503 -0.25007805890E+02 -0.57256590227E+02 -0.71938638104E+02  0.19662877493E+03  0.17200000000E+03 0.  1.
</event>
<event>
 4    1  0.5808486E+000  0.1723547E+03  0.7818608E-02  0.1175414E+00
         21   -1    0    0  501  502  0.00000000000E+00  0.00000000000E+00  0.18077872778E+03  0.18077872778E+03  0.00000000000E+00 0.  1.
         21   -1    0    0  502  503 -0.00000000000E+00 -0.00000000000E+00 -0.42225393956E+03  0.42225393956E+03  0.00000000000E+00 0.  1.
          6    1    1    2  501    0 -0.15445867285E+01  0.10943738012E+02 -0.35639196832E+03  0.39588052015E+03  0.17200000000E+03 0.  1.
         -6    1    1    2    0  503  0.15445867285E+01 -0.10943738012E+02  0.11491675654E+03  0.20715214719E+03  0.17200000000E+03 0.  1.
</event>
<event>
 4    1  0.5808486E+000  0.2073807E+03  0.7818608E-02  0.1143657E+00
         21   -1    0    0  503  502  0.00000000000E+00  0.00000000000E+00  0.27609889529E+03  0.27609889529E+03  0.00000000000E+00 0. -1.
         21   -1    0    0  501  503 -0.00000000000E+00 -0.00000000000E+00 -0.15576843080E+03  0.15576843080E+03  0.00000000000E+00 0. -1.
          6    1    1    2  501    0 -0.10299156712E+03  0.53061043186E+02  0.61069647085E+02  0.21618565863E+03  0.17200000000E+03 0.  1.
         -6    1    1    2    0  502  0.10299156712E+03 -0.53061043186E+02  0.59260817404E+02  0.21568166746E+03  0.17200000000E+03 0.  1.
</event>
<event>
 4    1  0.5808486E+000  0.1999655E+03  0.7818608E-02  0.1149768E+00
         21   -1    0    0  501  502  0.00000000000E+00  0.00000000000E+00  0.15721964391E+03  0.15721964391E+03  0.00000000000E+00 0.  1.
         21   -1    0    0  502  503 -0.00000000000E+00 -0.00000000000E+00 -0.44731123302E+03  0.44731123302E+03  0.00000000000E+00 0. -1.
          6    1    1    2  501    0 -0.83365235271E+02  0.58757399588E+02  0.53489346742E+02  0.20699590497E+03  0.17200000000E+03 0.  1.
         -6    1    1    2    0  503  0.83365235271E+02 -0.58757399588E+02 -0.34358093585E+03  0.39753497196E+03  0.17200000000E+03 0. -1.
</event>
<event>
 4    1  0.5808486E+000  0.2352961E+03  0.7818608E-02  0.1122967E+00
         21   -1    0    0  501  502  0.00000000000E+00  0.00000000000E+00  0.96367184593E+03  0.96367184593E+03  0.00000000000E+00 0.  1.
         21   -1    0    0  502  503 -0.00000000000E+00 -0.00000000000E+00 -0.64773816646E+02  0.64773816646E+02  0.00000000000E+00 0.  1.
          6    1    1    2  501    0  0.83087785658E+02 -0.13739249083E+03  0.62234282515E+03  0.66533816114E+03  0.17200000000E+03 0.  1.
         -6    1    1    2    0  503 -0.83087785658E+02  0.13739249083E+03  0.27655520414E+03  0.36310750143E+03  0.17200000000E+03 0.  1.
</event>
<event>
 4    1  0.5808486E+000  0.1913886E+03  0.7818608E-02  0.1157215E+00
         21   -1    0    0  503  502  0.00000000000E+00  0.00000000000E+00  0.11270996981E+04  0.11270996981E+04  0.00000000000E+00 0. -1.
         21   -1    0    0  501  503 -0.00000000000E+00 -0.00000000000E+00 -0.32604434920E+02  0.32604434920E+02  0.00000000000E+00 0.  1.
          6    1    1    2  501    0 -0.83222265661E+02  0.10937917098E+02  0.58022569201E+03  0.61097580738E+03  0.17200000000E+03 0. -1.
         -6    1    1    2    0  502  0.83222265661E+02 -0.10937917098E+02  0.51426957118E+03  0.54872832565E+03  0.17200000000E+03 0.  1.
</event>
<event>
 4    1  0.5808486E+000  0.1904991E+03  0.7818608E-02  0.1158012E+00
         21   -1    0    0  503  502  0.00000000000E+00  0.00000000000E+00  0.37638248777E+03  0.37638248777E+03  0.00000000000E+00 0. -1.
         21   -1    0    0  501  503 -0.00000000000E+00 -0.00000000000E+00 -0.13397158333E+03  0.13397158333E+03  0.00000000000E+00 0. -1.
          6    1    1    2  501    0 -0.40322523200E+02 -0.71274121536E+02 -0.13896956432E+02  0.19100531845E+03  0.17200000000E+03 0. -1.
         -6    1    1    2    0  502  0.40322523200E+02  0.71274121536E+02  0.25630786087E+03  0.31934875266E+03  0.17200000000E+03 0. -1.
</event>
<event>
 4    1  0.5808486E+000  0.1826466E+03  0.7818608E-02  0.1165266E+00
         21   -1    0    0  501  502  0.00000000000E+00  0.00000000000E+00  0.31286590576E+03  0.31286590576E+03  0.00000000000E+00 0. -1.
         21   -1    0    0  502  503 -0.00000000000E+00 -0.00000000000E+00 -0.14852379011E+03  0.14852379011E+03  0.00000000000E+00 0. -1.
          6    1    1    2  501    0  0.60657389962E+02 -0.98212085323E+01  0.20469845433E+03  0.27433780691E+03  0.17200000000E+03 0. -1.
         -6    1    1    2    0  503 -0.60657389962E+02  0.98212085323E+01 -0.40356338669E+02  0.18705188896E+03  0.17200000000E+03 0. -1.
</event>
<event>
 4    1  0.5808486E+000  0.1920172E+03  0.7818608E-02  0.1156654E+00
         21   -1    0    0  501  502  0.00000000000E+00  0.00000000000E+00  0.28906812309E+03  0.28906812309E+03  0.00000000000E+00 0.  1.
         21   -1    0    0  502  503 -0.00000000000E+00 -0.00000000000E+00 -0.65914890045E+03  0.65914890045E+03  0.00000000000E+00 0. -1.
          6    1    1    2  501    0  0.79802947872E+02  0.30300132346E+02  0.24073256134E+03  0.30793306838E+03  0.17200000000E+03 0.  1.
         -6    1    1    2    0  503 -0.79802947872E+02 -0.30300132346E+02 -0.61081333870E+03  0.64028395516E+03  0.17200000000E+03 0. -1.
</event>
<event>
 4    1  0.5808486E+000  0.2170485E+03  0.7818608E-02  0.1136103E+00
         21   -1    0    0  501  502  0.00000000000E+00  0.00000000000E+00  0.51938059983E+03  0.51938059983E+03  0.00000000000E+00 0.  1.
         21   -1    0    0  502  503 -0.00000000000E+00 -0.00000000000E+00 -0.96026590816E+02  0.96026590816E+02  0.00000000000E+00 0.  1.
          6    1    1    2  501    0 -0.59493712204E+02  0.11826467875E+03  0.28411851664E+03  0.35753792460E+03  0.17200000000E+03 0.  1.
         -6    1    1    2    0  503  0.59493712204E+02 -0.11826467875E+03  0.13923549237E+03  0.25786926604E+03  0.17200000000E+03 0.  1.
</event>
<event>
 4    1  0.5808486E+000  0.1832189E+03  0.7818608E-02  0.1164724E+00
         21   -1    0    0  503  502  0.00000000000E+00  0.00000000000E+00  0.14881714087E+04  0.14881714087E+04  0.00000000000E+00 0.  1.
         21   -1    0    0  501  503 -0.00000000000E+00 -0.00000000000E+00 -0.24943786997E+02  0.24943786997E+02  0.00000000000E+00 0.  1.
          6    1    1    2  501    0 -0.30772108290E+02  0.55120141067E+02  0.49760140011E+03  0.53026060196E+03  0.17200000000E+03 0.  1.
         -6    1    1    2    0  502  0.30772108290E+02 -0.55120141067E+02  0.96562622158E+03  0.98285459372E+03  0.17200000000E+03 0.  1.
</event>
<event>
 4    1  0.5808486E+000  0.1750098E+03  0.7818608E-02  0.1172722E+00
         21   -1    0    0  503  502  0.00000000000E+00  0.00000000000E+00  0.72195846242E+03  0.72195846242E+03  0.00000000000E+00 0.  1.
         21   -1    0    0  501  503 -0.00000000000E+00 -0.00000000000E+00 -0.42454311338E+02  0.42454311338E+02  0.00000000000E+00 0.  1.
          6    1    1    2  501    0  0.26347037868E+01  0.32210093913E+02  0.34994933934E+03  0.39127096994E+03  0.17200000000E+03 0.  1.
         -6    1    1    2    0  502 -0.26347037868E+01 -0.32210093913E+02  0.32955481174E+03  0.37314180381E+03  0.17200000000E+03 0.  1.
</event>
<event>
 4    1  0.5808486E+000  0.2083032E+03  0.7818608E-02  0.1142917E+00
         21   -1    0    0  501  502  0.00000000000E+00  0.00000000000E+00  0.38016886439E+03  0.38016886439E+03  0.00000000000E+00 0. -1.
         21   -1    0    0  502  503 -0.00000000000E+00 -0.00000000000E+00 -0.12028684214E+03  0.12028684214E+03  0.00000000000E+00 0.  1.
          6    1    1    2  501    0  0.11052271741E+03 -0.39886593624E+02  0.18653401950E+03  0.27961607938E+03  0.17200000000E+03 0. -1.
         -6    1    1    2    0  503 -0.11052271741E+03  0.39886593624E+02  0.73348002748E+02  0.22083962716E+03  0.17200000000E+03 0. -1.
</event>
<event>
 4    1  0.5808486E+000  0.2356112E+03  0.7818608E-02  0.1122752E+00
         21   -1    0    0  501  502  0.00000000000E+00  0.00000000000E+00  0.86628059865E+03  0.86628059865E+03  0.00000000000E+00 0.  1.
         21   -1    0    0  502  503 -0.00000000000E+00 -0.00000000000E+00 -0.66831102045E+02  0.66831102045E+02  0.00000000000E+00 0. -1.
          6    1    1    2  501    0 -0.13255704329E+03  0.91417983693E+02  0.49435805742E+03  0.54763355120E+03  0.17200000000E+03 0.  1.
         -6    1    1    2    0  503  0.13255704329E+03 -0.91417983693E+02  0.30509143918E+03  0.38547814949E+03  0.17200000000E+03 0. -1.
</event>
<event>
 4    1  0.5808486E+000  0.1960912E+03  0.7818608E-02  0.1153079E+00
         21   -1    0    0  501  502  0.00000000000E+00  0.00000000000E+00  0.10913224564E+03  0.10913224564E+03  0.00000000000E+00 0. -1.
         21   -1    0    0  502  503 -0.00000000000E+00 -0.00000000000E+00 -0.54574045294E+03  0.54574045294E+03  0.00000000000E+00 0. -1.
          6    1    1    2  501    0 -0.12259683579E+02 -0.93367374379E+02 -0.23381852962E+02  0.19748032177E+03  0.17200000000E+03 0. -1.
         -6    1    1    2    0  503  0.12259683579E+02  0.93367374379E+02 -0.41322635434E+03  0.45739237681E+03  0.17200000000E+03 0. -1.
</event>
<event>
 4    1  0.5808486E+000  0.1749290E+03  0.7818608E-02  0.1172803E+00
         21   -1    0    0  501  502  0.00000000000E+00  0.00000000000E+00  0.15198756132E+03  0.15198756132E+03  0.00000000000E+00 0.  1.
         21   -1    0    0  502  503 -0.00000000000E+00 -0.00000000000E+00 -0.25137721786E+03  0.25137721786E+03  0.00000000000E+00 0. -1.
          6    1    1    2  501    0  0.25007738859E+02  0.19768274489E+02  0.40292272714E+02  0.17950943964E+03  0.17200000000E+03 0.  1.
         -6    1    1    2    0  503 -0.25007738859E+02 -0.19768274489E+02 -0.13968192926E+03  0.22385533954E+03  0.17200000000E+03 0. -1.
</event>
<event>
 4    1  0.5808486E+000  0.3052869E+03  0.7818608E-02  0.1082627E+00
         21   -1    0    0  503  502  0.00000000000E+00  0.00000000000E+00  0.11870933139E+04  0.11870933139E+04  0.00000000000E+00 0.  1.
         21   -1    0    0  501  503 -0.00000000000E+00 -0.00000000000E+00 -0.81179618577E+02  0.81179618577E+02  0.00000000000E+00 0. -1.
          6    1    1    2  501    0  0.20538891481E+03 -0.14639502670E+03  0.66792747907E+03  0.73438901644E+03  0.17200000000E+03 0. -1.
         -6    1    1    2    0  502 -0.20538891481E+03  0.14639502670E+03  0.43798621621E+03  0.53388391599E+03  0.17200000000E+03 0. -1.
</event>
<event>
 4    1  0.5808486E+000  0.1795184E+03  0.7818608E-02  0.1168270E+00
         21   -1    0    0  501  502  0.00000000000E+00  0.00000000000E+00  0.45699766232E+03  0.45699766232E+03  0.00000000000E+00 0.  1.
         21   -1    0    0  502  503 -0.00000000000E+00 -0.00000000000E+00 -0.96205962513E+02  0.96205962513E+02  0.00000000000E+00 0. -1.
          6    1    1    2  501    0  0.23617622483E+02 -0.45662640977E+02  0.37469216460E+02  0.18338705258E+03  0.17200000000E+03 0. -1.
         -6    1    1    2    0  503 -0.23617622483E+02  0.45662640977E+02  0.32332248334E+03  0.36981657225E+03  0.17200000000E+03 0.  1.
</event>
<event>
 4    1  0.5808486E+000  0.1831095E+03  0.7818608E-02  0.1164827E+00
         21   -1    0    0  503  502  0.00000000000E+00  0.00000000000E+00  0.93286172229E+02  0.93286172229E+02  0.00000000000E+00 0. -1.
         21   -1    0    0  501  503 -0.00000000000E+00 -0.00000000000E+00 -0.40862032914E+03  0.40862032914E+03  0.00000000000E+00 0. -1.
          6    1    1    2  501    0  0.43833317589E+02  0.44985794675E+02 -0.24474519323E+03  0.30566205369E+03  0.17200000000E+03 0. -1.
         -6    1    1    2    0  502 -0.43833317589E+02 -0.44985794675E+02 -0.70588963681E+02  0.19624444768E+03  0.17200000000E+03 0. -1.
</event>
<event>
 4    1  0.5808486E+000  0.1915674E+03  0.7818608E-02  0.1157055E+00
         21   -1    0    0  501  502  0.00000000000E+00  0.00000000000E+00  0.27200950615E+04  0.27200950615E+04  0.00000000000E+00 0. -1.
         21   -1    0    0  502  503 -0.00000000000E+00 -0.00000000000E+00 -0.13491844911E+02  0.13491844911E+02  0.00000000000E+00 0. -1.
          6    1    1    2  501    0  0.68658923472E+02  0.48990147402E+02  0.13461015803E+04  0.13596644979E+04  0.17200000000E+03 0. -1.
         -6    1    1    2    0  503 -0.68658923472E+02 -0.48990147402E+02  0.13605016362E+04  0.13739224085E+04  0.17200000000E+03 0. -1.
</event>
<event>
 4    1  0.5808486E+000  0.1741047E+03  0.7818608E-02  0.1173634E+00
         21   -1    0    0  503  502  0.00000000000E+00  0.00000000000E+00  0.44530479557E+02  0.44530479557E+02  0.00000000000E+00 0.  1.
         21   -1    0    0  501  503 -0.00000000000E+00 -0.00000000000E+00 -0.68075780899E+03  0.68075780899E+03  0.00000000000E+00 0.  1.
          6    1    1    2  501    0 -0.98015708082E+01 -0.25147249100E+02 -0.31515576334E+03  0.36004945507E+03  0.17200000000E+03 0.  1.
         -6    1    1    2    0  502  0.98015708082E+01  0.25147249100E+02 -0.32107156609E+03  0.36523883348E+03  0.17200000000E+03 0.  1.
</event>
<event>
 4    1  0.5808486E+000  0.2109220E+03  0.7818608E-02  0.1140838E+00
         21   -1    0    0  501  502  0.00000000000E+00  0.00000000000E+00  0.84645003815E+03  0.84645003815E+03  0.00000000000E+00 0. -1.
         21   -1    0    0  502  503 -0.00000000000E+00 -0.00000000000E+00 -0.63074730118E+02  0.63074730118E+02  0.00000000000E+00 0. -1.
          6    1    1    2  501    0 -0.55176927455E+02 -0.10890174296E+03  0.57737759239E+03  0.61469745985E+03  0.17200000000E+03 0. -1.
         -6    1    1    2    0  503  0.55176927455E+02  0.10890174296E+03  0.20599771564E+03  0.29482730842E+03  0.17200000000E+03 0. -1.
</event>
<event>
 4    1  0.5808486E+000  0.2065243E+03  0.7818608E-02  0.1144348E+00
         21   -1    0    0  503  502  0.00000000000E+00  0.00000000000E+00  0.39754557199E+03  0.39754557199E+03  0.00000000000E+00 0. -1.
         21   -1    0    0  501  503 -0.00000000000E+00 -0.00000000000E+00 -0.25029606004E+03  0.25029606004E+03  0.00000000000E+00 0.  1.
          6    1    1    2  501    0 -0.58271053372E+02 -0.98350182169E+02 -0.17121986263E+03  0.26826948271E+03  0.17200000000E+03 0.  1.
         -6    1    1    2    0  502  0.58271053372E+02  0.98350182169E+02  0.31846937458E+03  0.37957214932E+03  0.17200000000E+03 0. -1.
</event>
<event>
 4    1  0.5808486E+000  0.1940564E+03  0.7818608E-02  0.1154853E+00
         21   -1    0    0  501  502  0.00000000000E+00  0.00000000000E+00  0.10284404125E+04  0.10284404125E+04  0.00000000000E+00 0.  1.
         21   -1    0    0  502  503 -0.00000000000E+00 -0.00000000000E+00 -0.39877217226E+02  0.39877217226E+02  0.00000000000E+00 0. -1.
          6    1    1    2  501    0 -0.89338065370E+02  0.96218704315E+01  0.64702614477E+03  0.67550033481E+03  0.17200000000E+03 0. -1.
         -6    1    1    2    0  503  0.89338065370E+02 -0.96218704315E+01  0.34153705048E+03  0.39281729489E+03  0.17200000000E+03 0. -1.
</event>
<event>
 4    1  0.5808486E+000  0.1762686E+03  0.7818608E-02  0.1171464E+00
         21   -1    0    0  503  502  0.00000000000E+00  0.00000000000E+00  0.24153439786E+03  0.24153439786E+03  0.00000000000E+00 0. -1.
         21   -1    0    0  501  503 -0.00000000000E+00 -0.00000000000E+00 -0.14505288399E+03  0.14505288399E+03  0.00000000000E+00 0. -1.
          6    1    1    2  501    0 -0.35491760235E+02  0.15065023242E+02 -0.16782216174E+02  0.17706570179E+03  0.17200000000E+03 0.  1.
         -6    1    1    2    0  502  0.35491760235E+02 -0.15065023242E+02  0.11326373004E+03  0.20952158006E+03  0.17200000000E+03 0.  1.
</event>
<event>
 4    1  0.5808486E+000  0.1762287E+03  0.7818608E-02  0.1171504E+00
         21   -1    0    0  501  502  0.00000000000E+00  0.00000000000E+00  0.42402358976E+03  0.42402358976E+03  0.00000000000E+00 0.  1.
         21   -1    0    0  502  503 -0.00000000000E+00 -0.00000000000E+00 -0.74196108616E+02  0.74196108616E+02  0.00000000000E+00 0. -1.
          6    1    1    2  501    0  0.36895547336E+02 -0.10548261578E+02  0.20315510705E+03  0.26893966750E+03  0.17200000000E+03 0.  1.
         -6    1    1    2    0  503 -0.36895547336E+02  0.10548261578E+02  0.14667237410E+03  0.22928003088E+03  0.17200000000E+03 0. -1.
</event>
<event>
 4    1  0.5808486E+000  0.2305992E+03  0.7818608E-02  0.1126219E+00
         21   -1    0    0  503  502  0.00000000000E+00  0.00000000000E+00  0.40267839239E+03  0.40267839239E+03  0.00000000000E+00 0. -1.
         21   -1    0    0  501  503 -0.00000000000E+00 -0.00000000000E+00 -0.15474881642E+03  0.15474881642E+03  0.00000000000E+00 0. -1.
          6    1    1    2  501    0 -0.10126949542E+03 -0.11548375450E+03  0.17233726867E+02  0.23124231792E+03  0.17200000000E+03 0. -1.
         -6    1    1    2    0  502  0.10126949542E+03  0.11548375450E+03  0.23069584910E+03  0.32618489090E+03  0.17200000000E+03 0. -1.
</event>
<event>
 4    1  0.5808486E+000  0.1893130E+03  0.7818608E-02  0.1159082E+00
         21   -1    0    0  503  502  0.00000000000E+00  0.00000000000E+00  0.56382884780E+02  0.56382884780E+02  0.00000000000E+00 0.  1.
         21   -1    0    0  501  503 -0.00000000000E+00 -0.00000000000E+00 -0.69182409130E+03  0.69182409130E+03  0.00000000000E+00 0.  1.
          6    1    1    2  501    0  0.15187084958E+02 -0.77619280593E+02 -0.42432816882E+03  0.46464372925E+03  0.17200000000E+03 0.  1.
         -6    1    1    2    0  502 -0.15187084958E+02  0.77619280593E+02 -0.21111303769E+03  0.28356324683E+03  0.17200000000E+03 0.  1.
</event>
<event>
 4    1  0.5808486E+000  0.2080181E+03  0.7818608E-02  0.1143145E+00
         21   -1    0    0  501  502  0.00000000000E+00  0.00000000000E+00  0.37501459141E+03  0.37501459141E+03  0.00000000000E+00 0. -1.
         21   -1    0    0  502  503 -0.00000000000E+00 -0.00000000000E+00 -0.11763422247E+03  0.11763422247E+03  0.00000000000E+00 0. -1.
          6    1    1    2  501    0 -0.11674181074E+03  0.76723927821E+01  0.16274190312E+03  0.26411445060E+03  0.17200000000E+03 0. -1.
         -6    1    1    2    0  503  0.11674181074E+03 -0.76723927821E+01  0.94638465822E+02  0.22853436328E+03  0.17200000000E+03 0. -1.
</event>
<event>
 4    1  0.5808486E+000  0.1987831E+03  0.7818608E-02  0.1150770E+00
         21   -1    0    0  501  502  0.00000000000E+00  0.00000000000E+00  0.99854544336E+02  0.99854544336E+02  0.00000000000E+00 0. -1.
         21   -1    0    0  502  503 -0.00000000000E+00 -0.00000000000E+00 -0.49547823443E+03  0.49547823443E+03  0.00000000000E+00 0. -1.
          6    1    1    2  501    0 -0.49173054746E+02 -0.86675911203E+02 -0.33137484380E+03  0.38642462395E+03  0.17200000000E+03 0. -1.
         -6    1    1    2    0  503  0.49173054746E+02  0.86675911203E+02 -0.64248846295E+02  0.20890815481E+03  0.17200000000E+03 0. -1.
</event>
<event>
 4    1  0.5808486E+000  0.1813003E+03  0.7818608E-02  0.1166551E+00
         21   -1    0    0  501  502  0.00000000000E+00  0.00000000000E+00  0.15477946135E+03  0.15477946135E+03  0.00000000000E+00 0. -1.
         21   -1    0    0  502  503 -0.00000000000E+00 -0.00000000000E+00 -0.23788908778E+03  0.23788908778E+03  0.00000000000E+00 0. -1.
          6    1    1    2  501    0 -0.58566498292E+01 -0.57021835286E+02  0.22755591491E+02  0.18272275991E+03  0.17200000000E+03 0. -1.
         -6    1    1    2    0  503  0.58566498292E+01  0.57021835286E+02 -0.10586521792E+03  0.20994578922E+03  0.17200000000E+03 0. -1.
</event>
<event>
 4    1  0.5808486E+000  0.1863735E+03  0.7818608E-02  0.1161773E+00
         21   -1    0    0  503  502  0.00000000000E+00  0.00000000000E+00  0.32043896292E+03  0.32043896292E+03  0.00000000000E+00 0.  1.
         21   -1    0    0  501  503 -0.00000000000E+00 -0.00000000000E+00 -0.14723249062E+03  0.14723249062E+03  0.00000000000E+00 0. -1.
          6    1    1    2  501    0 -0.55907486193E+02 -0.45004897278E+02 -0.33489104984E+02  0.18935841134E+03  0.17200000000E+03 0. -1.
         -6    1    1    2    0  502  0.55907486193E+02  0.45004897278E+02  0.20669557728E+03  0.27831304220E+03  0.17200000000E+03 0.  1.
</event>
<event>
 4    1  0.5808486E+000  0.2350834E+03  0.7818608E-02  0.1123112E+00
         21   -1    0    0  501  502  0.00000000000E+00  0.00000000000E+00  0.17312517339E+04  0.17312517339E+04  0.00000000000E+00 0. -1.
         21   -1    0    0  502  503 -0.00000000000E+00 -0.00000000000E+00 -0.53729086156E+02  0.53729086156E+02  0.00000000000E+00 0.  1.
          6    1    1    2  501    0  0.10048259549E+03 -0.12483362277E+03  0.14073555419E+04  0.14268545149E+04  0.17200000000E+03 0. -1.
         -6    1    1    2    0  503 -0.10048259549E+03  0.12483362277E+03  0.27016710588E+03  0.35812630520E+03  0.17200000000E+03 0.  1.
</event>
<event>
 4    1  0.5808486E+000  0.2272714E+03  0.7818608E-02  0.1128575E+00
         21   -1    0    0  503  502  0.00000000000E+00  0.00000000000E+00  0.42608973409E+03  0.42608973409E+03  0.00000000000E+00 0. -1.
         21   -1    0    0  501  503 -0.00000000000E+00 -0.00000000000E+00 -0.33712338405E+03  0.33712338405E+03  0.00000000000E+00 0. -1.
          6    1    1    2  501    0 -0.14770905839E+03  0.15822256427E+02 -0.26090138460E+03  0.34600844240E+03  0.17200000000E+03 0. -1.
         -6    1    1    2    0  502  0.14770905839E+03 -0.15822256427E+02  0.34986773464E+03  0.41720467575E+03  0.17200000000E+03 0. -1.
</event>
<event>
 4    1  0.5808486E+000  0.1965897E+03  0.7818608E-02  0.1152649E+00
         21   -1    0    0  501  502  0.00000000000E+00  0.00000000000E+00  0.10323108273E+03  0.10323108273E+03  0.00000000000E+00 0.  1.
         21   -1    0    0  502  503 -0.00000000000E+00 -0.00000000000E+00 -0.40316279154E+03  0.40316279154E+03  0.00000000000E+00 0.  1.
          6    1    1    2  501    0  0.88882681508E+02  0.34108094327E+02 -0.82311408045E+02  0.21312592772E+03  0.17200000000E+03 0.  1.
         -6    1    1    2    0  503 -0.88882681508E+02 -0.34108094327E+02 -0.21762030077E+03  0.29326794655E+03  0.17200000000E+03 0.  1.
</event>
<event>
 4    1  0.5808486E+000  0.2648968E+03  0.7818608E-02  0.1104236E+00
         21   -1    0    0  503  502  0.00000000000E+00  0.00000000000E+00  0.94296356431E+03  0.94296356431E+03  0.00000000000E+00 0.  1.
         21   -1    0    0  501  503 -0.00000000000E+00 -0.00000000000E+00 -0.81114186226E+02  0.81114186226E+02  0.00000000000E+00 0.  1.
          6    1    1    2  501    0 -0.10496949391E+03 -0.17195263210E+03  0.28376903932E+03  0.38819475783E+03  0.17200000000E+03 0.  1.
         -6    1    1    2    0  502  0.10496949391E+03  0.17195263210E+03  0.57808033877E+03  0.63588299270E+03  0.17200000000E+03 0.  1.
</event>
<event>
 4    1  0.5808486E+000  0.2005051E+03  0.7818608E-02  0.1149314E+00
         21   -1    0    0  501  502  0.00000000000E+00  0.00000000000E+00  0.29548492482E+03  0.29548492482E+03  0.00000000000E+00 0. -1.
         21   -1    0    0  502  503 -0.00000000000E+00 -0.00000000000E+00 -0.57606525049E+03  0.57606525049E+03  0.00000000000E+00 0. -1.
          6    1    1    2  501    0  0.72502163113E+02 -0.73223820313E+02  0.24056321017E+03  0.31316600966E+03  0.17200000000E+03 0. -1.
         -6    1    1    2    0  503 -0.72502163113E+02  0.73223820313E+02 -0.52114353583E+03  0.55838416566E+03  0.17200000000E+03 0. -1.
</event>
<event>
 4    1  0.5808486E+000  0.2016962E+03  0.7818608E-02  0.1148316E+00
         21   -1    0    0  503  502  0.00000000000E+00  0.00000000000E+00  0.32639311753E+03  0.32639311753E+03  0.00000000000E+00 0. -1.
         21   -1    0    0  501  503 -0.00000000000E+00 -0.00000000000E+00 -0.13775257301E+03  0.13775257301E+03  0.00000000000E+00 0.  1.
          6    1    1    2  501    0  0.90981489296E+02 -0.53101011190E+02  0.16592358390E+03  0.26117424161E+03  0.17200000000E+03 0. -1.
         -6    1    1    2    0  502 -0.90981489296E+02  0.53101011190E+02  0.22716960617E+02  0.20297144894E+03  0.17200000000E+03 0. -1.
</event>
<event>
 4    1  0.5808486E+000  0.1881089E+03  0.7818608E-02  0.1160178E+00
         21   -1    0    0  503  502  0.00000000000E+00  0.00000000000E+00  0.51278070826E+03  0.51278070826E+03  0.00000000000E+00 0. -1.
         21   -1    0    0  501  503 -0.00000000000E+00 -0.00000000000E+00 -0.89828794282E+02  0.89828794282E+02  0.00000000000E+00 0. -1.
          6    1    1    2  501    0 -0.29571422303E+02 -0.70189058176E+02  0.66409453675E+02  0.19948731399E+03  0.17200000000E+03 0. -1.
         -6    1    1    2    0  502  0.29571422303E+02  0.70189058176E+02  0.35654246030E+03  0.40312218855E+03  0.17200000000E+03 0. -1.
</event>
<event>
 4    1  0.5808486E+000  0.2555891E+03  0.7818608E-02  0.1109823E+00
         21   -1    0    0  501  502  0.00000000000E+00  0.00000000000E+00  0.43910983015E+03  0.43910983015E+03  0.00000000000E+00 0. -1.
         21   -1    0    0  502  503 -0.00000000000E+00 -0.00000000000E+00 -0.15859596161E+03  0.15859596161E+03  0.00000000000E+00 0. -1.
          6    1    1    2  501    0 -0.16114034955E+03  0.98871535111E+02  0.21464922997E+03  0.33376651215E+03  0.17200000000E+03 0.  1.
         -6    1    1    2    0  503  0.16114034955E+03 -0.98871535111E+02  0.65864638564E+02  0.26393927961E+03  0.17200000000E+03 0.  1.
</event>
<event>
 4    1  0.5808486E+000  0.2032367E+03  0.7818608E-02  0.1147037E+00
         21   -1    0    0  501  502  0.00000000000E+00  0.00000000000E+00  0.92713264938E+03  0.92713264938E+03  0.00000000000E+00 0. -1.
         21   -1    0    0  502  503 -0.00000000000E+00 -0.00000000000E+00 -0.47159513098E+02  0.47159513098E+02  0.00000000000E+00 0. -1.
          6    1    1    2  501    0  0.55370129176E+02  0.93033858395E+02  0.55454563317E+03  0.59061494163E+03  0.17200000000E+03 0. -1.
         -6    1    1    2    0  503 -0.55370129176E+02 -0.93033858395E+02  0.32542750311E+03  0.38367722084E+03  0.17200000000E+03 0. -1.
</event>
<event>
 4    1  0.5808486E+000  0.2271965E+03  0.7818608E-02  0.1128629E+00
         21   -1    0    0  503  502  0.00000000000E+00  0.00000000000E+00  0.63990208068E+03  0.63990208068E+03  0.00000000000E+00 0. -1.
         21   -1    0    0  501  503 -0.00000000000E+00 -0.00000000000E+00 -0.80695019384E+02  0.80695019384E+02  0.00000000000E+00 0.  1.
          6    1    1    2  501    0 -0.12375293628E+03 -0.81972183534E+02  0.27275019308E+03  0.35498013457E+03  0.17200000000E+03 0. -1.
         -6    1    1    2    0  502  0.12375293628E+03  0.81972183534E+02  0.28645686821E+03  0.36561696549E+03  0.17200000000E+03 0. -1.
</event>
<event>
 4    1  0.5808486E+000  0.2014839E+03  0.7818608E-02  0.1148493E+00
         21   -1    0    0  503  502  0.00000000000E+00  0.00000000000E+00  0.12376827811E+03  0.12376827811E+03  0.00000000000E+00 0. -1.
         21   -1    0    0  501  503 -0.00000000000E+00 -0.00000000000E+00 -0.32831187586E+03  0.32831187586E+03  0.00000000000E+00 0. -1.
          6    1    1    2  501    0 -0.96733728500E+02  0.40673691619E+02 -0.10925948087E+03  0.22920165265E+03  0.17200000000E+03 0. -1.
         -6    1    1    2    0  502  0.96733728500E+02 -0.40673691619E+02 -0.95284116881E+02  0.22287850132E+03  0.17200000000E+03 0. -1.
</event>
<event>
 4    1  0.5808486E+000  0.1792278E+03  0.7818608E-02  0.1168552E+00
         21   -1    0    0  503  502  0.00000000000E+00  0.00000000000E+00  0.73268150755E+02  0.73268150755E+02  0.00000000000E+00 0.  1.
         21   -1    0    0  501  503 -0.00000000000E+00 -0.00000000000E+00 -0.44543137663E+03  0.44543137663E+03  0.00000000000E+00 0.  1.
          6    1    1    2  501    0 -0.42645626167E+02  0.26832230802E+02 -0.21860755666E+03  0.28268689724E+03  0.17200000000E+03 0.  1.
         -6    1    1    2    0  502  0.42645626167E+02 -0.26832230802E+02 -0.15355566921E+03  0.23601263015E+03  0.17200000000E+03 0.  1.
</event>
<event>
 4    1  0.5808486E+000  0.2032620E+03  0.7818608E-02  0.1147016E+00
         21   -1    0    0  503  502  0.00000000000E+00  0.00000000000E+00  0.19009958927E+03  0.19009958927E+03  0.00000000000E+00 0.  1.
         21   -1    0    0  501  503 -0.00000000000E+00 -0.00000000000E+00 -0.45588286720E+03  0.45588286720E+03  0.00000000000E+00 0.  1.
          6    1    1    2  501    0 -0.99637549280E+02  0.42471349705E+02 -0.36653372931E+03  0.41912102249E+03  0.17200000000E+03 0.  1.
         -6    1    1    2    0  502  0.99637549280E+02 -0.42471349705E+02  0.10075045138E+03  0.22686143397E+03  0.17200000000E+03 0.  1.
</event>
<event>
 4    1  0.5808486E+000  0.2047908E+03  0.7818608E-02  0.1145759E+00
         21   -1    0    0  503  502  0.00000000000E+00  0.00000000000E+00  0.11905863670E+04  0.11905863670E+04  0.00000000000E+00 0. -1.
         21   -1    0    0  501  503 -0.00000000000E+00 -0.00000000000E+00 -0.35715941651E+02  0.35715941651E+02  0.00000000000E+00 0. -1.
          6    1    1    2  501    0 -0.29063390834E+02  0.10728743842E+03  0.50560157548E+03  0.54550181325E+03  0.17200000000E+03 0. -1.
         -6    1    1    2    0  502  0.29063390834E+02 -0.10728743842E+03  0.64926884987E+03  0.68080049540E+03  0.17200000000E+03 0. -1.
</event>
<event>
 4    1  0.5808486E+000  0.1850967E+03  0.7818608E-02  0.1162960E+00
         21   -1    0    0  501  502  0.00000000000E+00  0.00000000000E+00  0.26805617584E+03  0.26805617584E+03  0.00000000000E+00 0. -1.
         21   -1    0    0  502  503 -0.00000000000E+00 -0.00000000000E+00 -0.19408389531E+03  0.19408389531E+03  0.00000000000E+00 0. -1.
          6    1    1    2  501    0 -0.65386839579E+02 -0.20034073847E+02  0.17201092443E+03  0.25268272800E+03  0.17200000000E+03 0. -1.
         -6    1    1    2    0  503  0.65386839579E+02  0.20034073847E+02 -0.98038643891E+02  0.20945734315E+03  0.17200000000E+03 0. -1.
</event>
<event>
 4    1  0.5808486E+000  0.1772457E+03  0.7818608E-02  0.1170496E+00
         21   -1    0    0  503  502  0.00000000000E+00  0.00000000000E+00  0.73400733587E+02  0.73400733587E+02  0.00000000000E+00 0.  1.
         21   -1    0    0  501  503 -0.00000000000E+00 -0.00000000000E+00 -0.79229788566E+03  0.79229788566E+03  0.00000000000E+00 0.  1.
          6    1    1    2  501    0 -0.17045047950E+02  0.39262144654E+02 -0.65295421923E+03  0.67658352188E+03  0.17200000000E+03 0.  1.
         -6    1    1    2    0  502  0.17045047950E+02 -0.39262144654E+02 -0.65942932845E+02  0.18911509737E+03  0.17200000000E+03 0.  1.
</event>
<event>
 4    1  0.5808486E+000  0.2007472E+03  0.7818608E-02  0.1149110E+00
         21   -1    0    0  503  502  0.00000000000E+00  0.00000000000E+00  0.71540198725E+02  0.71540198725E+02  0.00000000000E+00 0. -1.
         21   -1    0    0  501  503 -0.00000000000E+00 -0.00000000000E+00 -0.58740595194E+03  0.58740595194E+03  0.00000000000E+00 0. -1.
          6    1    1    2  501    0  0.10203334012E+03 -0.17454226736E+02 -0.19120539024E+03  0.27723447438E+03  0.17200000000E+03 0. -1.
         -6    1    1    2    0  502 -0.10203334012E+03  0.17454226736E+02 -0.32466036297E+03  0.38171167629E+03  0.17200000000E+03 0. -1.
</event>
<event>
 4    1  0.5808486E+000  0.3288641E+03  0.7818608E-02  0.1071641E+00
         21   -1    0    0  503  502  0.00000000000E+00  0.00000000000E+00  0.98584210801E+03  0.98584210801E+03  0.00000000000E+00 0.  1.
         21   -1    0    0  501  503 -0.00000000000E+00 -0.00000000000E+00 -0.32088173398E+03  0.32088173398E+03  0.00000000000E+00 0.  1.
          6    1    1    2  501    0 -0.44501593359E+02  0.27674394440E+03 -0.19755484017E+03  0.38363982777E+03  0.17200000000E+03 0.  1.
         -6    1    1    2    0  502  0.44501593359E+02 -0.27674394440E+03  0.86251521420E+03  0.92308401422E+03  0.17200000000E+03 0.  1.
</event>
<event>
 4    1  0.5808486E+000  0.4150203E+03  0.7818608E-02  0.1038699E+00
         21   -1    0    0  503  502  0.00000000000E+00  0.00000000000E+00  0.94775016448E+03  0.94775016448E+03  0.00000000000E+00 0.  1.
         21   -1    0    0  501  503 -0.00000000000E+00 -0.00000000000E+00 -0.25029947404E+03  0.25029947404E+03  0.00000000000E+00 0. -1.
          6    1    1    2  501    0 -0.33360420191E+03  0.17710476076E+03  0.35211934350E+02  0.41651139257E+03  0.17200000000E+03 0. -1.
         -6    1    1    2    0  502  0.33360420191E+03 -0.17710476076E+03  0.66223875609E+03  0.78153824595E+03  0.17200000000E+03 0. -1.
</event>
<event>
 4    1  0.5808486E+000  0.3140704E+03  0.7818608E-02  0.1078411E+00
         21   -1    0    0  501  502  0.00000000000E+00  0.00000000000E+00  0.54776118408E+03  0.54776118408E+03  0.00000000000E+00 0. -1.
         21   -1    0    0  502  503 -0.00000000000E+00 -0.00000000000E+00 -0.24616932115E+03  0.24616932115E+03  0.00000000000E+00 0.  1.
          6    1    1    2  501    0 -0.32763304651E+02  0.26073508354E+03 -0.54890133949E+02  0.31883090303E+03  0.17200000000E+03 0.  1.
         -6    1    1    2    0  503  0.32763304651E+02 -0.26073508354E+03  0.35648199688E+03  0.47509960221E+03  0.17200000000E+03 0. -1.
</event>
<event>
 4    1  0.5808486E+000  0.2678942E+03  0.7818608E-02  0.1102491E+00
         21   -1    0    0  501  502  0.00000000000E+00  0.00000000000E+00  0.72213050186E+03  0.72213050186E+03  0.00000000000E+00 0.  1.
         21   -1    0    0  502  503 -0.00000000000E+00 -0.00000000000E+00 -0.10499368003E+03  0.10499368003E+03  0.00000000000E+00 0.  1.
          6    1    1    2  501    0  0.18091831611E+03  0.97220665077E+02  0.40417276210E+03  0.48489474780E+03  0.17200000000E+03 0.  1.
         -6    1    1    2    0  503 -0.18091831611E+03 -0.97220665077E+02  0.21296405973E+03  0.34222943409E+03  0.17200000000E+03 0.  1.
</event>
<event>
 4    1  0.5808486E+000  0.3521713E+03  0.7818608E-02  0.1061727E+00
         21   -1    0    0  503  502  0.00000000000E+00  0.00000000000E+00  0.61639173798E+03  0.61639173798E+03  0.00000000000E+00 0. -1.
         21   -1    0    0  501  503 -0.00000000000E+00 -0.00000000000E+00 -0.56983721209E+03  0.56983721209E+03  0.00000000000E+00 0.  1.
          6    1    1    2  501    0  0.24420715757E+03 -0.18655687904E+03 -0.45376451085E+03  0.57439258024E+03  0.17200000000E+03 0.  1.
         -6    1    1    2    0  502 -0.24420715757E+03  0.18655687904E+03  0.50031903673E+03  0.61183636983E+03  0.17200000000E+03 0. -1.
</event>
<event>
 4    1  0.5808486E+000  0.1859811E+03  0.7818608E-02  0.1162137E+00
         21   -1    0    0  503  502  0.00000000000E+00  0.00000000000E+00  0.17244378047E+03  0.17244378047E+03  0.00000000000E+00 0. -1.
         21   -1    0    0  501  503 -0.00000000000E+00 -0.00000000000E+00 -0.20175671339E+03  0.20175671339E+03  0.00000000000E+00 0. -1.
          6    1    1    2  501    0 -0.36307560854E+02 -0.60718588134E+02 -0.37514945503E+00  0.18598152235E+03  0.17200000000E+03 0. -1.
         -6    1    1    2    0  502  0.36307560854E+02  0.60718588134E+02 -0.28937783463E+02  0.18821897150E+03  0.17200000000E+03 0. -1.
</event>
<event>
 4    1  0.5808486E+000  0.1772005E+03  0.7818608E-02  0.1170540E+00
         21   -1    0    0  503  502  0.00000000000E+00  0.00000000000E+00  0.47284668637E+03  0.47284668637E+03  0.00000000000E+00 0.  1.
         21   -1    0    0  501  503 -0.00000000000E+00 -0.00000000000E+00 -0.67884558461E+02  0.67884558461E+02  0.00000000000E+00 0.  1.
          6    1    1    2  501    0 -0.37858933793E+02  0.19563027491E+02  0.16258432232E+03  0.24048632555E+03  0.17200000000E+03 0.  1.
         -6    1    1    2    0  502  0.37858933793E+02 -0.19563027491E+02  0.24237780559E+03  0.30024491928E+03  0.17200000000E+03 0.  1.
</event>
<event>
 4    1  0.5808486E+000  0.1823420E+03  0.7818608E-02  0.1165556E+00
         21   -1    0    0  501  502  0.00000000000E+00  0.00000000000E+00  0.68779337502E+02  0.68779337502E+02  0.00000000000E+00 0. -1.
         21   -1    0    0  502  503 -0.00000000000E+00 -0.00000000000E+00 -0.54036212099E+03  0.54036212099E+03  0.00000000000E+00 0. -1.
          6    1    1    2  501    0 -0.55203970449E+02 -0.24841717472E+02 -0.13691278390E+03  0.22802127023E+03  0.17200000000E+03 0. -1.
         -6    1    1    2    0  503  0.55203970449E+02  0.24841717472E+02 -0.33466999958E+03  0.38112018826E+03  0.17200000000E+03 0. -1.
</event>
<event>
 4    1  0.5808486E+000  0.2132894E+03  0.7818608E-02  0.1138987E+00
         21   -1    0    0  501  502  0.00000000000E+00  0.00000000000E+00  0.12645328210E+04  0.12645328210E+04  0.00000000000E+00 0. -1.
         21   -1    0    0  502  503 -0.00000000000E+00 -0.00000000000E+00 -0.58902441396E+02  0.58902441396E+02  0.00000000000E+00 0.  1.
          6    1    1    2  501    0  0.52705361761E+02  0.11458846180E+03  0.10156514582E+04  0.10378054998E+04  0.17200000000E+03 0. -1.
         -6    1    1    2    0  503 -0.52705361761E+02 -0.11458846180E+03  0.18997892137E+03  0.28562976263E+03  0.17200000000E+03 0.  1.
</event>
<event>
 4    1  0.5808486E+000  0.1936152E+03  0.7818608E-02  0.1155240E+00
         21   -1    0    0  503  502  0.00000000000E+00  0.00000000000E+00  0.27320959514E+03  0.27320959514E+03  0.00000000000E+00 0. -1.
         21   -1    0    0  501  503 -0.00000000000E+00 -0.00000000000E+00 -0.26761947279E+03  0.26761947279E+03  0.00000000000E+00 0.  1.
          6    1    1    2  501    0 -0.59962405649E+02  0.65630582943E+02 -0.18597239166E+03  0.26846339410E+03  0.17200000000E+03 0.  1.
         -6    1    1    2    0  502  0.59962405649E+02 -0.65630582943E+02  0.19156251401E+03  0.27236567383E+03  0.17200000000E+03 0. -1.
</event>
<event>
 4    1  0.5808486E+000  0.1829490E+03  0.7818608E-02  0.1164979E+00
         21   -1    0    0  503  502  0.00000000000E+00  0.00000000000E+00  0.26703207470E+03  0.26703207470E+03  0.00000000000E+00 0.  1.
         21   -1    0    0  501  503 -0.00000000000E+00 -0.00000000000E+00 -0.13074310772E+03  0.13074310772E+03  0.00000000000E+00 0.  1.
          6    1    1    2  501    0 -0.40582151253E+02  0.47322658669E+02  0.27720594575E+02  0.18503722973E+03  0.17200000000E+03 0.  1.
         -6    1    1    2    0  502  0.40582151253E+02 -0.47322658669E+02  0.10856837240E+03  0.21273795268E+03  0.17200000000E+03 0.  1.
</event>
<event>
 4    1  0.5808486E+000  0.1790272E+03  0.7818608E-02  0.1168748E+00
         21   -1    0    0  503  502  0.00000000000E+00  0.00000000000E+00  0.47449155195E+03  0.47449155195E+03  0.00000000000E+00 0. -1.
         21   -1    0    0  501  503 -0.00000000000E+00 -0.00000000000E+00 -0.17593175091E+03  0.17593175091E+03  0.00000000000E+00 0. -1.
          6    1    1    2  501    0  0.46814117876E+02 -0.16588698142E+02 -0.10597668436E+03  0.20804279407E+03  0.17200000000E+03 0. -1.
         -6    1    1    2    0  502 -0.46814117876E+02  0.16588698142E+02  0.40453648539E+03  0.44238050879E+03  0.17200000000E+03 0. -1.
</event>
<event>
 4    1  0.5808486E+000  0.2045721E+03  0.7818608E-02  0.1145938E+00
         21   -1    0    0  503  502  0.00000000000E+00  0.00000000000E+00  0.48251194605E+02  0.48251194605E+02  0.00000000000E+00 0.  1.
         21   -1    0    0  501  503 -0.00000000000E+00 -0.00000000000E+00 -0.87470803667E+03  0.87470803667E+03  0.00000000000E+00 0. -1.
          6    1    1    2  501    0 -0.10803489747E+03  0.24376624963E+02 -0.45560839507E+03  0.49942844189E+03  0.17200000000E+03 0. -1.
         -6    1    1    2    0  502  0.10803489747E+03 -0.24376624963E+02 -0.37084844700E+03  0.42353078939E+03  0.17200000000E+03 0.  1.
</event>
<event>
 4    1  0.5808486E+000  0.1981217E+03  0.7818608E-02  0.1151333E+00
         21   -1    0    0  503  502  0.00000000000E+00  0.00000000000E+00  0.64632442102E+03  0.64632442102E+03  0.00000000000E+00 0. -1.
         21   -1    0    0  501  503 -0.00000000000E+00 -0.00000000000E+00 -0.66335908912E+02  0.66335908912E+02  0.00000000000E+00 0. -1.
          6    1    1    2  501    0  0.65643375463E+02  0.73206182421E+02  0.39356721243E+03  0.44062154803E+03  0.17200000000E+03 0. -1.
         -6    1    1    2    0  502 -0.65643375463E+02 -0.73206182421E+02  0.18642129968E+03  0.27203878191E+03  0.17200000000E+03 0. -1.
</event>
<event>
 4    1  0.5808486E+000  0.2965930E+03  0.7818608E-02  0.1086956E+00
         21   -1    0    0  503  502  0.00000000000E+00  0.00000000000E+00  0.82699095932E+03  0.82699095932E+03  0.00000000000E+00 0. -1.
         21   -1    0    0  501  503 -0.00000000000E+00 -0.00000000000E+00 -0.33824029558E+03  0.33824029558E+03  0.00000000000E+00 0. -1.
          6    1    1    2  501    0  0.19834582618E+03 -0.13799389983E+03 -0.23800724474E+03  0.38028256823E+03  0.17200000000E+03 0. -1.
         -6    1    1    2    0  502 -0.19834582618E+03  0.13799389983E+03  0.72675790849E+03  0.78494868667E+03  0.17200000000E+03 0. -1.
</event>
<event>
 4    1  0.5808486E+000  0.2344969E+03  0.7818608E-02  0.1123514E+00
         21   -1    0    0  503  502  0.00000000000E+00  0.00000000000E+00  0.35988699741E+03  0.35988699741E+03  0.00000000000E+00 0. -1.
         21   -1    0    0  501  503 -0.00000000000E+00 -0.00000000000E+00 -0.16167498589E+03  0.16167498589E+03  0.00000000000E+00 0.  1.
          6    1    1    2  501    0 -0.13605559019E+03  0.83028097442E+02  0.37987810860E+02  0.23755391464E+03  0.17200000000E+03 0.  1.
         -6    1    1    2    0  502  0.13605559019E+03 -0.83028097442E+02  0.16022420066E+03  0.28400806866E+03  0.17200000000E+03 0. -1.
</event>
<event>
 4    1  0.5808486E+000  0.2115192E+03  0.7818608E-02  0.1140369E+00
         21   -1    0    0  501  502  0.00000000000E+00  0.00000000000E+00  0.53540606309E+02  0.53540606309E+02  0.00000000000E+00 0.  1.
         21   -1    0    0  502  503 -0.00000000000E+00 -0.00000000000E+00 -0.87626713552E+03  0.87626713552E+03  0.00000000000E+00 0. -1.
          6    1    1    2  501    0 -0.87277580405E+02 -0.86827467867E+02 -0.31125229803E+03  0.37632217347E+03  0.17200000000E+03 0. -1.
         -6    1    1    2    0  503  0.87277580405E+02  0.86827467867E+02 -0.51147423118E+03  0.55348556836E+03  0.17200000000E+03 0.  1.
</event>
<event>
 4    1  0.5808486E+000  0.2757501E+03  0.7818608E-02  0.1098033E+00
         21   -1    0    0  503  502  0.00000000000E+00  0.00000000000E+00  0.23717730793E+03  0.23717730793E+03  0.00000000000E+00 0.  1.
         21   -1    0    0  501  503 -0.00000000000E+00 -0.00000000000E+00 -0.32637628596E+03  0.32637628596E+03  0.00000000000E+00 0. -1.
          6    1    1    2  501    0 -0.10507733368E+03  0.18818306959E+03 -0.71006503996E+01  0.27584149972E+03  0.17200000000E+03 0. -1.
         -6    1    1    2    0  502  0.10507733368E+03 -0.18818306959E+03 -0.82098327637E+02  0.28771209417E+03  0.17200000000E+03 0.  1.
</event>
<event>
 4    1  0.5808486E+000  0.2342871E+03  0.7818608E-02  0.1123658E+00
         21   -1    0    0  503  502  0.00000000000E+00  0.00000000000E+00  0.13494372404E+03  0.13494372404E+03  0.00000000000E+00 0.  1.
         21   -1    0    0  501  503 -0.00000000000E+00 -0.00000000000E+00 -0.40684737165E+03  0.40684737165E+03  0.00000000000E+00 0.  1.
          6    1    1    2  501    0 -0.11073125460E+03  0.11421479069E+03 -0.13210511593E+03  0.26896503642E+03  0.17200000000E+03 0.  1.
         -6    1    1    2    0  502  0.11073125460E+03 -0.11421479069E+03 -0.13979853168E+03  0.27282605927E+03  0.17200000000E+03 0.  1.
</event>
<event>
 4    1  0.5808486E+000  0.2268019E+03  0.7818608E-02  0.1128911E+00
         21   -1    0    0  503  502  0.00000000000E+00  0.00000000000E+00  0.13864528141E+04  0.13864528141E+04  0.00000000000E+00 0. -1.
         21   -1    0    0  501  503 -0.00000000000E+00 -0.00000000000E+00 -0.43368909288E+02  0.43368909288E+02  0.00000000000E+00 0.  1.
          6    1    1    2  501    0 -0.13004379956E+03  0.70311681440E+02  0.39976314522E+03  0.45961907557E+03  0.17200000000E+03 0. -1.
         -6    1    1    2    0  502  0.13004379956E+03 -0.70311681440E+02  0.94332075954E+03  0.97020264777E+03  0.17200000000E+03 0. -1.
</event>
<event>
 4    1  0.5808486E+000  0.1821957E+03  0.7818608E-02  0.1165695E+00
         21   -1    0    0  503  502  0.00000000000E+00  0.00000000000E+00  0.10874790375E+03  0.10874790375E+03  0.00000000000E+00 0. -1.
         21   -1    0    0  501  503 -0.00000000000E+00 -0.00000000000E+00 -0.31304841878E+03  0.31304841878E+03  0.00000000000E+00 0. -1.
          6    1    1    2  501    0  0.12344685601E+01 -0.60081107182E+02 -0.13543759708E+03  0.22702115773E+03  0.17200000000E+03 0. -1.
         -6    1    1    2    0  502 -0.12344685601E+01  0.60081107182E+02 -0.68862917952E+02  0.19477516480E+03  0.17200000000E+03 0. -1.
</event>
<event>
 4    1  0.5808486E+000  0.1824073E+03  0.7818608E-02  0.1165493E+00
         21   -1    0    0  501  502  0.00000000000E+00  0.00000000000E+00  0.99870989174E+02  0.99870989174E+02  0.00000000000E+00 0.  1.
         21   -1    0    0  502  503 -0.00000000000E+00 -0.00000000000E+00 -0.33385553350E+03  0.33385553350E+03  0.00000000000E+00 0.  1.
          6    1    1    2  501    0  0.12607997479E+02 -0.59409400077E+02 -0.10705259345E+03  0.21150105480E+03  0.17200000000E+03 0.  1.
         -6    1    1    2    0  503 -0.12607997479E+02  0.59409400077E+02 -0.12693195087E+03  0.22222546787E+03  0.17200000000E+03 0.  1.
</event>
<event>
 4    1  0.5808486E+000  0.3105746E+03  0.7818608E-02  0.1080071E+00
         21   -1    0    0  503  502  0.00000000000E+00  0.00000000000E+00  0.93310086283E+03  0.93310086283E+03  0.00000000000E+00 0.  1.
         21   -1    0    0  501  503 -0.00000000000E+00 -0.00000000000E+00 -0.15178339538E+03  0.15178339538E+03  0.00000000000E+00 0. -1.
          6    1    1    2  501    0  0.18710077145E+02  0.25791960071E+03  0.84311000164E+02  0.32181505895E+03  0.17200000000E+03 0. -1.
         -6    1    1    2    0  502 -0.18710077145E+02 -0.25791960071E+03  0.69700646729E+03  0.76306919926E+03  0.17200000000E+03 0.  1.
</event>
<event>
 4    1  0.5808486E+000  0.1999238E+03  0.7818608E-02  0.1149803E+00
         21   -1    0    0  503  502  0.00000000000E+00  0.00000000000E+00  0.79656568836E+02  0.79656568836E+02  0.00000000000E+00 0.  1.
         21   -1    0    0  501  503 -0.00000000000E+00 -0.00000000000E+00 -0.52760845703E+03  0.52760845703E+03  0.00000000000E+00 0.  1.
          6    1    1    2  501    0 -0.70680629734E+02 -0.73415085977E+02 -0.29116512387E+03  0.35319492582E+03  0.17200000000E+03 0.  1.
         -6    1    1    2    0  502  0.70680629734E+02  0.73415085977E+02 -0.15678676432E+03  0.25407010004E+03  0.17200000000E+03 0.  1.
</event>
<event>
 4    1  0.5808486E+000  0.1843241E+03  0.7818608E-02  0.1163683E+00
         21   -1    0    0  501  502  0.00000000000E+00  0.00000000000E+00  0.55529266661E+02  0.55529266661E+02  0.00000000000E+00 0.  1.
         21   -1    0    0  502  503 -0.00000000000E+00 -0.00000000000E+00 -0.70135529958E+03  0.70135529958E+03  0.00000000000E+00 0.  1.
          6    1    1    2  501    0  0.42838913365E+02  0.50558976261E+02 -0.18771706337E+03  0.26308378601E+03  0.17200000000E+03 0.  1.
         -6    1    1    2    0  503 -0.42838913365E+02 -0.50558976261E+02 -0.45810896954E+03  0.49380078023E+03  0.17200000000E+03 0.  1.
</event>
<event>
 4    1  0.5808486E+000  0.1960686E+03  0.7818608E-02  0.1153099E+00
         21   -1    0    0  503  502  0.00000000000E+00  0.00000000000E+00  0.24060271511E+02  0.24060271511E+02  0.00000000000E+00 0.  1.
         21   -1    0    0  501  503 -0.00000000000E+00 -0.00000000000E+00 -0.16614364781E+04  0.16614364781E+04  0.00000000000E+00 0. -1.
          6    1    1    2  501    0  0.82128320557E+02  0.45976605401E+02 -0.98365360818E+03  0.10030041526E+04  0.17200000000E+03 0.  1.
         -6    1    1    2    0  502 -0.82128320557E+02 -0.45976605401E+02 -0.65372259844E+03  0.68249259703E+03  0.17200000000E+03 0.  1.
</event>
<event>
 4    1  0.5808486E+000  0.1858725E+03  0.7818608E-02  0.1162238E+00
         21   -1    0    0  501  502  0.00000000000E+00  0.00000000000E+00  0.24589828133E+02  0.24589828133E+02  0.00000000000E+00 0. -1.
         21   -1    0    0  502  503 -0.00000000000E+00 -0.00000000000E+00 -0.18395908359E+04  0.18395908359E+04  0.00000000000E+00 0.  1.
          6    1    1    2  501    0  0.53713990802E+02  0.45600199880E+02 -0.13605445846E+04  0.13731824852E+04  0.17200000000E+03 0.  1.
         -6    1    1    2    0  503 -0.53713990802E+02 -0.45600199880E+02 -0.45445642317E+03  0.49099817881E+03  0.17200000000E+03 0. -1.
</event>
<event>
 4    1  0.5808486E+000  0.2418089E+03  0.7818608E-02  0.1118594E+00
         21   -1    0    0  501  502  0.00000000000E+00  0.00000000000E+00  0.13169806347E+03  0.13169806347E+03  0.00000000000E+00 0. -1.
         21   -1    0    0  502  503 -0.00000000000E+00 -0.00000000000E+00 -0.49370391833E+03  0.49370391833E+03  0.00000000000E+00 0.  1.
          6    1    1    2  501    0  0.10010923181E+03 -0.13735247075E+03 -0.81766700548E+02  0.25525938344E+03  0.17200000000E+03 0. -1.
         -6    1    1    2    0  503 -0.10010923181E+03  0.13735247075E+03 -0.28023915432E+03  0.37014259837E+03  0.17200000000E+03 0. -1.
</event>
<event>
 4    1  0.5808486E+000  0.2294974E+03  0.7818608E-02  0.1126994E+00
         21   -1    0    0  503  502  0.00000000000E+00  0.00000000000E+00  0.50066435089E+02  0.50066435089E+02  0.00000000000E+00 0.  1.
         21   -1    0    0  501  503 -0.00000000000E+00 -0.00000000000E+00 -0.24589900782E+04  0.24589900782E+04  0.00000000000E+00 0. -1.
          6    1    1    2  501    0  0.55190904496E+02  0.14155919302E+03 -0.21534268172E+04  0.21656214115E+04  0.17200000000E+03 0. -1.
         -6    1    1    2    0  502 -0.55190904496E+02 -0.14155919302E+03 -0.25549682592E+03  0.34343510176E+03  0.17200000000E+03 0.  1.
</event>
<event>
 4    1  0.5808486E+000  0.1770924E+03  0.7818608E-02  0.1170647E+00
         21   -1    0    0  503  502  0.00000000000E+00  0.00000000000E+00  0.21991372732E+04  0.21991372732E+04  0.00000000000E+00 0.  1.
         21   -1    0    0  501  503 -0.00000000000E+00 -0.00000000000E+00 -0.26127840340E+02  0.26127840340E+02  0.00000000000E+00 0.  1.
          6    1    1    2  501    0  0.40989481479E+02 -0.98786078022E+01  0.33666405148E+03  0.38040032603E+03  0.17200000000E+03 0.  1.
         -6    1    1    2    0  502 -0.40989481479E+02  0.98786078022E+01  0.18363453814E+04  0.18448647875E+04  0.17200000000E+03 0.  1.
</event>
<event>
 4    1  0.5808486E+000  0.2412439E+03  0.7818608E-02  0.1118967E+00
         21   -1    0    0  501  502  0.00000000000E+00  0.00000000000E+00  0.10077756072E+03  0.10077756072E+03  0.00000000000E+00 0. -1.
         21   -1    0    0  502  503 -0.00000000000E+00 -0.00000000000E+00 -0.63494522696E+03  0.63494522696E+03  0.00000000000E+00 0.  1.
          6    1    1    2  501    0  0.51473763646E+02  0.16113686292E+03 -0.37773556686E+03  0.44819950402E+03  0.17200000000E+03 0. -1.
         -6    1    1    2    0  503 -0.51473763646E+02 -0.16113686292E+03 -0.15643209938E+03  0.28752328367E+03  0.17200000000E+03 0. -1.
</event>
<event>
 4    1  0.5808486E+000  0.1787216E+03  0.7818608E-02  0.1169046E+00
         21   -1    0    0  501  502  0.00000000000E+00  0.00000000000E+00  0.45109702842E+03  0.45109702842E+03  0.00000000000E+00 0.  1.
         21   -1    0    0  502  503 -0.00000000000E+00 -0.00000000000E+00 -0.25449871802E+03  0.25449871802E+03  0.00000000000E+00 0.  1.
          6    1    1    2  501    0  0.42977058622E+02  0.22591977114E+02  0.39802650976E+03  0.43631012763E+03  0.17200000000E+03 0.  1.
         -6    1    1    2    0  503 -0.42977058622E+02 -0.22591977114E+02 -0.20142819936E+03  0.26928561881E+03  0.17200000000E+03 0.  1.
</event>
<event>
 4    1  0.5808486E+000  0.2127011E+03  0.7818608E-02  0.1139445E+00
         21   -1    0    0  503  502  0.00000000000E+00  0.00000000000E+00  0.52888627632E+03  0.52888627632E+03  0.00000000000E+00 0. -1.
         21   -1    0    0  501  503 -0.00000000000E+00 -0.00000000000E+00 -0.13488443261E+03  0.13488443261E+03  0.00000000000E+00 0.  1.
          6    1    1    2  501    0 -0.44476864222E+02 -0.11695965432E+03 -0.37323804392E+01  0.21273383101E+03  0.17200000000E+03 0.  1.
         -6    1    1    2    0  502  0.44476864222E+02  0.11695965432E+03  0.39773422415E+03  0.45103687793E+03  0.17200000000E+03 0. -1.
</event>
<event>
 4    1  0.5808486E+000  0.2786024E+03  0.7818608E-02  0.1096455E+00
         21   -1    0    0  503  502  0.00000000000E+00  0.00000000000E+00  0.70821913305E+03  0.70821913305E+03  0.00000000000E+00 0.  1.
         21   -1    0    0  501  503 -0.00000000000E+00 -0.00000000000E+00 -0.18525418271E+03  0.18525418271E+03  0.00000000000E+00 0.  1.
          6    1    1    2  501    0 -0.21725184879E+03 -0.28929992680E+02 -0.24007036616E+02  0.27963484777E+03  0.17200000000E+03 0.  1.
         -6    1    1    2    0  502  0.21725184879E+03  0.28929992680E+02  0.54697198695E+03  0.61383846799E+03  0.17200000000E+03 0.  1.
</event>
<event>
 4    1  0.5808486E+000  0.1905686E+03  0.7818608E-02  0.1157949E+00
         21   -1    0    0  501  502  0.00000000000E+00  0.00000000000E+00  0.72172497375E+03  0.72172497375E+03  0.00000000000E+00 0. -1.
         21   -1    0    0  502  503 -0.00000000000E+00 -0.00000000000E+00 -0.51812982035E+02  0.51812982035E+02  0.00000000000E+00 0.  1.
          6    1    1    2  501    0 -0.60720591062E+02  0.55185250383E+02  0.40063408603E+03  0.44364859171E+03  0.17200000000E+03 0. -1.
         -6    1    1    2    0  503  0.60720591062E+02 -0.55185250383E+02  0.26927790569E+03  0.32988936407E+03  0.17200000000E+03 0.  1.
</event>
<event>
 4    1  0.5808486E+000  0.2015736E+03  0.7818608E-02  0.1148418E+00
         21   -1    0    0  503  502  0.00000000000E+00  0.00000000000E+00  0.46872902412E+02  0.46872902412E+02  0.00000000000E+00 0. -1.
         21   -1    0    0  501  503 -0.00000000000E+00 -0.00000000000E+00 -0.95245775203E+03  0.95245775203E+03  0.00000000000E+00 0. -1.
          6    1    1    2  501    0  0.98570937713E+02  0.36492489146E+02 -0.30299496319E+03  0.36392015504E+03  0.17200000000E+03 0. -1.
         -6    1    1    2    0  502 -0.98570937713E+02 -0.36492489146E+02 -0.60258988643E+03  0.63541049940E+03  0.17200000000E+03 0. -1.
</event>
<event>
 4    1  0.5808486E+000  0.2276863E+03  0.7818608E-02  0.1128279E+00
         21   -1    0    0  503  502  0.00000000000E+00  0.00000000000E+00  0.17252490344E+03  0.17252490344E+03  0.00000000000E+00 0.  1.
         21   -1    0    0  501  503 -0.00000000000E+00 -0.00000000000E+00 -0.38858864481E+03  0.38858864481E+03  0.00000000000E+00 0. -1.
          6    1    1    2  501    0 -0.10208065388E+02  0.14883831205E+03 -0.24162189917E+03  0.33199727392E+03  0.17200000000E+03 0. -1.
         -6    1    1    2    0  502  0.10208065388E+02 -0.14883831205E+03  0.25558157796E+02  0.22911627433E+03  0.17200000000E+03 0.  1.
</event>
<event>
 4    1  0.5808486E+000  0.2013431E+03  0.7818608E-02  0.1148611E+00
         21   -1    0    0  501  502  0.00000000000E+00  0.00000000000E+00  0.22987905432E+03  0.22987905432E+03  0.00000000000E+00 0. -1.
         21   -1    0    0  502  503 -0.00000000000E+00 -0.00000000000E+00 -0.25856133769E+03  0.25856133769E+03  0.00000000000E+00 0.  1.
          6    1    1    2  501    0  0.78946514582E+02  0.68720525710E+02  0.12336930454E+03  0.23613353875E+03  0.17200000000E+03 0. -1.
         -6    1    1    2    0  503 -0.78946514582E+02 -0.68720525710E+02 -0.15205158791E+03  0.25230685326E+03  0.17200000000E+03 0.  1.
</event>
<event>
 4    1  0.5808486E+000  0.2485323E+03  0.7818608E-02  0.1114236E+00
         21   -1    0    0  503  502  0.00000000000E+00  0.00000000000E+00  0.13912227714E+03  0.13912227714E+03  0.00000000000E+00 0.  1.
         21   -1    0    0  501  503 -0.00000000000E+00 -0.00000000000E+00 -0.76040430123E+03  0.76040430123E+03  0.00000000000E+00 0.  1.
          6    1    1    2  501    0 -0.14564667068E+03  0.10474432647E+03 -0.60077098783E+03  0.65014929549E+03  0.17200000000E+03 0.  1.
         -6    1    1    2    0  502  0.14564667068E+03 -0.10474432647E+03 -0.20511036260E+02  0.24937728288E+03  0.17200000000E+03 0.  1.
</event>
<event>
 4    1  0.5808486E+000  0.1820563E+03  0.7818608E-02  0.1165828E+00
         21   -1    0    0  501  502  0.00000000000E+00  0.00000000000E+00  0.98651818939E+03  0.98651818939E+03  0.00000000000E+00 0.  1.
         21   -1    0    0  502  503 -0.00000000000E+00 -0.00000000000E+00 -0.33600365271E+02  0.33600365271E+02  0.00000000000E+00 0.  1.
          6    1    1    2  501    0 -0.39843831046E+02 -0.44418019907E+02  0.48121339509E+03  0.51450055683E+03  0.17200000000E+03 0. -1.
         -6    1    1    2    0  503  0.39843831046E+02  0.44418019907E+02  0.47170442903E+03  0.50561799783E+03  0.17200000000E+03 0. -1.
</event>
<event>
 4    1  0.5808486E+000  0.2506673E+03  0.7818608E-02  0.1112884E+00
         21   -1    0    0  503  502  0.00000000000E+00  0.00000000000E+00  0.11244397490E+03  0.11244397490E+03  0.00000000000E+00 0.  1.
         21   -1    0    0  501  503 -0.00000000000E+00 -0.00000000000E+00 -0.58716865811E+03  0.58716865811E+03  0.00000000000E+00 0.  1.
          6    1    1    2  501    0  0.11980908521E+03 -0.13746230159E+03 -0.16047801242E+03  0.29763617678E+03  0.17200000000E+03 0.  1.
         -6    1    1    2    0  502 -0.11980908521E+03  0.13746230159E+03 -0.31424667079E+03  0.40197645623E+03  0.17200000000E+03 0.  1.
</event>
<event>
 4    1  0.5808486E+000  0.7881403E+03  0.7818608E-02  0.9577344E-01
         21   -1    0    0  503  502  0.00000000000E+00  0.00000000000E+00  0.51741506134E+03  0.51741506134E+03  0.00000000000E+00 0. -1.
         21   -1    0    0  501  503 -0.00000000000E+00 -0.00000000000E+00 -0.12593700825E+04  0.12593700825E+04  0.00000000000E+00 0.  1.
          6    1    1    2  501    0 -0.24590637401E+03 -0.72877375720E+03 -0.56302825752E+03  0.96858967201E+03  0.17200000000E+03 0.  1.
         -6    1    1    2    0  502  0.24590637401E+03  0.72877375720E+03 -0.17892676366E+03  0.80819547185E+03  0.17200000000E+03 0. -1.
</event>
<event>
 4    1  0.5808486E+000  0.2250838E+03  0.7818608E-02  0.1130149E+00
         21   -1    0    0  503  502  0.00000000000E+00  0.00000000000E+00  0.27434516104E+03  0.27434516104E+03  0.00000000000E+00 0.  1.
         21   -1    0    0  501  503 -0.00000000000E+00 -0.00000000000E+00 -0.24486990822E+03  0.24486990822E+03  0.00000000000E+00 0.  1.
          6    1    1    2  501    0  0.54741822942E+02  0.13446943019E+03 -0.11398524812E+03  0.25230008249E+03  0.17200000000E+03 0.  1.
         -6    1    1    2    0  502 -0.54741822942E+02 -0.13446943019E+03  0.14346050094E+03  0.26691498678E+03  0.17200000000E+03 0.  1.
</event>
<event>
 4    1  0.5808486E+000  0.1821590E+03  0.7818608E-02  0.1165730E+00
         21   -1    0    0  501  502  0.00000000000E+00  0.00000000000E+00  0.80297589670E+02  0.80297589670E+02  0.00000000000E+00 0. -1.
         21   -1    0    0  502  503 -0.00000000000E+00 -0.00000000000E+00 -0.65328626529E+03  0.65328626529E+03  0.00000000000E+00 0. -1.
          6    1    1    2  501    0 -0.49487737542E+01  0.59777966971E+02 -0.64153806497E+02  0.19312588274E+03  0.17200000000E+03 0. -1.
         -6    1    1    2    0  503  0.49487737542E+01 -0.59777966971E+02 -0.50883486912E+03  0.54045797222E+03  0.17200000000E+03 0. -1.
</event>
<event>
 4    1  0.5808486E+000  0.1859746E+03  0.7818608E-02  0.1162143E+00
         21   -1    0    0  503  502  0.00000000000E+00  0.00000000000E+00  0.13258022059E+03  0.13258022059E+03  0.00000000000E+00 0.  1.
         21   -1    0    0  501  503 -0.00000000000E+00 -0.00000000000E+00 -0.26747171124E+03  0.26747171124E+03  0.00000000000E+00 0.  1.
          6    1    1    2  501    0  0.70980276595E+01  0.70371780211E+02 -0.98864181572E+02  0.21061978977E+03  0.17200000000E+03 0.  1.
         -6    1    1    2    0  502 -0.70980276595E+01 -0.70371780211E+02 -0.36027309080E+02  0.18943214206E+03  0.17200000000E+03 0.  1.
</event>
<event>
 4    1  0.5808486E+000  0.1884444E+03  0.7818608E-02  0.1159872E+00
         21   -1    0    0  501  502  0.00000000000E+00  0.00000000000E+00  0.18668197654E+03  0.18668197654E+03  0.00000000000E+00 0.  1.
         21   -1    0    0  502  503 -0.00000000000E+00 -0.00000000000E+00 -0.20471178021E+03  0.20471178021E+03  0.00000000000E+00 0.  1.
          6    1    1    2  501    0 -0.11239608647E+02  0.76164134178E+02 -0.61076858198E+02  0.19809514569E+03  0.17200000000E+03 0.  1.
         -6    1    1    2    0  503  0.11239608647E+02 -0.76164134178E+02  0.43047054528E+02  0.19329861107E+03  0.17200000000E+03 0.  1.
</event>
<event>
 4    1  0.5808486E+000  0.1876724E+03  0.7818608E-02  0.1160578E+00
         21   -1    0    0  503  502  0.00000000000E+00  0.00000000000E+00  0.63102501804E+03  0.63102501804E+03  0.00000000000E+00 0.  1.
         21   -1    0    0  501  503 -0.00000000000E+00 -0.00000000000E+00 -0.18182122582E+03  0.18182122582E+03  0.00000000000E+00 0.  1.
          6    1    1    2  501    0  0.71027366193E+02 -0.24332294379E+02 -0.11373654022E+03  0.21944691358E+03  0.17200000000E+03 0.  1.
         -6    1    1    2    0  502 -0.71027366193E+02  0.24332294379E+02  0.56294033243E+03  0.59339933028E+03  0.17200000000E+03 0.  1.
</event>
<event>
 4    1  0.5808486E+000  0.2173573E+03  0.7818608E-02  0.1135869E+00
         21   -1    0    0  503  502  0.00000000000E+00  0.00000000000E+00  0.82552089640E+02  0.82552089640E+02  0.00000000000E+00 0.  1.
         21   -1    0    0  501  503 -0.00000000000E+00 -0.00000000000E+00 -0.11010949095E+04  0.11010949095E+04  0.00000000000E+00 0.  1.
          6    1    1    2  501    0  0.93207274691E+02  0.94723734978E+02 -0.91940500589E+03  0.94474850986E+03  0.17200000000E+03 0.  1.
         -6    1    1    2    0  502 -0.93207274691E+02 -0.94723734978E+02 -0.99137813973E+02  0.23889848929E+03  0.17200000000E+03 0.  1.
</event>
<event>
 4    1  0.5808486E+000  0.1808174E+03  0.7818608E-02  0.1167014E+00
         21   -1    0    0  503  502  0.00000000000E+00  0.00000000000E+00  0.23472470841E+03  0.23472470841E+03  0.00000000000E+00 0. -1.
         21   -1    0    0  501  503 -0.00000000000E+00 -0.00000000000E+00 -0.19214854610E+03  0.19214854610E+03  0.00000000000E+00 0. -1.
          6    1    1    2  501    0 -0.86298770164E+01  0.55104101749E+02  0.13323333659E+03  0.22460200085E+03  0.17200000000E+03 0. -1.
         -6    1    1    2    0  502  0.86298770164E+01 -0.55104101749E+02 -0.90657174279E+02  0.20227125366E+03  0.17200000000E+03 0. -1.
</event>
<event>
 4    1  0.5808486E+000  0.1855484E+03  0.7818608E-02  0.1162539E+00
         21   -1    0    0  503  502  0.00000000000E+00  0.00000000000E+00  0.14248080053E+03  0.14248080053E+03  0.00000000000E+00 0.  1.
         21   -1    0    0  501  503 -0.00000000000E+00 -0.00000000000E+00 -0.26118891855E+03  0.26118891855E+03  0.00000000000E+00 0.  1.
          6    1    1    2  501    0  0.65012638958E+02  0.24850617414E+02 -0.11458056112E+03  0.21807544886E+03  0.17200000000E+03 0. -1.
         -6    1    1    2    0  502 -0.65012638958E+02 -0.24850617414E+02 -0.41275569063E+01  0.18559427021E+03  0.17200000000E+03 0. -1.
</event>
<event>
 4    1  0.5808486E+000  0.2107804E+03  0.7818608E-02  0.1140950E+00
         21   -1    0    0  503  502  0.00000000000E+00  0.00000000000E+00  0.73679455899E+02  0.73679455899E+02  0.00000000000E+00 0.  1.
         21   -1    0    0  501  503 -0.00000000000E+00 -0.00000000000E+00 -0.65373012778E+03  0.65373012778E+03  0.00000000000E+00 0.  1.
          6    1    1    2  501    0 -0.12127022060E+03 -0.11742764439E+02 -0.39134721999E+03  0.44450084985E+03  0.17200000000E+03 0.  1.
         -6    1    1    2    0  502  0.12127022060E+03  0.11742764439E+02 -0.18870345189E+03  0.28290873383E+03  0.17200000000E+03 0.  1.
</event>
<event>
 4    1  0.5808486E+000  0.1790677E+03  0.7818608E-02  0.1168708E+00
         21   -1    0    0  501  502  0.00000000000E+00  0.00000000000E+00  0.62708905831E+02  0.62708905831E+02  0.00000000000E+00 0. -1.
         21   -1    0    0  502  503 -0.00000000000E+00 -0.00000000000E+00 -0.82903653636E+03  0.82903653636E+03  0.00000000000E+00 0. -1.
          6    1    1    2  501    0  0.21225635878E+02 -0.45063415526E+02 -0.10714802017E+03  0.20867663325E+03  0.17200000000E+03 0. -1.
         -6    1    1    2    0  503 -0.21225635878E+02  0.45063415526E+02 -0.65917961035E+03  0.68306880894E+03  0.17200000000E+03 0. -1.
</event>
<event>
 4    1  0.5808486E+000  0.1797966E+03  0.7818608E-02  0.1168000E+00
         21   -1    0    0  501  502  0.00000000000E+00  0.00000000000E+00  0.60785236494E+03  0.60785236494E+03  0.00000000000E+00 0.  1.
         21   -1    0    0  502  503 -0.00000000000E+00 -0.00000000000E+00 -0.53199922029E+02  0.53199922029E+02  0.00000000000E+00 0.  1.
          6    1    1    2  501    0  0.34462782295E+02 -0.39435170200E+02  0.27126285571E+03  0.32543870836E+03  0.17200000000E+03 0.  1.
         -6    1    1    2    0  503 -0.34462782295E+02  0.39435170200E+02  0.28338958720E+03  0.33561357861E+03  0.17200000000E+03 0.  1.
</event>
<event>
 4    1  0.5808486E+000  0.2046217E+03  0.7818608E-02  0.1145897E+00
         21   -1    0    0  501  502  0.00000000000E+00  0.00000000000E+00  0.12039951110E+03  0.12039951110E+03  0.00000000000E+00 0. -1.
         21   -1    0    0  502  503 -0.00000000000E+00 -0.00000000000E+00 -0.34961887642E+03  0.34961887642E+03  0.00000000000E+00 0. -1.
          6    1    1    2  501    0 -0.10960961954E+03 -0.16484898066E+02 -0.13175015136E+03  0.24336828664E+03  0.17200000000E+03 0. -1.
         -6    1    1    2    0  503  0.10960961954E+03  0.16484898066E+02 -0.97469213966E+02  0.22665010088E+03  0.17200000000E+03 0. -1.
</event>
<event>
 4    1  0.5808486E+000  0.2096916E+03  0.7818608E-02  0.1141810E+00
         21   -1    0    0  501  502  0.00000000000E+00  0.00000000000E+00  0.68718024054E+03  0.68718024054E+03  0.00000000000E+00 0. -1.
         21   -1    0    0  502  503 -0.00000000000E+00 -0.00000000000E+00 -0.73218926696E+02  0.73218926696E+02  0.00000000000E+00 0. -1.
          6    1    1    2  501    0  0.32662664817E+02 -0.11541114307E+03  0.44198471742E+03  0.48920452987E+03  0.17200000000E+03 0. -1.
         -6    1    1    2    0  503 -0.32662664817E+02  0.11541114307E+03  0.17197659643E+03  0.27119463737E+03  0.17200000000E+03 0. -1.
</event>
<event>
 4    1  0.5808486E+000  0.1942796E+03  0.7818608E-02  0.1154657E+00
         21   -1    0    0  501  502  0.00000000000E+00  0.00000000000E+00  0.20403831889E+03  0.20403831889E+03  0.00000000000E+00 0.  1.
         21   -1    0    0  502  503 -0.00000000000E+00 -0.00000000000E+00 -0.18729887263E+03  0.18729887263E+03  0.00000000000E+00 0.  1.
          6    1    1    2  501    0 -0.39086716626E+02 -0.81441987613E+02 -0.13366025448E+02  0.19473884923E+03  0.17200000000E+03 0.  1.
         -6    1    1    2    0  503  0.39086716626E+02  0.81441987613E+02  0.30105471704E+02  0.19659834229E+03  0.17200000000E+03 0.  1.
</event>
<event>
 4    1  0.5808486E+000  0.2234076E+03  0.7818608E-02  0.1131368E+00
         21   -1    0    0  501  502  0.00000000000E+00  0.00000000000E+00  0.84858261543E+02  0.84858261543E+02  0.00000000000E+00 0. -1.
         21   -1    0    0  502  503 -0.00000000000E+00 -0.00000000000E+00 -0.60055687134E+03  0.60055687134E+03  0.00000000000E+00 0. -1.
          6    1    1    2  501    0 -0.10653264620E+03  0.94751089935E+02 -0.20862833728E+03  0.30567426596E+03  0.17200000000E+03 0. -1.
         -6    1    1    2    0  503  0.10653264620E+03 -0.94751089935E+02 -0.30707027251E+03  0.37974086692E+03  0.17200000000E+03 0. -1.
</event>
<event>
 4    1  0.5808486E+000  0.2127076E+03  0.7818608E-02  0.1139440E+00
         21   -1    0    0  501  502  0.00000000000E+00  0.00000000000E+00  0.66126016569E+03  0.66126016569E+03  0.00000000000E+00 0.  1.
         21   -1    0    0  502  503 -0.00000000000E+00 -0.00000000000E+00 -0.69060116612E+02  0.69060116612E+02  0.00000000000E+00 0.  1.
          6    1    1    2  501    0  0.10833673516E+03 -0.62639174244E+02  0.33121055652E+03  0.39363047022E+03  0.17200000000E+03 0.  1.
         -6    1    1    2    0  503 -0.10833673516E+03  0.62639174244E+02  0.26098949256E+03  0.33668981208E+03  0.17200000000E+03 0.  1.
</event>
<event>
 4    1  0.5808486E+000  0.1949418E+03  0.7818608E-02  0.1154078E+00
         21   -1    0    0  501  502  0.00000000000E+00  0.00000000000E+00  0.25416114426E+03  0.25416114426E+03  0.00000000000E+00 0.  1.
         21   -1    0    0  502  503 -0.00000000000E+00 -0.00000000000E+00 -0.15861747902E+03  0.15861747902E+03  0.00000000000E+00 0.  1.
          6    1    1    2  501    0  0.11976823172E+02 -0.90966211427E+02  0.97198438665E+02  0.21782982439E+03  0.17200000000E+03 0.  1.
         -6    1    1    2    0  503 -0.11976823172E+02  0.90966211427E+02 -0.16547734312E+01  0.19494879889E+03  0.17200000000E+03 0.  1.
</event>
<event>
 4    1  0.5808486E+000  0.1817277E+03  0.7818608E-02  0.1166141E+00
         21   -1    0    0  503  502  0.00000000000E+00  0.00000000000E+00  0.37907249845E+03  0.37907249845E+03  0.00000000000E+00 0. -1.
         21   -1    0    0  501  503 -0.00000000000E+00 -0.00000000000E+00 -0.11744740397E+03  0.11744740397E+03  0.00000000000E+00 0.  1.
          6    1    1    2  501    0 -0.58588132935E+02  0.28961133362E+01  0.46589795584E+01  0.18178741124E+03  0.17200000000E+03 0.  1.
         -6    1    1    2    0  502  0.58588132935E+02 -0.28961133362E+01  0.25696611492E+03  0.31473249119E+03  0.17200000000E+03 0. -1.
</event>
<event>
 4    1  0.5808486E+000  0.2086651E+03  0.7818608E-02  0.1142627E+00
         21   -1    0    0  501  502  0.00000000000E+00  0.00000000000E+00  0.55115422678E+02  0.55115422678E+02  0.00000000000E+00 0. -1.
         21   -1    0    0  502  503 -0.00000000000E+00 -0.00000000000E+00 -0.13872727715E+04  0.13872727715E+04  0.00000000000E+00 0. -1.
          6    1    1    2  501    0  0.17811730915E+02  0.11678990218E+03 -0.19286434531E+03  0.28414396827E+03  0.17200000000E+03 0. -1.
         -6    1    1    2    0  503 -0.17811730915E+02 -0.11678990218E+03 -0.11392930036E+04  0.11582442260E+04  0.17200000000E+03 0. -1.
</event>
<event>
 4    1  0.5808486E+000  0.2178178E+03  0.7818608E-02  0.1135520E+00
         21   -1    0    0  501  502  0.00000000000E+00  0.00000000000E+00  0.11824535117E+04  0.11824535117E+04  0.00000000000E+00 0. -1.
         21   -1    0    0  502  503 -0.00000000000E+00 -0.00000000000E+00 -0.51197270221E+02  0.51197270221E+02  0.00000000000E+00 0. -1.
          6    1    1    2  501    0 -0.12074401290E+03 -0.57284318684E+02  0.85249430565E+03  0.87988132779E+03  0.17200000000E+03 0. -1.
         -6    1    1    2    0  503  0.12074401290E+03  0.57284318684E+02  0.27876193587E+03  0.35376945418E+03  0.17200000000E+03 0. -1.
</event>
<event>
 4    1  0.5808486E+000  0.2568081E+03  0.7818608E-02  0.1109076E+00
         21   -1    0    0  503  502  0.00000000000E+00  0.00000000000E+00  0.44279247118E+03  0.44279247118E+03  0.00000000000E+00 0. -1.
         21   -1    0    0  501  503 -0.00000000000E+00 -0.00000000000E+00 -0.15441967749E+03  0.15441967749E+03  0.00000000000E+00 0. -1.
          6    1    1    2  501    0 -0.12173038290E+03  0.14679273101E+03  0.20042647649E+03  0.32576243564E+03  0.17200000000E+03 0. -1.
         -6    1    1    2    0  502  0.12173038290E+03 -0.14679273101E+03  0.87946317201E+02  0.27144971303E+03  0.17200000000E+03 0. -1.
</event>
<event>
 4    1  0.5808486E+000  0.1987435E+03  0.7818608E-02  0.1150804E+00
         21   -1    0    0  501  502  0.00000000000E+00  0.00000000000E+00  0.21217451292E+03  0.21217451292E+03  0.00000000000E+00 0. -1.
         21   -1    0    0  502  503 -0.00000000000E+00 -0.00000000000E+00 -0.33194713184E+03  0.33194713184E+03  0.00000000000E+00 0. -1.
          6    1    1    2  501    0  0.12390492982E+02  0.98799974448E+02 -0.24018279759E+03  0.31174787173E+03  0.17200000000E+03 0. -1.
         -6    1    1    2    0  503 -0.12390492982E+02 -0.98799974448E+02  0.12041017866E+03  0.23237377303E+03  0.17200000000E+03 0. -1.
</event>
<event>
 4    1  0.5808486E+000  0.2181585E+03  0.7818608E-02  0.1135263E+00
         21   -1    0    0  503  502  0.00000000000E+00  0.00000000000E+00  0.84011961687E+03  0.84011961687E+03  0.00000000000E+00 0. -1.
         21   -1    0    0  501  503 -0.00000000000E+00 -0.00000000000E+00 -0.63458199210E+02  0.63458199210E+02  0.00000000000E+00 0. -1.
          6    1    1    2  501    0 -0.44505301988E+02 -0.12660343619E+03  0.24035393407E+03  0.32459692787E+03  0.17200000000E+03 0. -1.
         -6    1    1    2    0  502  0.44505301988E+02  0.12660343619E+03  0.53630748359E+03  0.57898088821E+03  0.17200000000E+03 0. -1.
</event>
<event>
 4    1  0.5808486E+000  0.2751873E+03  0.7818608E-02  0.1098347E+00
         21   -1    0    0  501  502  0.00000000000E+00  0.00000000000E+00  0.86857087614E+02  0.86857087614E+02  0.00000000000E+00 0.  1.
         21   -1    0    0  502  503 -0.00000000000E+00 -0.00000000000E+00 -0.10110260973E+04  0.10110260973E+04  0.00000000000E+00 0.  1.
          6    1    1    2  501    0  0.20509240391E+03 -0.63883803526E+02 -0.25842857787E+03  0.37750942286E+03  0.17200000000E+03 0. -1.
         -6    1    1    2    0  503 -0.20509240391E+03  0.63883803526E+02 -0.66574043186E+03  0.72037376209E+03  0.17200000000E+03 0. -1.
</event>
<event>
 4    1  0.5808486E+000  0.2714685E+03  0.7818608E-02  0.1100442E+00
         21   -1    0    0  503  502  0.00000000000E+00  0.00000000000E+00  0.27959065241E+03  0.27959065241E+03  0.00000000000E+00 0. -1.
         21   -1    0    0  501  503 -0.00000000000E+00 -0.00000000000E+00 -0.42155479441E+03  0.42155479441E+03  0.00000000000E+00 0.  1.
          6    1    1    2  501    0 -0.20993069453E+03 -0.63432484091E+01 -0.28558809687E+03  0.39402499208E+03  0.17200000000E+03 0.  1.
         -6    1    1    2    0  502  0.20993069453E+03  0.63432484091E+01  0.14362395487E+03  0.30712045474E+03  0.17200000000E+03 0. -1.
</event>
<event>
 4    1  0.5808486E+000  0.2834862E+03  0.7818608E-02  0.1093800E+00
         21   -1    0    0  503  502  0.00000000000E+00  0.00000000000E+00  0.56251893424E+02  0.56251893424E+02  0.00000000000E+00 0. -1.
         21   -1    0    0  501  503 -0.00000000000E+00 -0.00000000000E+00 -0.16469374591E+04  0.16469374591E+04  0.00000000000E+00 0. -1.
          6    1    1    2  501    0 -0.21030555005E+03  0.80944258872E+02 -0.11053747528E+04  0.11411475547E+04  0.17200000000E+03 0. -1.
         -6    1    1    2    0  502  0.21030555005E+03 -0.80944258872E+02 -0.48531081287E+03  0.56204179784E+03  0.17200000000E+03 0. -1.
</event>
<event>
 4    1  0.5808486E+000  0.1776873E+03  0.7818608E-02  0.1170060E+00
         21   -1    0    0  501  502  0.00000000000E+00  0.00000000000E+00  0.33068461645E+02  0.33068461645E+02  0.00000000000E+00 0. -1.
         21   -1    0    0  502  503 -0.00000000000E+00 -0.00000000000E+00 -0.15334010820E+04  0.15334010820E+04  0.00000000000E+00 0. -1.
          6    1    1    2  501    0 -0.35642695011E+02 -0.26802589527E+02 -0.26903358720E+03  0.32241565029E+03  0.17200000000E+03 0. -1.
         -6    1    1    2    0  503  0.35642695011E+02  0.26802589527E+02 -0.12312990332E+04  0.12440538934E+04  0.17200000000E+03 0. -1.
</event>
<event>
 4    1  0.5808486E+000  0.1824163E+03  0.7818608E-02  0.1165485E+00
         21   -1    0    0  501  502  0.00000000000E+00  0.00000000000E+00  0.17633109098E+04  0.17633109098E+04  0.00000000000E+00 0.  1.
         21   -1    0    0  502  503 -0.00000000000E+00 -0.00000000000E+00 -0.19711581506E+02  0.19711581506E+02  0.00000000000E+00 0.  1.
          6    1    1    2  501    0  0.97939276005E+01 -0.59964732183E+02  0.68771424718E+03  0.71149601257E+03  0.17200000000E+03 0.  1.
         -6    1    1    2    0  503 -0.97939276005E+01  0.59964732183E+02  0.10558850811E+04  0.10715264788E+04  0.17200000000E+03 0.  1.
</event>
<event>
 4    1  0.5808486E+000  0.2155465E+03  0.7818608E-02  0.1137248E+00
         21   -1    0    0  501  502  0.00000000000E+00  0.00000000000E+00  0.18344287910E+03  0.18344287910E+03  0.00000000000E+00 0. -1.
         21   -1    0    0  502  503 -0.00000000000E+00 -0.00000000000E+00 -0.27683630907E+03  0.27683630907E+03  0.00000000000E+00 0. -1.
          6    1    1    2  501    0  0.84765928739E+02  0.98442993910E+02  0.20452398285E+02  0.21651463304E+03  0.17200000000E+03 0. -1.
         -6    1    1    2    0  503 -0.84765928739E+02 -0.98442993910E+02 -0.11384582825E+03  0.24376455513E+03  0.17200000000E+03 0. -1.
</event>
<event>
 4    1  0.5808486E+000  0.1992402E+03  0.7818608E-02  0.1150382E+00
         21   -1    0    0  503  502  0.00000000000E+00  0.00000000000E+00  0.17667290528E+03  0.17667290528E+03  0.00000000000E+00 0.  1.
         21   -1    0    0  501  503 -0.00000000000E+00 -0.00000000000E+00 -0.25948080724E+03  0.25948080724E+03  0.00000000000E+00 0.  1.
          6    1    1    2  501    0  0.22701957570E+02 -0.97965611614E+02 -0.12125654691E+03  0.23323762584E+03  0.17200000000E+03 0.  1.
         -6    1    1    2    0  502 -0.22701957570E+02  0.97965611614E+02  0.38448644950E+02  0.20291608668E+03  0.17200000000E+03 0.  1.
</event>
<event>
 4    1  0.5808486E+000  0.3705851E+03  0.7818608E-02  0.1054469E+00
         21   -1    0    0  503  502  0.00000000000E+00  0.00000000000E+00  0.51111813649E+03  0.51111813649E+03  0.00000000000E+00 0. -1.
         21   -1    0    0  501  503 -0.00000000000E+00 -0.00000000000E+00 -0.45139924698E+03  0.45139924698E+03  0.00000000000E+00 0. -1.
          6    1    1    2  501    0 -0.13281179393E+03 -0.30018387768E+03 -0.27632005377E+03  0.46226194429E+03  0.17200000000E+03 0. -1.
         -6    1    1    2    0  502  0.13281179393E+03  0.30018387768E+03  0.33603894328E+03  0.50025543917E+03  0.17200000000E+03 0. -1.
</event>
<event>
 4    1  0.5808486E+000  0.2287868E+03  0.7818608E-02  0.1127497E+00
         21   -1    0    0  503  502  0.00000000000E+00  0.00000000000E+00  0.90452401218E+03  0.90452401218E+03  0.00000000000E+00 0.  1.
         21   -1    0    0  501  503 -0.00000000000E+00 -0.00000000000E+00 -0.98894344279E+02  0.98894344279E+02  0.00000000000E+00 0.  1.
          6    1    1    2  501    0  0.69877668590E+02 -0.13370310780E+03  0.79671422472E+02  0.24226214141E+03  0.17200000000E+03 0.  1.
         -6    1    1    2    0  502 -0.69877668590E+02  0.13370310780E+03  0.72595824543E+03  0.76115621505E+03  0.17200000000E+03 0.  1.
</event>
<event>
 4    1  0.5808486E+000  0.2754913E+03  0.7818608E-02  0.1098177E+00
         21   -1    0    0  503  502  0.00000000000E+00  0.00000000000E+00  0.41191567345E+03  0.41191567345E+03  0.00000000000E+00 0. -1.
         21   -1    0    0  501  503 -0.00000000000E+00 -0.00000000000E+00 -0.22640030904E+03  0.22640030904E+03  0.00000000000E+00 0.  1.
          6    1    1    2  501    0 -0.21115285974E+03  0.41544300780E+02 -0.44953004385E+02  0.27913479129E+03  0.17200000000E+03 0. -1.
         -6    1    1    2    0  502  0.21115285974E+03 -0.41544300780E+02  0.23046836879E+03  0.35918119121E+03  0.17200000000E+03 0.  1.
</event>
<event>
 4    1  0.5808486E+000  0.2667099E+03  0.7818608E-02  0.1103177E+00
         21   -1    0    0  503  502  0.00000000000E+00  0.00000000000E+00  0.27426632464E+03  0.27426632464E+03  0.00000000000E+00 0.  1.
         21   -1    0    0  501  503 -0.00000000000E+00 -0.00000000000E+00 -0.31680996956E+03  0.31680996956E+03  0.00000000000E+00 0.  1.
          6    1    1    2  501    0  0.20039249715E+03 -0.37323275139E+02 -0.14712164514E+03  0.30459638581E+03  0.17200000000E+03 0.  1.
         -6    1    1    2    0  502 -0.20039249715E+03  0.37323275139E+02  0.10457800022E+03  0.28647990839E+03  0.17200000000E+03 0.  1.
</event>
<event>
 4    1  0.5808486E+000  0.1941061E+03  0.7818608E-02  0.1154809E+00
         21   -1    0    0  503  502  0.00000000000E+00  0.00000000000E+00  0.72899095319E+02  0.72899095319E+02  0.00000000000E+00 0. -1.
         21   -1    0    0  501  503 -0.00000000000E+00 -0.00000000000E+00 -0.60318267503E+03  0.60318267503E+03  0.00000000000E+00 0. -1.
          6    1    1    2  501    0 -0.89304021281E+02  0.10862207075E+02 -0.39303768549E+03  0.43835581207E+03  0.17200000000E+03 0. -1.
         -6    1    1    2    0  502  0.89304021281E+02 -0.10862207075E+02 -0.13724589422E+03  0.23772595828E+03  0.17200000000E+03 0. -1.
</event>
<event>
 4    1  0.5808486E+000  0.1900317E+03  0.7818608E-02  0.1158433E+00
         21   -1    0    0  503  502  0.00000000000E+00  0.00000000000E+00  0.20876983838E+04  0.20876983838E+04  0.00000000000E+00 0. -1.
         21   -1    0    0  501  503 -0.00000000000E+00 -0.00000000000E+00 -0.21850302463E+02  0.21850302463E+02  0.00000000000E+00 0. -1.
          6    1    1    2  501    0  0.80672405494E+02  0.44734012514E+01  0.15143929860E+04  0.15262693616E+04  0.17200000000E+03 0. -1.
         -6    1    1    2    0  502 -0.80672405494E+02 -0.44734012514E+01  0.55145509537E+03  0.58327932463E+03  0.17200000000E+03 0. -1.
</event>
<event>
 4    1  0.5808486E+000  0.2312993E+03  0.7818608E-02  0.1125729E+00
         21   -1    0    0  501  502  0.00000000000E+00  0.00000000000E+00  0.37361666490E+03  0.37361666490E+03  0.00000000000E+00 0.  1.
         21   -1    0    0  502  503 -0.00000000000E+00 -0.00000000000E+00 -0.17082688854E+03  0.17082688854E+03  0.00000000000E+00 0.  1.
          6    1    1    2  501    0  0.80940854301E+02 -0.13177228422E+03 -0.80925686435E+01  0.23144080550E+03  0.17200000000E+03 0.  1.
         -6    1    1    2    0  503 -0.80940854301E+02  0.13177228422E+03  0.21088234500E+03  0.31300274794E+03  0.17200000000E+03 0.  1.
</event>
<event>
 4    1  0.5808486E+000  0.1980581E+03  0.7818608E-02  0.1151388E+00
         21   -1    0    0  503  502  0.00000000000E+00  0.00000000000E+00  0.10531593151E+03  0.10531593151E+03  0.00000000000E+00 0.  1.
         21   -1    0    0  501  503 -0.00000000000E+00 -0.00000000000E+00 -0.74159260445E+03  0.74159260445E+03  0.00000000000E+00 0.  1.
          6    1    1    2  501    0 -0.97935312878E+02 -0.71883884290E+01 -0.61688928205E+03  0.64790383912E+03  0.17200000000E+03 0.  1.
         -6    1    1    2    0  502  0.97935312878E+02  0.71883884290E+01 -0.19387390893E+02  0.19900469683E+03  0.17200000000E+03 0.  1.
</event>
<event>
 4    1  0.5808486E+000  0.1921948E+03  0.7818608E-02  0.1156497E+00
         21   -1    0    0  501  502  0.00000000000E+00  0.00000000000E+00  0.46022258563E+03  0.46022258563E+03  0.00000000000E+00 0.  1.
         21   -1    0    0  502  503 -0.00000000000E+00 -0.00000000000E+00 -0.13821458366E+03  0.13821458366E+03  0.00000000000E+00 0.  1.
          6    1    1    2  501    0 -0.55386792641E+02 -0.65476273302E+02 -0.32747169292E+02  0.19496465388E+03  0.17200000000E+03 0.  1.
         -6    1    1    2    0  503  0.55386792641E+02  0.65476273302E+02  0.35475517126E+03  0.40347251542E+03  0.17200000000E+03 0.  1.
</event>
<event>
 4    1  0.5808486E+000  0.2091480E+03  0.7818608E-02  0.1142242E+00
         21   -1    0    0  503  502  0.00000000000E+00  0.00000000000E+00  0.21948597466E+03  0.21948597466E+03  0.00000000000E+00 0. -1.
         21   -1    0    0  501  503 -0.00000000000E+00 -0.00000000000E+00 -0.39877000214E+03  0.39877000214E+03  0.00000000000E+00 0.  1.
          6    1    1    2  501    0 -0.83167560789E+02 -0.85100243868E+02 -0.30827674725E+03  0.37252845203E+03  0.17200000000E+03 0.  1.
         -6    1    1    2    0  502  0.83167560789E+02  0.85100243868E+02  0.12899271977E+03  0.24572752477E+03  0.17200000000E+03 0.  1.
</event>
<event>
 4    1  0.5808486E+000  0.2592727E+03  0.7818608E-02  0.1107581E+00
         21   -1    0    0  503  502  0.00000000000E+00  0.00000000000E+00  0.21583138869E+03  0.21583138869E+03  0.00000000000E+00 0. -1.
         21   -1    0    0  501  503 -0.00000000000E+00 -0.00000000000E+00 -0.40145728582E+03  0.40145728582E+03  0.00000000000E+00 0.  1.
          6    1    1    2  501    0 -0.17282557023E+03  0.88145620208E+02 -0.23894958875E+03  0.35258932776E+03  0.17200000000E+03 0. -1.
         -6    1    1    2    0  502  0.17282557023E+03 -0.88145620208E+02  0.53323691622E+02  0.26469934676E+03  0.17200000000E+03 0.  1.
</event>
<event>
 4    1  0.5808486E+000  0.1949261E+03  0.7818608E-02  0.1154092E+00
         21   -1    0    0  503  502  0.00000000000E+00  0.00000000000E+00  0.10769294566E+04  0.10769294566E+04  0.00000000000E+00 0.  1.
         21   -1    0    0  501  503 -0.00000000000E+00 -0.00000000000E+00 -0.35531673238E+02  0.35531673238E+02  0.00000000000E+00 0. -1.
          6    1    1    2  501    0 -0.91666335293E+02 -0.30747042380E+01  0.47406766617E+03  0.51257811399E+03  0.17200000000E+03 0. -1.
         -6    1    1    2    0  502  0.91666335293E+02  0.30747042380E+01  0.56733011722E+03  0.59988301588E+03  0.17200000000E+03 0. -1.
</event>
<event>
 4    1  0.5808486E+000  0.1994878E+03  0.7818608E-02  0.1150172E+00
         21   -1    0    0  503  502  0.00000000000E+00  0.00000000000E+00  0.34481663533E+03  0.34481663533E+03  0.00000000000E+00 0.  1.
         21   -1    0    0  501  503 -0.00000000000E+00 -0.00000000000E+00 -0.12217744081E+03  0.12217744081E+03  0.00000000000E+00 0. -1.
          6    1    1    2  501    0 -0.31736460111E+02  0.95938419321E+02  0.56366873056E+02  0.20729835402E+03  0.17200000000E+03 0. -1.
         -6    1    1    2    0  502  0.31736460111E+02 -0.95938419321E+02  0.16627232146E+03  0.25969572212E+03  0.17200000000E+03 0.  1.
</event>
<event>
 4    1  0.5808486E+000  0.1821871E+03  0.7818608E-02  0.1165703E+00
         21   -1    0    0  503  502  0.00000000000E+00  0.00000000000E+00  0.47020976892E+02  0.47020976892E+02  0.00000000000E+00 0.  1.
         21   -1    0    0  501  503 -0.00000000000E+00 -0.00000000000E+00 -0.17935751699E+04  0.17935751699E+04  0.00000000000E+00 0.  1.
          6    1    1    2  501    0 -0.51432707264E+02  0.31029268696E+02 -0.15899453976E+04  0.16003494950E+04  0.17200000000E+03 0.  1.
         -6    1    1    2    0  502  0.51432707264E+02 -0.31029268696E+02 -0.15660879546E+03  0.24024665181E+03  0.17200000000E+03 0.  1.
</event>
<event>
 4    1  0.5808486E+000  0.2045406E+03  0.7818608E-02  0.1145964E+00
         21   -1    0    0  503  502  0.00000000000E+00  0.00000000000E+00  0.27752187138E+03  0.27752187138E+03  0.00000000000E+00 0. -1.
         21   -1    0    0  501  503 -0.00000000000E+00 -0.00000000000E+00 -0.15110961269E+03  0.15110961269E+03  0.00000000000E+00 0.  1.
          6    1    1    2  501    0  0.10999619398E+03  0.12396816077E+02  0.73639057054E+02  0.21739262743E+03  0.17200000000E+03 0.  1.
         -6    1    1    2    0  502 -0.10999619398E+03 -0.12396816077E+02  0.52773201636E+02  0.21123885663E+03  0.17200000000E+03 0. -1.
</event>
<event>
 4    1  0.5808486E+000  0.3346384E+03  0.7818608E-02  0.1069103E+00
         21   -1    0    0  501  502  0.00000000000E+00  0.00000000000E+00  0.13862070216E+04  0.13862070216E+04  0.00000000000E+00 0.  1.
         21   -1    0    0  502  503 -0.00000000000E+00 -0.00000000000E+00 -0.86827016946E+02  0.86827016946E+02  0.00000000000E+00 0. -1.
          6    1    1    2  501    0  0.86021917096E+01 -0.28692307958E+03  0.84399999201E+03  0.90792006136E+03  0.17200000000E+03 0.  1.
         -6    1    1    2    0  503 -0.86021917096E+01  0.28692307958E+03  0.45538001263E+03  0.56511397718E+03  0.17200000000E+03 0.  1.
</event>
<event>
 4    1  0.5808486E+000  0.2104605E+03  0.7818608E-02  0.1141202E+00
         21   -1    0    0  501  502  0.00000000000E+00  0.00000000000E+00  0.89799732584E+03  0.89799732584E+03  0.00000000000E+00 0. -1.
         21   -1    0    0  502  503 -0.00000000000E+00 -0.00000000000E+00 -0.58708376346E+02  0.58708376346E+02  0.00000000000E+00 0. -1.
          6    1    1    2  501    0  0.53755699991E+02  0.10871959567E+03  0.61088515466E+03  0.64612251001E+03  0.17200000000E+03 0. -1.
         -6    1    1    2    0  503 -0.53755699991E+02 -0.10871959567E+03  0.22840379484E+03  0.31058319218E+03  0.17200000000E+03 0. -1.
</event>
<event>
 4    1  0.5808486E+000  0.1752348E+03  0.7818608E-02  0.1172496E+00
         21   -1    0    0  503  502  0.00000000000E+00  0.00000000000E+00  0.14533991227E+04  0.14533991227E+04  0.00000000000E+00 0.  1.
         21   -1    0    0  501  503 -0.00000000000E+00 -0.00000000000E+00 -0.69091685211E+02  0.69091685211E+02  0.00000000000E+00 0.  1.
          6    1    1    2  501    0  0.33489616944E+02  0.12972337026E+01  0.57891822519E+02  0.18454999424E+03  0.17200000000E+03 0.  1.
         -6    1    1    2    0  502 -0.33489616944E+02 -0.12972337026E+01  0.13264156149E+04  0.13379408136E+04  0.17200000000E+03 0.  1.
</event>
<event>
 4    1  0.5808486E+000  0.2149301E+03  0.7818608E-02  0.1137720E+00
         21   -1    0    0  503  502  0.00000000000E+00  0.00000000000E+00  0.10409102140E+03  0.10409102140E+03  0.00000000000E+00 0.  1.
         21   -1    0    0  501  503 -0.00000000000E+00 -0.00000000000E+00 -0.51433186094E+03  0.51433186094E+03  0.00000000000E+00 0.  1.
          6    1    1    2  501    0  0.72742849123E+02 -0.10639277348E+03 -0.31963103938E+03  0.38517391615E+03  0.17200000000E+03 0.  1.
         -6    1    1    2    0  502 -0.72742849123E+02  0.10639277348E+03 -0.90609800166E+02  0.23324896620E+03  0.17200000000E+03 0.  1.
</event>
<event>
 4    1  0.5808486E+000  0.1968836E+03  0.7818608E-02  0.1152395E+00
         21   -1    0    0  501  502  0.00000000000E+00  0.00000000000E+00  0.12416423404E+03  0.12416423404E+03  0.00000000000E+00 0. -1.
         21   -1    0    0  502  503 -0.00000000000E+00 -0.00000000000E+00 -0.36229007176E+03  0.36229007176E+03  0.00000000000E+00 0. -1.
          6    1    1    2  501    0 -0.85833896794E+02  0.42563982468E+02 -0.28616389780E+02  0.19895237673E+03  0.17200000000E+03 0.  1.
         -6    1    1    2    0  503  0.85833896794E+02 -0.42563982468E+02 -0.20950944794E+03  0.28750192907E+03  0.17200000000E+03 0.  1.
</event>
<event>
 4    1  0.5808486E+000  0.1862709E+03  0.7818608E-02  0.1161868E+00
         21   -1    0    0  501  502  0.00000000000E+00  0.00000000000E+00  0.15608653329E+03  0.15608653329E+03  0.00000000000E+00 0. -1.
         21   -1    0    0  502  503 -0.00000000000E+00 -0.00000000000E+00 -0.24496727362E+03  0.24496727362E+03  0.00000000000E+00 0. -1.
          6    1    1    2  501    0  0.71499976036E+02  0.77617367656E+00  0.16568237902E+02  0.18700629809E+03  0.17200000000E+03 0.  1.
         -6    1    1    2    0  503 -0.71499976036E+02 -0.77617367656E+00 -0.10544897823E+03  0.21404750881E+03  0.17200000000E+03 0.  1.
</event>
<event>
 4    1  0.5808486E+000  0.1970400E+03  0.7818608E-02  0.1152261E+00
         21   -1    0    0  503  502  0.00000000000E+00  0.00000000000E+00  0.44796792649E+02  0.44796792649E+02  0.00000000000E+00 0.  1.
         21   -1    0    0  501  503 -0.00000000000E+00 -0.00000000000E+00 -0.26722564457E+04  0.26722564457E+04  0.00000000000E+00 0.  1.
          6    1    1    2  501    0 -0.66613175289E+02  0.69306910371E+02 -0.24304292140E+04  0.24384033561E+04  0.17200000000E+03 0.  1.
         -6    1    1    2    0  502  0.66613175289E+02 -0.69306910371E+02 -0.19703043907E+03  0.27864988223E+03  0.17200000000E+03 0.  1.
</event>
<event>
 4    1  0.5808486E+000  0.1806627E+03  0.7818608E-02  0.1167163E+00
         21   -1    0    0  503  502  0.00000000000E+00  0.00000000000E+00  0.13298230841E+03  0.13298230841E+03  0.00000000000E+00 0. -1.
         21   -1    0    0  501  503 -0.00000000000E+00 -0.00000000000E+00 -0.33492161437E+03  0.33492161437E+03  0.00000000000E+00 0. -1.
          6    1    1    2  501    0 -0.24390261238E+02  0.49599579853E+02 -0.22189718633E+03  0.28614221021E+03  0.17200000000E+03 0. -1.
         -6    1    1    2    0  502  0.24390261238E+02 -0.49599579853E+02  0.19957880369E+02  0.18176171256E+03  0.17200000000E+03 0. -1.
</event>
<event>
 4    1  0.5808486E+000  0.1919382E+03  0.7818608E-02  0.1156725E+00
         21   -1    0    0  503  502  0.00000000000E+00  0.00000000000E+00  0.35711230994E+03  0.35711230994E+03  0.00000000000E+00 0. -1.
         21   -1    0    0  501  503 -0.00000000000E+00 -0.00000000000E+00 -0.10348851394E+03  0.10348851394E+03  0.00000000000E+00 0. -1.
          6    1    1    2  501    0 -0.85163616601E+02 -0.18572808255E+01  0.13975503847E+03  0.23742738229E+03  0.17200000000E+03 0. -1.
         -6    1    1    2    0  502  0.85163616601E+02  0.18572808255E+01  0.11386875753E+03  0.22317344158E+03  0.17200000000E+03 0. -1.
</event>
<event>
 4    1  0.5808486E+000  0.1811204E+03  0.7818608E-02  0.1166723E+00
         21   -1    0    0  501  502  0.00000000000E+00  0.00000000000E+00  0.43623824388E+02  0.43623824388E+02  0.00000000000E+00 0.  1.
         21   -1    0    0  502  503 -0.00000000000E+00 -0.00000000000E+00 -0.84464105629E+03  0.84464105629E+03  0.00000000000E+00 0. -1.
          6    1    1    2  501    0 -0.30241230629E+02 -0.48021553711E+02 -0.25341094956E+03  0.31148308302E+03  0.17200000000E+03 0.  1.
         -6    1    1    2    0  503  0.30241230629E+02  0.48021553711E+02 -0.54760628234E+03  0.57678179766E+03  0.17200000000E+03 0. -1.
</event>
<event>
 4    1  0.5808486E+000  0.1824415E+03  0.7818608E-02  0.1165461E+00
         21   -1    0    0  501  502  0.00000000000E+00  0.00000000000E+00  0.95796319359E+03  0.95796319359E+03  0.00000000000E+00 0.  1.
         21   -1    0    0  502  503 -0.00000000000E+00 -0.00000000000E+00 -0.35328099504E+02  0.35328099504E+02  0.00000000000E+00 0.  1.
          6    1    1    2  501    0  0.35991716272E+02  0.49045989216E+02  0.39753959691E+03  0.43740443964E+03  0.17200000000E+03 0. -1.
         -6    1    1    2    0  503 -0.35991716272E+02 -0.49045989216E+02  0.52509549717E+03  0.55588685346E+03  0.17200000000E+03 0. -1.
</event>
<event>
 4    1  0.5808486E+000  0.1924468E+03  0.7818608E-02  0.1156273E+00
         21   -1    0    0  503  502  0.00000000000E+00  0.00000000000E+00  0.17431871603E+03  0.17431871603E+03  0.00000000000E+00 0. -1.
         21   -1    0    0  501  503 -0.00000000000E+00 -0.00000000000E+00 -0.40541892574E+03  0.40541892574E+03  0.00000000000E+00 0. -1.
          6    1    1    2  501    0 -0.52887968017E+02  0.68224969012E+02 -0.31552788481E+03  0.36958575412E+03  0.17200000000E+03 0. -1.
         -6    1    1    2    0  502  0.52887968017E+02 -0.68224969012E+02  0.84427675103E+02  0.21015188765E+03  0.17200000000E+03 0. -1.
</event>
<event>
 4    1  0.5808486E+000  0.2049904E+03  0.7818608E-02  0.1145596E+00
         21   -1    0    0  501  502  0.00000000000E+00  0.00000000000E+00  0.74671909905E+03  0.74671909905E+03  0.00000000000E+00 0. -1.
         21   -1    0    0  502  503 -0.00000000000E+00 -0.00000000000E+00 -0.74080088976E+02  0.74080088976E+02  0.00000000000E+00 0. -1.
          6    1    1    2  501    0  0.11128374587E+03  0.72790489609E+01  0.53752387345E+03  0.57528512164E+03  0.17200000000E+03 0. -1.
         -6    1    1    2    0  503 -0.11128374587E+03 -0.72790489609E+01  0.13511513662E+03  0.24551406639E+03  0.17200000000E+03 0. -1.
</event>
<event>
 4    1  0.5808486E+000  0.2489105E+03  0.7818608E-02  0.1113995E+00
         21   -1    0    0  501  502  0.00000000000E+00  0.00000000000E+00  0.55079264438E+03  0.55079264438E+03  0.00000000000E+00 0. -1.
         21   -1    0    0  502  503 -0.00000000000E+00 -0.00000000000E+00 -0.11525439126E+03  0.11525439126E+03  0.00000000000E+00 0. -1.
          6    1    1    2  501    0  0.66719783680E+02  0.16709544738E+03  0.26938295437E+03  0.36677458224E+03  0.17200000000E+03 0. -1.
         -6    1    1    2    0  503 -0.66719783680E+02 -0.16709544738E+03  0.16615529874E+03  0.29927245341E+03  0.17200000000E+03 0. -1.
</event>
<event>
 4    1  0.5808486E+000  0.1775320E+03  0.7818608E-02  0.1170213E+00
         21   -1    0    0  503  502  0.00000000000E+00  0.00000000000E+00  0.84882686775E+02  0.84882686775E+02  0.00000000000E+00 0. -1.
         21   -1    0    0  501  503 -0.00000000000E+00 -0.00000000000E+00 -0.40794208950E+03  0.40794208950E+03  0.00000000000E+00 0. -1.
          6    1    1    2  501    0  0.33952808167E+02  0.27943378833E+02 -0.23537207282E+03  0.29481797480E+03  0.17200000000E+03 0.  1.
         -6    1    1    2    0  502 -0.33952808167E+02 -0.27943378833E+02 -0.87687329904E+02  0.19800680147E+03  0.17200000000E+03 0.  1.
</event>
<event>
 4    1  0.5808486E+000  0.1782144E+03  0.7818608E-02  0.1169542E+00
         21   -1    0    0  503  502  0.00000000000E+00  0.00000000000E+00  0.40092035561E+03  0.40092035561E+03  0.00000000000E+00 0. -1.
         21   -1    0    0  501  503 -0.00000000000E+00 -0.00000000000E+00 -0.85324913624E+02  0.85324913624E+02  0.00000000000E+00 0. -1.
          6    1    1    2  501    0 -0.23396197277E+02  0.40360893298E+02  0.92758705272E+02  0.20090933567E+03  0.17200000000E+03 0. -1.
         -6    1    1    2    0  502  0.23396197277E+02 -0.40360893298E+02  0.22283673671E+03  0.28533593357E+03  0.17200000000E+03 0. -1.
</event>
<event>
 4    1  0.5808486E+000  0.1828588E+03  0.7818608E-02  0.1165065E+00
         21   -1    0    0  503  502  0.00000000000E+00  0.00000000000E+00  0.87479269264E+02  0.87479269264E+02  0.00000000000E+00 0.  1.
         21   -1    0    0  501  503 -0.00000000000E+00 -0.00000000000E+00 -0.11481064450E+04  0.11481064450E+04  0.00000000000E+00 0. -1.
          6    1    1    2  501    0  0.45200834962E+02 -0.42546650395E+02 -0.25732772407E+02  0.18466052236E+03  0.17200000000E+03 0.  1.
         -6    1    1    2    0  502 -0.45200834962E+02  0.42546650395E+02 -0.10348944033E+04  0.10509251919E+04  0.17200000000E+03 0. -1.
</event>
<event>
 4    1  0.5808486E+000  0.2273588E+03  0.7818608E-02  0.1128513E+00
         21   -1    0    0  501  502  0.00000000000E+00  0.00000000000E+00  0.40495790716E+03  0.40495790716E+03  0.00000000000E+00 0. -1.
         21   -1    0    0  502  503 -0.00000000000E+00 -0.00000000000E+00 -0.14320699721E+03  0.14320699721E+03  0.00000000000E+00 0. -1.
          6    1    1    2  501    0  0.27344433383E+02  0.14615163223E+03  0.40533057341E+02  0.23094359999E+03  0.17200000000E+03 0. -1.
         -6    1    1    2    0  503 -0.27344433383E+02 -0.14615163223E+03  0.22121785260E+03  0.31722130438E+03  0.17200000000E+03 0. -1.
</event>
<event>
 4    1  0.5808486E+000  0.1862477E+03  0.7818608E-02  0.1161890E+00
         21   -1    0    0  501  502  0.00000000000E+00  0.00000000000E+00  0.67854600879E+03  0.67854600879E+03  0.00000000000E+00 0. -1.
         21   -1    0    0  502  503 -0.00000000000E+00 -0.00000000000E+00 -0.70045832373E+02  0.70045832373E+02  0.00000000000E+00 0. -1.
          6    1    1    2  501    0 -0.58887526303E+02 -0.40453445509E+02  0.49880194198E+03  0.53243929168E+03  0.17200000000E+03 0. -1.
         -6    1    1    2    0  503  0.58887526303E+02  0.40453445509E+02  0.10969823444E+03  0.21615254948E+03  0.17200000000E+03 0. -1.
</event>
<event>
 4    1  0.5808486E+000  0.1832088E+03  0.7818608E-02  0.1164733E+00
         21   -1    0    0  501  502  0.00000000000E+00  0.00000000000E+00  0.26364422105E+03  0.26364422105E+03  0.00000000000E+00 0.  1.
         21   -1    0    0  502  503 -0.00000000000E+00 -0.00000000000E+00 -0.13355710381E+03  0.13355710381E+03  0.00000000000E+00 0.  1.
          6    1    1    2  501    0  0.14957927050E+02 -0.61300237994E+02  0.10798396542E+03  0.21266404385E+03  0.17200000000E+03 0. -1.
         -6    1    1    2    0  503 -0.14957927050E+02  0.61300237994E+02  0.22103151821E+02  0.18453728100E+03  0.17200000000E+03 0. -1.
</event>
<event>
 4    1  0.5808486E+000  0.1893182E+03  0.7818608E-02  0.1159078E+00
         21   -1    0    0  503  502  0.00000000000E+00  0.00000000000E+00  0.10921037855E+03  0.10921037855E+03  0.00000000000E+00 0. -1.
         21   -1    0    0  501  503 -0.00000000000E+00 -0.00000000000E+00 -0.33393696800E+03  0.33393696800E+03  0.00000000000E+00 0. -1.
          6    1    1    2  501    0  0.79046121923E+02  0.30135305121E+01 -0.14143951156E+03  0.23631865392E+03  0.17200000000E+03 0. -1.
         -6    1    1    2    0  502 -0.79046121923E+02 -0.30135305121E+01 -0.83287077884E+02  0.20682869264E+03  0.17200000000E+03 0. -1.
</event>
<event>
 4    1  0.5808486E+000  0.1995565E+03  0.7818608E-02  0.1150114E+00
         21   -1    0    0  501  502  0.00000000000E+00  0.00000000000E+00  0.14922177481E+04  0.14922177481E+04  0.00000000000E+00 0. -1.
         21   -1    0    0  502  503 -0.00000000000E+00 -0.00000000000E+00 -0.36766591075E+02  0.36766591075E+02  0.00000000000E+00 0. -1.
          6    1    1    2  501    0 -0.91740287671E+02 -0.42690988727E+02  0.11280093839E+04  0.11455251944E+04  0.17200000000E+03 0. -1.
         -6    1    1    2    0  503  0.91740287671E+02  0.42690988727E+02  0.32744177310E+03  0.38345914473E+03  0.17200000000E+03 0. -1.
</event>
<event>
 4    1  0.5808486E+000  0.2790139E+03  0.7818608E-02  0.1096229E+00
         21   -1    0    0  503  502  0.00000000000E+00  0.00000000000E+00  0.89551000203E+03  0.89551000203E+03  0.00000000000E+00 0.  1.
         21   -1    0    0  501  503 -0.00000000000E+00 -0.00000000000E+00 -0.18839992701E+03  0.18839992701E+03  0.00000000000E+00 0. -1.
          6    1    1    2  501    0  0.19710494920E+03  0.97027778509E+02 -0.44173332019E+02  0.28248899813E+03  0.17200000000E+03 0. -1.
         -6    1    1    2    0  502 -0.19710494920E+03 -0.97027778509E+02  0.75128340704E+03  0.80142093091E+03  0.17200000000E+03 0. -1.
</event>
<event>
 4    1  0.5808486E+000  0.2078845E+03  0.7818608E-02  0.1143252E+00
         21   -1    0    0  503  502  0.00000000000E+00  0.00000000000E+00  0.18982736554E+03  0.18982736554E+03  0.00000000000E+00 0.  1.
         21   -1    0    0  501  503 -0.00000000000E+00 -0.00000000000E+00 -0.30841623944E+03  0.30841623944E+03  0.00000000000E+00 0.  1.
          6    1    1    2  501    0  0.81856102961E+02 -0.83256006257E+02 -0.18677171313E+03  0.27946315857E+03  0.17200000000E+03 0.  1.
         -6    1    1    2    0  502 -0.81856102961E+02  0.83256006257E+02  0.68182839221E+02  0.21878044642E+03  0.17200000000E+03 0.  1.
</event>
<event>
 4    1  0.5808486E+000  0.2731137E+03  0.7818608E-02  0.1099511E+00
         21   -1    0    0  501  502  0.00000000000E+00  0.00000000000E+00  0.69359727890E+02  0.69359727890E+02  0.00000000000E+00 0. -1.
         21   -1    0    0  502  503 -0.00000000000E+00 -0.00000000000E+00 -0.13842145407E+04  0.13842145407E+04  0.00000000000E+00 0.  1.
          6    1    1    2  501    0 -0.17229610274E+03 -0.12377871367E+03 -0.31415609326E+03  0.41627535107E+03  0.17200000000E+03 0. -1.
         -6    1    1    2    0  503  0.17229610274E+03  0.12377871367E+03 -0.10006987196E+04  0.10372989176E+04  0.17200000000E+03 0.  1.
</event>
<event>
 4    1  0.5808486E+000  0.1758230E+03  0.7818608E-02  0.1171908E+00
         21   -1    0    0  501  502  0.00000000000E+00  0.00000000000E+00  0.31801899320E+03  0.31801899320E+03  0.00000000000E+00 0.  1.
         21   -1    0    0  502  503 -0.00000000000E+00 -0.00000000000E+00 -0.31400500839E+03  0.31400500839E+03  0.00000000000E+00 0.  1.
          6    1    1    2  501    0 -0.12441089964E+01 -0.36444151944E+02  0.26458767271E+03  0.31767965085E+03  0.17200000000E+03 0.  1.
         -6    1    1    2    0  503  0.12441089964E+01  0.36444151944E+02 -0.26057368789E+03  0.31434435074E+03  0.17200000000E+03 0.  1.
</event>
<event>
 4    1  0.5808486E+000  0.1749081E+03  0.7818608E-02  0.1172824E+00
         21   -1    0    0  503  502  0.00000000000E+00  0.00000000000E+00  0.16174776818E+03  0.16174776818E+03  0.00000000000E+00 0.  1.
         21   -1    0    0  501  503 -0.00000000000E+00 -0.00000000000E+00 -0.21777221003E+03  0.21777221003E+03  0.00000000000E+00 0.  1.
          6    1    1    2  501    0 -0.27703764120E+02  0.15535156186E+02 -0.96819930377E+02  0.19991732927E+03  0.17200000000E+03 0.  1.
         -6    1    1    2    0  502  0.27703764120E+02 -0.15535156186E+02  0.40795488524E+02  0.17960264894E+03  0.17200000000E+03 0.  1.
</event>
<event>
 4    1  0.5808486E+000  0.2678631E+03  0.7818608E-02  0.1102509E+00
         21   -1    0    0  503  502  0.00000000000E+00  0.00000000000E+00  0.49533141450E+03  0.49533141450E+03  0.00000000000E+00 0.  1.
         21   -1    0    0  501  503 -0.00000000000E+00 -0.00000000000E+00 -0.35271047427E+03  0.35271047427E+03  0.00000000000E+00 0.  1.
          6    1    1    2  501    0  0.20505442696E+03  0.10923299323E+02 -0.25419637071E+03  0.36927825737E+03  0.17200000000E+03 0.  1.
         -6    1    1    2    0  502 -0.20505442696E+03 -0.10923299323E+02  0.39681731094E+03  0.47876363139E+03  0.17200000000E+03 0.  1.
</event>
<event>
 4    1  0.5808486E+000  0.2078876E+03  0.7818608E-02  0.1143250E+00
         21   -1    0    0  501  502  0.00000000000E+00  0.00000000000E+00  0.89551050324E+02  0.89551050324E+02  0.00000000000E+00 0.  1.
         21   -1    0    0  502  503 -0.00000000000E+00 -0.00000000000E+00 -0.48628212437E+03  0.48628212437E+03  0.00000000000E+00 0. -1.
          6    1    1    2  501    0 -0.11534299257E+03  0.18145356591E+02 -0.17330891900E+03  0.27065336005E+03  0.17200000000E+03 0.  1.
         -6    1    1    2    0  503  0.11534299257E+03 -0.18145356591E+02 -0.22342215504E+03  0.30517981464E+03  0.17200000000E+03 0.  1.
</event>
<event>
 4    1  0.5808486E+000  0.2198795E+03  0.7818608E-02  0.1133973E+00
         21   -1    0    0  503  502  0.00000000000E+00  0.00000000000E+00  0.92780131860E+03  0.92780131860E+03  0.00000000000E+00 0. -1.
         21   -1    0    0  501  503 -0.00000000000E+00 -0.00000000000E+00 -0.53364500490E+02  0.53364500490E+02  0.00000000000E+00 0.  1.
          6    1    1    2  501    0  0.11824304604E+03  0.69149040758E+02  0.36197721233E+03  0.42352628020E+03  0.17200000000E+03 0.  1.
         -6    1    1    2    0  502 -0.11824304604E+03 -0.69149040758E+02  0.51245960578E+03  0.55763953889E+03  0.17200000000E+03 0. -1.
</event>
<event>
 4    1  0.5808486E+000  0.1754863E+03  0.7818608E-02  0.1172244E+00
         21   -1    0    0  501  502  0.00000000000E+00  0.00000000000E+00  0.51122942801E+03  0.51122942801E+03  0.00000000000E+00 0. -1.
         21   -1    0    0  502  503 -0.00000000000E+00 -0.00000000000E+00 -0.70481754097E+02  0.70481754097E+02  0.00000000000E+00 0. -1.
          6    1    1    2  501    0 -0.13444361325E+02  0.32104423973E+02  0.33125770390E+03  0.37486945899E+03  0.17200000000E+03 0. -1.
         -6    1    1    2    0  503  0.13444361325E+02 -0.32104423973E+02  0.10948997002E+03  0.20684172312E+03  0.17200000000E+03 0. -1.
</event>
<event>
 4    1  0.5808486E+000  0.1847032E+03  0.7818608E-02  0.1163327E+00
         21   -1    0    0  501  502  0.00000000000E+00  0.00000000000E+00  0.17147673640E+03  0.17147673640E+03  0.00000000000E+00 0. -1.
         21   -1    0    0  502  503 -0.00000000000E+00 -0.00000000000E+00 -0.91149054010E+03  0.91149054010E+03  0.00000000000E+00 0. -1.
          6    1    1    2  501    0  0.23023902286E+02  0.63254894701E+02  0.10874892341E+03  0.21433994057E+03  0.17200000000E+03 0. -1.
         -6    1    1    2    0  503 -0.23023902286E+02 -0.63254894701E+02 -0.84876272712E+03  0.86862733593E+03  0.17200000000E+03 0. -1.
</event>
<event>
 4    1  0.5808486E+000  0.2351374E+03  0.7818608E-02  0.1123075E+00
         21   -1    0    0  503  502  0.00000000000E+00  0.00000000000E+00  0.14104656022E+03  0.14104656022E+03  0.00000000000E+00 0.  1.
         21   -1    0    0  501  503 -0.00000000000E+00 -0.00000000000E+00 -0.39559930475E+03  0.39559930475E+03  0.00000000000E+00 0.  1.
          6    1    1    2  501    0  0.51580143704E+02  0.15180606508E+03 -0.10166569700E+03  0.25617475786E+03  0.17200000000E+03 0.  1.
         -6    1    1    2    0  502 -0.51580143704E+02 -0.15180606508E+03 -0.15288704753E+03  0.28047110711E+03  0.17200000000E+03 0.  1.
</event>
<event>
 4    1  0.5808486E+000  0.1782596E+03  0.7818608E-02  0.1169498E+00
         21   -1    0    0  503  502  0.00000000000E+00  0.00000000000E+00  0.62223100886E+03  0.62223100886E+03  0.00000000000E+00 0. -1.
         21   -1    0    0  501  503 -0.00000000000E+00 -0.00000000000E+00 -0.51068636895E+02  0.51068636895E+02  0.00000000000E+00 0. -1.
          6    1    1    2  501    0 -0.16347970009E+02  0.43877341163E+02  0.28579034045E+03  0.33682724932E+03  0.17200000000E+03 0. -1.
         -6    1    1    2    0  502  0.16347970009E+02 -0.43877341163E+02  0.28537203152E+03  0.33647239644E+03  0.17200000000E+03 0. -1.
</event>
<event>
 4    1  0.5808486E+000  0.2686695E+03  0.7818608E-02  0.1102043E+00
         21   -1    0    0  503  502  0.00000000000E+00  0.00000000000E+00  0.21069726678E+03  0.21069726678E+03  0.00000000000E+00 0. -1.
         21   -1    0    0  501  503 -0.00000000000E+00 -0.00000000000E+00 -0.34734136896E+03  0.34734136896E+03  0.00000000000E+00 0. -1.
          6    1    1    2  501    0  0.90357011559E+02  0.18556650981E+03 -0.35697263259E+02  0.27103065086E+03  0.17200000000E+03 0. -1.
         -6    1    1    2    0  502 -0.90357011559E+02 -0.18556650981E+03 -0.10094683892E+03  0.28700798488E+03  0.17200000000E+03 0. -1.
</event>
<event>
 4    1  0.5808486E+000  0.1918637E+03  0.7818608E-02  0.1156791E+00
         21   -1    0    0  503  502  0.00000000000E+00  0.00000000000E+00  0.23450294005E+02  0.23450294005E+02  0.00000000000E+00 0. -1.
         21   -1    0    0  501  503 -0.00000000000E+00 -0.00000000000E+00 -0.15787749757E+04  0.15787749757E+04  0.00000000000E+00 0.  1.
          6    1    1    2  501    0  0.29367487257E+02 -0.79782461517E+02 -0.71717718833E+03  0.74239801315E+03  0.17200000000E+03 0. -1.
         -6    1    1    2    0  502 -0.29367487257E+02  0.79782461517E+02 -0.83814749337E+03  0.85982725656E+03  0.17200000000E+03 0.  1.
</event>
<event>
 4    1  0.5808486E+000  0.2526577E+03  0.7818608E-02  0.1111637E+00
         21   -1    0    0  501  502  0.00000000000E+00  0.00000000000E+00  0.25041459758E+02  0.25041459758E+02  0.00000000000E+00 0. -1.
         21   -1    0    0  502  503 -0.00000000000E+00 -0.00000000000E+00 -0.26861542994E+04  0.26861542994E+04  0.00000000000E+00 0.  1.
          6    1    1    2  501    0 -0.20946591261E+02 -0.18388347216E+03 -0.10244725382E+04  0.10551681726E+04  0.17200000000E+03 0.  1.
         -6    1    1    2    0  503  0.20946591261E+02  0.18388347216E+03 -0.16366403015E+04  0.16560275866E+04  0.17200000000E+03 0. -1.
</event>
<event>
 4    1  0.5808486E+000  0.2188025E+03  0.7818608E-02  0.1134779E+00
         21   -1    0    0  501  502  0.00000000000E+00  0.00000000000E+00  0.50499157388E+03  0.50499157388E+03  0.00000000000E+00 0. -1.
         21   -1    0    0  502  503 -0.00000000000E+00 -0.00000000000E+00 -0.22766834225E+03  0.22766834225E+03  0.00000000000E+00 0. -1.
          6    1    1    2  501    0 -0.90991211758E+02 -0.10005557540E+03  0.41851309563E+03  0.47225811798E+03  0.17200000000E+03 0. -1.
         -6    1    1    2    0  503  0.90991211758E+02  0.10005557540E+03 -0.14118986399E+03  0.26040179815E+03  0.17200000000E+03 0. -1.
</event>
<event>
 4    1  0.5808486E+000  0.2632692E+03  0.7818608E-02  0.1105195E+00
         21   -1    0    0  503  502  0.00000000000E+00  0.00000000000E+00  0.23013769849E+03  0.23013769849E+03  0.00000000000E+00 0. -1.
         21   -1    0    0  501  503 -0.00000000000E+00 -0.00000000000E+00 -0.30142610236E+03  0.30142610236E+03  0.00000000000E+00 0.  1.
          6    1    1    2  501    0  0.74382559723E+02 -0.18491588728E+03 -0.43386095135E+02  0.26682017129E+03  0.17200000000E+03 0.  1.
         -6    1    1    2    0  502 -0.74382559723E+02  0.18491588728E+03 -0.27902308736E+02  0.26474362956E+03  0.17200000000E+03 0. -1.
</event>
<event>
 4    1  0.5808486E+000  0.1859272E+03  0.7818608E-02  0.1162187E+00
         21   -1    0    0  501  502  0.00000000000E+00  0.00000000000E+00  0.38494780029E+03  0.38494780029E+03  0.00000000000E+00 0. -1.
         21   -1    0    0  502  503 -0.00000000000E+00 -0.00000000000E+00 -0.90257601624E+02  0.90257601624E+02  0.00000000000E+00 0. -1.
          6    1    1    2  501    0 -0.14253841248E+02  0.69150182225E+02  0.16423407942E+03  0.24807610231E+03  0.17200000000E+03 0. -1.
         -6    1    1    2    0  503  0.14253841248E+02 -0.69150182225E+02  0.13045611924E+03  0.22712929961E+03  0.17200000000E+03 0. -1.
</event>
