<event>
 4    1  0.8249026E-001  0.1737017E+03  0.7546771E-02  0.1174042E+00
         -2   -1    0    0    0  501 -0.00000000000E+00  0.00000000000E+00  0.16007451677E+02  0.16007451677E+02  0.00000000000E+00 0. -1.
          2   -1    0    0  502    0  0.00000000000E+00 -0.00000000000E+00 -0.22593773743E+04  0.22593773743E+04  0.00000000000E+00 0.  1.
          6    1    1    2  502    0  0.69793843884E+01 -0.13948889562E+02 -0.65850565675E+03  0.68103008986E+03  0.17300000000E+03 0. -1.
         -6    1    1    2    0  501 -0.69793843884E+01  0.13948889562E+02 -0.15848642658E+04  0.15943547361E+04  0.17300000000E+03 0.  1.
<mgrwt>
<rscale>  2 0.17370171E+03</rscale>
<asrwt>0</asrwt>
<pdfrwt beam="2">  1        2 0.34759645E+00 0.17370171E+03</pdfrwt>
<pdfrwt beam="1">  1       -2 0.24626854E-02 0.17370171E+03</pdfrwt>
<totfact> 0.30875197E+03</totfact>
</mgrwt>
</event>
<event>
 4    1  0.8249026E-001  0.2528239E+03  0.7546771E-02  0.1111533E+00
          2   -1    0    0  502    0  0.00000000000E+00  0.00000000000E+00  0.27479997345E+03  0.27479997345E+03  0.00000000000E+00 0. -1.
         -2   -1    0    0    0  501 -0.00000000000E+00 -0.00000000000E+00 -0.23283966479E+03  0.23283966479E+03  0.00000000000E+00 0.  1.
          6    1    1    2  502    0 -0.80473602467E+01  0.18419054605E+03  0.29033698809E+02  0.25448550632E+03  0.17300000000E+03 0.  1.
         -6    1    1    2    0  501  0.80473602467E+01 -0.18419054605E+03  0.12926609853E+02  0.25315413191E+03  0.17300000000E+03 0. -1.
<mgrwt>
<rscale>  2 0.25282389E+03</rscale>
<asrwt>0</asrwt>
<pdfrwt beam="1">  1        2 0.42276919E-01 0.25282389E+03</pdfrwt>
<pdfrwt beam="2">  1       -2 0.35821487E-01 0.25282389E+03</pdfrwt>
<totfact> 0.88536760E+02</totfact>
</mgrwt>
</event>
<event>
 4    1  0.8249026E-001  0.2955720E+03  0.7546771E-02  0.1087475E+00
          1   -1    0    0  502    0  0.00000000000E+00  0.00000000000E+00  0.18064637831E+03  0.18064637831E+03  0.00000000000E+00 0. -1.
         -1   -1    0    0    0  501 -0.00000000000E+00 -0.00000000000E+00 -0.49789263713E+03  0.49789263713E+03  0.00000000000E+00 0.  1.
          6    1    1    2  502    0  0.38414312230E+02  0.23655476752E+03 -0.10116577510E+03  0.31240571613E+03  0.17300000000E+03 0. -1.
         -6    1    1    2    0  501 -0.38414312230E+02 -0.23655476752E+03 -0.21608048371E+03  0.36613329931E+03  0.17300000000E+03 0. -1.
<mgrwt>
<rscale>  2 0.29557202E+03</rscale>
<asrwt>0</asrwt>
<pdfrwt beam="1">  1        1 0.27791751E-01 0.29557202E+03</pdfrwt>
<pdfrwt beam="2">  1       -1 0.76598866E-01 0.29557202E+03</pdfrwt>
<totfact> 0.29922169E+02</totfact>
</mgrwt>
</event>
<event>
 4    1  0.8249026E-001  0.2400975E+03  0.7546771E-02  0.1119728E+00
          2   -1    0    0  502    0  0.00000000000E+00  0.00000000000E+00  0.15830286906E+03  0.15830286906E+03  0.00000000000E+00 0.  1.
         -2   -1    0    0    0  501 -0.00000000000E+00 -0.00000000000E+00 -0.60655236045E+03  0.60655236045E+03  0.00000000000E+00 0. -1.
          6    1    1    2  502    0  0.15404450240E+03  0.63151241543E+02  0.17632222784E+02  0.24074402030E+03  0.17300000000E+03 0.  1.
         -6    1    1    2    0  501 -0.15404450240E+03 -0.63151241543E+02 -0.46588171417E+03  0.52411120922E+03  0.17300000000E+03 0. -1.
<mgrwt>
<rscale>  2 0.24009746E+03</rscale>
<asrwt>0</asrwt>
<pdfrwt beam="1">  1        2 0.24354287E-01 0.24009746E+03</pdfrwt>
<pdfrwt beam="2">  1       -2 0.93315749E-01 0.24009746E+03</pdfrwt>
<totfact> 0.22423436E+02</totfact>
</mgrwt>
</event>
<event>
 4    1  0.8249026E-001  0.2275011E+03  0.7546771E-02  0.1128411E+00
         -1   -1    0    0    0  501 -0.00000000000E+00  0.00000000000E+00  0.68571067950E+03  0.68571067950E+03  0.00000000000E+00 0. -1.
          1   -1    0    0  502    0  0.00000000000E+00 -0.00000000000E+00 -0.17664763517E+03  0.17664763517E+03  0.00000000000E+00 0.  1.
          6    1    1    2  502    0  0.13536709070E+03 -0.59190450000E+02 -0.71775773588E+02  0.23855506763E+03  0.17300000000E+03 0.  1.
         -6    1    1    2    0  501 -0.13536709070E+03  0.59190450000E+02  0.58083881792E+03  0.62380324704E+03  0.17300000000E+03 0. -1.
<mgrwt>
<rscale>  2 0.22750112E+03</rscale>
<asrwt>0</asrwt>
<pdfrwt beam="2">  1        1 0.27176560E-01 0.22750112E+03</pdfrwt>
<pdfrwt beam="1">  1       -1 0.10549395E+00 0.22750112E+03</pdfrwt>
<totfact> 0.15532483E+02</totfact>
</mgrwt>
</event>
<event>
 4    1  0.8249026E-001  0.2025532E+03  0.7546771E-02  0.1147603E+00
          1   -1    0    0  502    0  0.00000000000E+00  0.00000000000E+00  0.28146809182E+03  0.28146809182E+03  0.00000000000E+00 0.  1.
         -1   -1    0    0    0  501 -0.00000000000E+00 -0.00000000000E+00 -0.29823679468E+03  0.29823679468E+03  0.00000000000E+00 0. -1.
          6    1    1    2  502    0 -0.99917963907E+00  0.10534607152E+03 -0.21563368872E+03  0.29584739454E+03  0.17300000000E+03 0. -1.
         -6    1    1    2    0  501  0.99917963907E+00 -0.10534607152E+03  0.19886498586E+03  0.28385749197E+03  0.17300000000E+03 0.  1.
<mgrwt>
<rscale>  2 0.20255319E+03</rscale>
<asrwt>0</asrwt>
<pdfrwt beam="1">  1        1 0.43302783E-01 0.20255319E+03</pdfrwt>
<pdfrwt beam="2">  1       -1 0.45882584E-01 0.20255319E+03</pdfrwt>
<totfact> 0.46091161E+02</totfact>
</mgrwt>
</event>
<event>
 4    1  0.8249026E-001  0.1746751E+03  0.7546771E-02  0.1173058E+00
         -2   -1    0    0    0  501 -0.00000000000E+00  0.00000000000E+00  0.34726504960E+02  0.34726504960E+02  0.00000000000E+00 0.  1.
          2   -1    0    0  502    0  0.00000000000E+00 -0.00000000000E+00 -0.98798726975E+03  0.98798726975E+03  0.00000000000E+00 0. -1.
          6    1    1    2  502    0  0.23947778028E+02  0.29837662654E+01 -0.64676484116E+03  0.66993742894E+03  0.17300000000E+03 0. -1.
         -6    1    1    2    0  501 -0.23947778028E+02 -0.29837662654E+01 -0.30649592364E+03  0.35277634578E+03  0.17300000000E+03 0.  1.
<mgrwt>
<rscale>  2 0.17467512E+03</rscale>
<asrwt>0</asrwt>
<pdfrwt beam="2">  1        2 0.15199803E+00 0.17467512E+03</pdfrwt>
<pdfrwt beam="1">  1       -2 0.53425396E-02 0.17467512E+03</pdfrwt>
<totfact> 0.46573081E+03</totfact>
</mgrwt>
</event>
<event>
 4    1  0.8249026E-001  0.1976628E+03  0.7546771E-02  0.1151726E+00
          1   -1    0    0  502    0  0.00000000000E+00  0.00000000000E+00  0.11455378774E+04  0.11455378774E+04  0.00000000000E+00 0. -1.
         -1   -1    0    0    0  501 -0.00000000000E+00 -0.00000000000E+00 -0.47318956497E+02  0.47318956497E+02  0.00000000000E+00 0.  1.
          6    1    1    2  502    0 -0.90026264459E+02  0.32200392727E+02  0.86426732085E+03  0.88658253732E+03  0.17300000000E+03 0. -1.
         -6    1    1    2    0  501  0.90026264459E+02 -0.32200392727E+02  0.23395160009E+03  0.30627429662E+03  0.17300000000E+03 0.  1.
<mgrwt>
<rscale>  2 0.19766283E+03</rscale>
<asrwt>0</asrwt>
<pdfrwt beam="1">  1        1 0.17623658E+00 0.19766283E+03</pdfrwt>
<pdfrwt beam="2">  1       -1 0.72798403E-02 0.19766283E+03</pdfrwt>
<totfact> 0.12481820E+03</totfact>
</mgrwt>
</event>
<event>
 4    1  0.8249026E-001  0.1784906E+03  0.7546771E-02  0.1169272E+00
          2   -1    0    0  502    0  0.00000000000E+00  0.00000000000E+00  0.10007135670E+04  0.10007135670E+04  0.00000000000E+00 0. -1.
         -2   -1    0    0    0  501 -0.00000000000E+00 -0.00000000000E+00 -0.33563918839E+02  0.33563918839E+02  0.00000000000E+00 0.  1.
          6    1    1    2  502    0 -0.43927964499E+02 -0.48488390688E+00  0.60090488576E+03  0.62685371731E+03  0.17300000000E+03 0.  1.
         -6    1    1    2    0  501  0.43927964499E+02  0.48488390688E+00  0.36624476243E+03  0.40742376856E+03  0.17300000000E+03 0.  1.
<mgrwt>
<rscale>  2 0.17849062E+03</rscale>
<asrwt>0</asrwt>
<pdfrwt beam="1">  1        2 0.15395591E+00 0.17849062E+03</pdfrwt>
<pdfrwt beam="2">  1       -2 0.51636806E-02 0.17849062E+03</pdfrwt>
<totfact> 0.48208490E+03</totfact>
</mgrwt>
</event>
<event>
 4    1  0.8249026E-001  0.2519477E+03  0.7546771E-02  0.1112080E+00
          1   -1    0    0  502    0  0.00000000000E+00  0.00000000000E+00  0.38452318107E+03  0.38452318107E+03  0.00000000000E+00 0.  1.
         -1   -1    0    0    0  501 -0.00000000000E+00 -0.00000000000E+00 -0.19566612432E+03  0.19566612432E+03  0.00000000000E+00 0. -1.
          6    1    1    2  502    0 -0.16820095898E+03 -0.72505629855E+02  0.20912078963E+03  0.32742805869E+03  0.17300000000E+03 0.  1.
         -6    1    1    2    0  501  0.16820095898E+03  0.72505629855E+02 -0.20263732879E+02  0.25276124670E+03  0.17300000000E+03 0. -1.
<mgrwt>
<rscale>  2 0.25194767E+03</rscale>
<asrwt>0</asrwt>
<pdfrwt beam="1">  1        1 0.59157413E-01 0.25194767E+03</pdfrwt>
<pdfrwt beam="2">  1       -1 0.30102481E-01 0.25194767E+03</pdfrwt>
<totfact> 0.65041475E+02</totfact>
</mgrwt>
</event>
<event>
 4    1  0.8249026E-001  0.2329109E+03  0.7546771E-02  0.1124608E+00
         -2   -1    0    0    0  501 -0.00000000000E+00  0.00000000000E+00  0.42137174652E+02  0.42137174652E+02  0.00000000000E+00 0.  1.
          2   -1    0    0  502    0  0.00000000000E+00 -0.00000000000E+00 -0.15987300915E+04  0.15987300915E+04  0.00000000000E+00 0. -1.
          6    1    1    2  502    0  0.93913009807E+02 -0.12449432447E+03 -0.11403434263E+04  0.11638859996E+04  0.17300000000E+03 0. -1.
         -6    1    1    2    0  501 -0.93913009807E+02  0.12449432447E+03 -0.41624949062E+03  0.47698126659E+03  0.17300000000E+03 0.  1.
<mgrwt>
<rscale>  2 0.23291091E+03</rscale>
<asrwt>0</asrwt>
<pdfrwt beam="2">  1        2 0.24595844E+00 0.23291091E+03</pdfrwt>
<pdfrwt beam="1">  1       -2 0.64826433E-02 0.23291091E+03</pdfrwt>
<totfact> 0.15907610E+03</totfact>
</mgrwt>
</event>
<event>
 4    1  0.8249026E-001  0.2199025E+03  0.7546771E-02  0.1133956E+00
          1   -1    0    0  502    0  0.00000000000E+00  0.00000000000E+00  0.12233838042E+04  0.12233838042E+04  0.00000000000E+00 0.  1.
         -1   -1    0    0    0  501 -0.00000000000E+00 -0.00000000000E+00 -0.48188089674E+02  0.48188089674E+02  0.00000000000E+00 0. -1.
          6    1    1    2  502    0 -0.33809039272E+02  0.13147261300E+03  0.85713522709E+03  0.88489428556E+03  0.17300000000E+03 0.  1.
         -6    1    1    2    0  501  0.33809039272E+02 -0.13147261300E+03  0.31806048748E+03  0.38667760836E+03  0.17300000000E+03 0. -1.
<mgrwt>
<rscale>  2 0.21990248E+03</rscale>
<asrwt>0</asrwt>
<pdfrwt beam="1">  1        1 0.18821287E+00 0.21990248E+03</pdfrwt>
<pdfrwt beam="2">  1       -1 0.74135532E-02 0.21990248E+03</pdfrwt>
<totfact> 0.10705685E+03</totfact>
</mgrwt>
</event>
<event>
 4    1  0.8249026E-001  0.1843120E+03  0.7546771E-02  0.1163694E+00
         -2   -1    0    0    0  501 -0.00000000000E+00  0.00000000000E+00  0.21750451849E+02  0.21750451849E+02  0.00000000000E+00 0. -1.
          2   -1    0    0  502    0  0.00000000000E+00 -0.00000000000E+00 -0.15618514103E+04  0.15618514103E+04  0.00000000000E+00 0.  1.
          6    1    1    2  502    0 -0.15355873642E+02 -0.61693633596E+02 -0.76894170239E+03  0.79072261189E+03  0.17300000000E+03 0. -1.
         -6    1    1    2    0  501  0.15355873642E+02  0.61693633596E+02 -0.77115925605E+03  0.79287925025E+03  0.17300000000E+03 0.  1.
<mgrwt>
<rscale>  2 0.18431198E+03</rscale>
<asrwt>0</asrwt>
<pdfrwt beam="2">  1        2 0.24028487E+00 0.18431198E+03</pdfrwt>
<pdfrwt beam="1">  1       -2 0.33462229E-02 0.18431198E+03</pdfrwt>
<totfact> 0.45217567E+03</totfact>
</mgrwt>
</event>
<event>
 4    1  0.8249026E-001  0.2146455E+03  0.7546771E-02  0.1137939E+00
         -2   -1    0    0    0  501 -0.00000000000E+00  0.00000000000E+00  0.74295534753E+02  0.74295534753E+02  0.00000000000E+00 0. -1.
          2   -1    0    0  502    0  0.00000000000E+00 -0.00000000000E+00 -0.89351042402E+03  0.89351042402E+03  0.00000000000E+00 0.  1.
          6    1    1    2  502    0 -0.54093276689E+02  0.11496789557E+03 -0.67727407150E+03  0.71047369235E+03  0.17300000000E+03 0.  1.
         -6    1    1    2    0  501  0.54093276689E+02 -0.11496789557E+03 -0.14194081776E+03  0.25733226642E+03  0.17300000000E+03 0. -1.
<mgrwt>
<rscale>  2 0.21464552E+03</rscale>
<asrwt>0</asrwt>
<pdfrwt beam="2">  1        2 0.13746314E+00 0.21464552E+03</pdfrwt>
<pdfrwt beam="1">  1       -2 0.11430082E-01 0.21464552E+03</pdfrwt>
<totfact> 0.16390988E+03</totfact>
</mgrwt>
</event>
<event>
 4    1  0.8249026E-001  0.2390728E+03  0.7546771E-02  0.1120412E+00
         -1   -1    0    0    0  501 -0.00000000000E+00  0.00000000000E+00  0.14448921357E+04  0.14448921357E+04  0.00000000000E+00 0.  1.
          1   -1    0    0  502    0  0.00000000000E+00 -0.00000000000E+00 -0.44033535759E+02  0.44033535759E+02  0.00000000000E+00 0. -1.
          6    1    1    2  502    0  0.20469181075E+02 -0.16373086686E+03  0.46306465632E+03  0.52113785131E+03  0.17300000000E+03 0. -1.
         -6    1    1    2    0  501 -0.20469181075E+02  0.16373086686E+03  0.93779394363E+03  0.96778782016E+03  0.17300000000E+03 0.  1.
<mgrwt>
<rscale>  2 0.23907276E+03</rscale>
<asrwt>0</asrwt>
<pdfrwt beam="2">  1        1 0.67743912E-02 0.23907276E+03</pdfrwt>
<pdfrwt beam="1">  1       -1 0.22229106E+00 0.23907276E+03</pdfrwt>
<totfact> 0.13075524E+02</totfact>
</mgrwt>
</event>
<event>
 4    1  0.8249026E-001  0.2326322E+03  0.7546771E-02  0.1124801E+00
         -2   -1    0    0    0  501 -0.00000000000E+00  0.00000000000E+00  0.67625224943E+02  0.67625224943E+02  0.00000000000E+00 0. -1.
          2   -1    0    0  502    0  0.00000000000E+00 -0.00000000000E+00 -0.98897519709E+03  0.98897519709E+03  0.00000000000E+00 0.  1.
          6    1    1    2  502    0  0.59844614635E+01  0.15541207973E+03 -0.69145176306E+03  0.72953633833E+03  0.17300000000E+03 0.  1.
         -6    1    1    2    0  501 -0.59844614635E+01 -0.15541207973E+03 -0.22989820909E+03  0.32706408370E+03  0.17300000000E+03 0. -1.
<mgrwt>
<rscale>  2 0.23263217E+03</rscale>
<asrwt>0</asrwt>
<pdfrwt beam="2">  1        2 0.15215001E+00 0.23263217E+03</pdfrwt>
<pdfrwt beam="1">  1       -2 0.10403882E-01 0.23263217E+03</pdfrwt>
<totfact> 0.16601428E+03</totfact>
</mgrwt>
</event>
<event>
 4    1  0.8249026E-001  0.1766326E+03  0.7546771E-02  0.1171102E+00
         -2   -1    0    0    0  501 -0.00000000000E+00  0.00000000000E+00  0.26329261415E+02  0.26329261415E+02  0.00000000000E+00 0. -1.
          2   -1    0    0  502    0  0.00000000000E+00 -0.00000000000E+00 -0.11933715509E+04  0.11933715509E+04  0.00000000000E+00 0.  1.
          6    1    1    2  502    0  0.15693887984E+02 -0.31996681093E+02 -0.63472571171E+03  0.65884430242E+03  0.17300000000E+03 0. -1.
         -6    1    1    2    0  501 -0.15693887984E+02  0.31996681093E+02 -0.53231657777E+03  0.56085650989E+03  0.17300000000E+03 0.  1.
<mgrwt>
<rscale>  2 0.17663263E+03</rscale>
<asrwt>0</asrwt>
<pdfrwt beam="2">  1        2 0.18359560E+00 0.17663263E+03</pdfrwt>
<pdfrwt beam="1">  1       -2 0.40506560E-02 0.17663263E+03</pdfrwt>
<totfact> 0.53677157E+03</totfact>
</mgrwt>
</event>
<event>
 4    1  0.8249026E-001  0.2099417E+03  0.7546771E-02  0.1141612E+00
          1   -1    0    0  502    0  0.00000000000E+00  0.00000000000E+00  0.14176386440E+04  0.14176386440E+04  0.00000000000E+00 0.  1.
         -1   -1    0    0    0  501 -0.00000000000E+00 -0.00000000000E+00 -0.31551309048E+02  0.31551309048E+02  0.00000000000E+00 0. -1.
          6    1    1    2  502    0 -0.39513351004E+02 -0.11218380715E+03  0.60550329464E+03  0.64086640676E+03  0.17300000000E+03 0. -1.
         -6    1    1    2    0  501  0.39513351004E+02  0.11218380715E+03  0.78058404030E+03  0.80832354627E+03  0.17300000000E+03 0.  1.
<mgrwt>
<rscale>  2 0.20994169E+03</rscale>
<asrwt>0</asrwt>
<pdfrwt beam="1">  1        1 0.21809820E+00 0.20994169E+03</pdfrwt>
<pdfrwt beam="2">  1       -1 0.48540487E-02 0.20994169E+03</pdfrwt>
<totfact> 0.14972814E+03</totfact>
</mgrwt>
</event>
<event>
 4    1  0.8249026E-001  0.2227232E+03  0.7546771E-02  0.1131869E+00
         -2   -1    0    0    0  501 -0.00000000000E+00  0.00000000000E+00  0.53875056320E+02  0.53875056320E+02  0.00000000000E+00 0. -1.
          2   -1    0    0  502    0  0.00000000000E+00 -0.00000000000E+00 -0.92511770766E+03  0.92511770766E+03  0.00000000000E+00 0.  1.
          6    1    1    2  502    0 -0.11306070075E+03  0.83029436021E+02 -0.40199819075E+03  0.45957388379E+03  0.17300000000E+03 0.  1.
         -6    1    1    2    0  501  0.11306070075E+03 -0.83029436021E+02 -0.46924446059E+03  0.51941888018E+03  0.17300000000E+03 0. -1.
<mgrwt>
<rscale>  2 0.22272317E+03</rscale>
<asrwt>0</asrwt>
<pdfrwt beam="2">  1        2 0.14232579E+00 0.22272317E+03</pdfrwt>
<pdfrwt beam="1">  1       -2 0.82884707E-02 0.22272317E+03</pdfrwt>
<totfact> 0.26054932E+03</totfact>
</mgrwt>
</event>
<event>
 4    1  0.8249026E-001  0.1771866E+03  0.7546771E-02  0.1170554E+00
         -1   -1    0    0    0  501 -0.00000000000E+00  0.00000000000E+00  0.16412645353E+03  0.16412645353E+03  0.00000000000E+00 0.  1.
          1   -1    0    0  502    0  0.00000000000E+00 -0.00000000000E+00 -0.19218134745E+03  0.19218134745E+03  0.00000000000E+00 0. -1.
          6    1    1    2  502    0  0.35863553656E+02 -0.13413200188E+02 -0.18680392078E+01  0.17719649542E+03  0.17300000000E+03 0.  1.
         -6    1    1    2    0  501 -0.35863553656E+02  0.13413200188E+02 -0.26186854715E+02  0.17911130556E+03  0.17300000000E+03 0.  1.
<mgrwt>
<rscale>  2 0.17718665E+03</rscale>
<asrwt>0</asrwt>
<pdfrwt beam="2">  1        1 0.29566361E-01 0.17718665E+03</pdfrwt>
<pdfrwt beam="1">  1       -1 0.25250224E-01 0.17718665E+03</pdfrwt>
<totfact> 0.20801116E+03</totfact>
</mgrwt>
</event>
<event>
 4    1  0.8249026E-001  0.1956826E+03  0.7546771E-02  0.1153434E+00
         -3   -1    0    0    0  501 -0.00000000000E+00  0.00000000000E+00  0.47945888042E+03  0.47945888042E+03  0.00000000000E+00 0. -1.
          3   -1    0    0  502    0  0.00000000000E+00 -0.00000000000E+00 -0.80748056621E+02  0.80748056621E+02  0.00000000000E+00 0.  1.
          6    1    1    2  502    0  0.35065210821E+02 -0.84457742669E+02  0.22865777685E+03  0.30095856562E+03  0.17300000000E+03 0.  1.
         -6    1    1    2    0  501 -0.35065210821E+02  0.84457742669E+02  0.17005304694E+03  0.25924837142E+03  0.17300000000E+03 0. -1.
<mgrwt>
<rscale>  2 0.19568260E+03</rscale>
<asrwt>0</asrwt>
<pdfrwt beam="2">  1        3 0.12422778E-01 0.19568260E+03</pdfrwt>
<pdfrwt beam="1">  1       -3 0.73762903E-01 0.19568260E+03</pdfrwt>
<totfact> 0.22201544E+02</totfact>
</mgrwt>
</event>
<event>
 4    1  0.8249026E-001  0.2586551E+03  0.7546771E-02  0.1107954E+00
         -4   -1    0    0    0  501 -0.00000000000E+00  0.00000000000E+00  0.73926148786E+03  0.73926148786E+03  0.00000000000E+00 0.  1.
          4   -1    0    0  502    0  0.00000000000E+00 -0.00000000000E+00 -0.13181605410E+03  0.13181605410E+03  0.00000000000E+00 0. -1.
          6    1    1    2  502    0  0.13340270706E+03  0.13848164659E+03  0.59881466574E+02  0.26549621227E+03  0.17300000000E+03 0. -1.
         -6    1    1    2    0  501 -0.13340270706E+03 -0.13848164659E+03  0.54756396719E+03  0.60558132968E+03  0.17300000000E+03 0.  1.
<mgrwt>
<rscale>  2 0.25865508E+03</rscale>
<asrwt>0</asrwt>
<pdfrwt beam="2">  1        4 0.20279393E-01 0.25865508E+03</pdfrwt>
<pdfrwt beam="1">  1       -4 0.11373253E+00 0.25865508E+03</pdfrwt>
<totfact> 0.25260013E+01</totfact>
</mgrwt>
</event>
<event>
 4    1  0.8249026E-001  0.2184406E+03  0.7546771E-02  0.1135051E+00
         -1   -1    0    0    0  501 -0.00000000000E+00  0.00000000000E+00  0.75791864867E+02  0.75791864867E+02  0.00000000000E+00 0.  1.
          1   -1    0    0  502    0  0.00000000000E+00 -0.00000000000E+00 -0.11625619445E+04  0.11625619445E+04  0.00000000000E+00 0. -1.
          6    1    1    2  502    0  0.11129600898E+03 -0.73487922315E+02 -0.96262923991E+03  0.98710249208E+03  0.17300000000E+03 0. -1.
         -6    1    1    2    0  501 -0.11129600898E+03  0.73487922315E+02 -0.12414083968E+03  0.25125131724E+03  0.17300000000E+03 0.  1.
<mgrwt>
<rscale>  2 0.21844056E+03</rscale>
<asrwt>0</asrwt>
<pdfrwt beam="2">  1        1 0.17885569E+00 0.21844056E+03</pdfrwt>
<pdfrwt beam="1">  1       -1 0.11660286E-01 0.21844056E+03</pdfrwt>
<totfact> 0.58812907E+02</totfact>
</mgrwt>
</event>
<event>
 4    1  0.8249026E-001  0.3067535E+03  0.7546771E-02  0.1081912E+00
          1   -1    0    0  502    0  0.00000000000E+00  0.00000000000E+00  0.48618268671E+03  0.48618268671E+03  0.00000000000E+00 0.  1.
         -1   -1    0    0    0  501 -0.00000000000E+00 -0.00000000000E+00 -0.30431202333E+03  0.30431202333E+03  0.00000000000E+00 0. -1.
          6    1    1    2  502    0 -0.21177512931E+03 -0.13899646322E+03  0.32939596826E+03  0.45011045987E+03  0.17300000000E+03 0.  1.
         -6    1    1    2    0  501  0.21177512931E+03  0.13899646322E+03 -0.14752530488E+03  0.34038425017E+03  0.17300000000E+03 0. -1.
<mgrwt>
<rscale>  2 0.30675352E+03</rscale>
<asrwt>0</asrwt>
<pdfrwt beam="1">  1        1 0.74797336E-01 0.30675352E+03</pdfrwt>
<pdfrwt beam="2">  1       -1 0.46817234E-01 0.30675352E+03</pdfrwt>
<totfact> 0.21873662E+02</totfact>
</mgrwt>
</event>
<event>
 4    1  0.8249026E-001  0.2184078E+03  0.7546771E-02  0.1135076E+00
          1   -1    0    0  502    0  0.00000000000E+00  0.00000000000E+00  0.14494822666E+03  0.14494822666E+03  0.00000000000E+00 0.  1.
         -1   -1    0    0    0  501 -0.00000000000E+00 -0.00000000000E+00 -0.63522596822E+03  0.63522596822E+03  0.00000000000E+00 0. -1.
          6    1    1    2  502    0  0.49779110472E+02  0.12367289773E+03 -0.51593975276E+03  0.56026402165E+03  0.17300000000E+03 0. -1.
         -6    1    1    2    0  501 -0.49779110472E+02 -0.12367289773E+03  0.25662011198E+02  0.21991017323E+03  0.17300000000E+03 0.  1.
<mgrwt>
<rscale>  2 0.21840775E+03</rscale>
<asrwt>0</asrwt>
<pdfrwt beam="1">  1        1 0.22299728E-01 0.21840775E+03</pdfrwt>
<pdfrwt beam="2">  1       -1 0.97727070E-01 0.21840775E+03</pdfrwt>
<totfact> 0.23736090E+02</totfact>
</mgrwt>
</event>
<event>
 4    1  0.8249026E-001  0.3076216E+03  0.7546771E-02  0.1081492E+00
         -1   -1    0    0    0  501 -0.00000000000E+00  0.00000000000E+00  0.44291784937E+02  0.44291784937E+02  0.00000000000E+00 0.  1.
          1   -1    0    0  502    0  0.00000000000E+00 -0.00000000000E+00 -0.22260634862E+04  0.22260634862E+04  0.00000000000E+00 0. -1.
          6    1    1    2  502    0  0.25205408090E+03 -0.34216467177E+02 -0.13185378270E+04  0.13539472026E+04  0.17300000000E+03 0. -1.
         -6    1    1    2    0  501 -0.25205408090E+03  0.34216467177E+02 -0.86323387432E+03  0.91640806855E+03  0.17300000000E+03 0.  1.
<mgrwt>
<rscale>  2 0.30762156E+03</rscale>
<asrwt>0</asrwt>
<pdfrwt beam="2">  1        1 0.34247121E+00 0.30762156E+03</pdfrwt>
<pdfrwt beam="1">  1       -1 0.68141227E-02 0.30762156E+03</pdfrwt>
<totfact> 0.26278424E+02</totfact>
</mgrwt>
</event>
<event>
 4    1  0.8249026E-001  0.2028248E+03  0.7546771E-02  0.1147377E+00
          1   -1    0    0  502    0  0.00000000000E+00  0.00000000000E+00  0.57977795682E+03  0.57977795682E+03  0.00000000000E+00 0. -1.
         -1   -1    0    0    0  501 -0.00000000000E+00 -0.00000000000E+00 -0.11343559835E+03  0.11343559835E+03  0.00000000000E+00 0.  1.
          6    1    1    2  502    0 -0.72669758692E+02 -0.76993481103E+02  0.21061773047E+02  0.20391539482E+03  0.17300000000E+03 0.  1.
         -6    1    1    2    0  501  0.72669758692E+02  0.76993481103E+02  0.44528058542E+03  0.48929816034E+03  0.17300000000E+03 0. -1.
<mgrwt>
<rscale>  2 0.20282478E+03</rscale>
<asrwt>0</asrwt>
<pdfrwt beam="1">  1        1 0.89196607E-01 0.20282478E+03</pdfrwt>
<pdfrwt beam="2">  1       -1 0.17451631E-01 0.20282478E+03</pdfrwt>
<totfact> 0.93114404E+02</totfact>
</mgrwt>
</event>
<event>
 4    1  0.8249026E-001  0.1766736E+03  0.7546771E-02  0.1171062E+00
         -2   -1    0    0    0  501 -0.00000000000E+00  0.00000000000E+00  0.28863335785E+02  0.28863335785E+02  0.00000000000E+00 0.  1.
          2   -1    0    0  502    0  0.00000000000E+00 -0.00000000000E+00 -0.11680279567E+04  0.11680279567E+04  0.00000000000E+00 0. -1.
          6    1    1    2  502    0  0.30130652647E+02 -0.19408699831E+02 -0.73253541242E+03  0.75353943779E+03  0.17300000000E+03 0. -1.
         -6    1    1    2    0  501 -0.30130652647E+02  0.19408699831E+02 -0.40662920848E+03  0.44335185468E+03  0.17300000000E+03 0.  1.
<mgrwt>
<rscale>  2 0.17667358E+03</rscale>
<asrwt>0</asrwt>
<pdfrwt beam="2">  1        2 0.17969661E+00 0.17667358E+03</pdfrwt>
<pdfrwt beam="1">  1       -2 0.44405132E-02 0.17667358E+03</pdfrwt>
<totfact> 0.48330362E+03</totfact>
</mgrwt>
</event>
<event>
 4    1  0.8249026E-001  0.1963811E+03  0.7546771E-02  0.1152829E+00
          2   -1    0    0  502    0  0.00000000000E+00  0.00000000000E+00  0.26961893837E+03  0.26961893837E+03  0.00000000000E+00 0. -1.
         -2   -1    0    0    0  501 -0.00000000000E+00 -0.00000000000E+00 -0.18077020867E+03  0.18077020867E+03  0.00000000000E+00 0.  1.
          6    1    1    2  502    0  0.34595933606E+01  0.92868628640E+02 -0.58461315219E+02  0.20489820973E+03  0.17300000000E+03 0. -1.
         -6    1    1    2    0  501 -0.34595933606E+01 -0.92868628640E+02  0.14731004492E+03  0.24549093732E+03  0.17300000000E+03 0. -1.
<mgrwt>
<rscale>  2 0.19638114E+03</rscale>
<asrwt>0</asrwt>
<pdfrwt beam="1">  1        2 0.41479837E-01 0.19638114E+03</pdfrwt>
<pdfrwt beam="2">  1       -2 0.27810801E-01 0.19638114E+03</pdfrwt>
<totfact> 0.14308198E+03</totfact>
</mgrwt>
</event>
<event>
 4    1  0.8249026E-001  0.1797438E+03  0.7546771E-02  0.1168051E+00
          2   -1    0    0  502    0  0.00000000000E+00  0.00000000000E+00  0.12966221648E+04  0.12966221648E+04  0.00000000000E+00 0.  1.
         -2   -1    0    0    0  501 -0.00000000000E+00 -0.00000000000E+00 -0.25220299495E+02  0.25220299495E+02  0.00000000000E+00 0. -1.
          6    1    1    2  502    0  0.57299585927E+01  0.48435358506E+02  0.70819052022E+03  0.73064466693E+03  0.17300000000E+03 0.  1.
         -6    1    1    2    0  501 -0.57299585927E+01 -0.48435358506E+02  0.56321134505E+03  0.59119779733E+03  0.17300000000E+03 0.  1.
<mgrwt>
<rscale>  2 0.17974375E+03</rscale>
<asrwt>0</asrwt>
<pdfrwt beam="1">  1        2 0.19948028E+00 0.17974375E+03</pdfrwt>
<pdfrwt beam="2">  1       -2 0.38800471E-02 0.17974375E+03</pdfrwt>
<totfact> 0.50212871E+03</totfact>
</mgrwt>
</event>
<event>
 4    1  0.8249026E-001  0.1902903E+03  0.7546771E-02  0.1158200E+00
          1   -1    0    0  502    0  0.00000000000E+00  0.00000000000E+00  0.40130957565E+03  0.40130957565E+03  0.00000000000E+00 0.  1.
         -1   -1    0    0    0  501 -0.00000000000E+00 -0.00000000000E+00 -0.24762538006E+03  0.24762538006E+03  0.00000000000E+00 0. -1.
          6    1    1    2  502    0  0.78668140716E+02  0.96289312192E+01 -0.18184144258E+03  0.26320467876E+03  0.17300000000E+03 0. -1.
         -6    1    1    2    0  501 -0.78668140716E+02 -0.96289312192E+01  0.33552563817E+03  0.38573027695E+03  0.17300000000E+03 0.  1.
<mgrwt>
<rscale>  2 0.19029029E+03</rscale>
<asrwt>0</asrwt>
<pdfrwt beam="1">  1        1 0.61739935E-01 0.19029029E+03</pdfrwt>
<pdfrwt beam="2">  1       -1 0.38096212E-01 0.19029029E+03</pdfrwt>
<totfact> 0.41086530E+02</totfact>
</mgrwt>
</event>
<event>
 4    1  0.8249026E-001  0.1925627E+03  0.7546771E-02  0.1156170E+00
          3   -1    0    0  502    0  0.00000000000E+00  0.00000000000E+00  0.98888320371E+02  0.98888320371E+02  0.00000000000E+00 0. -1.
         -3   -1    0    0    0  501 -0.00000000000E+00 -0.00000000000E+00 -0.37845372727E+03  0.37845372727E+03  0.00000000000E+00 0.  1.
          6    1    1    2  502    0 -0.52348144744E+02  0.66415979621E+02 -0.16267309643E+03  0.25207726377E+03  0.17300000000E+03 0. -1.
         -6    1    1    2    0  501  0.52348144744E+02 -0.66415979621E+02 -0.11689231048E+03  0.22526478388E+03  0.17300000000E+03 0. -1.
<mgrwt>
<rscale>  2 0.19256274E+03</rscale>
<asrwt>0</asrwt>
<pdfrwt beam="1">  1        3 0.15213588E-01 0.19256274E+03</pdfrwt>
<pdfrwt beam="2">  1       -3 0.58223650E-01 0.19256274E+03</pdfrwt>
<totfact> 0.25806682E+02</totfact>
</mgrwt>
</event>
<event>
 4    1  0.8249026E-001  0.2813409E+03  0.7546771E-02  0.1094959E+00
         -2   -1    0    0    0  501 -0.00000000000E+00  0.00000000000E+00  0.62971512356E+02  0.62971512356E+02  0.00000000000E+00 0.  1.
          2   -1    0    0  502    0  0.00000000000E+00 -0.00000000000E+00 -0.13233965799E+04  0.13233965799E+04  0.00000000000E+00 0. -1.
          6    1    1    2  502    0 -0.16948786074E+03  0.14316972676E+03 -0.78552469149E+03  0.83438704840E+03  0.17300000000E+03 0. -1.
         -6    1    1    2    0  501  0.16948786074E+03 -0.14316972676E+03 -0.47490037603E+03  0.55198104384E+03  0.17300000000E+03 0.  1.
<mgrwt>
<rscale>  2 0.28134091E+03</rscale>
<asrwt>0</asrwt>
<pdfrwt beam="2">  1        2 0.20359947E+00 0.28134091E+03</pdfrwt>
<pdfrwt beam="1">  1       -2 0.96879250E-02 0.28134091E+03</pdfrwt>
<totfact> 0.11897093E+03</totfact>
</mgrwt>
</event>
<event>
 4    1  0.8249026E-001  0.2196607E+03  0.7546771E-02  0.1134136E+00
         -1   -1    0    0    0  501 -0.00000000000E+00  0.00000000000E+00  0.87466589044E+03  0.87466589044E+03  0.00000000000E+00 0.  1.
          1   -1    0    0  502    0  0.00000000000E+00 -0.00000000000E+00 -0.59041712137E+02  0.59041712137E+02  0.00000000000E+00 0. -1.
          6    1    1    2  502    0  0.12285543081E+03  0.56818876479E+02  0.28818218567E+03  0.36235316163E+03  0.17300000000E+03 0. -1.
         -6    1    1    2    0  501 -0.12285543081E+03 -0.56818876479E+02  0.52744199263E+03  0.57135444095E+03  0.17300000000E+03 0.  1.
<mgrwt>
<rscale>  2 0.21966074E+03</rscale>
<asrwt>0</asrwt>
<pdfrwt beam="2">  1        1 0.90833409E-02 0.21966074E+03</pdfrwt>
<pdfrwt beam="1">  1       -1 0.13456397E+00 0.21966074E+03</pdfrwt>
<totfact> 0.36602251E+02</totfact>
</mgrwt>
</event>
<event>
 4    1  0.8249026E-001  0.2059690E+03  0.7546771E-02  0.1144798E+00
         -2   -1    0    0    0  501 -0.00000000000E+00  0.00000000000E+00  0.24231784007E+02  0.24231784007E+02  0.00000000000E+00 0.  1.
          2   -1    0    0  502    0  0.00000000000E+00 -0.00000000000E+00 -0.17601306858E+04  0.17601306858E+04  0.00000000000E+00 0. -1.
          6    1    1    2  502    0 -0.11177686349E+03 -0.39396374585E+00 -0.93316407937E+03  0.95562462371E+03  0.17300000000E+03 0. -1.
         -6    1    1    2    0  501  0.11177686349E+03  0.39396374585E+00 -0.80273482247E+03  0.82873784614E+03  0.17300000000E+03 0. -1.
<mgrwt>
<rscale>  2 0.20596898E+03</rscale>
<asrwt>0</asrwt>
<pdfrwt beam="2">  1        2 0.27078938E+00 0.20596898E+03</pdfrwt>
<pdfrwt beam="1">  1       -2 0.37279662E-02 0.20596898E+03</pdfrwt>
<totfact> 0.30356301E+03</totfact>
</mgrwt>
</event>
<event>
 4    1  0.8249026E-001  0.1903985E+03  0.7546771E-02  0.1158102E+00
         -4   -1    0    0    0  501 -0.00000000000E+00  0.00000000000E+00  0.27694749893E+02  0.27694749893E+02  0.00000000000E+00 0. -1.
          4   -1    0    0  502    0  0.00000000000E+00 -0.00000000000E+00 -0.13090004521E+04  0.13090004521E+04  0.00000000000E+00 0.  1.
          6    1    1    2  502    0 -0.38932628039E+00  0.79513752561E+02 -0.64389235942E+03  0.67145287172E+03  0.17300000000E+03 0.  1.
         -6    1    1    2    0  501  0.38932628039E+00 -0.79513752561E+02 -0.63741334276E+03  0.66524233024E+03  0.17300000000E+03 0.  1.
<mgrwt>
<rscale>  2 0.19039850E+03</rscale>
<asrwt>0</asrwt>
<pdfrwt beam="2">  1        4 0.20138464E+00 0.19039850E+03</pdfrwt>
<pdfrwt beam="1">  1       -4 0.42607318E-02 0.19039850E+03</pdfrwt>
<totfact> 0.77807851E+01</totfact>
</mgrwt>
</event>
<event>
 4    1  0.8249026E-001  0.3089184E+03  0.7546771E-02  0.1080865E+00
         -2   -1    0    0    0  501 -0.00000000000E+00  0.00000000000E+00  0.11055964396E+03  0.11055964396E+03  0.00000000000E+00 0. -1.
          2   -1    0    0  502    0  0.00000000000E+00 -0.00000000000E+00 -0.91845238692E+03  0.91845238692E+03  0.00000000000E+00 0.  1.
          6    1    1    2  502    0 -0.12148497173E+03 -0.22526202730E+03 -0.27770614935E+03  0.41539292807E+03  0.17300000000E+03 0. -1.
         -6    1    1    2    0  501  0.12148497173E+03  0.22526202730E+03 -0.53018659361E+03  0.61361910282E+03  0.17300000000E+03 0.  1.
<mgrwt>
<rscale>  2 0.30891840E+03</rscale>
<asrwt>0</asrwt>
<pdfrwt beam="2">  1        2 0.14130037E+00 0.30891840E+03</pdfrwt>
<pdfrwt beam="1">  1       -2 0.17009176E-01 0.30891840E+03</pdfrwt>
<totfact> 0.82026850E+02</totfact>
</mgrwt>
</event>
<event>
 4    1  0.8249026E-001  0.1949653E+03  0.7546771E-02  0.1154058E+00
         -2   -1    0    0    0  501 -0.00000000000E+00  0.00000000000E+00  0.32351663758E+02  0.32351663758E+02  0.00000000000E+00 0. -1.
          2   -1    0    0  502    0  0.00000000000E+00 -0.00000000000E+00 -0.12335784431E+04  0.12335784431E+04  0.00000000000E+00 0.  1.
          6    1    1    2  502    0  0.46084491752E+02  0.77192558862E+02 -0.73860852794E+03  0.76390708144E+03  0.17300000000E+03 0.  1.
         -6    1    1    2    0  501 -0.46084491752E+02 -0.77192558862E+02 -0.46261825141E+03  0.50202302543E+03  0.17300000000E+03 0. -1.
<mgrwt>
<rscale>  2 0.19496531E+03</rscale>
<asrwt>0</asrwt>
<pdfrwt beam="2">  1        2 0.18978129E+00 0.19496531E+03</pdfrwt>
<pdfrwt beam="1">  1       -2 0.49771793E-02 0.19496531E+03</pdfrwt>
<totfact> 0.37469036E+03</totfact>
</mgrwt>
</event>
<event>
 4    1  0.8249026E-001  0.1758425E+03  0.7546771E-02  0.1171888E+00
          1   -1    0    0  502    0  0.00000000000E+00  0.00000000000E+00  0.30501698768E+03  0.30501698768E+03  0.00000000000E+00 0. -1.
         -1   -1    0    0    0  501 -0.00000000000E+00 -0.00000000000E+00 -0.11951490416E+03  0.11951490416E+03  0.00000000000E+00 0.  1.
          6    1    1    2  502    0  0.31394885618E+02  0.24408907128E+01  0.10050868207E+02  0.17612954534E+03  0.17300000000E+03 0.  1.
         -6    1    1    2    0  501 -0.31394885618E+02 -0.24408907128E+01  0.17545121531E+03  0.24840234649E+03  0.17300000000E+03 0. -1.
<mgrwt>
<rscale>  2 0.17584253E+03</rscale>
<asrwt>0</asrwt>
<pdfrwt beam="1">  1        1 0.46925690E-01 0.17584253E+03</pdfrwt>
<pdfrwt beam="2">  1       -1 0.18386908E-01 0.17584253E+03</pdfrwt>
<totfact> 0.19583970E+03</totfact>
</mgrwt>
</event>
<event>
 4    1  0.8249026E-001  0.2164378E+03  0.7546771E-02  0.1136567E+00
          2   -1    0    0  502    0  0.00000000000E+00  0.00000000000E+00  0.13611843892E+04  0.13611843892E+04  0.00000000000E+00 0. -1.
         -2   -1    0    0    0  501 -0.00000000000E+00 -0.00000000000E+00 -0.34418650118E+02  0.34418650118E+02  0.00000000000E+00 0.  1.
          6    1    1    2  502    0  0.74786819901E+02  0.10641068612E+03  0.67046560628E+03  0.70453490457E+03  0.17300000000E+03 0.  1.
         -6    1    1    2    0  501 -0.74786819901E+02 -0.10641068612E+03  0.65630013280E+03  0.69106813475E+03  0.17300000000E+03 0. -1.
<mgrwt>
<rscale>  2 0.21643776E+03</rscale>
<asrwt>0</asrwt>
<pdfrwt beam="1">  1        2 0.20941294E+00 0.21643776E+03</pdfrwt>
<pdfrwt beam="2">  1       -2 0.52951780E-02 0.21643776E+03</pdfrwt>
<totfact> 0.29058120E+03</totfact>
</mgrwt>
</event>
<event>
 4    1  0.8249026E-001  0.1926403E+03  0.7546771E-02  0.1156101E+00
          2   -1    0    0  502    0  0.00000000000E+00  0.00000000000E+00  0.22252794197E+04  0.22252794197E+04  0.00000000000E+00 0. -1.
         -2   -1    0    0    0  501 -0.00000000000E+00 -0.00000000000E+00 -0.20818175599E+02  0.20818175599E+02  0.00000000000E+00 0.  1.
          6    1    1    2  502    0  0.62918101352E+02 -0.56767852026E+02  0.16031361311E+04  0.16146689232E+04  0.17300000000E+03 0. -1.
         -6    1    1    2    0  501 -0.62918101352E+02  0.56767852026E+02  0.60132511294E+03  0.63142867210E+03  0.17300000000E+03 0.  1.
<mgrwt>
<rscale>  2 0.19264028E+03</rscale>
<asrwt>0</asrwt>
<pdfrwt beam="1">  1        2 0.34235049E+00 0.19264028E+03</pdfrwt>
<pdfrwt beam="2">  1       -2 0.32027980E-02 0.19264028E+03</pdfrwt>
<totfact> 0.21797126E+03</totfact>
</mgrwt>
</event>
<event>
 4    1  0.8249026E-001  0.2616083E+03  0.7546771E-02  0.1106181E+00
         -2   -1    0    0    0  501 -0.00000000000E+00  0.00000000000E+00  0.63960963113E+02  0.63960963113E+02  0.00000000000E+00 0.  1.
          2   -1    0    0  502    0  0.00000000000E+00 -0.00000000000E+00 -0.11637237225E+04  0.11637237225E+04  0.00000000000E+00 0. -1.
          6    1    1    2  502    0  0.11066715845E+03 -0.16205773033E+03 -0.72407466123E+03  0.76988508425E+03  0.17300000000E+03 0. -1.
         -6    1    1    2    0  501 -0.11066715845E+03  0.16205773033E+03 -0.37568809820E+03  0.45779960141E+03  0.17300000000E+03 0. -1.
<mgrwt>
<rscale>  2 0.26160835E+03</rscale>
<asrwt>0</asrwt>
<pdfrwt beam="2">  1        2 0.17903441E+00 0.26160835E+03</pdfrwt>
<pdfrwt beam="1">  1       -2 0.98401485E-02 0.26160835E+03</pdfrwt>
<totfact> 0.14287354E+03</totfact>
</mgrwt>
</event>
<event>
 4    1  0.8249026E-001  0.1855877E+03  0.7546771E-02  0.1162502E+00
          2   -1    0    0  502    0  0.00000000000E+00  0.00000000000E+00  0.67699100381E+03  0.67699100381E+03  0.00000000000E+00 0. -1.
         -2   -1    0    0    0  501 -0.00000000000E+00 -0.00000000000E+00 -0.53398076865E+02  0.53398076865E+02  0.00000000000E+00 0.  1.
          6    1    1    2  502    0  0.17620950042E+02  0.64832890402E+02  0.23243415935E+03  0.29743644697E+03  0.17300000000E+03 0.  1.
         -6    1    1    2    0  501 -0.17620950042E+02 -0.64832890402E+02  0.39115876760E+03  0.43295263370E+03  0.17300000000E+03 0. -1.
<mgrwt>
<rscale>  2 0.18558772E+03</rscale>
<asrwt>0</asrwt>
<pdfrwt beam="1">  1        2 0.10415246E+00 0.18558772E+03</pdfrwt>
<pdfrwt beam="2">  1       -2 0.82150892E-02 0.18558772E+03</pdfrwt>
<totfact> 0.39015447E+03</totfact>
</mgrwt>
</event>
<event>
 4    1  0.8249026E-001  0.3062162E+03  0.7546771E-02  0.1082174E+00
          3   -1    0    0  502    0  0.00000000000E+00  0.00000000000E+00  0.13163462419E+04  0.13163462419E+04  0.00000000000E+00 0. -1.
         -3   -1    0    0    0  501 -0.00000000000E+00 -0.00000000000E+00 -0.73834121413E+02  0.73834121413E+02  0.00000000000E+00 0.  1.
          6    1    1    2  502    0 -0.18936092829E+03 -0.16727755188E+03  0.49081137375E+03  0.57850163797E+03  0.17300000000E+03 0. -1.
         -6    1    1    2    0  501  0.18936092829E+03  0.16727755188E+03  0.75170074668E+03  0.81167872529E+03  0.17300000000E+03 0.  1.
<mgrwt>
<rscale>  2 0.30621617E+03</rscale>
<asrwt>0</asrwt>
<pdfrwt beam="1">  1        3 0.20251479E+00 0.30621617E+03</pdfrwt>
<pdfrwt beam="2">  1       -3 0.11359097E-01 0.30621617E+03</pdfrwt>
<totfact> 0.23049680E+01</totfact>
</mgrwt>
</event>
<event>
 4    1  0.8249026E-001  0.1813391E+03  0.7546771E-02  0.1166513E+00
          2   -1    0    0  502    0  0.00000000000E+00  0.00000000000E+00  0.17107462646E+04  0.17107462646E+04  0.00000000000E+00 0. -1.
         -2   -1    0    0    0  501 -0.00000000000E+00 -0.00000000000E+00 -0.46506000939E+02  0.46506000939E+02  0.00000000000E+00 0.  1.
          6    1    1    2  502    0 -0.27081147970E+02 -0.47132726619E+02  0.15913723293E+03  0.24126446361E+03  0.17300000000E+03 0.  1.
         -6    1    1    2    0  501  0.27081147970E+02  0.47132726619E+02  0.15051030307E+04  0.15159878019E+04  0.17300000000E+03 0. -1.
<mgrwt>
<rscale>  2 0.18133914E+03</rscale>
<asrwt>0</asrwt>
<pdfrwt beam="1">  1        2 0.26319168E+00 0.18133914E+03</pdfrwt>
<pdfrwt beam="2">  1       -2 0.71547707E-02 0.18133914E+03</pdfrwt>
<totfact> 0.11984589E+03</totfact>
</mgrwt>
</event>
<event>
 4    1  0.8249026E-001  0.1801309E+03  0.7546771E-02  0.1167676E+00
         -2   -1    0    0    0  501 -0.00000000000E+00  0.00000000000E+00  0.83458070793E+02  0.83458070793E+02  0.00000000000E+00 0. -1.
          2   -1    0    0  502    0  0.00000000000E+00 -0.00000000000E+00 -0.39111782710E+03  0.39111782710E+03  0.00000000000E+00 0.  1.
          6    1    1    2  502    0 -0.50145710992E+02 -0.18824655228E+01 -0.13549889092E+03  0.22540427114E+03  0.17300000000E+03 0. -1.
         -6    1    1    2    0  501  0.50145710992E+02  0.18824655228E+01 -0.17216086539E+03  0.24917162675E+03  0.17300000000E+03 0.  1.
<mgrwt>
<rscale>  2 0.18013089E+03</rscale>
<asrwt>0</asrwt>
<pdfrwt beam="2">  1        2 0.60171974E-01 0.18013089E+03</pdfrwt>
<pdfrwt beam="1">  1       -2 0.12839703E-01 0.18013089E+03</pdfrwt>
<totfact> 0.35499503E+03</totfact>
</mgrwt>
</event>
<event>
 4    1  0.8249026E-001  0.1773574E+03  0.7546771E-02  0.1170385E+00
         -2   -1    0    0    0  501 -0.00000000000E+00  0.00000000000E+00  0.37281820750E+02  0.37281820750E+02  0.00000000000E+00 0.  1.
          2   -1    0    0  502    0  0.00000000000E+00 -0.00000000000E+00 -0.89664977807E+03  0.89664977807E+03  0.00000000000E+00 0. -1.
          6    1    1    2  502    0  0.25092415761E+02  0.29950069207E+02 -0.54313271912E+03  0.57135696946E+03  0.17300000000E+03 0.  1.
         -6    1    1    2    0  501 -0.25092415761E+02 -0.29950069207E+02 -0.31623523820E+03  0.36257462936E+03  0.17300000000E+03 0.  1.
<mgrwt>
<rscale>  2 0.17735737E+03</rscale>
<asrwt>0</asrwt>
<pdfrwt beam="2">  1        2 0.13794613E+00 0.17735737E+03</pdfrwt>
<pdfrwt beam="1">  1       -2 0.57356643E-02 0.17735737E+03</pdfrwt>
<totfact> 0.47684246E+03</totfact>
</mgrwt>
</event>
<event>
 4    1  0.8249026E-001  0.2063046E+03  0.7546771E-02  0.1144526E+00
          2   -1    0    0  502    0  0.00000000000E+00  0.00000000000E+00  0.44459669329E+03  0.44459669329E+03  0.00000000000E+00 0.  1.
         -2   -1    0    0    0  501 -0.00000000000E+00 -0.00000000000E+00 -0.10443738495E+03  0.10443738495E+03  0.00000000000E+00 0. -1.
          6    1    1    2  502    0  0.11163905747E+03  0.13012203039E+02  0.24934169734E+03  0.32362459519E+03  0.17300000000E+03 0.  1.
         -6    1    1    2    0  501 -0.11163905747E+03 -0.13012203039E+02  0.90817611005E+02  0.22540948305E+03  0.17300000000E+03 0.  1.
<mgrwt>
<rscale>  2 0.20630462E+03</rscale>
<asrwt>0</asrwt>
<pdfrwt beam="1">  1        2 0.68399490E-01 0.20630462E+03</pdfrwt>
<pdfrwt beam="2">  1       -2 0.16067290E-01 0.20630462E+03</pdfrwt>
<totfact> 0.21480221E+03</totfact>
</mgrwt>
</event>
<event>
 4    1  0.8249026E-001  0.2081702E+03  0.7546771E-02  0.1143023E+00
         -2   -1    0    0    0  501 -0.00000000000E+00  0.00000000000E+00  0.38059791403E+02  0.38059791403E+02  0.00000000000E+00 0.  1.
          2   -1    0    0  502    0  0.00000000000E+00 -0.00000000000E+00 -0.12578703851E+04  0.12578703851E+04  0.00000000000E+00 0. -1.
          6    1    1    2  502    0 -0.11289516938E+03  0.25700425930E+02 -0.80943255544E+03  0.83577263234E+03  0.17300000000E+03 0.  1.
         -6    1    1    2    0  501  0.11289516938E+03 -0.25700425930E+02 -0.41037803822E+03  0.46015754412E+03  0.17300000000E+03 0.  1.
<mgrwt>
<rscale>  2 0.20817020E+03</rscale>
<asrwt>0</asrwt>
<pdfrwt beam="2">  1        2 0.19351847E+00 0.20817020E+03</pdfrwt>
<pdfrwt beam="1">  1       -2 0.58553540E-02 0.20817020E+03</pdfrwt>
<totfact> 0.28389472E+03</totfact>
</mgrwt>
</event>
<event>
 4    1  0.8249026E-001  0.1769465E+03  0.7546771E-02  0.1170791E+00
         -2   -1    0    0    0  501 -0.00000000000E+00  0.00000000000E+00  0.52263660333E+03  0.52263660333E+03  0.00000000000E+00 0.  1.
          2   -1    0    0  502    0  0.00000000000E+00 -0.00000000000E+00 -0.71012490546E+02  0.71012490546E+02  0.00000000000E+00 0. -1.
          6    1    1    2  502    0 -0.36710248340E+02 -0.57804902640E+01  0.10843481404E+03  0.20752870957E+03  0.17300000000E+03 0. -1.
         -6    1    1    2    0  501  0.36710248340E+02  0.57804902640E+01  0.34318929875E+03  0.38612038431E+03  0.17300000000E+03 0.  1.
<mgrwt>
<rscale>  2 0.17694648E+03</rscale>
<asrwt>0</asrwt>
<pdfrwt beam="2">  1        2 0.10924999E-01 0.17694648E+03</pdfrwt>
<pdfrwt beam="1">  1       -2 0.80405629E-01 0.17694648E+03</pdfrwt>
<totfact> 0.79897632E+02</totfact>
</mgrwt>
</event>
<event>
 4    1  0.8249026E-001  0.1898362E+03  0.7546771E-02  0.1158609E+00
         -2   -1    0    0    0  501 -0.00000000000E+00  0.00000000000E+00  0.26475330898E+02  0.26475330898E+02  0.00000000000E+00 0. -1.
          2   -1    0    0  502    0  0.00000000000E+00 -0.00000000000E+00 -0.13761237368E+04  0.13761237368E+04  0.00000000000E+00 0.  1.
          6    1    1    2  502    0  0.69924097450E+02  0.34920174820E+02 -0.60175310685E+03  0.63098700432E+03  0.17300000000E+03 0. -1.
         -6    1    1    2    0  501 -0.69924097450E+02 -0.34920174820E+02 -0.74789529908E+03  0.77161206341E+03  0.17300000000E+03 0.  1.
<mgrwt>
<rscale>  2 0.18983624E+03</rscale>
<asrwt>0</asrwt>
<pdfrwt beam="2">  1        2 0.21171135E+00 0.18983624E+03</pdfrwt>
<pdfrwt beam="1">  1       -2 0.40731277E-02 0.18983624E+03</pdfrwt>
<totfact> 0.42329333E+03</totfact>
</mgrwt>
</event>
<event>
 4    1  0.8249026E-001  0.2186965E+03  0.7546771E-02  0.1134859E+00
          2   -1    0    0  502    0  0.00000000000E+00  0.00000000000E+00  0.62425685534E+03  0.62425685534E+03  0.00000000000E+00 0. -1.
         -2   -1    0    0    0  501 -0.00000000000E+00 -0.00000000000E+00 -0.12397686443E+03  0.12397686443E+03  0.00000000000E+00 0.  1.
          6    1    1    2  502    0 -0.64297133000E+02 -0.11732442811E+03  0.18908928754E+02  0.21951239220E+03  0.17300000000E+03 0.  1.
         -6    1    1    2    0  501  0.64297133000E+02  0.11732442811E+03  0.48137106216E+03  0.52872132757E+03  0.17300000000E+03 0. -1.
<mgrwt>
<rscale>  2 0.21869646E+03</rscale>
<asrwt>0</asrwt>
<pdfrwt beam="1">  1        2 0.96039514E-01 0.21869646E+03</pdfrwt>
<pdfrwt beam="2">  1       -2 0.19073364E-01 0.21869646E+03</pdfrwt>
<totfact> 0.10988606E+03</totfact>
</mgrwt>
</event>
<event>
 4    1  0.8249026E-001  0.2302005E+03  0.7546771E-02  0.1126499E+00
         -2   -1    0    0    0  501 -0.00000000000E+00  0.00000000000E+00  0.67261728723E+02  0.67261728723E+02  0.00000000000E+00 0. -1.
          2   -1    0    0  502    0  0.00000000000E+00 -0.00000000000E+00 -0.98954585427E+03  0.98954585427E+03  0.00000000000E+00 0.  1.
          6    1    1    2  502    0  0.14389562935E+03  0.48552180300E+02 -0.69970041939E+03  0.73659550857E+03  0.17300000000E+03 0.  1.
         -6    1    1    2    0  501 -0.14389562935E+03 -0.48552180300E+02 -0.22258370616E+03  0.32021207442E+03  0.17300000000E+03 0. -1.
<mgrwt>
<rscale>  2 0.23020049E+03</rscale>
<asrwt>0</asrwt>
<pdfrwt beam="2">  1        2 0.15223782E+00 0.23020049E+03</pdfrwt>
<pdfrwt beam="1">  1       -2 0.10347959E-01 0.23020049E+03</pdfrwt>
<totfact> 0.16730618E+03</totfact>
</mgrwt>
</event>
<event>
 4    1  0.8249026E-001  0.1748044E+03  0.7546771E-02  0.1172928E+00
         -1   -1    0    0    0  501 -0.00000000000E+00  0.00000000000E+00  0.44974838346E+02  0.44974838346E+02  0.00000000000E+00 0.  1.
          1   -1    0    0  502    0  0.00000000000E+00 -0.00000000000E+00 -0.68680155922E+03  0.68680155922E+03  0.00000000000E+00 0. -1.
          6    1    1    2  502    0 -0.18416176885E+02 -0.16983013850E+02 -0.28296833789E+03  0.33260736398E+03  0.17300000000E+03 0.  1.
         -6    1    1    2    0  501  0.18416176885E+02  0.16983013850E+02 -0.35885838299E+03  0.39916903359E+03  0.17300000000E+03 0. -1.
<mgrwt>
<rscale>  2 0.17480440E+03</rscale>
<asrwt>0</asrwt>
<pdfrwt beam="2">  1        1 0.10566177E+00 0.17480440E+03</pdfrwt>
<pdfrwt beam="1">  1       -1 0.69192066E-02 0.17480440E+03</pdfrwt>
<totfact> 0.30739000E+03</totfact>
</mgrwt>
</event>
<event>
 4    1  0.8249026E-001  0.2170710E+03  0.7546771E-02  0.1136086E+00
         -1   -1    0    0    0  501 -0.00000000000E+00  0.00000000000E+00  0.25870184557E+04  0.25870184557E+04  0.00000000000E+00 0. -1.
          1   -1    0    0  502    0  0.00000000000E+00 -0.00000000000E+00 -0.18249813760E+02  0.18249813760E+02  0.00000000000E+00 0.  1.
          6    1    1    2  502    0 -0.45527758202E+02 -0.12295551201E+03  0.12266415037E+04  0.12457002903E+04  0.17300000000E+03 0. -1.
         -6    1    1    2    0  501  0.45527758202E+02  0.12295551201E+03  0.13421271382E+04  0.13595679791E+04  0.17300000000E+03 0.  1.
<mgrwt>
<rscale>  2 0.21707104E+03</rscale>
<asrwt>0</asrwt>
<pdfrwt beam="2">  1        1 0.28076657E-02 0.21707104E+03</pdfrwt>
<pdfrwt beam="1">  1       -1 0.39800255E+00 0.21707104E+03</pdfrwt>
<totfact> 0.34296376E+01</totfact>
</mgrwt>
</event>
<event>
 4    1  0.8249026E-001  0.1869125E+03  0.7546771E-02  0.1161276E+00
         -1   -1    0    0    0  501 -0.00000000000E+00  0.00000000000E+00  0.19146882652E+03  0.19146882652E+03  0.00000000000E+00 0. -1.
          1   -1    0    0  502    0  0.00000000000E+00 -0.00000000000E+00 -0.20402733516E+03  0.20402733516E+03  0.00000000000E+00 0.  1.
          6    1    1    2  502    0  0.63173642999E+02  0.31880898876E+02 -0.70565649598E+02  0.19978941860E+03  0.17300000000E+03 0.  1.
         -6    1    1    2    0  501 -0.63173642999E+02 -0.31880898876E+02  0.58007140961E+02  0.19570674308E+03  0.17300000000E+03 0. -1.
<mgrwt>
<rscale>  2 0.18691255E+03</rscale>
<asrwt>0</asrwt>
<pdfrwt beam="2">  1        1 0.31388821E-01 0.18691255E+03</pdfrwt>
<pdfrwt beam="1">  1       -1 0.29456743E-01 0.18691255E+03</pdfrwt>
<totfact> 0.14938522E+03</totfact>
</mgrwt>
</event>
<event>
 4    1  0.8249026E-001  0.3236074E+03  0.7546771E-02  0.1074001E+00
          2   -1    0    0  502    0  0.00000000000E+00  0.00000000000E+00  0.45641506674E+03  0.45641506674E+03  0.00000000000E+00 0. -1.
         -2   -1    0    0    0  501 -0.00000000000E+00 -0.00000000000E+00 -0.23310694151E+03  0.23310694151E+03  0.00000000000E+00 0.  1.
          6    1    1    2  502    0 -0.25335513478E+03  0.10297549078E+03  0.68437973126E+02  0.33076507099E+03  0.17300000000E+03 0. -1.
         -6    1    1    2    0  501  0.25335513478E+03 -0.10297549078E+03  0.15487015211E+03  0.35875693726E+03  0.17300000000E+03 0.  1.
<mgrwt>
<rscale>  2 0.32360744E+03</rscale>
<asrwt>0</asrwt>
<pdfrwt beam="1">  1        2 0.70217702E-01 0.32360744E+03</pdfrwt>
<pdfrwt beam="2">  1       -2 0.35862607E-01 0.32360744E+03</pdfrwt>
<totfact> 0.50794030E+02</totfact>
</mgrwt>
</event>
<event>
 4    1  0.8249026E-001  0.3054277E+03  0.7546771E-02  0.1082558E+00
         -2   -1    0    0    0  501 -0.00000000000E+00  0.00000000000E+00  0.71779399973E+03  0.71779399973E+03  0.00000000000E+00 0.  1.
          2   -1    0    0  502    0  0.00000000000E+00 -0.00000000000E+00 -0.13972373386E+03  0.13972373386E+03  0.00000000000E+00 0. -1.
          6    1    1    2  502    0 -0.12691619043E+03  0.21736922678E+03  0.17570728048E+03  0.35236224054E+03  0.17300000000E+03 0.  1.
         -6    1    1    2    0  501  0.12691619043E+03 -0.21736922678E+03  0.40236298539E+03  0.50515549305E+03  0.17300000000E+03 0.  1.
<mgrwt>
<rscale>  2 0.30542773E+03</rscale>
<asrwt>0</asrwt>
<pdfrwt beam="2">  1        2 0.21495959E-01 0.30542773E+03</pdfrwt>
<pdfrwt beam="1">  1       -2 0.11042984E+00 0.30542773E+03</pdfrwt>
<totfact> 0.17386987E+02</totfact>
</mgrwt>
</event>
<event>
 4    1  0.8249026E-001  0.2012446E+03  0.7546771E-02  0.1148693E+00
         -2   -1    0    0    0  501 -0.00000000000E+00  0.00000000000E+00  0.27801590154E+02  0.27801590154E+02  0.00000000000E+00 0.  1.
          2   -1    0    0  502    0  0.00000000000E+00 -0.00000000000E+00 -0.15388617600E+04  0.15388617600E+04  0.00000000000E+00 0. -1.
          6    1    1    2  502    0  0.79828859709E+02  0.64790067349E+02 -0.93649837039E+03  0.95787713065E+03  0.17300000000E+03 0.  1.
         -6    1    1    2    0  501 -0.79828859709E+02 -0.64790067349E+02 -0.57456179945E+03  0.60878621950E+03  0.17300000000E+03 0. -1.
<mgrwt>
<rscale>  2 0.20124463E+03</rscale>
<asrwt>0</asrwt>
<pdfrwt beam="2">  1        2 0.23674791E+00 0.20124463E+03</pdfrwt>
<pdfrwt beam="1">  1       -2 0.42771687E-02 0.20124463E+03</pdfrwt>
<totfact> 0.32241052E+03</totfact>
</mgrwt>
</event>
<event>
 4    1  0.8249026E-001  0.1774138E+03  0.7546771E-02  0.1170330E+00
         -1   -1    0    0    0  501 -0.00000000000E+00  0.00000000000E+00  0.53630137716E+02  0.53630137716E+02  0.00000000000E+00 0. -1.
          1   -1    0    0  502    0  0.00000000000E+00 -0.00000000000E+00 -0.68019201915E+03  0.68019201915E+03  0.00000000000E+00 0.  1.
          6    1    1    2  502    0  0.19746996971E+02  0.34010556887E+02 -0.44916280216E+03  0.48293155283E+03  0.17300000000E+03 0.  1.
         -6    1    1    2    0  501 -0.19746996971E+02 -0.34010556887E+02 -0.17739907927E+03  0.25089060404E+03  0.17300000000E+03 0. -1.
<mgrwt>
<rscale>  2 0.17741382E+03</rscale>
<asrwt>0</asrwt>
<pdfrwt beam="2">  1        1 0.10464493E+00 0.17741382E+03</pdfrwt>
<pdfrwt beam="1">  1       -1 0.82507904E-02 0.17741382E+03</pdfrwt>
<totfact> 0.23884405E+03</totfact>
</mgrwt>
</event>
<event>
 4    1  0.8249026E-001  0.1822557E+03  0.7546771E-02  0.1165638E+00
         -2   -1    0    0    0  501 -0.00000000000E+00  0.00000000000E+00  0.28288523097E+02  0.28288523097E+02  0.00000000000E+00 0. -1.
          2   -1    0    0  502    0  0.00000000000E+00 -0.00000000000E+00 -0.23337608929E+04  0.23337608929E+04  0.00000000000E+00 0.  1.
          6    1    1    2  502    0 -0.46487763838E+02  0.33571326304E+02 -0.32025862040E+03  0.36848708265E+03  0.17300000000E+03 0. -1.
         -6    1    1    2    0  501  0.46487763838E+02 -0.33571326304E+02 -0.19852137494E+04  0.19935623333E+04  0.17300000000E+03 0.  1.
<mgrwt>
<rscale>  2 0.18225572E+03</rscale>
<asrwt>0</asrwt>
<pdfrwt beam="2">  1        2 0.35904014E+00 0.18225572E+03</pdfrwt>
<pdfrwt beam="1">  1       -2 0.43520804E-02 0.18225572E+03</pdfrwt>
<totfact> 0.12099625E+03</totfact>
</mgrwt>
</event>
<event>
 4    1  0.8249026E-001  0.1940543E+03  0.7546771E-02  0.1154855E+00
          1   -1    0    0  502    0  0.00000000000E+00  0.00000000000E+00  0.67103639112E+03  0.67103639112E+03  0.00000000000E+00 0.  1.
         -1   -1    0    0    0  501 -0.00000000000E+00 -0.00000000000E+00 -0.10640969190E+03  0.10640969190E+03  0.00000000000E+00 0. -1.
          6    1    1    2  502    0 -0.37637903579E+02  0.79444622291E+02  0.15074959692E+02  0.19463893292E+03  0.17300000000E+03 0. -1.
         -6    1    1    2    0  501  0.37637903579E+02 -0.79444622291E+02  0.54955173953E+03  0.58280715011E+03  0.17300000000E+03 0.  1.
<mgrwt>
<rscale>  2 0.19405427E+03</rscale>
<asrwt>0</asrwt>
<pdfrwt beam="1">  1        1 0.10323637E+00 0.19405427E+03</pdfrwt>
<pdfrwt beam="2">  1       -1 0.16370722E-01 0.19405427E+03</pdfrwt>
<totfact> 0.84085374E+02</totfact>
</mgrwt>
</event>
<event>
 4    1  0.8249026E-001  0.1955582E+03  0.7546771E-02  0.1153542E+00
         -3   -1    0    0    0  501 -0.00000000000E+00  0.00000000000E+00  0.30479802331E+03  0.30479802331E+03  0.00000000000E+00 0. -1.
          3   -1    0    0  502    0  0.00000000000E+00 -0.00000000000E+00 -0.13645567989E+03  0.13645567989E+03  0.00000000000E+00 0.  1.
          6    1    1    2  502    0 -0.89408203963E+02  0.17893930150E+02  0.14677130684E+03  0.24450937852E+03  0.17300000000E+03 0. -1.
         -6    1    1    2    0  501  0.89408203963E+02 -0.17893930150E+02  0.21571036577E+02  0.19674432467E+03  0.17300000000E+03 0.  1.
<mgrwt>
<rscale>  2 0.19555823E+03</rscale>
<asrwt>0</asrwt>
<pdfrwt beam="2">  1        3 0.20993182E-01 0.19555823E+03</pdfrwt>
<pdfrwt beam="1">  1       -3 0.46892003E-01 0.19555823E+03</pdfrwt>
<totfact> 0.22784579E+02</totfact>
</mgrwt>
</event>
<event>
 4    1  0.8249026E-001  0.2593863E+03  0.7546771E-02  0.1107512E+00
         -1   -1    0    0    0  501 -0.00000000000E+00  0.00000000000E+00  0.49554452843E+03  0.49554452843E+03  0.00000000000E+00 0. -1.
          1   -1    0    0  502    0  0.00000000000E+00 -0.00000000000E+00 -0.13937766990E+03  0.13937766990E+03  0.00000000000E+00 0.  1.
          6    1    1    2  502    0 -0.89232273591E+02 -0.17143476780E+03  0.12702566492E+03  0.28881966313E+03  0.17300000000E+03 0. -1.
         -6    1    1    2    0  501  0.89232273591E+02  0.17143476780E+03  0.22914119361E+03  0.34610253520E+03  0.17300000000E+03 0.  1.
<mgrwt>
<rscale>  2 0.25938635E+03</rscale>
<asrwt>0</asrwt>
<pdfrwt beam="2">  1        1 0.21442719E-01 0.25938635E+03</pdfrwt>
<pdfrwt beam="1">  1       -1 0.76237619E-01 0.25938635E+03</pdfrwt>
<totfact> 0.42196030E+02</totfact>
</mgrwt>
</event>
<event>
 4    1  0.8249026E-001  0.2079244E+03  0.7546771E-02  0.1143220E+00
         -1   -1    0    0    0  501 -0.00000000000E+00  0.00000000000E+00  0.58971930402E+03  0.58971930402E+03  0.00000000000E+00 0. -1.
          1   -1    0    0  502    0  0.00000000000E+00 -0.00000000000E+00 -0.80764539432E+02  0.80764539432E+02  0.00000000000E+00 0.  1.
          6    1    1    2  502    0 -0.82551909033E+02 -0.80552635993E+02  0.35632417804E+03  0.41255237813E+03  0.17300000000E+03 0. -1.
         -6    1    1    2    0  501  0.82551909033E+02  0.80552635993E+02  0.15263058656E+03  0.25793146532E+03  0.17300000000E+03 0.  1.
<mgrwt>
<rscale>  2 0.20792437E+03</rscale>
<asrwt>0</asrwt>
<pdfrwt beam="2">  1        1 0.12425314E-01 0.20792437E+03</pdfrwt>
<pdfrwt beam="1">  1       -1 0.90726044E-01 0.20792437E+03</pdfrwt>
<totfact> 0.59776789E+02</totfact>
</mgrwt>
</event>
<event>
 4    1  0.8249026E-001  0.2000619E+03  0.7546771E-02  0.1149687E+00
         -1   -1    0    0    0  501 -0.00000000000E+00  0.00000000000E+00  0.50556477134E+02  0.50556477134E+02  0.00000000000E+00 0.  1.
          1   -1    0    0  502    0  0.00000000000E+00 -0.00000000000E+00 -0.80769884186E+03  0.80769884186E+03  0.00000000000E+00 0. -1.
          6    1    1    2  502    0  0.93292185512E+02  0.37313743944E+02 -0.43899732847E+03  0.48243486790E+03  0.17300000000E+03 0. -1.
         -6    1    1    2    0  501 -0.93292185512E+02 -0.37313743944E+02 -0.31814503626E+03  0.37582045110E+03  0.17300000000E+03 0.  1.
<mgrwt>
<rscale>  2 0.20006186E+03</rscale>
<asrwt>0</asrwt>
<pdfrwt beam="2">  1        1 0.12426136E+00 0.20006186E+03</pdfrwt>
<pdfrwt beam="1">  1       -1 0.77779196E-02 0.20006186E+03</pdfrwt>
<totfact> 0.20311318E+03</totfact>
</mgrwt>
</event>
<event>
 4    1  0.8249026E-001  0.2962946E+03  0.7546771E-02  0.1087108E+00
         -2   -1    0    0    0  501 -0.00000000000E+00  0.00000000000E+00  0.69384973602E+02  0.69384973602E+02  0.00000000000E+00 0. -1.
          2   -1    0    0  502    0  0.00000000000E+00 -0.00000000000E+00 -0.12914428244E+04  0.12914428244E+04  0.00000000000E+00 0.  1.
          6    1    1    2  502    0 -0.19104737228E+03 -0.14615872261E+03 -0.51415846640E+03  0.59342177178E+03  0.17300000000E+03 0.  1.
         -6    1    1    2    0  501  0.19104737228E+03  0.14615872261E+03 -0.70789938439E+03  0.76740602621E+03  0.17300000000E+03 0. -1.
<mgrwt>
<rscale>  2 0.29629457E+03</rscale>
<asrwt>0</asrwt>
<pdfrwt beam="2">  1        2 0.19868350E+00 0.29629457E+03</pdfrwt>
<pdfrwt beam="1">  1       -2 0.10674612E-01 0.29629457E+03</pdfrwt>
<totfact> 0.10602861E+03</totfact>
</mgrwt>
</event>
<event>
 4    1  0.8249026E-001  0.2747259E+03  0.7546771E-02  0.1098605E+00
          1   -1    0    0  502    0  0.00000000000E+00  0.00000000000E+00  0.47370256154E+03  0.47370256154E+03  0.00000000000E+00 0.  1.
         -1   -1    0    0    0  501 -0.00000000000E+00 -0.00000000000E+00 -0.17170588581E+03  0.17170588581E+03  0.00000000000E+00 0. -1.
          6    1    1    2  502    0 -0.15799261578E+03 -0.14347011059E+03  0.64356879067E+02  0.28216333418E+03  0.17300000000E+03 0. -1.
         -6    1    1    2    0  501  0.15799261578E+03  0.14347011059E+03  0.23763979666E+03  0.36324511316E+03  0.17300000000E+03 0.  1.
<mgrwt>
<rscale>  2 0.27472593E+03</rscale>
<asrwt>0</asrwt>
<pdfrwt beam="1">  1        1 0.72877316E-01 0.27472593E+03</pdfrwt>
<pdfrwt beam="2">  1       -1 0.26416290E-01 0.27472593E+03</pdfrwt>
<totfact> 0.61848728E+02</totfact>
</mgrwt>
</event>
<event>
 4    1  0.8249026E-001  0.1730818E+03  0.7546771E-02  0.1174672E+00
         -1   -1    0    0    0  501 -0.00000000000E+00  0.00000000000E+00  0.44495102482E+03  0.44495102482E+03  0.00000000000E+00 0.  1.
          1   -1    0    0  502    0  0.00000000000E+00 -0.00000000000E+00 -0.67397067210E+02  0.67397067210E+02  0.00000000000E+00 0. -1.
          6    1    1    2  502    0 -0.28811005884E+01  0.44717203328E+01  0.18052765258E+03  0.25009504267E+03  0.17300000000E+03 0. -1.
         -6    1    1    2    0  501  0.28811005884E+01 -0.44717203328E+01  0.19702630502E+03  0.26225304935E+03  0.17300000000E+03 0.  1.
<mgrwt>
<rscale>  2 0.17308176E+03</rscale>
<asrwt>0</asrwt>
<pdfrwt beam="2">  1        1 0.10368780E-01 0.17308176E+03</pdfrwt>
<pdfrwt beam="1">  1       -1 0.68454002E-01 0.17308176E+03</pdfrwt>
<totfact> 0.13524730E+03</totfact>
</mgrwt>
</event>
<event>
 4    1  0.8249026E-001  0.2430227E+03  0.7546771E-02  0.1117795E+00
         -1   -1    0    0    0  501 -0.00000000000E+00  0.00000000000E+00  0.92681771044E+03  0.92681771044E+03  0.00000000000E+00 0.  1.
          1   -1    0    0  502    0  0.00000000000E+00 -0.00000000000E+00 -0.72281358726E+02  0.72281358726E+02  0.00000000000E+00 0. -1.
          6    1    1    2  502    0 -0.11691828943E+03 -0.12434283388E+03  0.25537877374E+03  0.35253133877E+03  0.17300000000E+03 0. -1.
         -6    1    1    2    0  501  0.11691828943E+03  0.12434283388E+03  0.59915757797E+03  0.64656773039E+03  0.17300000000E+03 0. -1.
<mgrwt>
<rscale>  2 0.24302269E+03</rscale>
<asrwt>0</asrwt>
<pdfrwt beam="2">  1        1 0.11120210E-01 0.24302269E+03</pdfrwt>
<pdfrwt beam="1">  1       -1 0.14258733E+00 0.24302269E+03</pdfrwt>
<totfact> 0.24062541E+02</totfact>
</mgrwt>
</event>
<event>
 4    1  0.8249026E-001  0.1889677E+03  0.7546771E-02  0.1159396E+00
          2   -1    0    0  502    0  0.00000000000E+00  0.00000000000E+00  0.22947490018E+03  0.22947490018E+03  0.00000000000E+00 0.  1.
         -2   -1    0    0    0  501 -0.00000000000E+00 -0.00000000000E+00 -0.15565793117E+03  0.15565793117E+03  0.00000000000E+00 0. -1.
          6    1    1    2  502    0 -0.70563150228E+02  0.28295536562E+02  0.33561208248E+02  0.19192485576E+03  0.17300000000E+03 0.  1.
         -6    1    1    2    0  501  0.70563150228E+02 -0.28295536562E+02  0.40255760759E+02  0.19320797560E+03  0.17300000000E+03 0.  1.
<mgrwt>
<rscale>  2 0.18896771E+03</rscale>
<asrwt>0</asrwt>
<pdfrwt beam="1">  1        2 0.35303831E-01 0.18896771E+03</pdfrwt>
<pdfrwt beam="2">  1       -2 0.23947374E-01 0.18896771E+03</pdfrwt>
<totfact> 0.22149417E+03</totfact>
</mgrwt>
</event>
<event>
 4    1  0.8249026E-001  0.3320832E+03  0.7546771E-02  0.1070219E+00
         -2   -1    0    0    0  501 -0.00000000000E+00  0.00000000000E+00  0.49406628145E+03  0.49406628145E+03  0.00000000000E+00 0. -1.
          2   -1    0    0  502    0  0.00000000000E+00 -0.00000000000E+00 -0.36166746642E+03  0.36166746642E+03  0.00000000000E+00 0.  1.
          6    1    1    2  502    0 -0.25439217105E+03 -0.12503937170E+03 -0.19853860361E+03  0.38690670489E+03  0.17300000000E+03 0.  1.
         -6    1    1    2    0  501  0.25439217105E+03  0.12503937170E+03  0.33093741864E+03  0.46882704297E+03  0.17300000000E+03 0. -1.
<mgrwt>
<rscale>  2 0.33208315E+03</rscale>
<asrwt>0</asrwt>
<pdfrwt beam="2">  1        2 0.55641148E-01 0.33208315E+03</pdfrwt>
<pdfrwt beam="1">  1       -2 0.76010198E-01 0.33208315E+03</pdfrwt>
<totfact> 0.14270586E+02</totfact>
</mgrwt>
</event>
<event>
 4    1  0.8249026E-001  0.1852410E+03  0.7546771E-02  0.1162825E+00
          1   -1    0    0  502    0  0.00000000000E+00  0.00000000000E+00  0.39155815693E+03  0.39155815693E+03  0.00000000000E+00 0.  1.
         -1   -1    0    0    0  501 -0.00000000000E+00 -0.00000000000E+00 -0.14924654929E+03  0.14924654929E+03  0.00000000000E+00 0. -1.
          6    1    1    2  502    0  0.14187166501E+02  0.64683352436E+02 -0.52579975992E+02  0.19255873299E+03  0.17300000000E+03 0. -1.
         -6    1    1    2    0  501 -0.14187166501E+02 -0.64683352436E+02  0.29489158363E+03  0.34824597323E+03  0.17300000000E+03 0.  1.
<mgrwt>
<rscale>  2 0.18524096E+03</rscale>
<asrwt>0</asrwt>
<pdfrwt beam="1">  1        1 0.60239716E-01 0.18524096E+03</pdfrwt>
<pdfrwt beam="2">  1       -1 0.22961008E-01 0.18524096E+03</pdfrwt>
<totfact> 0.99862037E+02</totfact>
</mgrwt>
</event>
<event>
 4    1  0.8249026E-001  0.1740040E+03  0.7546771E-02  0.1173735E+00
         -1   -1    0    0    0  501 -0.00000000000E+00  0.00000000000E+00  0.53531207669E+03  0.53531207669E+03  0.00000000000E+00 0.  1.
          1   -1    0    0  502    0  0.00000000000E+00 -0.00000000000E+00 -0.13910251127E+03  0.13910251127E+03  0.00000000000E+00 0. -1.
          6    1    1    2  502    0 -0.14207208375E+02  0.12105644969E+02 -0.61652435038E+02  0.18460339692E+03  0.17300000000E+03 0. -1.
         -6    1    1    2    0  501  0.14207208375E+02 -0.12105644969E+02  0.45786200045E+03  0.48981119104E+03  0.17300000000E+03 0.  1.
<mgrwt>
<rscale>  2 0.17400400E+03</rscale>
<asrwt>0</asrwt>
<pdfrwt beam="2">  1        1 0.21400387E-01 0.17400400E+03</pdfrwt>
<pdfrwt beam="1">  1       -1 0.82355703E-01 0.17400400E+03</pdfrwt>
<totfact> 0.36175368E+02</totfact>
</mgrwt>
</event>
<event>
 4    1  0.8249026E-001  0.2118183E+03  0.7546771E-02  0.1140134E+00
          2   -1    0    0  502    0  0.00000000000E+00  0.00000000000E+00  0.88605554338E+03  0.88605554338E+03  0.00000000000E+00 0. -1.
         -2   -1    0    0    0  501 -0.00000000000E+00 -0.00000000000E+00 -0.69745946772E+02  0.69745946772E+02  0.00000000000E+00 0.  1.
          6    1    1    2  502    0  0.20781302251E+02 -0.12044140081E+03  0.15800556638E+03  0.26425887414E+03  0.17300000000E+03 0.  1.
         -6    1    1    2    0  501 -0.20781302251E+02  0.12044140081E+03  0.65830403023E+03  0.69154261602E+03  0.17300000000E+03 0. -1.
<mgrwt>
<rscale>  2 0.21181830E+03</rscale>
<asrwt>0</asrwt>
<pdfrwt beam="1">  1        2 0.13631623E+00 0.21181830E+03</pdfrwt>
<pdfrwt beam="2">  1       -2 0.10730146E-01 0.21181830E+03</pdfrwt>
<totfact> 0.18337448E+03</totfact>
</mgrwt>
</event>
<event>
 4    1  0.8249026E-001  0.2348425E+03  0.7546771E-02  0.1123277E+00
         -2   -1    0    0    0  501 -0.00000000000E+00  0.00000000000E+00  0.94837313297E+02  0.94837313297E+02  0.00000000000E+00 0.  1.
          2   -1    0    0  502    0  0.00000000000E+00 -0.00000000000E+00 -0.97295948400E+03  0.97295948400E+03  0.00000000000E+00 0. -1.
          6    1    1    2  502    0 -0.14790971735E+03  0.57833591191E+02 -0.10042249134E+03  0.25541277478E+03  0.17300000000E+03 0.  1.
         -6    1    1    2    0  501  0.14790971735E+03 -0.57833591191E+02 -0.77769967936E+03  0.81238402251E+03  0.17300000000E+03 0. -1.
<mgrwt>
<rscale>  2 0.23484252E+03</rscale>
<asrwt>0</asrwt>
<pdfrwt beam="2">  1        2 0.14968608E+00 0.23484252E+03</pdfrwt>
<pdfrwt beam="1">  1       -2 0.14590355E-01 0.23484252E+03</pdfrwt>
<totfact> 0.98144089E+02</totfact>
</mgrwt>
</event>
<event>
 4    1  0.8249026E-001  0.3967834E+03  0.7546771E-02  0.1044899E+00
         -2   -1    0    0    0  501 -0.00000000000E+00  0.00000000000E+00  0.19742132255E+03  0.19742132255E+03  0.00000000000E+00 0. -1.
          2   -1    0    0  502    0  0.00000000000E+00 -0.00000000000E+00 -0.90021037966E+03  0.90021037966E+03  0.00000000000E+00 0.  1.
          6    1    1    2  502    0  0.15761528342E+03  0.32041460712E+03 -0.16598570268E+03  0.43010272205E+03  0.17300000000E+03 0. -1.
         -6    1    1    2    0  501 -0.15761528342E+03 -0.32041460712E+03 -0.53680335443E+03  0.66752898016E+03  0.17300000000E+03 0.  1.
<mgrwt>
<rscale>  2 0.39678344E+03</rscale>
<asrwt>0</asrwt>
<pdfrwt beam="2">  1        2 0.13849391E+00 0.39678344E+03</pdfrwt>
<pdfrwt beam="1">  1       -2 0.30372511E-01 0.39678344E+03</pdfrwt>
<totfact> 0.30237595E+02</totfact>
</mgrwt>
</event>
<event>
 4    1  0.8249026E-001  0.1774451E+03  0.7546771E-02  0.1170299E+00
          1   -1    0    0  502    0  0.00000000000E+00  0.00000000000E+00  0.77949687318E+03  0.77949687318E+03  0.00000000000E+00 0.  1.
         -1   -1    0    0    0  501 -0.00000000000E+00 -0.00000000000E+00 -0.40411023945E+02  0.40411023945E+02  0.00000000000E+00 0. -1.
          6    1    1    2  502    0  0.31736206555E+02  0.23464246820E+02  0.36105324081E+03  0.40230113147E+03  0.17300000000E+03 0.  1.
         -6    1    1    2    0  501 -0.31736206555E+02 -0.23464246820E+02  0.37803260842E+03  0.41760676565E+03  0.17300000000E+03 0.  1.
<mgrwt>
<rscale>  2 0.17744508E+03</rscale>
<asrwt>0</asrwt>
<pdfrwt beam="1">  1        1 0.11992258E+00 0.17744508E+03</pdfrwt>
<pdfrwt beam="2">  1       -1 0.62170812E-02 0.17744508E+03</pdfrwt>
<totfact> 0.30000389E+03</totfact>
</mgrwt>
</event>
<event>
 4    1  0.8249026E-001  0.1778884E+03  0.7546771E-02  0.1169862E+00
          2   -1    0    0  502    0  0.00000000000E+00  0.00000000000E+00  0.71496466673E+03  0.71496466673E+03  0.00000000000E+00 0.  1.
         -2   -1    0    0    0  501 -0.00000000000E+00 -0.00000000000E+00 -0.44563208879E+02  0.44563208879E+02  0.00000000000E+00 0. -1.
          6    1    1    2  502    0  0.40837473318E+02 -0.68983305885E+01  0.30387173223E+03  0.35211122652E+03  0.17300000000E+03 0.  1.
         -6    1    1    2    0  501 -0.40837473318E+02  0.68983305885E+01  0.36652972562E+03  0.40741664909E+03  0.17300000000E+03 0.  1.
<mgrwt>
<rscale>  2 0.17788841E+03</rscale>
<asrwt>0</asrwt>
<pdfrwt beam="1">  1        2 0.10999456E+00 0.17788841E+03</pdfrwt>
<pdfrwt beam="2">  1       -2 0.68558788E-02 0.17788841E+03</pdfrwt>
<totfact> 0.48280203E+03</totfact>
</mgrwt>
</event>
<event>
 4    1  0.8249026E-001  0.1798181E+03  0.7546771E-02  0.1167979E+00
         -2   -1    0    0    0  501 -0.00000000000E+00  0.00000000000E+00  0.82896201678E+03  0.82896201678E+03  0.00000000000E+00 0. -1.
          2   -1    0    0  502    0  0.00000000000E+00 -0.00000000000E+00 -0.59114277284E+02  0.59114277284E+02  0.00000000000E+00 0.  1.
          6    1    1    2  502    0 -0.43460245158E+02 -0.22732384458E+02  0.64390058446E+03  0.66853759571E+03  0.17300000000E+03 0. -1.
         -6    1    1    2    0  501  0.43460245158E+02  0.22732384458E+02  0.12594715503E+03  0.21953869835E+03  0.17300000000E+03 0.  1.
<mgrwt>
<rscale>  2 0.17981811E+03</rscale>
<asrwt>0</asrwt>
<pdfrwt beam="2">  1        2 0.90945048E-02 0.17981811E+03</pdfrwt>
<pdfrwt beam="1">  1       -2 0.12753261E+00 0.17981811E+03</pdfrwt>
<totfact> 0.34361797E+02</totfact>
</mgrwt>
</event>
<event>
 4    1  0.8249026E-001  0.1895673E+03  0.7546771E-02  0.1158852E+00
         -1   -1    0    0    0  501 -0.00000000000E+00  0.00000000000E+00  0.59157380816E+03  0.59157380816E+03  0.00000000000E+00 0. -1.
          1   -1    0    0  502    0  0.00000000000E+00 -0.00000000000E+00 -0.66637218605E+02  0.66637218605E+02  0.00000000000E+00 0.  1.
          6    1    1    2  502    0  0.64609693706E+02 -0.42805947510E+02  0.36032218716E+03  0.40714596918E+03  0.17300000000E+03 0.  1.
         -6    1    1    2    0  501 -0.64609693706E+02  0.42805947510E+02  0.16461440240E+03  0.25106505759E+03  0.17300000000E+03 0. -1.
<mgrwt>
<rscale>  2 0.18956730E+03</rscale>
<asrwt>0</asrwt>
<pdfrwt beam="2">  1        1 0.10251880E-01 0.18956730E+03</pdfrwt>
<pdfrwt beam="1">  1       -1 0.91011351E-01 0.18956730E+03</pdfrwt>
<totfact> 0.76621074E+02</totfact>
</mgrwt>
</event>
<event>
 4    1  0.8249026E-001  0.2036087E+03  0.7546771E-02  0.1146730E+00
          2   -1    0    0  502    0  0.00000000000E+00  0.00000000000E+00  0.27714214455E+04  0.27714214455E+04  0.00000000000E+00 0. -1.
         -2   -1    0    0    0  501 -0.00000000000E+00 -0.00000000000E+00 -0.16168875854E+02  0.16168875854E+02  0.00000000000E+00 0.  1.
          6    1    1    2  502    0 -0.10536514083E+03  0.20632664145E+02  0.99629236451E+03  0.10168849469E+04  0.17300000000E+03 0. -1.
         -6    1    1    2    0  501  0.10536514083E+03 -0.20632664145E+02  0.17589602052E+04  0.17707053744E+04  0.17300000000E+03 0. -1.
<mgrwt>
<rscale>  2 0.20360874E+03</rscale>
<asrwt>0</asrwt>
<pdfrwt beam="1">  1        2 0.42637215E+00 0.20360874E+03</pdfrwt>
<pdfrwt beam="2">  1       -2 0.24875216E-02 0.20360874E+03</pdfrwt>
<totfact> 0.15989579E+03</totfact>
</mgrwt>
</event>
<event>
 4    1  0.8249026E-001  0.1934377E+03  0.7546771E-02  0.1155397E+00
          2   -1    0    0  502    0  0.00000000000E+00  0.00000000000E+00  0.11721712171E+04  0.11721712171E+04  0.00000000000E+00 0. -1.
         -2   -1    0    0    0  501 -0.00000000000E+00 -0.00000000000E+00 -0.36143670028E+02  0.36143670028E+02  0.00000000000E+00 0.  1.
          6    1    1    2  502    0 -0.55976526124E+02 -0.65998176156E+02  0.36153634244E+03  0.41003250803E+03  0.17300000000E+03 0.  1.
         -6    1    1    2    0  501  0.55976526124E+02  0.65998176156E+02  0.77449120461E+03  0.79828237908E+03  0.17300000000E+03 0. -1.
<mgrwt>
<rscale>  2 0.19343767E+03</rscale>
<asrwt>0</asrwt>
<pdfrwt beam="1">  1        2 0.18033400E+00 0.19343767E+03</pdfrwt>
<pdfrwt beam="2">  1       -2 0.55605655E-02 0.19343767E+03</pdfrwt>
<totfact> 0.34278004E+03</totfact>
</mgrwt>
</event>
<event>
 4    1  0.8249026E-001  0.2648351E+03  0.7546771E-02  0.1104273E+00
         -2   -1    0    0    0  501 -0.00000000000E+00  0.00000000000E+00  0.99058511880E+02  0.99058511880E+02  0.00000000000E+00 0. -1.
          2   -1    0    0  502    0  0.00000000000E+00 -0.00000000000E+00 -0.74069864275E+03  0.74069864275E+03  0.00000000000E+00 0.  1.
          6    1    1    2  502    0  0.17764510506E+03  0.93009854563E+02 -0.40898314019E+03  0.48724206033E+03  0.17300000000E+03 0.  1.
         -6    1    1    2    0  501 -0.17764510506E+03 -0.93009854563E+02 -0.23265699068E+03  0.35251509430E+03  0.17300000000E+03 0.  1.
<mgrwt>
<rscale>  2 0.26483507E+03</rscale>
<asrwt>0</asrwt>
<pdfrwt beam="2">  1        2 0.11395363E+00 0.26483507E+03</pdfrwt>
<pdfrwt beam="1">  1       -2 0.15239772E-01 0.26483507E+03</pdfrwt>
<totfact> 0.13046366E+03</totfact>
</mgrwt>
</event>
<event>
 4    1  0.8249026E-001  0.1865740E+03  0.7546771E-02  0.1161588E+00
          2   -1    0    0  502    0  0.00000000000E+00  0.00000000000E+00  0.17766009024E+04  0.17766009024E+04  0.00000000000E+00 0. -1.
         -2   -1    0    0    0  501 -0.00000000000E+00 -0.00000000000E+00 -0.19674808471E+02  0.19674808471E+02  0.00000000000E+00 0.  1.
          6    1    1    2  502    0 -0.48395088923E+02 -0.50386143986E+02  0.93619656831E+03  0.95460665337E+03  0.17300000000E+03 0. -1.
         -6    1    1    2    0  501  0.48395088923E+02  0.50386143986E+02  0.82072952565E+03  0.84166905754E+03  0.17300000000E+03 0. -1.
<mgrwt>
<rscale>  2 0.18657397E+03</rscale>
<asrwt>0</asrwt>
<pdfrwt beam="1">  1        2 0.27332309E+00 0.18657397E+03</pdfrwt>
<pdfrwt beam="2">  1       -2 0.30268950E-02 0.18657397E+03</pdfrwt>
<totfact> 0.40574330E+03</totfact>
</mgrwt>
</event>
<event>
 4    1  0.8249026E-001  0.1921189E+03  0.7546771E-02  0.1156564E+00
         -1   -1    0    0    0  501 -0.00000000000E+00  0.00000000000E+00  0.33066399381E+03  0.33066399381E+03  0.00000000000E+00 0. -1.
          1   -1    0    0  502    0  0.00000000000E+00 -0.00000000000E+00 -0.11965069912E+03  0.11965069912E+03  0.00000000000E+00 0.  1.
          6    1    1    2  502    0 -0.45743536943E+01  0.83425176467E+02  0.16382776807E+03  0.25248608352E+03  0.17300000000E+03 0. -1.
         -6    1    1    2    0  501  0.45743536943E+01 -0.83425176467E+02  0.47185526622E+02  0.19782860941E+03  0.17300000000E+03 0.  1.
<mgrwt>
<rscale>  2 0.19211893E+03</rscale>
<asrwt>0</asrwt>
<pdfrwt beam="2">  1        1 0.18407800E-01 0.19211893E+03</pdfrwt>
<pdfrwt beam="1">  1       -1 0.50871383E-01 0.19211893E+03</pdfrwt>
<totfact> 0.11249480E+03</totfact>
</mgrwt>
</event>
<event>
 4    1  0.8249026E-001  0.2373034E+03  0.7546771E-02  0.1121602E+00
          1   -1    0    0  502    0  0.00000000000E+00  0.00000000000E+00  0.68807936448E+03  0.68807936448E+03  0.00000000000E+00 0. -1.
         -1   -1    0    0    0  501 -0.00000000000E+00 -0.00000000000E+00 -0.81891707597E+02  0.81891707597E+02  0.00000000000E+00 0.  1.
          6    1    1    2  502    0 -0.71785695450E+02  0.14570757059E+03  0.31270402978E+03  0.39255151565E+03  0.17300000000E+03 0. -1.
         -6    1    1    2    0  501  0.71785695450E+02 -0.14570757059E+03  0.29348362710E+03  0.37741955642E+03  0.17300000000E+03 0. -1.
<mgrwt>
<rscale>  2 0.23730335E+03</rscale>
<asrwt>0</asrwt>
<pdfrwt beam="1">  1        1 0.10585836E+00 0.23730335E+03</pdfrwt>
<pdfrwt beam="2">  1       -1 0.12598725E-01 0.23730335E+03</pdfrwt>
<totfact> 0.12268814E+03</totfact>
</mgrwt>
</event>
<event>
 4    1  0.8249026E-001  0.3328568E+03  0.7546771E-02  0.1069880E+00
          1   -1    0    0  502    0  0.00000000000E+00  0.00000000000E+00  0.82286720630E+03  0.82286720630E+03  0.00000000000E+00 0. -1.
         -1   -1    0    0    0  501 -0.00000000000E+00 -0.00000000000E+00 -0.18621298275E+03  0.18621298275E+03  0.00000000000E+00 0.  1.
          6    1    1    2  502    0 -0.28029510542E+03  0.47950888488E+02  0.58384118062E+03  0.67205963873E+03  0.17300000000E+03 0. -1.
         -6    1    1    2    0  501  0.28029510542E+03 -0.47950888488E+02  0.52813042939E+02  0.33702055032E+03  0.17300000000E+03 0.  1.
<mgrwt>
<rscale>  2 0.33285678E+03</rscale>
<asrwt>0</asrwt>
<pdfrwt beam="1">  1        1 0.12659495E+00 0.33285678E+03</pdfrwt>
<pdfrwt beam="2">  1       -1 0.28648152E-01 0.33285678E+03</pdfrwt>
<totfact> 0.24413521E+02</totfact>
</mgrwt>
</event>
<event>
 4    1  0.8249026E-001  0.1972437E+03  0.7546771E-02  0.1152086E+00
         -1   -1    0    0    0  501 -0.00000000000E+00  0.00000000000E+00  0.77514264161E+02  0.77514264161E+02  0.00000000000E+00 0.  1.
          1   -1    0    0  502    0  0.00000000000E+00 -0.00000000000E+00 -0.57407872712E+03  0.57407872712E+03  0.00000000000E+00 0. -1.
          6    1    1    2  502    0  0.72640395964E+02 -0.60823081111E+02 -0.36379752190E+03  0.41382811801E+03  0.17300000000E+03 0.  1.
         -6    1    1    2    0  501 -0.72640395964E+02  0.60823081111E+02 -0.13276694107E+03  0.23776487327E+03  0.17300000000E+03 0.  1.
<mgrwt>
<rscale>  2 0.19724369E+03</rscale>
<asrwt>0</asrwt>
<pdfrwt beam="2">  1        1 0.88319801E-01 0.19724369E+03</pdfrwt>
<pdfrwt beam="1">  1       -1 0.11925272E-01 0.19724369E+03</pdfrwt>
<totfact> 0.17208021E+03</totfact>
</mgrwt>
</event>
<event>
 4    1  0.8249026E-001  0.1846836E+03  0.7546771E-02  0.1163346E+00
         -2   -1    0    0    0  501 -0.00000000000E+00  0.00000000000E+00  0.16870328981E+03  0.16870328981E+03  0.00000000000E+00 0.  1.
          2   -1    0    0  502    0  0.00000000000E+00 -0.00000000000E+00 -0.23132062727E+03  0.23132062727E+03  0.00000000000E+00 0. -1.
          6    1    1    2  502    0  0.38430447475E+02 -0.51982108606E+02  0.39684335365E+02  0.18889914076E+03  0.17300000000E+03 0.  1.
         -6    1    1    2    0  501 -0.38430447475E+02  0.51982108606E+02 -0.10230167283E+03  0.21112477631E+03  0.17300000000E+03 0. -1.
<mgrwt>
<rscale>  2 0.18468362E+03</rscale>
<asrwt>0</asrwt>
<pdfrwt beam="2">  1        2 0.35587789E-01 0.18468362E+03</pdfrwt>
<pdfrwt beam="1">  1       -2 0.25954352E-01 0.18468362E+03</pdfrwt>
<totfact> 0.19046996E+03</totfact>
</mgrwt>
</event>
<event>
 4    1  0.8249026E-001  0.3022036E+03  0.7546771E-02  0.1084144E+00
          2   -1    0    0  502    0  0.00000000000E+00  0.00000000000E+00  0.22485668141E+04  0.22485668141E+04  0.00000000000E+00 0. -1.
         -2   -1    0    0    0  501 -0.00000000000E+00 -0.00000000000E+00 -0.48494007647E+02  0.48494007647E+02  0.00000000000E+00 0.  1.
          6    1    1    2  502    0  0.18571953948E+03 -0.16403123066E+03  0.63710521737E+03  0.70514541052E+03  0.17300000000E+03 0.  1.
         -6    1    1    2    0  501 -0.18571953948E+03  0.16403123066E+03  0.15629675891E+04  0.15919154113E+04  0.17300000000E+03 0.  1.
<mgrwt>
<rscale>  2 0.30220356E+03</rscale>
<asrwt>0</asrwt>
<pdfrwt beam="1">  1        2 0.34593328E+00 0.30220356E+03</pdfrwt>
<pdfrwt beam="2">  1       -2 0.74606183E-02 0.30220356E+03</pdfrwt>
<totfact> 0.57605234E+02</totfact>
</mgrwt>
</event>
<event>
 4    1  0.8249026E-001  0.1799081E+03  0.7546771E-02  0.1167892E+00
         -2   -1    0    0    0  501 -0.00000000000E+00  0.00000000000E+00  0.90119681886E+03  0.90119681886E+03  0.00000000000E+00 0.  1.
          2   -1    0    0  502    0  0.00000000000E+00 -0.00000000000E+00 -0.37700330170E+02  0.37700330170E+02  0.00000000000E+00 0. -1.
          6    1    1    2  502    0  0.47280340448E+02  0.14230521859E+02  0.32960412759E+03  0.37550741573E+03  0.17300000000E+03 0. -1.
         -6    1    1    2    0  501 -0.47280340448E+02 -0.14230521859E+02  0.53389236110E+03  0.56338973330E+03  0.17300000000E+03 0.  1.
<mgrwt>
<rscale>  2 0.17990814E+03</rscale>
<asrwt>0</asrwt>
<pdfrwt beam="2">  1        2 0.58000515E-02 0.17990814E+03</pdfrwt>
<pdfrwt beam="1">  1       -2 0.13864565E+00 0.17990814E+03</pdfrwt>
<totfact> 0.49594490E+02</totfact>
</mgrwt>
</event>
<event>
 4    1  0.8249026E-001  0.1907451E+03  0.7546771E-02  0.1157791E+00
          2   -1    0    0  502    0  0.00000000000E+00  0.00000000000E+00  0.21577104195E+03  0.21577104195E+03  0.00000000000E+00 0.  1.
         -2   -1    0    0    0  501 -0.00000000000E+00 -0.00000000000E+00 -0.48253270944E+03  0.48253270944E+03  0.00000000000E+00 0. -1.
          6    1    1    2  502    0  0.92873051108E+01  0.79802617096E+02 -0.41499478887E+03  0.45673229196E+03  0.17300000000E+03 0. -1.
         -6    1    1    2    0  501 -0.92873051108E+01 -0.79802617096E+02  0.14823312139E+03  0.24157145942E+03  0.17300000000E+03 0.  1.
<mgrwt>
<rscale>  2 0.19074515E+03</rscale>
<asrwt>0</asrwt>
<pdfrwt beam="1">  1        2 0.33195545E-01 0.19074515E+03</pdfrwt>
<pdfrwt beam="2">  1       -2 0.74235801E-01 0.19074515E+03</pdfrwt>
<totfact> 0.26529149E+02</totfact>
</mgrwt>
</event>
<event>
 4    1  0.8249026E-001  0.2968787E+03  0.7546771E-02  0.1086811E+00
          2   -1    0    0  502    0  0.00000000000E+00  0.00000000000E+00  0.10002494911E+04  0.10002494911E+04  0.00000000000E+00 0.  1.
         -2   -1    0    0    0  501 -0.00000000000E+00 -0.00000000000E+00 -0.89394060404E+02  0.89394060404E+02  0.00000000000E+00 0. -1.
          6    1    1    2  502    0  0.21985737686E+03  0.99351415980E+02  0.52059775878E+03  0.59929875394E+03  0.17300000000E+03 0.  1.
         -6    1    1    2    0  501 -0.21985737686E+03 -0.99351415980E+02  0.39025767193E+03  0.49034479759E+03  0.17300000000E+03 0. -1.
<mgrwt>
<rscale>  2 0.29687871E+03</rscale>
<asrwt>0</asrwt>
<pdfrwt beam="1">  1        2 0.15388453E+00 0.29687871E+03</pdfrwt>
<pdfrwt beam="2">  1       -2 0.13752933E-01 0.29687871E+03</pdfrwt>
<totfact> 0.10384754E+03</totfact>
</mgrwt>
</event>
<event>
 4    1  0.8249026E-001  0.2367023E+03  0.7546771E-02  0.1122009E+00
          1   -1    0    0  502    0  0.00000000000E+00  0.00000000000E+00  0.12260385944E+04  0.12260385944E+04  0.00000000000E+00 0. -1.
         -1   -1    0    0    0  501 -0.00000000000E+00 -0.00000000000E+00 -0.66437304867E+02  0.66437304867E+02  0.00000000000E+00 0.  1.
          6    1    1    2  502    0 -0.90032592925E+02 -0.13413848011E+03  0.21874063834E+03  0.32229717110E+03  0.17300000000E+03 0.  1.
         -6    1    1    2    0  501  0.90032592925E+02  0.13413848011E+03  0.94086065122E+03  0.97017872820E+03  0.17300000000E+03 0. -1.
<mgrwt>
<rscale>  2 0.23670234E+03</rscale>
<asrwt>0</asrwt>
<pdfrwt beam="1">  1        1 0.18862130E+00 0.23670234E+03</pdfrwt>
<pdfrwt beam="2">  1       -1 0.10221125E-01 0.23670234E+03</pdfrwt>
<totfact> 0.65048131E+02</totfact>
</mgrwt>
</event>
<event>
 4    1  0.8249026E-001  0.1887598E+03  0.7546771E-02  0.1159585E+00
         -3   -1    0    0    0  501 -0.00000000000E+00  0.00000000000E+00  0.17953396613E+04  0.17953396613E+04  0.00000000000E+00 0.  1.
          3   -1    0    0  502    0  0.00000000000E+00 -0.00000000000E+00 -0.20238827674E+02  0.20238827674E+02  0.00000000000E+00 0. -1.
          6    1    1    2  502    0  0.35928410148E+02  0.66411015652E+02  0.76107536466E+03  0.78413390716E+03  0.17300000000E+03 0. -1.
         -6    1    1    2    0  501 -0.35928410148E+02 -0.66411015652E+02  0.10140254690E+04  0.10314445818E+04  0.17300000000E+03 0.  1.
<mgrwt>
<rscale>  2 0.18875983E+03</rscale>
<asrwt>0</asrwt>
<pdfrwt beam="2">  1        3 0.31136672E-02 0.18875983E+03</pdfrwt>
<pdfrwt beam="1">  1       -3 0.27620598E+00 0.18875983E+03</pdfrwt>
<totfact> 0.69754696E+01</totfact>
</mgrwt>
</event>
<event>
 4    1  0.8249026E-001  0.1784401E+03  0.7546771E-02  0.1169321E+00
          2   -1    0    0  502    0  0.00000000000E+00  0.00000000000E+00  0.94548675228E+03  0.94548675228E+03  0.00000000000E+00 0.  1.
         -2   -1    0    0    0  501 -0.00000000000E+00 -0.00000000000E+00 -0.37509149069E+02  0.37509149069E+02  0.00000000000E+00 0. -1.
          6    1    1    2  502    0 -0.78577525976E+01  0.43013246999E+02  0.29688354978E+03  0.34638234052E+03  0.17300000000E+03 0. -1.
         -6    1    1    2    0  501  0.78577525976E+01 -0.43013246999E+02  0.61109405343E+03  0.63661356083E+03  0.17300000000E+03 0.  1.
<mgrwt>
<rscale>  2 0.17844014E+03</rscale>
<asrwt>0</asrwt>
<pdfrwt beam="1">  1        2 0.14545948E+00 0.17844014E+03</pdfrwt>
<pdfrwt beam="2">  1       -2 0.57706390E-02 0.17844014E+03</pdfrwt>
<totfact> 0.44021969E+03</totfact>
</mgrwt>
</event>
<event>
 4    1  0.8249026E-001  0.1985321E+03  0.7546771E-02  0.1150983E+00
          2   -1    0    0  502    0  0.00000000000E+00  0.00000000000E+00  0.30913613089E+04  0.30913613089E+04  0.00000000000E+00 0.  1.
         -2   -1    0    0    0  501 -0.00000000000E+00 -0.00000000000E+00 -0.29119980323E+02  0.29119980323E+02  0.00000000000E+00 0. -1.
          6    1    1    2  502    0 -0.96395503050E+02  0.13925540624E+02  0.36129955581E+03  0.41225281408E+03  0.17300000000E+03 0. -1.
         -6    1    1    2    0  501  0.96395503050E+02 -0.13925540624E+02  0.27009417728E+04  0.27082284752E+04  0.17300000000E+03 0.  1.
<mgrwt>
<rscale>  2 0.19853215E+03</rscale>
<asrwt>0</asrwt>
<pdfrwt beam="1">  1        2 0.47559379E+00 0.19853215E+03</pdfrwt>
<pdfrwt beam="2">  1       -2 0.44799994E-02 0.19853215E+03</pdfrwt>
<totfact> 0.43466441E+02</totfact>
</mgrwt>
</event>
<event>
 4    1  0.8249026E-001  0.3653132E+03  0.7546771E-02  0.1056500E+00
         -1   -1    0    0    0  501 -0.00000000000E+00  0.00000000000E+00  0.14247684518E+03  0.14247684518E+03  0.00000000000E+00 0. -1.
          1   -1    0    0  502    0  0.00000000000E+00 -0.00000000000E+00 -0.11706691548E+04  0.11706691548E+04  0.00000000000E+00 0.  1.
          6    1    1    2  502    0 -0.30165649912E+03 -0.11192892505E+03 -0.80764032478E+03  0.88641785966E+03  0.17300000000E+03 0.  1.
         -6    1    1    2    0  501  0.30165649912E+03  0.11192892505E+03 -0.22055198486E+03  0.42672814032E+03  0.17300000000E+03 0. -1.
<mgrwt>
<rscale>  2 0.36531319E+03</rscale>
<asrwt>0</asrwt>
<pdfrwt beam="2">  1        1 0.18010294E+00 0.36531319E+03</pdfrwt>
<pdfrwt beam="1">  1       -1 0.21919515E-01 0.36531319E+03</pdfrwt>
<totfact> 0.20695352E+02</totfact>
</mgrwt>
</event>
<event>
 4    1  0.8249026E-001  0.2538720E+03  0.7546771E-02  0.1110882E+00
          2   -1    0    0  502    0  0.00000000000E+00  0.00000000000E+00  0.11481853726E+04  0.11481853726E+04  0.00000000000E+00 0. -1.
         -2   -1    0    0    0  501 -0.00000000000E+00 -0.00000000000E+00 -0.29324880806E+03  0.29324880806E+03  0.00000000000E+00 0.  1.
          6    1    1    2  502    0  0.18573957281E+03  0.47726452847E+01 -0.22060936831E+03  0.33633236603E+03  0.17300000000E+03 0.  1.
         -6    1    1    2    0  501 -0.18573957281E+03 -0.47726452847E+01  0.10755459328E+04  0.11051018146E+04  0.17300000000E+03 0. -1.
<mgrwt>
<rscale>  2 0.25387195E+03</rscale>
<asrwt>0</asrwt>
<pdfrwt beam="1">  1        2 0.17664390E+00 0.25387195E+03</pdfrwt>
<pdfrwt beam="2">  1       -2 0.45115202E-01 0.25387195E+03</pdfrwt>
<totfact> 0.10258246E+02</totfact>
</mgrwt>
</event>
<event>
 4    1  0.8249026E-001  0.3704428E+03  0.7546771E-02  0.1054524E+00
         -2   -1    0    0    0  501 -0.00000000000E+00  0.00000000000E+00  0.11059743523E+03  0.11059743523E+03  0.00000000000E+00 0. -1.
          2   -1    0    0  502    0  0.00000000000E+00 -0.00000000000E+00 -0.16091280133E+04  0.16091280133E+04  0.00000000000E+00 0.  1.
          6    1    1    2  502    0 -0.18021586903E+03  0.27353446469E+03 -0.33787044157E+03  0.50138238711E+03  0.17300000000E+03 0.  1.
         -6    1    1    2    0  501  0.18021586903E+03 -0.27353446469E+03 -0.11606601365E+04  0.12183430614E+04  0.17300000000E+03 0.  1.
<mgrwt>
<rscale>  2 0.37044279E+03</rscale>
<asrwt>0</asrwt>
<pdfrwt beam="2">  1        2 0.24755814E+00 0.37044279E+03</pdfrwt>
<pdfrwt beam="1">  1       -2 0.17014991E-01 0.37044279E+03</pdfrwt>
<totfact> 0.32746976E+02</totfact>
</mgrwt>
</event>
<event>
 4    1  0.8249026E-001  0.2957162E+03  0.7546771E-02  0.1087402E+00
          2   -1    0    0  502    0  0.00000000000E+00  0.00000000000E+00  0.64643475950E+03  0.64643475950E+03  0.00000000000E+00 0. -1.
         -2   -1    0    0    0  501 -0.00000000000E+00 -0.00000000000E+00 -0.13773955089E+03  0.13773955089E+03  0.00000000000E+00 0.  1.
          6    1    1    2  502    0 -0.21315766840E+02  0.23888225540E+03  0.20192728566E+03  0.35808200535E+03  0.17300000000E+03 0.  1.
         -6    1    1    2    0  501  0.21315766840E+02 -0.23888225540E+03  0.30676792295E+03  0.42609230504E+03  0.17300000000E+03 0. -1.
<mgrwt>
<rscale>  2 0.29571624E+03</rscale>
<asrwt>0</asrwt>
<pdfrwt beam="1">  1        2 0.99451499E-01 0.29571624E+03</pdfrwt>
<pdfrwt beam="2">  1       -2 0.21190701E-01 0.29571624E+03</pdfrwt>
<totfact> 0.88034032E+02</totfact>
</mgrwt>
</event>
<event>
 4    1  0.8249026E-001  0.1947166E+03  0.7546771E-02  0.1154275E+00
          3   -1    0    0  502    0  0.00000000000E+00  0.00000000000E+00  0.12652857456E+04  0.12652857456E+04  0.00000000000E+00 0. -1.
         -3   -1    0    0    0  501 -0.00000000000E+00 -0.00000000000E+00 -0.30917223699E+02  0.30917223699E+02  0.00000000000E+00 0.  1.
          6    1    1    2  502    0 -0.16616531303E+02  0.87803446168E+02  0.73091141097E+03  0.75640336128E+03  0.17300000000E+03 0.  1.
         -6    1    1    2    0  501  0.16616531303E+02 -0.87803446168E+02  0.50345711096E+03  0.53979960804E+03  0.17300000000E+03 0. -1.
<mgrwt>
<rscale>  2 0.19471660E+03</rscale>
<asrwt>0</asrwt>
<pdfrwt beam="1">  1        3 0.19465931E+00 0.19471660E+03</pdfrwt>
<pdfrwt beam="2">  1       -3 0.47564969E-02 0.19471660E+03</pdfrwt>
<totfact> 0.10451834E+02</totfact>
</mgrwt>
</event>
<event>
 4    1  0.8249026E-001  0.1846770E+03  0.7546771E-02  0.1163352E+00
          1   -1    0    0  502    0  0.00000000000E+00  0.00000000000E+00  0.24729948564E+03  0.24729948564E+03  0.00000000000E+00 0.  1.
         -1   -1    0    0    0  501 -0.00000000000E+00 -0.00000000000E+00 -0.14175032962E+03  0.14175032962E+03  0.00000000000E+00 0. -1.
          6    1    1    2  502    0 -0.42442308702E+01 -0.64486934346E+02  0.20764872826E+02  0.18584067946E+03  0.17300000000E+03 0. -1.
         -6    1    1    2    0  501  0.42442308702E+01  0.64486934346E+02  0.84784283199E+02  0.20320913580E+03  0.17300000000E+03 0.  1.
<mgrwt>
<rscale>  2 0.18467696E+03</rscale>
<asrwt>0</asrwt>
<pdfrwt beam="1">  1        1 0.38046075E-01 0.18467696E+03</pdfrwt>
<pdfrwt beam="2">  1       -1 0.21807743E-01 0.18467696E+03</pdfrwt>
<totfact> 0.19333077E+03</totfact>
</mgrwt>
</event>
<event>
 4    1  0.8249026E-001  0.2183543E+03  0.7546771E-02  0.1135116E+00
         -1   -1    0    0    0  501 -0.00000000000E+00  0.00000000000E+00  0.42428963942E+03  0.42428963942E+03  0.00000000000E+00 0.  1.
          1   -1    0    0  502    0  0.00000000000E+00 -0.00000000000E+00 -0.17614173107E+03  0.17614173107E+03  0.00000000000E+00 0. -1.
          6    1    1    2  502    0 -0.66590914981E+02 -0.11539173209E+03  0.30471104145E+03  0.37486987152E+03  0.17300000000E+03 0.  1.
         -6    1    1    2    0  501  0.66590914981E+02  0.11539173209E+03 -0.56563133101E+02  0.22556149897E+03  0.17300000000E+03 0. -1.
<mgrwt>
<rscale>  2 0.21835430E+03</rscale>
<asrwt>0</asrwt>
<pdfrwt beam="2">  1        1 0.27098728E-01 0.21835430E+03</pdfrwt>
<pdfrwt beam="1">  1       -1 0.65275329E-01 0.21835430E+03</pdfrwt>
<totfact> 0.42753015E+02</totfact>
</mgrwt>
</event>
<event>
 4    1  0.8249026E-001  0.1959573E+03  0.7546771E-02  0.1153195E+00
          3   -1    0    0  502    0  0.00000000000E+00  0.00000000000E+00  0.54191521217E+03  0.54191521217E+03  0.00000000000E+00 0.  1.
         -3   -1    0    0    0  501 -0.00000000000E+00 -0.00000000000E+00 -0.97550098393E+02  0.97550098393E+02  0.00000000000E+00 0. -1.
          6    1    1    2  502    0 -0.84402616144E+02 -0.36693949692E+02  0.38943066068E+03  0.43595353770E+03  0.17300000000E+03 0.  1.
         -6    1    1    2    0  501  0.84402616144E+02  0.36693949692E+02  0.54934453093E+02  0.20351177286E+03  0.17300000000E+03 0. -1.
<mgrwt>
<rscale>  2 0.19595726E+03</rscale>
<asrwt>0</asrwt>
<pdfrwt beam="1">  1        3 0.83371569E-01 0.19595726E+03</pdfrwt>
<pdfrwt beam="2">  1       -3 0.15007708E-01 0.19595726E+03</pdfrwt>
<totfact> 0.12327121E+02</totfact>
</mgrwt>
</event>
<event>
 4    1  0.8249026E-001  0.1932425E+03  0.7546771E-02  0.1155569E+00
         -2   -1    0    0    0  501 -0.00000000000E+00  0.00000000000E+00  0.18995646454E+03  0.18995646454E+03  0.00000000000E+00 0. -1.
          2   -1    0    0  502    0  0.00000000000E+00 -0.00000000000E+00 -0.19717840739E+03  0.19717840739E+03  0.00000000000E+00 0.  1.
          6    1    1    2  502    0  0.76877440464E+02 -0.38775493894E+02  0.70037628073E+01  0.19336941969E+03  0.17300000000E+03 0.  1.
         -6    1    1    2    0  501 -0.76877440464E+02  0.38775493894E+02 -0.14225705653E+02  0.19376545224E+03  0.17300000000E+03 0.  1.
<mgrwt>
<rscale>  2 0.19324254E+03</rscale>
<asrwt>0</asrwt>
<pdfrwt beam="2">  1        2 0.30335140E-01 0.19324254E+03</pdfrwt>
<pdfrwt beam="1">  1       -2 0.29224071E-01 0.19324254E+03</pdfrwt>
<totfact> 0.18357782E+03</totfact>
</mgrwt>
</event>
<event>
 4    1  0.8249026E-001  0.2438146E+03  0.7546771E-02  0.1117277E+00
          2   -1    0    0  502    0  0.00000000000E+00  0.00000000000E+00  0.18904498374E+04  0.18904498374E+04  0.00000000000E+00 0.  1.
         -2   -1    0    0    0  501 -0.00000000000E+00 -0.00000000000E+00 -0.38760301020E+02  0.38760301020E+02  0.00000000000E+00 0. -1.
          6    1    1    2  502    0  0.90555963056E+02 -0.14600057634E+03  0.13448953871E+04  0.13668171615E+04  0.17300000000E+03 0.  1.
         -6    1    1    2    0  501 -0.90555963056E+02  0.14600057634E+03  0.50679414924E+03  0.56239297687E+03  0.17300000000E+03 0. -1.
<mgrwt>
<rscale>  2 0.24381458E+03</rscale>
<asrwt>0</asrwt>
<pdfrwt beam="1">  1        2 0.29083836E+00 0.24381458E+03</pdfrwt>
<pdfrwt beam="2">  1       -2 0.59631247E-02 0.24381458E+03</pdfrwt>
<totfact> 0.12710208E+03</totfact>
</mgrwt>
</event>
<event>
 4    1  0.8249026E-001  0.2314816E+03  0.7546771E-02  0.1125601E+00
         -1   -1    0    0    0  501 -0.00000000000E+00  0.00000000000E+00  0.21178848260E+03  0.21178848260E+03  0.00000000000E+00 0. -1.
          1   -1    0    0  502    0  0.00000000000E+00 -0.00000000000E+00 -0.27563478411E+03  0.27563478411E+03  0.00000000000E+00 0.  1.
          6    1    1    2  502    0  0.13123837436E+03  0.80194940179E+02  0.37906625578E+02  0.23456481321E+03  0.17300000000E+03 0. -1.
         -6    1    1    2    0  501 -0.13123837436E+03 -0.80194940179E+02 -0.10175292709E+03  0.25285845350E+03  0.17300000000E+03 0. -1.
<mgrwt>
<rscale>  2 0.23148162E+03</rscale>
<asrwt>0</asrwt>
<pdfrwt beam="2">  1        1 0.42405351E-01 0.23148162E+03</pdfrwt>
<pdfrwt beam="1">  1       -1 0.32582844E-01 0.23148162E+03</pdfrwt>
<totfact> 0.86550246E+02</totfact>
</mgrwt>
</event>
<event>
 4    1  0.8249026E-001  0.2474666E+03  0.7546771E-02  0.1114916E+00
          2   -1    0    0  502    0  0.00000000000E+00  0.00000000000E+00  0.98743795712E+02  0.98743795712E+02  0.00000000000E+00 0. -1.
         -2   -1    0    0    0  501 -0.00000000000E+00 -0.00000000000E+00 -0.69770202866E+03  0.69770202866E+03  0.00000000000E+00 0.  1.
          6    1    1    2  502    0  0.16456132680E+03 -0.65040623880E+02 -0.43221291506E+03  0.49804389061E+03  0.17300000000E+03 0.  1.
         -6    1    1    2    0  501 -0.16456132680E+03  0.65040623880E+02 -0.16674531788E+03  0.29840193376E+03  0.17300000000E+03 0. -1.
<mgrwt>
<rscale>  2 0.24746659E+03</rscale>
<asrwt>0</asrwt>
<pdfrwt beam="1">  1        2 0.15191353E-01 0.24746659E+03</pdfrwt>
<pdfrwt beam="2">  1       -2 0.10733878E+00 0.24746659E+03</pdfrwt>
<totfact> 0.27918769E+02</totfact>
</mgrwt>
</event>
<event>
 4    1  0.8249026E-001  0.2648233E+03  0.7546771E-02  0.1104279E+00
          2   -1    0    0  502    0  0.00000000000E+00  0.00000000000E+00  0.13310504493E+04  0.13310504493E+04  0.00000000000E+00 0.  1.
         -2   -1    0    0    0  501 -0.00000000000E+00 -0.00000000000E+00 -0.54065734971E+02  0.54065734971E+02  0.00000000000E+00 0. -1.
          6    1    1    2  502    0 -0.30857744964E+02  0.19811658099E+03  0.74901728989E+03  0.79445470647E+03  0.17300000000E+03 0.  1.
         -6    1    1    2    0  501  0.30857744964E+02 -0.19811658099E+03  0.52796742448E+03  0.59066147783E+03  0.17300000000E+03 0. -1.
<mgrwt>
<rscale>  2 0.26482330E+03</rscale>
<asrwt>0</asrwt>
<pdfrwt beam="1">  1        2 0.20477697E+00 0.26482330E+03</pdfrwt>
<pdfrwt beam="2">  1       -2 0.83178064E-02 0.26482330E+03</pdfrwt>
<totfact> 0.15008836E+03</totfact>
</mgrwt>
</event>
<event>
 4    1  0.8249026E-001  0.2889925E+03  0.7546771E-02  0.1090876E+00
         -2   -1    0    0    0  501 -0.00000000000E+00  0.00000000000E+00  0.97786629935E+03  0.97786629935E+03  0.00000000000E+00 0. -1.
          2   -1    0    0  502    0  0.00000000000E+00 -0.00000000000E+00 -0.85481570638E+02  0.85481570638E+02  0.00000000000E+00 0.  1.
          6    1    1    2  502    0  0.16511138106E+01  0.23148426338E+03  0.43049580927E+03  0.51850104355E+03  0.17300000000E+03 0. -1.
         -6    1    1    2    0  501 -0.16511138106E+01 -0.23148426338E+03  0.46188891944E+03  0.54484682643E+03  0.17300000000E+03 0.  1.
<mgrwt>
<rscale>  2 0.28899254E+03</rscale>
<asrwt>0</asrwt>
<pdfrwt beam="2">  1        2 0.13151012E-01 0.28899254E+03</pdfrwt>
<pdfrwt beam="1">  1       -2 0.15044096E+00 0.28899254E+03</pdfrwt>
<totfact> 0.14394238E+02</totfact>
</mgrwt>
</event>
<event>
 4    1  0.8249026E-001  0.1767563E+03  0.7546771E-02  0.1170980E+00
          1   -1    0    0  502    0  0.00000000000E+00  0.00000000000E+00  0.11980848968E+04  0.11980848968E+04  0.00000000000E+00 0.  1.
         -1   -1    0    0    0  501 -0.00000000000E+00 -0.00000000000E+00 -0.17398369335E+03  0.17398369335E+03  0.00000000000E+00 0. -1.
          6    1    1    2  502    0  0.12735927212E+02  0.33934900195E+02 -0.12048514490E+03  0.21391458911E+03  0.17300000000E+03 0. -1.
         -6    1    1    2    0  501 -0.12735927212E+02 -0.33934900195E+02  0.11445863483E+04  0.11581540010E+04  0.17300000000E+03 0.  1.
<mgrwt>
<rscale>  2 0.17675628E+03</rscale>
<asrwt>0</asrwt>
<pdfrwt beam="1">  1        1 0.18432075E+00 0.17675628E+03</pdfrwt>
<pdfrwt beam="2">  1       -1 0.26766723E-01 0.17675628E+03</pdfrwt>
<totfact> 0.14751656E+02</totfact>
</mgrwt>
</event>
<event>
 4    1  0.8249026E-001  0.1856894E+03  0.7546771E-02  0.1162408E+00
          1   -1    0    0  502    0  0.00000000000E+00  0.00000000000E+00  0.19726378321E+04  0.19726378321E+04  0.00000000000E+00 0. -1.
         -1   -1    0    0    0  501 -0.00000000000E+00 -0.00000000000E+00 -0.25838740222E+02  0.25838740222E+02  0.00000000000E+00 0.  1.
          6    1    1    2  502    0 -0.41883957222E+02 -0.52889435015E+02  0.40504548054E+03  0.44558096852E+03  0.17300000000E+03 0.  1.
         -6    1    1    2    0  501  0.41883957222E+02  0.52889435015E+02  0.15417536114E+04  0.15528956038E+04  0.17300000000E+03 0. -1.
<mgrwt>
<rscale>  2 0.18568941E+03</rscale>
<asrwt>0</asrwt>
<pdfrwt beam="1">  1        1 0.30348263E+00 0.18568941E+03</pdfrwt>
<pdfrwt beam="2">  1       -1 0.39751924E-02 0.18568941E+03</pdfrwt>
<totfact> 0.88072257E+02</totfact>
</mgrwt>
</event>
<event>
 4    1  0.8249026E-001  0.1750121E+03  0.7546771E-02  0.1172720E+00
         -1   -1    0    0    0  501 -0.00000000000E+00  0.00000000000E+00  0.18440693009E+03  0.18440693009E+03  0.00000000000E+00 0.  1.
          1   -1    0    0  502    0  0.00000000000E+00 -0.00000000000E+00 -0.16789912088E+03  0.16789912088E+03  0.00000000000E+00 0. -1.
          6    1    1    2  502    0 -0.26384762696E+02 -0.20193745843E+01  0.26509302448E+02  0.17700840854E+03  0.17300000000E+03 0.  1.
         -6    1    1    2    0  501  0.26384762696E+02  0.20193745843E+01 -0.10001493244E+02  0.17529764244E+03  0.17300000000E+03 0.  1.
<mgrwt>
<rscale>  2 0.17501210E+03</rscale>
<asrwt>0</asrwt>
<pdfrwt beam="2">  1        1 0.25830634E-01 0.17501210E+03</pdfrwt>
<pdfrwt beam="1">  1       -1 0.28370297E-01 0.17501210E+03</pdfrwt>
<totfact> 0.20294457E+03</totfact>
</mgrwt>
</event>
<event>
 4    1  0.8249026E-001  0.3774257E+03  0.7546771E-02  0.1051889E+00
         -2   -1    0    0    0  501 -0.00000000000E+00  0.00000000000E+00  0.71829831874E+03  0.71829831874E+03  0.00000000000E+00 0.  1.
          2   -1    0    0  502    0  0.00000000000E+00 -0.00000000000E+00 -0.32472189114E+03  0.32472189114E+03  0.00000000000E+00 0. -1.
          6    1    1    2  502    0 -0.25938958863E+03 -0.21269268882E+03 -0.12859143654E+03  0.39873035515E+03  0.17300000000E+03 0. -1.
         -6    1    1    2    0  501  0.25938958863E+03  0.21269268882E+03  0.52216786413E+03  0.64428985473E+03  0.17300000000E+03 0.  1.
<mgrwt>
<rscale>  2 0.37742567E+03</rscale>
<asrwt>0</asrwt>
<pdfrwt beam="2">  1        2 0.49957214E-01 0.37742567E+03</pdfrwt>
<pdfrwt beam="1">  1       -2 0.11050743E+00 0.37742567E+03</pdfrwt>
<totfact> 0.67762604E+01</totfact>
</mgrwt>
</event>
<event>
 4    1  0.8249026E-001  0.2504136E+03  0.7546771E-02  0.1113044E+00
         -2   -1    0    0    0  501 -0.00000000000E+00  0.00000000000E+00  0.52323402022E+02  0.52323402022E+02  0.00000000000E+00 0. -1.
          2   -1    0    0  502    0  0.00000000000E+00 -0.00000000000E+00 -0.15010253481E+04  0.15010253481E+04  0.00000000000E+00 0.  1.
          6    1    1    2  502    0  0.44731297206E+02 -0.17543402203E+03 -0.37564315769E+03  0.45145848862E+03  0.17300000000E+03 0. -1.
         -6    1    1    2    0  501 -0.44731297206E+02  0.17543402203E+03 -0.10730587884E+04  0.11018902615E+04  0.17300000000E+03 0. -1.
<mgrwt>
<rscale>  2 0.25041363E+03</rscale>
<asrwt>0</asrwt>
<pdfrwt beam="2">  1        2 0.23092696E+00 0.25041363E+03</pdfrwt>
<pdfrwt beam="1">  1       -2 0.80497546E-02 0.25041363E+03</pdfrwt>
<totfact> 0.12789010E+03</totfact>
</mgrwt>
</event>
<event>
 4    1  0.8249026E-001  0.1810714E+03  0.7546771E-02  0.1166770E+00
         -1   -1    0    0    0  501 -0.00000000000E+00  0.00000000000E+00  0.41327630558E+03  0.41327630558E+03  0.00000000000E+00 0.  1.
          1   -1    0    0  502    0  0.00000000000E+00 -0.00000000000E+00 -0.92748268340E+02  0.92748268340E+02  0.00000000000E+00 0. -1.
          6    1    1    2  502    0 -0.22055331108E+01 -0.53413439670E+02  0.25648555801E+03  0.31396130555E+03  0.17300000000E+03 0.  1.
         -6    1    1    2    0  501  0.22055331108E+01  0.53413439670E+02  0.64042479236E+02  0.19206326838E+03  0.17300000000E+03 0. -1.
<mgrwt>
<rscale>  2 0.18107142E+03</rscale>
<asrwt>0</asrwt>
<pdfrwt beam="2">  1        1 0.14268965E-01 0.18107142E+03</pdfrwt>
<pdfrwt beam="1">  1       -1 0.63580969E-01 0.18107142E+03</pdfrwt>
<totfact> 0.10260903E+03</totfact>
</mgrwt>
</event>
<event>
 4    1  0.8249026E-001  0.2723312E+03  0.7546771E-02  0.1099953E+00
          1   -1    0    0  502    0  0.00000000000E+00  0.00000000000E+00  0.94249948017E+02  0.94249948017E+02  0.00000000000E+00 0. -1.
         -1   -1    0    0    0  501 -0.00000000000E+00 -0.00000000000E+00 -0.10613593643E+04  0.10613593643E+04  0.00000000000E+00 0.  1.
          6    1    1    2  502    0 -0.35785537820E+02 -0.20725509616E+03 -0.77738547451E+03  0.82370653487E+03  0.17300000000E+03 0.  1.
         -6    1    1    2    0  501  0.35785537820E+02  0.20725509616E+03 -0.18972394179E+03  0.33190277747E+03  0.17300000000E+03 0. -1.
<mgrwt>
<rscale>  2 0.27233119E+03</rscale>
<asrwt>0</asrwt>
<pdfrwt beam="1">  1        1 0.14499992E-01 0.27233119E+03</pdfrwt>
<pdfrwt beam="2">  1       -1 0.16328606E+00 0.27233119E+03</pdfrwt>
<totfact> 0.11769277E+02</totfact>
</mgrwt>
</event>
<event>
 4    1  0.8249026E-001  0.3952798E+03  0.7546771E-02  0.1045426E+00
          2   -1    0    0  502    0  0.00000000000E+00  0.00000000000E+00  0.23275265951E+04  0.23275265951E+04  0.00000000000E+00 0.  1.
         -2   -1    0    0    0  501 -0.00000000000E+00 -0.00000000000E+00 -0.73453383438E+02  0.73453383438E+02  0.00000000000E+00 0. -1.
          6    1    1    2  502    0  0.25400154159E+03  0.24859672345E+03  0.77479681909E+03  0.86980240567E+03  0.17300000000E+03 0. -1.
         -6    1    1    2    0  501 -0.25400154159E+03 -0.24859672345E+03  0.14792763926E+04  0.15311775729E+04  0.17300000000E+03 0.  1.
<mgrwt>
<rscale>  2 0.39527979E+03</rscale>
<asrwt>0</asrwt>
<pdfrwt beam="1">  1        2 0.35808096E+00 0.39527979E+03</pdfrwt>
<pdfrwt beam="2">  1       -2 0.11300522E-01 0.39527979E+03</pdfrwt>
<totfact> 0.26508827E+02</totfact>
</mgrwt>
</event>
<event>
 4    1  0.8249026E-001  0.1950210E+03  0.7546771E-02  0.1154009E+00
          3   -1    0    0  502    0  0.00000000000E+00  0.00000000000E+00  0.27923485216E+03  0.27923485216E+03  0.00000000000E+00 0.  1.
         -3   -1    0    0    0  501 -0.00000000000E+00 -0.00000000000E+00 -0.18222843444E+03  0.18222843444E+03  0.00000000000E+00 0. -1.
          6    1    1    2  502    0  0.89357761567E+02 -0.10925483692E+02  0.16445800654E+03  0.25510705921E+03  0.17300000000E+03 0.  1.
         -6    1    1    2    0  501 -0.89357761567E+02  0.10925483692E+02 -0.67451588817E+02  0.20635622738E+03  0.17300000000E+03 0. -1.
<mgrwt>
<rscale>  2 0.19502096E+03</rscale>
<asrwt>0</asrwt>
<pdfrwt beam="1">  1        3 0.42959208E-01 0.19502096E+03</pdfrwt>
<pdfrwt beam="2">  1       -3 0.28035144E-01 0.19502096E+03</pdfrwt>
<totfact> 0.16028505E+02</totfact>
</mgrwt>
</event>
<event>
 4    1  0.8249026E-001  0.1770619E+03  0.7546771E-02  0.1170677E+00
         -2   -1    0    0    0  501 -0.00000000000E+00  0.00000000000E+00  0.17758883941E+02  0.17758883941E+02  0.00000000000E+00 0. -1.
          2   -1    0    0  502    0  0.00000000000E+00 -0.00000000000E+00 -0.17916818790E+04  0.17916818790E+04  0.00000000000E+00 0.  1.
          6    1    1    2  502    0 -0.33851527233E+02 -0.16613141615E+02 -0.99660839980E+03  0.10122150092E+04  0.17300000000E+03 0.  1.
         -6    1    1    2    0  501  0.33851527233E+02  0.16613141615E+02 -0.77731459531E+03  0.79722575375E+03  0.17300000000E+03 0. -1.
<mgrwt>
<rscale>  2 0.17706192E+03</rscale>
<asrwt>0</asrwt>
<pdfrwt beam="2">  1        2 0.27564338E+00 0.17706192E+03</pdfrwt>
<pdfrwt beam="1">  1       -2 0.27321358E-02 0.17706192E+03</pdfrwt>
<totfact> 0.46344299E+03</totfact>
</mgrwt>
</event>
<event>
 4    1  0.8249026E-001  0.2359136E+03  0.7546771E-02  0.1122545E+00
          2   -1    0    0  502    0  0.00000000000E+00  0.00000000000E+00  0.14439079578E+04  0.14439079578E+04  0.00000000000E+00 0.  1.
         -2   -1    0    0    0  501 -0.00000000000E+00 -0.00000000000E+00 -0.73249078175E+02  0.73249078175E+02  0.00000000000E+00 0. -1.
          6    1    1    2  502    0  0.11551785283E+03 -0.11127373235E+03  0.12074738628E+04  0.12303041685E+04  0.17300000000E+03 0.  1.
         -6    1    1    2    0  501 -0.11551785283E+03  0.11127373235E+03  0.16318501684E+03  0.28685286743E+03  0.17300000000E+03 0. -1.
<mgrwt>
<rscale>  2 0.23591358E+03</rscale>
<asrwt>0</asrwt>
<pdfrwt beam="1">  1        2 0.22213966E+00 0.23591358E+03</pdfrwt>
<pdfrwt beam="2">  1       -2 0.11269090E-01 0.23591358E+03</pdfrwt>
<totfact> 0.80564879E+02</totfact>
</mgrwt>
</event>
<event>
 4    1  0.8249026E-001  0.3717669E+03  0.7546771E-02  0.1054019E+00
          2   -1    0    0  502    0  0.00000000000E+00  0.00000000000E+00  0.51107020109E+03  0.51107020109E+03  0.00000000000E+00 0.  1.
         -2   -1    0    0    0  501 -0.00000000000E+00 -0.00000000000E+00 -0.34675746437E+03  0.34675746437E+03  0.00000000000E+00 0. -1.
          6    1    1    2  502    0 -0.13990302467E+03 -0.29784017190E+03  0.28338368200E+03  0.46745795055E+03  0.17300000000E+03 0.  1.
         -6    1    1    2    0  501  0.13990302467E+03  0.29784017190E+03 -0.11907094528E+03  0.39036971491E+03  0.17300000000E+03 0. -1.
<mgrwt>
<rscale>  2 0.37176690E+03</rscale>
<asrwt>0</asrwt>
<pdfrwt beam="1">  1        2 0.78626185E-01 0.37176690E+03</pdfrwt>
<pdfrwt beam="2">  1       -2 0.53347302E-01 0.37176690E+03</pdfrwt>
<totfact> 0.20476991E+02</totfact>
</mgrwt>
</event>
<event>
 4    1  0.8249026E-001  0.2344517E+03  0.7546771E-02  0.1123545E+00
          1   -1    0    0  502    0  0.00000000000E+00  0.00000000000E+00  0.76250297541E+02  0.76250297541E+02  0.00000000000E+00 0. -1.
         -1   -1    0    0    0  501 -0.00000000000E+00 -0.00000000000E+00 -0.73535727236E+03  0.73535727236E+03  0.00000000000E+00 0.  1.
          6    1    1    2  502    0  0.15742369037E+03 -0.16012092595E+02 -0.27262193349E+03  0.35956963723E+03  0.17300000000E+03 0. -1.
         -6    1    1    2    0  501 -0.15742369037E+03  0.16012092595E+02 -0.38648504132E+03  0.45203793266E+03  0.17300000000E+03 0.  1.
<mgrwt>
<rscale>  2 0.23445171E+03</rscale>
<asrwt>0</asrwt>
<pdfrwt beam="1">  1        1 0.11730815E-01 0.23445171E+03</pdfrwt>
<pdfrwt beam="2">  1       -1 0.11313189E+00 0.23445171E+03</pdfrwt>
<totfact> 0.39405363E+02</totfact>
</mgrwt>
</event>
<event>
 4    1  0.8249026E-001  0.2167450E+03  0.7546771E-02  0.1136333E+00
         -2   -1    0    0    0  501 -0.00000000000E+00  0.00000000000E+00  0.28584582056E+03  0.28584582056E+03  0.00000000000E+00 0.  1.
          2   -1    0    0  502    0  0.00000000000E+00 -0.00000000000E+00 -0.22988283999E+03  0.22988283999E+03  0.00000000000E+00 0. -1.
          6    1    1    2  502    0 -0.10490897572E+03 -0.77740082161E+02  0.16566169789E+03  0.27280434694E+03  0.17300000000E+03 0.  1.
         -6    1    1    2    0  501  0.10490897572E+03  0.77740082161E+02 -0.10969871732E+03  0.24292431361E+03  0.17300000000E+03 0. -1.
<mgrwt>
<rscale>  2 0.21674504E+03</rscale>
<asrwt>0</asrwt>
<pdfrwt beam="2">  1        2 0.35366591E-01 0.21674504E+03</pdfrwt>
<pdfrwt beam="1">  1       -2 0.43976280E-01 0.21674504E+03</pdfrwt>
<totfact> 0.72476949E+02</totfact>
</mgrwt>
</event>
<event>
 4    1  0.8249026E-001  0.1899513E+03  0.7546771E-02  0.1158505E+00
         -3   -1    0    0    0  501 -0.00000000000E+00  0.00000000000E+00  0.29050191553E+03  0.29050191553E+03  0.00000000000E+00 0. -1.
          3   -1    0    0  502    0  0.00000000000E+00 -0.00000000000E+00 -0.25217634045E+03  0.25217634045E+03  0.00000000000E+00 0.  1.
          6    1    1    2  502    0  0.94449053881E+01  0.77867182746E+02 -0.17413117366E+03  0.25768812551E+03  0.17300000000E+03 0.  1.
         -6    1    1    2    0  501 -0.94449053881E+01 -0.77867182746E+02  0.21245674874E+03  0.28499013048E+03  0.17300000000E+03 0. -1.
<mgrwt>
<rscale>  2 0.18995132E+03</rscale>
<asrwt>0</asrwt>
<pdfrwt beam="2">  1        3 0.38796360E-01 0.18995132E+03</pdfrwt>
<pdfrwt beam="1">  1       -3 0.44692602E-01 0.18995132E+03</pdfrwt>
<totfact> 0.80096922E+01</totfact>
</mgrwt>
</event>
<event>
 4    1  0.8249026E-001  0.1941908E+03  0.7546771E-02  0.1154735E+00
          1   -1    0    0  502    0  0.00000000000E+00  0.00000000000E+00  0.65922097836E+02  0.65922097836E+02  0.00000000000E+00 0.  1.
         -1   -1    0    0    0  501 -0.00000000000E+00 -0.00000000000E+00 -0.90281536252E+03  0.90281536252E+03  0.00000000000E+00 0. -1.
          6    1    1    2  502    0 -0.43269027493E+01 -0.88104125128E+02 -0.71163273689E+03  0.73765250028E+03  0.17300000000E+03 0. -1.
         -6    1    1    2    0  501  0.43269027493E+01  0.88104125128E+02 -0.12526052780E+03  0.23108496008E+03  0.17300000000E+03 0.  1.
<mgrwt>
<rscale>  2 0.19419078E+03</rscale>
<asrwt>0</asrwt>
<pdfrwt beam="1">  1        1 0.10141861E-01 0.19419078E+03</pdfrwt>
<pdfrwt beam="2">  1       -1 0.13889467E+00 0.19419078E+03</pdfrwt>
<totfact> 0.29176888E+02</totfact>
</mgrwt>
</event>
<event>
 4    1  0.8249026E-001  0.2110948E+03  0.7546771E-02  0.1140702E+00
          1   -1    0    0  502    0  0.00000000000E+00  0.00000000000E+00  0.72675196958E+03  0.72675196958E+03  0.00000000000E+00 0.  1.
         -1   -1    0    0    0  501 -0.00000000000E+00 -0.00000000000E+00 -0.11745893856E+03  0.11745893856E+03  0.00000000000E+00 0. -1.
          6    1    1    2  502    0  0.11264378788E+03 -0.44083966607E+02  0.59647533873E+03  0.63272730996E+03  0.17300000000E+03 0.  1.
         -6    1    1    2    0  501 -0.11264378788E+03  0.44083966607E+02  0.12817692293E+02  0.21148359817E+03  0.17300000000E+03 0. -1.
<mgrwt>
<rscale>  2 0.21109481E+03</rscale>
<asrwt>0</asrwt>
<pdfrwt beam="1">  1        1 0.11180799E+00 0.21109481E+03</pdfrwt>
<pdfrwt beam="2">  1       -1 0.18070606E-01 0.21109481E+03</pdfrwt>
<totfact> 0.63916513E+02</totfact>
</mgrwt>
</event>
<event>
 4    1  0.8249026E-001  0.1928604E+03  0.7546771E-02  0.1155906E+00
          2   -1    0    0  502    0  0.00000000000E+00  0.00000000000E+00  0.36446349574E+03  0.36446349574E+03  0.00000000000E+00 0.  1.
         -2   -1    0    0    0  501 -0.00000000000E+00 -0.00000000000E+00 -0.11397222107E+03  0.11397222107E+03  0.00000000000E+00 0. -1.
          6    1    1    2  502    0  0.82380121064E+02  0.21901097152E+02  0.47890248814E+02  0.19871743339E+03  0.17300000000E+03 0. -1.
         -6    1    1    2    0  501 -0.82380121064E+02 -0.21901097152E+02  0.20260102585E+03  0.27971828342E+03  0.17300000000E+03 0.  1.
<mgrwt>
<rscale>  2 0.19286042E+03</rscale>
<asrwt>0</asrwt>
<pdfrwt beam="1">  1        2 0.56071306E-01 0.19286042E+03</pdfrwt>
<pdfrwt beam="2">  1       -2 0.17534188E-01 0.19286042E+03</pdfrwt>
<totfact> 0.22988175E+03</totfact>
</mgrwt>
</event>
<event>
 4    1  0.8249026E-001  0.2586763E+03  0.7546771E-02  0.1107941E+00
          1   -1    0    0  502    0  0.00000000000E+00  0.00000000000E+00  0.39433413109E+03  0.39433413109E+03  0.00000000000E+00 0.  1.
         -1   -1    0    0    0  501 -0.00000000000E+00 -0.00000000000E+00 -0.17227528795E+03  0.17227528795E+03  0.00000000000E+00 0. -1.
          6    1    1    2  502    0  0.37205213480E+02 -0.18868017650E+03  0.14575388742E+03  0.29691351032E+03  0.17300000000E+03 0.  1.
         -6    1    1    2    0  501 -0.37205213480E+02  0.18868017650E+03  0.76304955714E+02  0.26969590872E+03  0.17300000000E+03 0. -1.
<mgrwt>
<rscale>  2 0.25867632E+03</rscale>
<asrwt>0</asrwt>
<pdfrwt beam="1">  1        1 0.60666789E-01 0.25867632E+03</pdfrwt>
<pdfrwt beam="2">  1       -1 0.26503891E-01 0.25867632E+03</pdfrwt>
<totfact> 0.78110676E+02</totfact>
</mgrwt>
</event>
<event>
 4    1  0.8249026E-001  0.2596405E+03  0.7546771E-02  0.1107359E+00
          2   -1    0    0  502    0  0.00000000000E+00  0.00000000000E+00  0.11471823284E+04  0.11471823284E+04  0.00000000000E+00 0.  1.
         -2   -1    0    0    0  501 -0.00000000000E+00 -0.00000000000E+00 -0.17775871957E+03  0.17775871957E+03  0.00000000000E+00 0. -1.
          6    1    1    2  502    0  0.18887661034E+03  0.42542058474E+02 -0.57307387161E+02  0.26588970889E+03  0.17300000000E+03 0. -1.
         -6    1    1    2    0  501 -0.18887661034E+03 -0.42542058474E+02  0.10267309960E+04  0.10590513391E+04  0.17300000000E+03 0.  1.
<mgrwt>
<rscale>  2 0.25964052E+03</rscale>
<asrwt>0</asrwt>
<pdfrwt beam="1">  1        2 0.17648958E+00 0.25964052E+03</pdfrwt>
<pdfrwt beam="2">  1       -2 0.27347496E-01 0.25964052E+03</pdfrwt>
<totfact> 0.26205686E+02</totfact>
</mgrwt>
</event>
<event>
 4    1  0.8249026E-001  0.2049713E+03  0.7546771E-02  0.1145611E+00
          1   -1    0    0  502    0  0.00000000000E+00  0.00000000000E+00  0.26900065822E+03  0.26900065822E+03  0.00000000000E+00 0. -1.
         -1   -1    0    0    0  501 -0.00000000000E+00 -0.00000000000E+00 -0.38273311800E+03  0.38273311800E+03  0.00000000000E+00 0.  1.
          6    1    1    2  502    0  0.73439870578E+01  0.10968267460E+03  0.19384554855E+03  0.28211579173E+03  0.17300000000E+03 0. -1.
         -6    1    1    2    0  501 -0.73439870578E+01 -0.10968267460E+03 -0.30757800832E+03  0.36961798449E+03  0.17300000000E+03 0.  1.
<mgrwt>
<rscale>  2 0.20497127E+03</rscale>
<asrwt>0</asrwt>
<pdfrwt beam="1">  1        1 0.41384717E-01 0.20497127E+03</pdfrwt>
<pdfrwt beam="2">  1       -1 0.58882018E-01 0.20497127E+03</pdfrwt>
<totfact> 0.30674732E+02</totfact>
</mgrwt>
</event>
<event>
 4    1  0.8249026E-001  0.2510753E+03  0.7546771E-02  0.1112627E+00
          2   -1    0    0  502    0  0.00000000000E+00  0.00000000000E+00  0.11780942866E+04  0.11780942866E+04  0.00000000000E+00 0. -1.
         -2   -1    0    0    0  501 -0.00000000000E+00 -0.00000000000E+00 -0.53726747064E+02  0.53726747064E+02  0.00000000000E+00 0.  1.
          6    1    1    2  502    0 -0.14879961431E+03  0.10473059851E+03  0.52298709623E+03  0.58013302466E+03  0.17300000000E+03 0. -1.
         -6    1    1    2    0  501  0.14879961431E+03 -0.10473059851E+03  0.60138044328E+03  0.65168800898E+03  0.17300000000E+03 0. -1.
<mgrwt>
<rscale>  2 0.25107533E+03</rscale>
<asrwt>0</asrwt>
<pdfrwt beam="1">  1        2 0.18124526E+00 0.25107533E+03</pdfrwt>
<pdfrwt beam="2">  1       -2 0.82656543E-02 0.25107533E+03</pdfrwt>
<totfact> 0.18471974E+03</totfact>
</mgrwt>
</event>
<event>
 4    1  0.8249026E-001  0.3121128E+03  0.7546771E-02  0.1079338E+00
         -2   -1    0    0    0  501 -0.00000000000E+00  0.00000000000E+00  0.23561182783E+03  0.23561182783E+03  0.00000000000E+00 0.  1.
          2   -1    0    0  502    0  0.00000000000E+00 -0.00000000000E+00 -0.19758914272E+04  0.19758914272E+04  0.00000000000E+00 0. -1.
          6    1    1    2  502    0  0.24568609561E+03  0.84402383148E+02 -0.18534204727E+04  0.18795163922E+04  0.17300000000E+03 0. -1.
         -6    1    1    2    0  501 -0.24568609561E+03 -0.84402383148E+02  0.11314087336E+03  0.33198686282E+03  0.17300000000E+03 0.  1.
<mgrwt>
<rscale>  2 0.31211283E+03</rscale>
<asrwt>0</asrwt>
<pdfrwt beam="2">  1        2 0.30398331E+00 0.31211283E+03</pdfrwt>
<pdfrwt beam="1">  1       -2 0.36247972E-01 0.31211283E+03</pdfrwt>
<totfact> 0.54978277E+01</totfact>
</mgrwt>
</event>
<event>
 4    1  0.8249026E-001  0.1989900E+03  0.7546771E-02  0.1150594E+00
         -1   -1    0    0    0  501 -0.00000000000E+00  0.00000000000E+00  0.11566962155E+04  0.11566962155E+04  0.00000000000E+00 0. -1.
          1   -1    0    0  502    0  0.00000000000E+00 -0.00000000000E+00 -0.34622372128E+02  0.34622372128E+02  0.00000000000E+00 0.  1.
          6    1    1    2  502    0  0.49416244771E+02 -0.85006154294E+02  0.49785629847E+03  0.53615100993E+03  0.17300000000E+03 0. -1.
         -6    1    1    2    0  501 -0.49416244771E+02  0.85006154294E+02  0.62421754494E+03  0.65516757774E+03  0.17300000000E+03 0. -1.
<mgrwt>
<rscale>  2 0.19898998E+03</rscale>
<asrwt>0</asrwt>
<pdfrwt beam="2">  1        1 0.53265197E-02 0.19898998E+03</pdfrwt>
<pdfrwt beam="1">  1       -1 0.17795323E+00 0.19898998E+03</pdfrwt>
<totfact> 0.36064134E+02</totfact>
</mgrwt>
</event>
<event>
 4    1  0.8249026E-001  0.1969475E+03  0.7546771E-02  0.1152340E+00
         -1   -1    0    0    0  501 -0.00000000000E+00  0.00000000000E+00  0.51347598310E+02  0.51347598310E+02  0.00000000000E+00 0. -1.
          1   -1    0    0  502    0  0.00000000000E+00 -0.00000000000E+00 -0.76207824175E+03  0.76207824175E+03  0.00000000000E+00 0.  1.
          6    1    1    2  502    0  0.72215106956E+02  0.60367958814E+02 -0.39341983333E+03  0.43996304093E+03  0.17300000000E+03 0. -1.
         -6    1    1    2    0  501 -0.72215106956E+02 -0.60367958814E+02 -0.31731081011E+03  0.37346279913E+03  0.17300000000E+03 0.  1.
<mgrwt>
<rscale>  2 0.19694749E+03</rscale>
<asrwt>0</asrwt>
<pdfrwt beam="2">  1        1 0.11724280E+00 0.19694749E+03</pdfrwt>
<pdfrwt beam="1">  1       -1 0.78996311E-02 0.19694749E+03</pdfrwt>
<totfact> 0.21659415E+03</totfact>
</mgrwt>
</event>
<event>
 4    1  0.8249026E-001  0.1893966E+03  0.7546771E-02  0.1159007E+00
         -2   -1    0    0    0  501 -0.00000000000E+00  0.00000000000E+00  0.35035964109E+02  0.35035964109E+02  0.00000000000E+00 0.  1.
          2   -1    0    0  502    0  0.00000000000E+00 -0.00000000000E+00 -0.13372485023E+04  0.13372485023E+04  0.00000000000E+00 0. -1.
          6    1    1    2  502    0 -0.75099881420E+02  0.17380788511E+02 -0.31893183968E+03  0.37092937651E+03  0.17300000000E+03 0.  1.
         -6    1    1    2    0  501  0.75099881420E+02 -0.17380788511E+02 -0.98328069853E+03  0.10013550899E+04  0.17300000000E+03 0. -1.
<mgrwt>
<rscale>  2 0.18939663E+03</rscale>
<asrwt>0</asrwt>
<pdfrwt beam="2">  1        2 0.20573051E+00 0.18939663E+03</pdfrwt>
<pdfrwt beam="1">  1       -2 0.53901490E-02 0.18939663E+03</pdfrwt>
<totfact> 0.29108092E+03</totfact>
</mgrwt>
</event>
<event>
 4    1  0.8249026E-001  0.4469312E+03  0.7546771E-02  0.1028641E+00
         -1   -1    0    0    0  501 -0.00000000000E+00  0.00000000000E+00  0.62340744746E+03  0.62340744746E+03  0.00000000000E+00 0. -1.
          1   -1    0    0  502    0  0.00000000000E+00 -0.00000000000E+00 -0.99857542572E+03  0.99857542572E+03  0.00000000000E+00 0.  1.
          6    1    1    2  502    0  0.36031092622E+03  0.19998639007E+03  0.48074894528E+03  0.65640465275E+03  0.17300000000E+03 0. -1.
         -6    1    1    2    0  501 -0.36031092622E+03 -0.19998639007E+03 -0.85591692354E+03  0.96557822043E+03  0.17300000000E+03 0.  1.
<mgrwt>
<rscale>  2 0.44693122E+03</rscale>
<asrwt>0</asrwt>
<pdfrwt beam="2">  1        1 0.15362699E+00 0.44693122E+03</pdfrwt>
<pdfrwt beam="1">  1       -1 0.95908839E-01 0.44693122E+03</pdfrwt>
<totfact> 0.17206200E+01</totfact>
</mgrwt>
</event>
<event>
 4    1  0.8249026E-001  0.2015394E+03  0.7546771E-02  0.1148447E+00
         -1   -1    0    0    0  501 -0.00000000000E+00  0.00000000000E+00  0.14851713490E+03  0.14851713490E+03  0.00000000000E+00 0. -1.
          1   -1    0    0  502    0  0.00000000000E+00 -0.00000000000E+00 -0.50335653122E+03  0.50335653122E+03  0.00000000000E+00 0.  1.
          6    1    1    2  502    0 -0.64009395593E+02  0.81190567181E+02 -0.39767807919E+03  0.44583176826E+03  0.17300000000E+03 0.  1.
         -6    1    1    2    0  501  0.64009395593E+02 -0.81190567181E+02  0.42838682873E+02  0.20604189786E+03  0.17300000000E+03 0. -1.
<mgrwt>
<rscale>  2 0.20153935E+03</rscale>
<asrwt>0</asrwt>
<pdfrwt beam="2">  1        1 0.77439467E-01 0.20153935E+03</pdfrwt>
<pdfrwt beam="1">  1       -1 0.22848790E-01 0.20153935E+03</pdfrwt>
<totfact> 0.72748150E+02</totfact>
</mgrwt>
</event>
<event>
 4    1  0.8249026E-001  0.2710127E+03  0.7546771E-02  0.1100701E+00
          2   -1    0    0  502    0  0.00000000000E+00  0.00000000000E+00  0.56830968927E+03  0.56830968927E+03  0.00000000000E+00 0. -1.
         -2   -1    0    0    0  501 -0.00000000000E+00 -0.00000000000E+00 -0.12953978413E+03  0.12953978413E+03  0.00000000000E+00 0.  1.
          6    1    1    2  502    0 -0.14544468480E+03 -0.14954836809E+03  0.23619377023E+03  0.35949320972E+03  0.17300000000E+03 0.  1.
         -6    1    1    2    0  501  0.14544468480E+03  0.14954836809E+03  0.20257613491E+03  0.33835626368E+03  0.17300000000E+03 0. -1.
<mgrwt>
<rscale>  2 0.27101268E+03</rscale>
<asrwt>0</asrwt>
<pdfrwt beam="1">  1        2 0.87432259E-01 0.27101268E+03</pdfrwt>
<pdfrwt beam="2">  1       -2 0.19929198E-01 0.27101268E+03</pdfrwt>
<totfact> 0.11382332E+03</totfact>
</mgrwt>
</event>
<event>
 4    1  0.8249026E-001  0.1798625E+03  0.7546771E-02  0.1167936E+00
         -1   -1    0    0    0  501 -0.00000000000E+00  0.00000000000E+00  0.52060037550E+02  0.52060037550E+02  0.00000000000E+00 0. -1.
          1   -1    0    0  502    0  0.00000000000E+00 -0.00000000000E+00 -0.78480210079E+03  0.78480210079E+03  0.00000000000E+00 0.  1.
          6    1    1    2  502    0  0.47390495819E+02  0.13253973243E+02 -0.55729565965E+03  0.58560138249E+03  0.17300000000E+03 0.  1.
         -6    1    1    2    0  501 -0.47390495819E+02 -0.13253973243E+02 -0.17544640359E+03  0.25126075585E+03  0.17300000000E+03 0. -1.
<mgrwt>
<rscale>  2 0.17986252E+03</rscale>
<asrwt>0</asrwt>
<pdfrwt beam="2">  1        1 0.12073878E+00 0.17986252E+03</pdfrwt>
<pdfrwt beam="1">  1       -1 0.80092369E-02 0.17986252E+03</pdfrwt>
<totfact> 0.20261355E+03</totfact>
</mgrwt>
</event>
<event>
 4    1  0.8249026E-001  0.1954852E+03  0.7546771E-02  0.1153605E+00
          2   -1    0    0  502    0  0.00000000000E+00  0.00000000000E+00  0.23514469517E+03  0.23514469517E+03  0.00000000000E+00 0. -1.
         -2   -1    0    0    0  501 -0.00000000000E+00 -0.00000000000E+00 -0.16977590082E+03  0.16977590082E+03  0.00000000000E+00 0.  1.
          6    1    1    2  502    0  0.83490735360E+02 -0.36259695424E+02  0.74554711875E+02  0.20921967753E+03  0.17300000000E+03 0.  1.
         -6    1    1    2    0  501 -0.83490735360E+02  0.36259695424E+02 -0.91859175302E+01  0.19570091845E+03  0.17300000000E+03 0. -1.
<mgrwt>
<rscale>  2 0.19548521E+03</rscale>
<asrwt>0</asrwt>
<pdfrwt beam="1">  1        2 0.36176107E-01 0.19548521E+03</pdfrwt>
<pdfrwt beam="2">  1       -2 0.26119369E-01 0.19548521E+03</pdfrwt>
<totfact> 0.18537500E+03</totfact>
</mgrwt>
</event>
<event>
 4    1  0.8249026E-001  0.2931382E+03  0.7546771E-02  0.1088722E+00
          2   -1    0    0  502    0  0.00000000000E+00  0.00000000000E+00  0.24363761149E+03  0.24363761149E+03  0.00000000000E+00 0.  1.
         -2   -1    0    0    0  501 -0.00000000000E+00 -0.00000000000E+00 -0.54749578116E+03  0.54749578116E+03  0.00000000000E+00 0. -1.
          6    1    1    2  502    0 -0.23267768809E+03  0.43151960382E+02  0.84022893289E+02  0.30494236310E+03  0.17300000000E+03 0.  1.
         -6    1    1    2    0  501  0.23267768809E+03 -0.43151960382E+02 -0.38788106295E+03  0.48619102955E+03  0.17300000000E+03 0. -1.
<mgrwt>
<rscale>  2 0.29313819E+03</rscale>
<asrwt>0</asrwt>
<pdfrwt beam="1">  1        2 0.37482710E-01 0.29313819E+03</pdfrwt>
<pdfrwt beam="2">  1       -2 0.84230119E-01 0.29313819E+03</pdfrwt>
<totfact> 0.17516917E+02</totfact>
</mgrwt>
</event>
<event>
 4    1  0.8249026E-001  0.1828825E+03  0.7546771E-02  0.1165042E+00
         -1   -1    0    0    0  501 -0.00000000000E+00  0.00000000000E+00  0.89795867743E+02  0.89795867743E+02  0.00000000000E+00 0. -1.
          1   -1    0    0  502    0  0.00000000000E+00 -0.00000000000E+00 -0.10128490737E+04  0.10128490737E+04  0.00000000000E+00 0.  1.
          6    1    1    2  502    0  0.12314114276E+02 -0.58011924207E+02 -0.89990871161E+03  0.91830371337E+03  0.17300000000E+03 0.  1.
         -6    1    1    2    0  501 -0.12314114276E+02  0.58011924207E+02 -0.23144494384E+02  0.18434122811E+03  0.17300000000E+03 0. -1.
<mgrwt>
<rscale>  2 0.18288253E+03</rscale>
<asrwt>0</asrwt>
<pdfrwt beam="2">  1        1 0.15582294E+00 0.18288253E+03</pdfrwt>
<pdfrwt beam="1">  1       -1 0.13814748E-01 0.18288253E+03</pdfrwt>
<totfact> 0.58013699E+02</totfact>
</mgrwt>
</event>
<event>
 4    1  0.8249026E-001  0.1745664E+03  0.7546771E-02  0.1173168E+00
         -1   -1    0    0    0  501 -0.00000000000E+00  0.00000000000E+00  0.16105745369E+02  0.16105745369E+02  0.00000000000E+00 0. -1.
          1   -1    0    0  502    0  0.00000000000E+00 -0.00000000000E+00 -0.23454140082E+04  0.23454140082E+04  0.00000000000E+00 0.  1.
          6    1    1    2  502    0 -0.21212100773E+02 -0.97201501930E+01 -0.64554493333E+03  0.66873140759E+03  0.17300000000E+03 0. -1.
         -6    1    1    2    0  501  0.21212100773E+02  0.97201501930E+01 -0.16837633295E+04  0.16927883460E+04  0.17300000000E+03 0.  1.
<mgrwt>
<rscale>  2 0.17456642E+03</rscale>
<asrwt>0</asrwt>
<pdfrwt beam="2">  1        1 0.36083272E+00 0.17456642E+03</pdfrwt>
<pdfrwt beam="1">  1       -1 0.24778084E-02 0.17456642E+03</pdfrwt>
<totfact> 0.10152550E+03</totfact>
</mgrwt>
</event>
<event>
 4    1  0.8249026E-001  0.2079054E+03  0.7546771E-02  0.1143236E+00
         -1   -1    0    0    0  501 -0.00000000000E+00  0.00000000000E+00  0.25127805161E+02  0.25127805161E+02  0.00000000000E+00 0.  1.
          1   -1    0    0  502    0  0.00000000000E+00 -0.00000000000E+00 -0.17210210346E+04  0.17210210346E+04  0.00000000000E+00 0. -1.
          6    1    1    2  502    0  0.30576875975E+02 -0.11117867180E+03 -0.86711200032E+03  0.89168820980E+03  0.17300000000E+03 0. -1.
         -6    1    1    2    0  501 -0.30576875975E+02  0.11117867180E+03 -0.82878122915E+03  0.85446062999E+03  0.17300000000E+03 0.  1.
<mgrwt>
<rscale>  2 0.20790537E+03</rscale>
<asrwt>0</asrwt>
<pdfrwt beam="2">  1        1 0.26477239E+00 0.20790537E+03</pdfrwt>
<pdfrwt beam="1">  1       -1 0.38658173E-02 0.20790537E+03</pdfrwt>
<totfact> 0.13300697E+03</totfact>
</mgrwt>
</event>
<event>
 4    1  0.8249026E-001  0.2186661E+03  0.7546771E-02  0.1134881E+00
          1   -1    0    0  502    0  0.00000000000E+00  0.00000000000E+00  0.29556857513E+03  0.29556857513E+03  0.00000000000E+00 0.  1.
         -1   -1    0    0    0  501 -0.00000000000E+00 -0.00000000000E+00 -0.16735988270E+03  0.16735988270E+03  0.00000000000E+00 0. -1.
          6    1    1    2  502    0 -0.35612749703E+02 -0.12890924328E+03  0.10639683568E+03  0.24317719380E+03  0.17300000000E+03 0. -1.
         -6    1    1    2    0  501  0.35612749703E+02  0.12890924328E+03  0.21811856752E+02  0.21975126402E+03  0.17300000000E+03 0.  1.
<mgrwt>
<rscale>  2 0.21866609E+03</rscale>
<asrwt>0</asrwt>
<pdfrwt beam="1">  1        1 0.45472089E-01 0.21866609E+03</pdfrwt>
<pdfrwt beam="2">  1       -1 0.25747674E-01 0.21866609E+03</pdfrwt>
<totfact> 0.11804864E+03</totfact>
</mgrwt>
</event>
<event>
 4    1  0.8249026E-001  0.2237904E+03  0.7546771E-02  0.1131088E+00
         -2   -1    0    0    0  501 -0.00000000000E+00  0.00000000000E+00  0.13852782768E+04  0.13852782768E+04  0.00000000000E+00 0. -1.
          2   -1    0    0  502    0  0.00000000000E+00 -0.00000000000E+00 -0.41127816972E+02  0.41127816972E+02  0.00000000000E+00 0.  1.
          6    1    1    2  502    0  0.13939838161E+03 -0.26856204775E+02  0.92011861199E+03  0.94694267232E+03  0.17300000000E+03 0. -1.
         -6    1    1    2    0  501 -0.13939838161E+03  0.26856204775E+02  0.42403184784E+03  0.47946342145E+03  0.17300000000E+03 0.  1.
<mgrwt>
<rscale>  2 0.22379045E+03</rscale>
<asrwt>0</asrwt>
<pdfrwt beam="2">  1        2 0.63273575E-02 0.22379045E+03</pdfrwt>
<pdfrwt beam="1">  1       -2 0.21311970E+00 0.22379045E+03</pdfrwt>
<totfact> 0.13762892E+02</totfact>
</mgrwt>
</event>
<event>
 4    1  0.8249026E-001  0.1747951E+03  0.7546771E-02  0.1172938E+00
         -2   -1    0    0    0  501 -0.00000000000E+00  0.00000000000E+00  0.41510232566E+02  0.41510232566E+02  0.00000000000E+00 0. -1.
          2   -1    0    0  502    0  0.00000000000E+00 -0.00000000000E+00 -0.84291693908E+03  0.84291693908E+03  0.00000000000E+00 0.  1.
          6    1    1    2  502    0  0.24666424795E+02  0.39853020689E+01 -0.24324139588E+03  0.29953245536E+03  0.17300000000E+03 0. -1.
         -6    1    1    2    0  501 -0.24666424795E+02 -0.39853020689E+01 -0.55816531063E+03  0.58489471629E+03  0.17300000000E+03 0.  1.
<mgrwt>
<rscale>  2 0.17479507E+03</rscale>
<asrwt>0</asrwt>
<pdfrwt beam="2">  1        2 0.12967952E+00 0.17479507E+03</pdfrwt>
<pdfrwt beam="1">  1       -2 0.63861899E-02 0.17479507E+03</pdfrwt>
<totfact> 0.43837948E+03</totfact>
</mgrwt>
</event>
<event>
 4    1  0.8249026E-001  0.1833021E+03  0.7546771E-02  0.1164645E+00
         -2   -1    0    0    0  501 -0.00000000000E+00  0.00000000000E+00  0.48749532370E+02  0.48749532370E+02  0.00000000000E+00 0.  1.
          2   -1    0    0  502    0  0.00000000000E+00 -0.00000000000E+00 -0.70948200468E+03  0.70948200468E+03  0.00000000000E+00 0. -1.
          6    1    1    2  502    0  0.60061031425E+02  0.79585335888E+01 -0.39441777148E+03  0.43493107984E+03  0.17300000000E+03 0. -1.
         -6    1    1    2    0  501 -0.60061031425E+02 -0.79585335888E+01 -0.26631470082E+03  0.32330045720E+03  0.17300000000E+03 0. -1.
<mgrwt>
<rscale>  2 0.18330212E+03</rscale>
<asrwt>0</asrwt>
<pdfrwt beam="2">  1        2 0.10915109E+00 0.18330212E+03</pdfrwt>
<pdfrwt beam="1">  1       -2 0.74999274E-02 0.18330212E+03</pdfrwt>
<totfact> 0.42472267E+03</totfact>
</mgrwt>
</event>
<event>
 4    1  0.8249026E-001  0.2537317E+03  0.7546771E-02  0.1110969E+00
          1   -1    0    0  502    0  0.00000000000E+00  0.00000000000E+00  0.14703244687E+03  0.14703244687E+03  0.00000000000E+00 0.  1.
         -1   -1    0    0    0  501 -0.00000000000E+00 -0.00000000000E+00 -0.43795932741E+03  0.43795932741E+03  0.00000000000E+00 0. -1.
          6    1    1    2  502    0 -0.14851546615E+03  0.11132801672E+03 -0.14984661341E+03  0.29467571760E+03  0.17300000000E+03 0. -1.
         -6    1    1    2    0  501  0.14851546615E+03 -0.11132801672E+03 -0.14108026712E+03  0.29031605668E+03  0.17300000000E+03 0.  1.
<mgrwt>
<rscale>  2 0.25373169E+03</rscale>
<asrwt>0</asrwt>
<pdfrwt beam="1">  1        1 0.22620377E-01 0.25373169E+03</pdfrwt>
<pdfrwt beam="2">  1       -1 0.67378357E-01 0.25373169E+03</pdfrwt>
<totfact> 0.50531642E+02</totfact>
</mgrwt>
</event>
<event>
 4    1  0.8249026E-001  0.1887927E+03  0.7546771E-02  0.1159555E+00
         -2   -1    0    0    0  501 -0.00000000000E+00  0.00000000000E+00  0.41751416052E+03  0.41751416052E+03  0.00000000000E+00 0.  1.
          2   -1    0    0  502    0  0.00000000000E+00 -0.00000000000E+00 -0.20001704408E+03  0.20001704408E+03  0.00000000000E+00 0. -1.
          6    1    1    2  502    0  0.74335907865E+02 -0.13705801556E+02  0.34251337309E+03  0.39109856423E+03  0.17300000000E+03 0.  1.
         -6    1    1    2    0  501 -0.74335907865E+02  0.13705801556E+02 -0.12501625665E+03  0.22643264036E+03  0.17300000000E+03 0. -1.
<mgrwt>
<rscale>  2 0.18879268E+03</rscale>
<asrwt>0</asrwt>
<pdfrwt beam="2">  1        2 0.30771853E-01 0.18879268E+03</pdfrwt>
<pdfrwt beam="1">  1       -2 0.64232948E-01 0.18879268E+03</pdfrwt>
<totfact> 0.39215803E+02</totfact>
</mgrwt>
</event>
<event>
 4    1  0.8249026E-001  0.3039017E+03  0.7546771E-02  0.1083306E+00
         -2   -1    0    0    0  501 -0.00000000000E+00  0.00000000000E+00  0.12808483225E+03  0.12808483225E+03  0.00000000000E+00 0. -1.
          2   -1    0    0  502    0  0.00000000000E+00 -0.00000000000E+00 -0.19291118217E+04  0.19291118217E+04  0.00000000000E+00 0.  1.
          6    1    1    2  502    0  0.22113564809E+03 -0.11630247434E+03 -0.86539089656E+02  0.31598299706E+03  0.17300000000E+03 0. -1.
         -6    1    1    2    0  501 -0.22113564809E+03  0.11630247434E+03 -0.17144878998E+04  0.17412136569E+04  0.17300000000E+03 0. -1.
<mgrwt>
<rscale>  2 0.30390170E+03</rscale>
<asrwt>0</asrwt>
<pdfrwt beam="2">  1        2 0.29678641E+00 0.30390170E+03</pdfrwt>
<pdfrwt beam="1">  1       -2 0.19705360E-01 0.30390170E+03</pdfrwt>
<totfact> 0.17440284E+02</totfact>
</mgrwt>
</event>
<event>
 4    1  0.8249026E-001  0.2021158E+03  0.7546771E-02  0.1147966E+00
          1   -1    0    0  502    0  0.00000000000E+00  0.00000000000E+00  0.51942526910E+03  0.51942526910E+03  0.00000000000E+00 0.  1.
         -1   -1    0    0    0  501 -0.00000000000E+00 -0.00000000000E+00 -0.10525567367E+03  0.10525567367E+03  0.00000000000E+00 0. -1.
          6    1    1    2  502    0 -0.10151575183E+03 -0.24826434955E+02  0.50039831378E+02  0.20821811752E+03  0.17300000000E+03 0. -1.
         -6    1    1    2    0  501  0.10151575183E+03  0.24826434955E+02  0.36412976405E+03  0.41646282524E+03  0.17300000000E+03 0.  1.
<mgrwt>
<rscale>  2 0.20211581E+03</rscale>
<asrwt>0</asrwt>
<pdfrwt beam="1">  1        1 0.79911579E-01 0.20211581E+03</pdfrwt>
<pdfrwt beam="2">  1       -1 0.16193181E-01 0.20211581E+03</pdfrwt>
<totfact> 0.12171556E+03</totfact>
</mgrwt>
</event>
<event>
 4    1  0.8249026E-001  0.1936589E+03  0.7546771E-02  0.1155202E+00
          2   -1    0    0  502    0  0.00000000000E+00  0.00000000000E+00  0.12359622488E+04  0.12359622488E+04  0.00000000000E+00 0. -1.
         -2   -1    0    0    0  501 -0.00000000000E+00 -0.00000000000E+00 -0.40686058977E+02  0.40686058977E+02  0.00000000000E+00 0.  1.
          6    1    1    2  502    0  0.43766601670E+02 -0.75228125484E+02  0.27580829495E+03  0.33700742106E+03  0.17300000000E+03 0.  1.
         -6    1    1    2    0  501 -0.43766601670E+02  0.75228125484E+02  0.91946789483E+03  0.93964088668E+03  0.17300000000E+03 0. -1.
<mgrwt>
<rscale>  2 0.19365894E+03</rscale>
<asrwt>0</asrwt>
<pdfrwt beam="1">  1        2 0.19014801E+00 0.19365894E+03</pdfrwt>
<pdfrwt beam="2">  1       -2 0.62593946E-02 0.19365894E+03</pdfrwt>
<totfact> 0.26342025E+03</totfact>
</mgrwt>
</event>
<event>
 4    1  0.8249026E-001  0.2805328E+03  0.7546771E-02  0.1095398E+00
         -1   -1    0    0    0  501 -0.00000000000E+00  0.00000000000E+00  0.11612480116E+03  0.11612480116E+03  0.00000000000E+00 0. -1.
          1   -1    0    0  502    0  0.00000000000E+00 -0.00000000000E+00 -0.76134055936E+03  0.76134055936E+03  0.00000000000E+00 0.  1.
          6    1    1    2  502    0 -0.55226527979E+02 -0.21382162723E+03 -0.46801955942E+03  0.54565645389E+03  0.17300000000E+03 0.  1.
         -6    1    1    2    0  501  0.55226527979E+02  0.21382162723E+03 -0.17719619877E+03  0.33180890664E+03  0.17300000000E+03 0. -1.
<mgrwt>
<rscale>  2 0.28053281E+03</rscale>
<asrwt>0</asrwt>
<pdfrwt beam="2">  1        1 0.11712932E+00 0.28053281E+03</pdfrwt>
<pdfrwt beam="1">  1       -1 0.17865354E-01 0.28053281E+03</pdfrwt>
<totfact> 0.60508272E+02</totfact>
</mgrwt>
</event>
<event>
 4    1  0.8249026E-001  0.2603556E+03  0.7546771E-02  0.1106930E+00
         -1   -1    0    0    0  501 -0.00000000000E+00  0.00000000000E+00  0.41678327298E+03  0.41678327298E+03  0.00000000000E+00 0.  1.
          1   -1    0    0  502    0  0.00000000000E+00 -0.00000000000E+00 -0.16265731108E+03  0.16265731108E+03  0.00000000000E+00 0. -1.
          6    1    1    2  502    0  0.43673163289E+02 -0.18960138299E+03  0.13017400393E+03  0.29108469716E+03  0.17300000000E+03 0.  1.
         -6    1    1    2    0  501 -0.43673163289E+02  0.18960138299E+03  0.12395195797E+03  0.28835588689E+03  0.17300000000E+03 0.  1.
<mgrwt>
<rscale>  2 0.26035558E+03</rscale>
<asrwt>0</asrwt>
<pdfrwt beam="2">  1        1 0.25024202E-01 0.26035558E+03</pdfrwt>
<pdfrwt beam="1">  1       -1 0.64120503E-01 0.26035558E+03</pdfrwt>
<totfact> 0.48950407E+02</totfact>
</mgrwt>
</event>
<event>
 4    1  0.8249026E-001  0.1974339E+03  0.7546771E-02  0.1151922E+00
          1   -1    0    0  502    0  0.00000000000E+00  0.00000000000E+00  0.56371681739E+03  0.56371681739E+03  0.00000000000E+00 0.  1.
         -1   -1    0    0    0  501 -0.00000000000E+00 -0.00000000000E+00 -0.87930118431E+02  0.87930118431E+02  0.00000000000E+00 0. -1.
          6    1    1    2  502    0  0.78292306266E+02  0.54050513104E+02  0.38847797642E+03  0.43576975727E+03  0.17300000000E+03 0.  1.
         -6    1    1    2    0  501 -0.78292306266E+02 -0.54050513104E+02  0.87308722535E+02  0.21587717855E+03  0.17300000000E+03 0. -1.
<mgrwt>
<rscale>  2 0.19743390E+03</rscale>
<asrwt>0</asrwt>
<pdfrwt beam="1">  1        1 0.86725662E-01 0.19743390E+03</pdfrwt>
<pdfrwt beam="2">  1       -1 0.13527711E-01 0.19743390E+03</pdfrwt>
<totfact> 0.14484746E+03</totfact>
</mgrwt>
</event>
<event>
 4    1  0.8249026E-001  0.1925385E+03  0.7546771E-02  0.1156191E+00
          1   -1    0    0  502    0  0.00000000000E+00  0.00000000000E+00  0.69769436516E+03  0.69769436516E+03  0.00000000000E+00 0.  1.
         -1   -1    0    0    0  501 -0.00000000000E+00 -0.00000000000E+00 -0.58883334254E+02  0.58883334254E+02  0.00000000000E+00 0. -1.
          6    1    1    2  502    0 -0.69224697951E+02  0.48477129480E+02  0.43761355940E+03  0.47809697579E+03  0.17300000000E+03 0.  1.
         -6    1    1    2    0  501  0.69224697951E+02 -0.48477129480E+02  0.20119747150E+03  0.27848072362E+03  0.17300000000E+03 0.  1.
<mgrwt>
<rscale>  2 0.19253854E+03</rscale>
<asrwt>0</asrwt>
<pdfrwt beam="1">  1        1 0.10733759E+00 0.19253854E+03</pdfrwt>
<pdfrwt beam="2">  1       -1 0.90589750E-02 0.19253854E+03</pdfrwt>
<totfact> 0.20001987E+03</totfact>
</mgrwt>
</event>
<event>
 4    1  0.8249026E-001  0.2003373E+03  0.7546771E-02  0.1149455E+00
         -2   -1    0    0    0  501 -0.00000000000E+00  0.00000000000E+00  0.79797575779E+02  0.79797575779E+02  0.00000000000E+00 0.  1.
          2   -1    0    0  502    0  0.00000000000E+00 -0.00000000000E+00 -0.50981947867E+03  0.50981947867E+03  0.00000000000E+00 0. -1.
          6    1    1    2  502    0  0.99488110093E+02 -0.17554531669E+02 -0.24920533689E+03  0.31974731518E+03  0.17300000000E+03 0. -1.
         -6    1    1    2    0  501 -0.99488110093E+02  0.17554531669E+02 -0.18081656601E+03  0.26986973927E+03  0.17300000000E+03 0. -1.
<mgrwt>
<rscale>  2 0.20033733E+03</rscale>
<asrwt>0</asrwt>
<pdfrwt beam="2">  1        2 0.78433763E-01 0.20033733E+03</pdfrwt>
<pdfrwt beam="1">  1       -2 0.12276551E-01 0.20033733E+03</pdfrwt>
<totfact> 0.28663109E+03</totfact>
</mgrwt>
</event>
<event>
 4    1  0.8249026E-001  0.2564752E+03  0.7546771E-02  0.1109280E+00
          2   -1    0    0  502    0  0.00000000000E+00  0.00000000000E+00  0.63399718352E+02  0.63399718352E+02  0.00000000000E+00 0. -1.
         -2   -1    0    0    0  501 -0.00000000000E+00 -0.00000000000E+00 -0.11749232064E+04  0.11749232064E+04  0.00000000000E+00 0.  1.
          6    1    1    2  502    0  0.11225913887E+03  0.15247431425E+03 -0.76748633915E+03  0.80920628492E+03  0.17300000000E+03 0.  1.
         -6    1    1    2    0  501 -0.11225913887E+03 -0.15247431425E+03 -0.34403714892E+03  0.42911663986E+03  0.17300000000E+03 0. -1.
<mgrwt>
<rscale>  2 0.25647520E+03</rscale>
<asrwt>0</asrwt>
<pdfrwt beam="1">  1        2 0.97538040E-02 0.25647520E+03</pdfrwt>
<pdfrwt beam="2">  1       -2 0.18075739E+00 0.25647520E+03</pdfrwt>
<totfact> 0.12727189E+02</totfact>
</mgrwt>
</event>
<event>
 4    1  0.8249026E-001  0.1841846E+03  0.7546771E-02  0.1163814E+00
         -1   -1    0    0    0  501 -0.00000000000E+00  0.00000000000E+00  0.16450497582E+03  0.16450497582E+03  0.00000000000E+00 0.  1.
          1   -1    0    0  502    0  0.00000000000E+00 -0.00000000000E+00 -0.21814750196E+03  0.21814750196E+03  0.00000000000E+00 0. -1.
          6    1    1    2  502    0 -0.21323401559E+02 -0.59500237752E+02  0.17919343370E+02  0.18505423155E+03  0.17300000000E+03 0.  1.
         -6    1    1    2    0  501  0.21323401559E+02  0.59500237752E+02 -0.71561869506E+02  0.19759824623E+03  0.17300000000E+03 0.  1.
<mgrwt>
<rscale>  2 0.18418460E+03</rscale>
<asrwt>0</asrwt>
<pdfrwt beam="2">  1        1 0.33561154E-01 0.18418460E+03</pdfrwt>
<pdfrwt beam="1">  1       -1 0.25308458E-01 0.18418460E+03</pdfrwt>
<totfact> 0.17702076E+03</totfact>
</mgrwt>
</event>
<event>
 4    1  0.8249026E-001  0.1849086E+03  0.7546771E-02  0.1163135E+00
         -2   -1    0    0    0  501 -0.00000000000E+00  0.00000000000E+00  0.13182938868E+03  0.13182938868E+03  0.00000000000E+00 0. -1.
          2   -1    0    0  502    0  0.00000000000E+00 -0.00000000000E+00 -0.43631620205E+03  0.43631620205E+03  0.00000000000E+00 0.  1.
          6    1    1    2  502    0  0.25205901761E+02 -0.60223409554E+02 -0.33315339898E+03  0.38102806169E+03  0.17300000000E+03 0.  1.
         -6    1    1    2    0  501 -0.25205901761E+02  0.60223409554E+02  0.28666585610E+02  0.18711752904E+03  0.17300000000E+03 0. -1.
<mgrwt>
<rscale>  2 0.18490862E+03</rscale>
<asrwt>0</asrwt>
<pdfrwt beam="2">  1        2 0.67125570E-01 0.18490862E+03</pdfrwt>
<pdfrwt beam="1">  1       -2 0.20281444E-01 0.18490862E+03</pdfrwt>
<totfact> 0.14776413E+03</totfact>
</mgrwt>
</event>
<event>
 4    1  0.8249026E-001  0.1907784E+03  0.7546771E-02  0.1157761E+00
          2   -1    0    0  502    0  0.00000000000E+00  0.00000000000E+00  0.11860770005E+04  0.11860770005E+04  0.00000000000E+00 0. -1.
         -2   -1    0    0    0  501 -0.00000000000E+00 -0.00000000000E+00 -0.30775011882E+02  0.30775011882E+02  0.00000000000E+00 0.  1.
          6    1    1    2  502    0  0.68658317747E+02  0.41874198222E+02  0.54500000409E+03  0.57742654730E+03  0.17300000000E+03 0. -1.
         -6    1    1    2    0  501 -0.68658317747E+02 -0.41874198222E+02  0.61030198455E+03  0.63942546510E+03  0.17300000000E+03 0.  1.
<mgrwt>
<rscale>  2 0.19077844E+03</rscale>
<asrwt>0</asrwt>
<pdfrwt beam="1">  1        2 0.18247335E+00 0.19077844E+03</pdfrwt>
<pdfrwt beam="2">  1       -2 0.47346181E-02 0.19077844E+03</pdfrwt>
<totfact> 0.42945402E+03</totfact>
</mgrwt>
</event>
<event>
 4    1  0.8249026E-001  0.6885155E+03  0.7546771E-02  0.9737076E-01
          2   -1    0    0  502    0  0.00000000000E+00  0.00000000000E+00  0.30824331289E+04  0.30824331289E+04  0.00000000000E+00 0.  1.
         -2   -1    0    0    0  501 -0.00000000000E+00 -0.00000000000E+00 -0.15527823314E+03  0.15527823314E+03  0.00000000000E+00 0. -1.
          6    1    1    2  502    0 -0.14072285032E+03 -0.65139974843E+03  0.16219560301E+04  0.17620428248E+04  0.17300000000E+03 0. -1.
         -6    1    1    2    0  501  0.14072285032E+03  0.65139974843E+03  0.13051988656E+04  0.14756685372E+04  0.17300000000E+03 0.  1.
<mgrwt>
<rscale>  2 0.68851547E+03</rscale>
<asrwt>0</asrwt>
<pdfrwt beam="1">  1        2 0.47422044E+00 0.68851547E+03</pdfrwt>
<pdfrwt beam="2">  1       -2 0.23888961E-01 0.68851547E+03</pdfrwt>
<totfact> 0.25753309E+01</totfact>
</mgrwt>
</event>
<event>
 4    1  0.8249026E-001  0.4331243E+03  0.7546771E-02  0.1032878E+00
         -2   -1    0    0    0  501 -0.00000000000E+00  0.00000000000E+00  0.51093887182E+02  0.51093887182E+02  0.00000000000E+00 0. -1.
          2   -1    0    0  502    0  0.00000000000E+00 -0.00000000000E+00 -0.38797887511E+04  0.38797887511E+04  0.00000000000E+00 0.  1.
          6    1    1    2  502    0  0.10252155609E+03  0.38361043876E+03 -0.14590679289E+04  0.15219973257E+04  0.17300000000E+03 0. -1.
         -6    1    1    2    0  501 -0.10252155609E+03 -0.38361043876E+03 -0.23696269349E+04  0.24088853125E+04  0.17300000000E+03 0.  1.
<mgrwt>
<rscale>  2 0.43312428E+03</rscale>
<asrwt>0</asrwt>
<pdfrwt beam="2">  1        2 0.59689088E+00 0.43312428E+03</pdfrwt>
<pdfrwt beam="1">  1       -2 0.78605941E-02 0.43312428E+03</pdfrwt>
<totfact> 0.50549656E+01</totfact>
</mgrwt>
</event>
<event>
 4    1  0.8249026E-001  0.2224760E+03  0.7546771E-02  0.1132050E+00
          2   -1    0    0  502    0  0.00000000000E+00  0.00000000000E+00  0.11311621689E+04  0.11311621689E+04  0.00000000000E+00 0. -1.
         -2   -1    0    0    0  501 -0.00000000000E+00 -0.00000000000E+00 -0.45099338193E+02  0.45099338193E+02  0.00000000000E+00 0.  1.
          6    1    1    2  502    0 -0.23003936388E+02  0.13797601449E+03  0.44154216204E+03  0.49442395019E+03  0.17300000000E+03 0.  1.
         -6    1    1    2    0  501  0.23003936388E+02 -0.13797601449E+03  0.64452066870E+03  0.68183755693E+03  0.17300000000E+03 0.  1.
<mgrwt>
<rscale>  2 0.22247598E+03</rscale>
<asrwt>0</asrwt>
<pdfrwt beam="1">  1        2 0.17402493E+00 0.22247598E+03</pdfrwt>
<pdfrwt beam="2">  1       -2 0.69383605E-02 0.22247598E+03</pdfrwt>
<totfact> 0.25807370E+03</totfact>
</mgrwt>
</event>
<event>
 4    1  0.8249026E-001  0.2425373E+03  0.7546771E-02  0.1118114E+00
         -2   -1    0    0    0  501 -0.00000000000E+00  0.00000000000E+00  0.82337856382E+02  0.82337856382E+02  0.00000000000E+00 0.  1.
          2   -1    0    0  502    0  0.00000000000E+00 -0.00000000000E+00 -0.71580389802E+03  0.71580389802E+03  0.00000000000E+00 0. -1.
          6    1    1    2  502    0 -0.15953530326E+03 -0.58684308383E+02 -0.29922830769E+03  0.38517780461E+03  0.17300000000E+03 0.  1.
         -6    1    1    2    0  501  0.15953530326E+03  0.58684308383E+02 -0.33423773395E+03  0.41296394980E+03  0.17300000000E+03 0.  1.
<mgrwt>
<rscale>  2 0.24253734E+03</rscale>
<asrwt>0</asrwt>
<pdfrwt beam="2">  1        2 0.11012368E+00 0.24253734E+03</pdfrwt>
<pdfrwt beam="1">  1       -2 0.12667363E-01 0.24253734E+03</pdfrwt>
<totfact> 0.18427702E+03</totfact>
</mgrwt>
</event>
<event>
 4    1  0.8249026E-001  0.2224543E+03  0.7546771E-02  0.1132066E+00
         -1   -1    0    0    0  501 -0.00000000000E+00  0.00000000000E+00  0.79098637831E+02  0.79098637831E+02  0.00000000000E+00 0.  1.
          1   -1    0    0  502    0  0.00000000000E+00 -0.00000000000E+00 -0.10074810472E+04  0.10074810472E+04  0.00000000000E+00 0. -1.
          6    1    1    2  502    0 -0.90010317061E+02 -0.10702839071E+03 -0.79866651855E+03  0.82906823691E+03  0.17300000000E+03 0. -1.
         -6    1    1    2    0  501  0.90010317061E+02  0.10702839071E+03 -0.12971589086E+03  0.25751144817E+03  0.17300000000E+03 0.  1.
<mgrwt>
<rscale>  2 0.22245434E+03</rscale>
<asrwt>0</asrwt>
<pdfrwt beam="2">  1        1 0.15499707E+00 0.22245434E+03</pdfrwt>
<pdfrwt beam="1">  1       -1 0.12169022E-01 0.22245434E+03</pdfrwt>
<totfact> 0.71173200E+02</totfact>
</mgrwt>
</event>
<event>
 4    1  0.8249026E-001  0.1828738E+03  0.7546771E-02  0.1165050E+00
          1   -1    0    0  502    0  0.00000000000E+00  0.00000000000E+00  0.22335842483E+04  0.22335842483E+04  0.00000000000E+00 0. -1.
         -1   -1    0    0    0  501 -0.00000000000E+00 -0.00000000000E+00 -0.18064415173E+02  0.18064415173E+02  0.00000000000E+00 0.  1.
          6    1    1    2  502    0  0.55934050009E+02 -0.19627104974E+02  0.15735140394E+04  0.15841051964E+04  0.17300000000E+03 0. -1.
         -6    1    1    2    0  501 -0.55934050009E+02  0.19627104974E+02  0.64200579373E+03  0.66754346704E+03  0.17300000000E+03 0.  1.
<mgrwt>
<rscale>  2 0.18287384E+03</rscale>
<asrwt>0</asrwt>
<pdfrwt beam="1">  1        1 0.34362813E+00 0.18287384E+03</pdfrwt>
<pdfrwt beam="2">  1       -1 0.27791426E-02 0.18287384E+03</pdfrwt>
<totfact> 0.10133251E+03</totfact>
</mgrwt>
</event>
<event>
 4    1  0.8249026E-001  0.1951724E+03  0.7546771E-02  0.1153877E+00
         -2   -1    0    0    0  501 -0.00000000000E+00  0.00000000000E+00  0.19150980107E+03  0.19150980107E+03  0.00000000000E+00 0.  1.
          2   -1    0    0  502    0  0.00000000000E+00 -0.00000000000E+00 -0.20662299347E+03  0.20662299347E+03  0.00000000000E+00 0. -1.
          6    1    1    2  502    0  0.90161697286E+02 -0.58427943552E+01  0.30916659330E+02  0.19760594558E+03  0.17300000000E+03 0.  1.
         -6    1    1    2    0  501 -0.90161697286E+02  0.58427943552E+01 -0.46029851725E+02  0.20052684896E+03  0.17300000000E+03 0. -1.
<mgrwt>
<rscale>  2 0.19517241E+03</rscale>
<asrwt>0</asrwt>
<pdfrwt beam="2">  1        2 0.31788153E-01 0.19517241E+03</pdfrwt>
<pdfrwt beam="1">  1       -2 0.29463046E-01 0.19517241E+03</pdfrwt>
<totfact> 0.17194303E+03</totfact>
</mgrwt>
</event>
<event>
 4    1  0.8249026E-001  0.1890391E+03  0.7546771E-02  0.1159331E+00
          1   -1    0    0  502    0  0.00000000000E+00  0.00000000000E+00  0.89850622537E+03  0.89850622537E+03  0.00000000000E+00 0.  1.
         -1   -1    0    0    0  501 -0.00000000000E+00 -0.00000000000E+00 -0.40103183041E+02  0.40103183041E+02  0.00000000000E+00 0. -1.
          6    1    1    2  502    0 -0.68347057260E+02 -0.33696387927E+02  0.47182256673E+03  0.50828368188E+03  0.17300000000E+03 0.  1.
         -6    1    1    2    0  501  0.68347057260E+02  0.33696387927E+02  0.38658047560E+03  0.43032572653E+03  0.17300000000E+03 0. -1.
<mgrwt>
<rscale>  2 0.18903906E+03</rscale>
<asrwt>0</asrwt>
<pdfrwt beam="1">  1        1 0.13823171E+00 0.18903906E+03</pdfrwt>
<pdfrwt beam="2">  1       -1 0.61697211E-02 0.18903906E+03</pdfrwt>
<totfact> 0.24362855E+03</totfact>
</mgrwt>
</event>
<event>
 4    1  0.8249026E-001  0.2468349E+03  0.7546771E-02  0.1115322E+00
          1   -1    0    0  502    0  0.00000000000E+00  0.00000000000E+00  0.12447879174E+04  0.12447879174E+04  0.00000000000E+00 0.  1.
         -1   -1    0    0    0  501 -0.00000000000E+00 -0.00000000000E+00 -0.60386064840E+02  0.60386064840E+02  0.00000000000E+00 0. -1.
          6    1    1    2  502    0  0.17587643018E+03 -0.81204961790E+01  0.87624334133E+03  0.91034600806E+03  0.17300000000E+03 0.  1.
         -6    1    1    2    0  501 -0.17587643018E+03  0.81204961790E+01  0.30815851118E+03  0.39482797414E+03  0.17300000000E+03 0. -1.
<mgrwt>
<rscale>  2 0.24683489E+03</rscale>
<asrwt>0</asrwt>
<pdfrwt beam="1">  1        1 0.19150581E+00 0.24683489E+03</pdfrwt>
<pdfrwt beam="2">  1       -1 0.92901648E-02 0.24683489E+03</pdfrwt>
<totfact> 0.73108368E+02</totfact>
</mgrwt>
</event>
<event>
 4    1  0.8249026E-001  0.2739254E+03  0.7546771E-02  0.1099054E+00
         -2   -1    0    0    0  501 -0.00000000000E+00  0.00000000000E+00  0.29575278507E+03  0.29575278507E+03  0.00000000000E+00 0.  1.
          2   -1    0    0  502    0  0.00000000000E+00 -0.00000000000E+00 -0.27653188170E+03  0.27653188170E+03  0.00000000000E+00 0. -1.
          6    1    1    2  502    0  0.15727287443E+03 -0.14272828337E+03 -0.72594031567E+02  0.28338139199E+03  0.17300000000E+03 0. -1.
         -6    1    1    2    0  501 -0.15727287443E+03  0.14272828337E+03  0.91814934931E+02  0.28890327479E+03  0.17300000000E+03 0.  1.
<mgrwt>
<rscale>  2 0.27392539E+03</rscale>
<asrwt>0</asrwt>
<pdfrwt beam="2">  1        2 0.42543366E-01 0.27392539E+03</pdfrwt>
<pdfrwt beam="1">  1       -2 0.45500429E-01 0.27392539E+03</pdfrwt>
<totfact> 0.55582172E+02</totfact>
</mgrwt>
</event>
<event>
 4    1  0.8249026E-001  0.2540551E+03  0.7546771E-02  0.1110769E+00
          1   -1    0    0  502    0  0.00000000000E+00  0.00000000000E+00  0.20595811994E+03  0.20595811994E+03  0.00000000000E+00 0. -1.
         -1   -1    0    0    0  501 -0.00000000000E+00 -0.00000000000E+00 -0.31374735422E+03  0.31374735422E+03  0.00000000000E+00 0.  1.
          6    1    1    2  502    0  0.16008322269E+03  0.94806877862E+02 -0.62737506475E+02  0.26168679179E+03  0.17300000000E+03 0. -1.
         -6    1    1    2    0  501 -0.16008322269E+03 -0.94806877862E+02 -0.45051727796E+02  0.25801868237E+03  0.17300000000E+03 0.  1.
<mgrwt>
<rscale>  2 0.25405508E+03</rscale>
<asrwt>0</asrwt>
<pdfrwt beam="1">  1        1 0.31685865E-01 0.25405508E+03</pdfrwt>
<pdfrwt beam="2">  1       -1 0.48268823E-01 0.25405508E+03</pdfrwt>
<totfact> 0.62155437E+02</totfact>
</mgrwt>
</event>
<event>
 4    1  0.8249026E-001  0.2134279E+03  0.7546771E-02  0.1138880E+00
          1   -1    0    0  502    0  0.00000000000E+00  0.00000000000E+00  0.48557875171E+03  0.48557875171E+03  0.00000000000E+00 0. -1.
         -1   -1    0    0    0  501 -0.00000000000E+00 -0.00000000000E+00 -0.95000199872E+02  0.95000199872E+02  0.00000000000E+00 0.  1.
          6    1    1    2  502    0  0.96482293962E+02  0.79458423152E+02  0.22780025611E+03  0.31216090521E+03  0.17300000000E+03 0.  1.
         -6    1    1    2    0  501 -0.96482293962E+02 -0.79458423152E+02  0.16277829572E+03  0.26841804637E+03  0.17300000000E+03 0. -1.
<mgrwt>
<rscale>  2 0.21342791E+03</rscale>
<asrwt>0</asrwt>
<pdfrwt beam="1">  1        1 0.74704422E-01 0.21342791E+03</pdfrwt>
<pdfrwt beam="2">  1       -1 0.14615416E-01 0.21342791E+03</pdfrwt>
<totfact> 0.15668963E+03</totfact>
</mgrwt>
</event>
<event>
 4    1  0.8249026E-001  0.1881917E+03  0.7546771E-02  0.1160102E+00
          2   -1    0    0  502    0  0.00000000000E+00  0.00000000000E+00  0.69625302886E+03  0.69625302886E+03  0.00000000000E+00 0. -1.
         -2   -1    0    0    0  501 -0.00000000000E+00 -0.00000000000E+00 -0.50996375110E+02  0.50996375110E+02  0.00000000000E+00 0.  1.
          6    1    1    2  502    0  0.23282197260E+02  0.70321131619E+02  0.30379070297E+03  0.35735824249E+03  0.17300000000E+03 0. -1.
         -6    1    1    2    0  501 -0.23282197260E+02 -0.70321131619E+02  0.34146595078E+03  0.38989116149E+03  0.17300000000E+03 0.  1.
<mgrwt>
<rscale>  2 0.18819172E+03</rscale>
<asrwt>0</asrwt>
<pdfrwt beam="1">  1        2 0.10711584E+00 0.18819172E+03</pdfrwt>
<pdfrwt beam="2">  1       -2 0.78455967E-02 0.18819172E+03</pdfrwt>
<totfact> 0.40550267E+03</totfact>
</mgrwt>
</event>
<event>
 4    1  0.8249026E-001  0.2008643E+03  0.7546771E-02  0.1149012E+00
          2   -1    0    0  502    0  0.00000000000E+00  0.00000000000E+00  0.76090218114E+03  0.76090218114E+03  0.00000000000E+00 0. -1.
         -2   -1    0    0    0  501 -0.00000000000E+00 -0.00000000000E+00 -0.53717557655E+02  0.53717557655E+02  0.00000000000E+00 0.  1.
          6    1    1    2  502    0  0.31514730121E+02  0.97078859030E+02  0.30732854017E+03  0.36714753804E+03  0.17300000000E+03 0.  1.
         -6    1    1    2    0  501 -0.31514730121E+02 -0.97078859030E+02  0.39985608331E+03  0.44747220075E+03  0.17300000000E+03 0. -1.
<mgrwt>
<rscale>  2 0.20086434E+03</rscale>
<asrwt>0</asrwt>
<pdfrwt beam="1">  1        2 0.11706187E+00 0.20086434E+03</pdfrwt>
<pdfrwt beam="2">  1       -2 0.82642402E-02 0.20086434E+03</pdfrwt>
<totfact> 0.33622556E+03</totfact>
</mgrwt>
</event>
<event>
 4    1  0.8249026E-001  0.2263574E+03  0.7546771E-02  0.1129230E+00
         -2   -1    0    0    0  501 -0.00000000000E+00  0.00000000000E+00  0.97306510703E+02  0.97306510703E+02  0.00000000000E+00 0.  1.
          2   -1    0    0  502    0  0.00000000000E+00 -0.00000000000E+00 -0.78189418297E+03  0.78189418297E+03  0.00000000000E+00 0. -1.
          6    1    1    2  502    0 -0.12221419089E+03  0.79827020704E+02 -0.59350503287E+03  0.63520538862E+03  0.17300000000E+03 0. -1.
         -6    1    1    2    0  501  0.12221419089E+03 -0.79827020704E+02 -0.91082639397E+02  0.24399530505E+03  0.17300000000E+03 0.  1.
<mgrwt>
<rscale>  2 0.22635738E+03</rscale>
<asrwt>0</asrwt>
<pdfrwt beam="2">  1        2 0.12029141E+00 0.22635738E+03</pdfrwt>
<pdfrwt beam="1">  1       -2 0.14970233E-01 0.22635738E+03</pdfrwt>
<totfact> 0.12552706E+03</totfact>
</mgrwt>
</event>
<event>
 4    1  0.8249026E-001  0.1945489E+03  0.7546771E-02  0.1154421E+00
          3   -1    0    0  502    0  0.00000000000E+00  0.00000000000E+00  0.36133800050E+03  0.36133800050E+03  0.00000000000E+00 0.  1.
         -3   -1    0    0    0  501 -0.00000000000E+00 -0.00000000000E+00 -0.10676110455E+03  0.10676110455E+03  0.00000000000E+00 0. -1.
          6    1    1    2  502    0  0.20106817349E+02 -0.86694773891E+02  0.95145649397E+02  0.21656860927E+03  0.17300000000E+03 0. -1.
         -6    1    1    2    0  501 -0.20106817349E+02  0.86694773891E+02  0.15943124656E+03  0.25153049577E+03  0.17300000000E+03 0. -1.
<mgrwt>
<rscale>  2 0.19454888E+03</rscale>
<asrwt>0</asrwt>
<pdfrwt beam="1">  1        3 0.55590461E-01 0.19454888E+03</pdfrwt>
<pdfrwt beam="2">  1       -3 0.16424786E-01 0.19454888E+03</pdfrwt>
<totfact> 0.24899867E+02</totfact>
</mgrwt>
</event>
<event>
 4    1  0.8249026E-001  0.1761541E+03  0.7546771E-02  0.1171578E+00
          2   -1    0    0  502    0  0.00000000000E+00  0.00000000000E+00  0.20286156462E+04  0.20286156462E+04  0.00000000000E+00 0. -1.
         -2   -1    0    0    0  501 -0.00000000000E+00 -0.00000000000E+00 -0.15399700929E+02  0.15399700929E+02  0.00000000000E+00 0.  1.
          6    1    1    2  502    0  0.32740637565E+02 -0.54136575352E+01  0.92285144059E+03  0.93951319226E+03  0.17300000000E+03 0. -1.
         -6    1    1    2    0  501 -0.32740637565E+02  0.54136575352E+01  0.10903645047E+04  0.11045021549E+04  0.17300000000E+03 0.  1.
<mgrwt>
<rscale>  2 0.17615407E+03</rscale>
<asrwt>0</asrwt>
<pdfrwt beam="1">  1        2 0.31209450E+00 0.17615407E+03</pdfrwt>
<pdfrwt beam="2">  1       -2 0.23691864E-02 0.17615407E+03</pdfrwt>
<totfact> 0.43113349E+03</totfact>
</mgrwt>
</event>
<event>
 4    1  0.8249026E-001  0.2763002E+03  0.7546771E-02  0.1097727E+00
         -2   -1    0    0    0  501 -0.00000000000E+00  0.00000000000E+00  0.10960858866E+03  0.10960858866E+03  0.00000000000E+00 0. -1.
          2   -1    0    0  502    0  0.00000000000E+00 -0.00000000000E+00 -0.77691133555E+03  0.77691133555E+03  0.00000000000E+00 0.  1.
          6    1    1    2  502    0  0.45631500180E+02 -0.21054826959E+03 -0.47625992341E+03  0.55060450623E+03  0.17300000000E+03 0. -1.
         -6    1    1    2    0  501 -0.45631500180E+02  0.21054826959E+03 -0.19104282348E+03  0.33591541798E+03  0.17300000000E+03 0. -1.
<mgrwt>
<rscale>  2 0.27630021E+03</rscale>
<asrwt>0</asrwt>
<pdfrwt beam="2">  1        2 0.11952482E+00 0.27630021E+03</pdfrwt>
<pdfrwt beam="1">  1       -2 0.16862859E-01 0.27630021E+03</pdfrwt>
<totfact> 0.10376646E+03</totfact>
</mgrwt>
</event>
<event>
 4    1  0.8249026E-001  0.2541948E+03  0.7546771E-02  0.1110682E+00
          2   -1    0    0  502    0  0.00000000000E+00  0.00000000000E+00  0.19348910739E+03  0.19348910739E+03  0.00000000000E+00 0. -1.
         -2   -1    0    0    0  501 -0.00000000000E+00 -0.00000000000E+00 -0.38404905751E+03  0.38404905751E+03  0.00000000000E+00 0.  1.
          6    1    1    2  502    0 -0.58779740355E+02  0.17672273989E+03  0.90208780199E+01  0.25435479337E+03  0.17300000000E+03 0. -1.
         -6    1    1    2    0  501  0.58779740355E+02 -0.17672273989E+03 -0.19958082814E+03  0.32318337153E+03  0.17300000000E+03 0.  1.
<mgrwt>
<rscale>  2 0.25419478E+03</rscale>
<asrwt>0</asrwt>
<pdfrwt beam="1">  1        2 0.29767555E-01 0.25419478E+03</pdfrwt>
<pdfrwt beam="2">  1       -2 0.59084471E-01 0.25419478E+03</pdfrwt>
<totfact> 0.48453568E+02</totfact>
</mgrwt>
</event>
<event>
 4    1  0.8249026E-001  0.3230525E+03  0.7546771E-02  0.1074253E+00
         -2   -1    0    0    0  501 -0.00000000000E+00  0.00000000000E+00  0.65163725021E+02  0.65163725021E+02  0.00000000000E+00 0. -1.
          2   -1    0    0  502    0  0.00000000000E+00 -0.00000000000E+00 -0.18204168572E+04  0.18204168572E+04  0.00000000000E+00 0.  1.
          6    1    1    2  502    0  0.26669893284E+03 -0.57494326700E+02 -0.12045306678E+04  0.12470994539E+04  0.17300000000E+03 0.  1.
         -6    1    1    2    0  501 -0.26669893284E+03  0.57494326700E+02 -0.55072246440E+03  0.63848112829E+03  0.17300000000E+03 0. -1.
<mgrwt>
<rscale>  2 0.32305250E+03</rscale>
<asrwt>0</asrwt>
<pdfrwt beam="2">  1        2 0.28006418E+00 0.32305250E+03</pdfrwt>
<pdfrwt beam="1">  1       -2 0.10025187E-01 0.32305250E+03</pdfrwt>
<totfact> 0.60713475E+02</totfact>
</mgrwt>
</event>
<event>
 4    1  0.8249026E-001  0.2397875E+03  0.7546771E-02  0.1119934E+00
         -1   -1    0    0    0  501 -0.00000000000E+00  0.00000000000E+00  0.32649458505E+03  0.32649458505E+03  0.00000000000E+00 0. -1.
          1   -1    0    0  502    0  0.00000000000E+00 -0.00000000000E+00 -0.21677781701E+03  0.21677781701E+03  0.00000000000E+00 0.  1.
          6    1    1    2  502    0  0.15234716818E+03 -0.66025563336E+02 -0.62799440489E+02  0.24787457391E+03  0.17300000000E+03 0.  1.
         -6    1    1    2    0  501 -0.15234716818E+03  0.66025563336E+02  0.17251620853E+03  0.29539782814E+03  0.17300000000E+03 0.  1.
<mgrwt>
<rscale>  2 0.23978748E+03</rscale>
<asrwt>0</asrwt>
<pdfrwt beam="2">  1        1 0.33350433E-01 0.23978748E+03</pdfrwt>
<pdfrwt beam="1">  1       -1 0.50229937E-01 0.23978748E+03</pdfrwt>
<totfact> 0.54143040E+02</totfact>
</mgrwt>
</event>
<event>
 4    1  0.8249026E-001  0.1964669E+03  0.7546771E-02  0.1152755E+00
          1   -1    0    0  502    0  0.00000000000E+00  0.00000000000E+00  0.38434553201E+03  0.38434553201E+03  0.00000000000E+00 0.  1.
         -1   -1    0    0    0  501 -0.00000000000E+00 -0.00000000000E+00 -0.18490330752E+03  0.18490330752E+03  0.00000000000E+00 0. -1.
          6    1    1    2  502    0  0.91518904576E+02 -0.17162385351E+02  0.29210262830E+03  0.35202727569E+03  0.17300000000E+03 0.  1.
         -6    1    1    2    0  501 -0.91518904576E+02  0.17162385351E+02 -0.92660403806E+02  0.21722156384E+03  0.17300000000E+03 0. -1.
<mgrwt>
<rscale>  2 0.19646694E+03</rscale>
<asrwt>0</asrwt>
<pdfrwt beam="1">  1        1 0.59130082E-01 0.19646694E+03</pdfrwt>
<pdfrwt beam="2">  1       -1 0.28446663E-01 0.19646694E+03</pdfrwt>
<totfact> 0.71656387E+02</totfact>
</mgrwt>
</event>
<event>
 4    1  0.8249026E-001  0.4023864E+03  0.7546771E-02  0.1042956E+00
         -2   -1    0    0    0  501 -0.00000000000E+00  0.00000000000E+00  0.29878054162E+04  0.29878054162E+04  0.00000000000E+00 0.  1.
          2   -1    0    0  502    0  0.00000000000E+00 -0.00000000000E+00 -0.61609689309E+02  0.61609689309E+02  0.00000000000E+00 0. -1.
          6    1    1    2  502    0  0.24434392793E+03  0.26885279898E+03  0.19921518265E+04  0.20323837439E+04  0.17300000000E+03 0.  1.
         -6    1    1    2    0  501 -0.24434392793E+03 -0.26885279898E+03  0.93404390036E+03  0.10170313616E+04  0.17300000000E+03 0.  1.
<mgrwt>
<rscale>  2 0.40238636E+03</rscale>
<asrwt>0</asrwt>
<pdfrwt beam="2">  1        2 0.94784161E-02 0.40238636E+03</pdfrwt>
<pdfrwt beam="1">  1       -2 0.45966226E+00 0.40238636E+03</pdfrwt>
<totfact> 0.24222186E+00</totfact>
</mgrwt>
</event>
<event>
 4    1  0.8249026E-001  0.2352198E+03  0.7546771E-02  0.1123019E+00
          2   -1    0    0  502    0  0.00000000000E+00  0.00000000000E+00  0.13001870121E+04  0.13001870121E+04  0.00000000000E+00 0. -1.
         -2   -1    0    0    0  501 -0.00000000000E+00 -0.00000000000E+00 -0.44988916513E+02  0.44988916513E+02  0.00000000000E+00 0.  1.
          6    1    1    2  502    0  0.15898130201E+03  0.11149831605E+02  0.47113173887E+03  0.52658663913E+03  0.17300000000E+03 0.  1.
         -6    1    1    2    0  501 -0.15898130201E+03 -0.11149831605E+02  0.78406635674E+03  0.81858928951E+03  0.17300000000E+03 0. -1.
<mgrwt>
<rscale>  2 0.23521984E+03</rscale>
<asrwt>0</asrwt>
<pdfrwt beam="1">  1        2 0.20002874E+00 0.23521984E+03</pdfrwt>
<pdfrwt beam="2">  1       -2 0.69213727E-02 0.23521984E+03</pdfrwt>
<totfact> 0.20805873E+03</totfact>
</mgrwt>
</event>
<event>
 4    1  0.8249026E-001  0.2370828E+03  0.7546771E-02  0.1121752E+00
          2   -1    0    0  502    0  0.00000000000E+00  0.00000000000E+00  0.66289916428E+03  0.66289916428E+03  0.00000000000E+00 0.  1.
         -2   -1    0    0    0  501 -0.00000000000E+00 -0.00000000000E+00 -0.14832910955E+03  0.14832910955E+03  0.00000000000E+00 0. -1.
          6    1    1    2  502    0 -0.37153650562E+01 -0.16206620290E+03 -0.81847584628E+01  0.23722404670E+03  0.17300000000E+03 0. -1.
         -6    1    1    2    0  501  0.37153650562E+01  0.16206620290E+03  0.52275481319E+03  0.57400422714E+03  0.17300000000E+03 0.  1.
<mgrwt>
<rscale>  2 0.23708281E+03</rscale>
<asrwt>0</asrwt>
<pdfrwt beam="1">  1        2 0.10198449E+00 0.23708281E+03</pdfrwt>
<pdfrwt beam="2">  1       -2 0.22819863E-01 0.23708281E+03</pdfrwt>
<totfact> 0.75173766E+02</totfact>
</mgrwt>
</event>
<event>
 4    1  0.8249026E-001  0.2257590E+03  0.7546771E-02  0.1129661E+00
         -2   -1    0    0    0  501 -0.00000000000E+00  0.00000000000E+00  0.12368210773E+03  0.12368210773E+03  0.00000000000E+00 0.  1.
          2   -1    0    0  502    0  0.00000000000E+00 -0.00000000000E+00 -0.42371971384E+03  0.42371971384E+03  0.00000000000E+00 0. -1.
          6    1    1    2  502    0 -0.12308975854E+03 -0.76727082778E+02 -0.10465846944E+03  0.24883835941E+03  0.17300000000E+03 0. -1.
         -6    1    1    2    0  501  0.12308975854E+03  0.76727082778E+02 -0.19537913668E+03  0.29856346216E+03  0.17300000000E+03 0. -1.
<mgrwt>
<rscale>  2 0.22575902E+03</rscale>
<asrwt>0</asrwt>
<pdfrwt beam="2">  1        2 0.65187648E-01 0.22575902E+03</pdfrwt>
<pdfrwt beam="1">  1       -2 0.19028017E-01 0.22575902E+03</pdfrwt>
<totfact> 0.17075986E+03</totfact>
</mgrwt>
</event>
<event>
 4    1  0.8249026E-001  0.1902194E+03  0.7546771E-02  0.1158264E+00
          2   -1    0    0  502    0  0.00000000000E+00  0.00000000000E+00  0.17114369833E+04  0.17114369833E+04  0.00000000000E+00 0. -1.
         -2   -1    0    0    0  501 -0.00000000000E+00 -0.00000000000E+00 -0.21416670898E+02  0.21416670898E+02  0.00000000000E+00 0.  1.
          6    1    1    2  502    0  0.28529520863E+02 -0.73759720475E+02  0.94310729063E+03  0.96209915891E+03  0.17300000000E+03 0. -1.
         -6    1    1    2    0  501 -0.28529520863E+02  0.73759720475E+02  0.74691302180E+03  0.77075449532E+03  0.17300000000E+03 0.  1.
<mgrwt>
<rscale>  2 0.19021943E+03</rscale>
<asrwt>0</asrwt>
<pdfrwt beam="1">  1        2 0.26329789E+00 0.19021943E+03</pdfrwt>
<pdfrwt beam="2">  1       -2 0.32948738E-02 0.19021943E+03</pdfrwt>
<totfact> 0.38675298E+03</totfact>
</mgrwt>
</event>
<event>
 4    1  0.8249026E-001  0.2023270E+03  0.7546771E-02  0.1147790E+00
         -2   -1    0    0    0  501 -0.00000000000E+00  0.00000000000E+00  0.66662935172E+02  0.66662935172E+02  0.00000000000E+00 0. -1.
          2   -1    0    0  502    0  0.00000000000E+00 -0.00000000000E+00 -0.62260098919E+03  0.62260098919E+03  0.00000000000E+00 0.  1.
          6    1    1    2  502    0  0.56130210353E+01 -0.10476504566E+03 -0.31829219875E+03  0.37715533217E+03  0.17300000000E+03 0.  1.
         -6    1    1    2    0  501 -0.56130210353E+01  0.10476504566E+03 -0.23764585527E+03  0.31210859220E+03  0.17300000000E+03 0.  1.
<mgrwt>
<rscale>  2 0.20232701E+03</rscale>
<asrwt>0</asrwt>
<pdfrwt beam="2">  1        2 0.95784762E-01 0.20232701E+03</pdfrwt>
<pdfrwt beam="1">  1       -2 0.10255837E-01 0.20232701E+03</pdfrwt>
<totfact> 0.30451689E+03</totfact>
</mgrwt>
</event>
<event>
 4    1  0.8249026E-001  0.1734506E+03  0.7546771E-02  0.1174296E+00
         -1   -1    0    0    0  501 -0.00000000000E+00  0.00000000000E+00  0.19895878470E+04  0.19895878470E+04  0.00000000000E+00 0.  1.
          1   -1    0    0  502    0  0.00000000000E+00 -0.00000000000E+00 -0.15743295611E+02  0.15743295611E+02  0.00000000000E+00 0. -1.
          6    1    1    2  502    0 -0.12453307215E+02  0.10143544769E+01  0.78762143961E+03  0.80649404580E+03  0.17300000000E+03 0. -1.
         -6    1    1    2    0  501  0.12453307215E+02 -0.10143544769E+01  0.11862231118E+04  0.11988370968E+04  0.17300000000E+03 0.  1.
<mgrwt>
<rscale>  2 0.17345061E+03</rscale>
<asrwt>0</asrwt>
<pdfrwt beam="2">  1        1 0.24220471E-02 0.17345061E+03</pdfrwt>
<pdfrwt beam="1">  1       -1 0.30609024E+00 0.17345061E+03</pdfrwt>
<totfact> 0.16452852E+02</totfact>
</mgrwt>
</event>
<event>
 4    1  0.8249026E-001  0.1839938E+03  0.7546771E-02  0.1163993E+00
          2   -1    0    0  502    0  0.00000000000E+00  0.00000000000E+00  0.99812488256E+03  0.99812488256E+03  0.00000000000E+00 0. -1.
         -2   -1    0    0    0  501 -0.00000000000E+00 -0.00000000000E+00 -0.34699119647E+02  0.34699119647E+02  0.00000000000E+00 0.  1.
          6    1    1    2  502    0  0.62571461210E+02  0.30857253218E+01  0.55922829290E+03  0.58871894232E+03  0.17300000000E+03 0. -1.
         -6    1    1    2    0  501 -0.62571461210E+02 -0.30857253218E+01  0.40419747001E+03  0.44410505989E+03  0.17300000000E+03 0.  1.
<mgrwt>
<rscale>  2 0.18399378E+03</rscale>
<asrwt>0</asrwt>
<pdfrwt beam="1">  1        2 0.15355765E+00 0.18399378E+03</pdfrwt>
<pdfrwt beam="2">  1       -2 0.53383269E-02 0.18399378E+03</pdfrwt>
<totfact> 0.46046737E+03</totfact>
</mgrwt>
</event>
<event>
 4    1  0.8249026E-001  0.1830387E+03  0.7546771E-02  0.1164894E+00
          2   -1    0    0  502    0  0.00000000000E+00  0.00000000000E+00  0.32327045472E+04  0.32327045472E+04  0.00000000000E+00 0.  1.
         -2   -1    0    0    0  501 -0.00000000000E+00 -0.00000000000E+00 -0.11718406532E+02  0.11718406532E+02  0.00000000000E+00 0. -1.
          6    1    1    2  502    0  0.36194049006E+02 -0.47583182504E+02  0.21620324754E+04  0.21697667139E+04  0.17300000000E+03 0.  1.
         -6    1    1    2    0  501 -0.36194049006E+02  0.47583182504E+02  0.10589536653E+04  0.10746562398E+04  0.17300000000E+03 0. -1.
<mgrwt>
<rscale>  2 0.18303871E+03</rscale>
<asrwt>0</asrwt>
<pdfrwt beam="1">  1        2 0.49733845E+00 0.18303871E+03</pdfrwt>
<pdfrwt beam="2">  1       -2 0.18028344E-02 0.18303871E+03</pdfrwt>
<totfact> 0.13801928E+03</totfact>
</mgrwt>
</event>
<event>
 4    1  0.8249026E-001  0.1819447E+03  0.7546771E-02  0.1165934E+00
         -2   -1    0    0    0  501 -0.00000000000E+00  0.00000000000E+00  0.39356309283E+02  0.39356309283E+02  0.00000000000E+00 0. -1.
          2   -1    0    0  502    0  0.00000000000E+00 -0.00000000000E+00 -0.11670795493E+04  0.11670795493E+04  0.00000000000E+00 0.  1.
          6    1    1    2  502    0  0.62212197284E+01 -0.56001663627E+02 -0.24507710610E+03  0.30523217039E+03  0.17300000000E+03 0. -1.
         -6    1    1    2    0  501 -0.62212197284E+01  0.56001663627E+02 -0.88264613391E+03  0.90120368819E+03  0.17300000000E+03 0.  1.
<mgrwt>
<rscale>  2 0.18194474E+03</rscale>
<asrwt>0</asrwt>
<pdfrwt beam="2">  1        2 0.17955065E+00 0.18194474E+03</pdfrwt>
<pdfrwt beam="1">  1       -2 0.60548184E-02 0.18194474E+03</pdfrwt>
<totfact> 0.30271952E+03</totfact>
</mgrwt>
</event>
<event>
 4    1  0.8249026E-001  0.2232250E+03  0.7546771E-02  0.1131501E+00
         -2   -1    0    0    0  501 -0.00000000000E+00  0.00000000000E+00  0.13381752315E+03  0.13381752315E+03  0.00000000000E+00 0.  1.
          2   -1    0    0  502    0  0.00000000000E+00 -0.00000000000E+00 -0.12288920132E+04  0.12288920132E+04  0.00000000000E+00 0. -1.
          6    1    1    2  502    0  0.13335113966E+03  0.46020414177E+02  0.21297520855E+02  0.22423868838E+03  0.17300000000E+03 0.  1.
         -6    1    1    2    0  501 -0.13335113966E+03 -0.46020414177E+02 -0.11163720109E+04  0.11384708480E+04  0.17300000000E+03 0. -1.
<mgrwt>
<rscale>  2 0.22322501E+03</rscale>
<asrwt>0</asrwt>
<pdfrwt beam="2">  1        2 0.18906031E+00 0.22322501E+03</pdfrwt>
<pdfrwt beam="1">  1       -2 0.20587311E-01 0.22322501E+03</pdfrwt>
<totfact> 0.38965535E+02</totfact>
</mgrwt>
</event>
<event>
 4    1  0.8249026E-001  0.2584411E+03  0.7546771E-02  0.1108083E+00
          1   -1    0    0  502    0  0.00000000000E+00  0.00000000000E+00  0.20931549881E+03  0.20931549881E+03  0.00000000000E+00 0. -1.
         -1   -1    0    0    0  501 -0.00000000000E+00 -0.00000000000E+00 -0.34012608973E+03  0.34012608973E+03  0.00000000000E+00 0.  1.
          6    1    1    2  502    0  0.13813638774E+03 -0.13334592812E+03  0.29054736989E+01  0.25845742385E+03  0.17300000000E+03 0. -1.
         -6    1    1    2    0  501 -0.13813638774E+03  0.13334592812E+03 -0.13371606461E+03  0.29098416469E+03  0.17300000000E+03 0.  1.
<mgrwt>
<rscale>  2 0.25844109E+03</rscale>
<asrwt>0</asrwt>
<pdfrwt beam="1">  1        1 0.32202384E-01 0.25844109E+03</pdfrwt>
<pdfrwt beam="2">  1       -1 0.52327091E-01 0.25844109E+03</pdfrwt>
<totfact> 0.52426376E+02</totfact>
</mgrwt>
</event>
<event>
 4    1  0.8249026E-001  0.2429444E+03  0.7546771E-02  0.1117847E+00
          2   -1    0    0  502    0  0.00000000000E+00  0.00000000000E+00  0.79260187412E+03  0.79260187412E+03  0.00000000000E+00 0. -1.
         -2   -1    0    0    0  501 -0.00000000000E+00 -0.00000000000E+00 -0.76245857209E+02  0.76245857209E+02  0.00000000000E+00 0.  1.
          6    1    1    2  502    0 -0.16812505229E+03  0.28756555913E+02  0.42455011123E+03  0.48914698165E+03  0.17300000000E+03 0.  1.
         -6    1    1    2    0  501  0.16812505229E+03 -0.28756555913E+02  0.29180590568E+03  0.37970074968E+03  0.17300000000E+03 0. -1.
<mgrwt>
<rscale>  2 0.24294438E+03</rscale>
<asrwt>0</asrwt>
<pdfrwt beam="1">  1        2 0.12193874E+00 0.24294438E+03</pdfrwt>
<pdfrwt beam="2">  1       -2 0.11730132E-01 0.24294438E+03</pdfrwt>
<totfact> 0.18384337E+03</totfact>
</mgrwt>
</event>
<event>
 4    1  0.8249026E-001  0.2051872E+03  0.7546771E-02  0.1145435E+00
          3   -1    0    0  502    0  0.00000000000E+00  0.00000000000E+00  0.12566898284E+04  0.12566898284E+04  0.00000000000E+00 0. -1.
         -3   -1    0    0    0  501 -0.00000000000E+00 -0.00000000000E+00 -0.43422858822E+02  0.43422858822E+02  0.00000000000E+00 0.  1.
          6    1    1    2  502    0 -0.98291119333E+02  0.50116280682E+02  0.91734946405E+03  0.94001692800E+03  0.17300000000E+03 0.  1.
         -6    1    1    2    0  501  0.98291119333E+02 -0.50116280682E+02  0.29591750549E+03  0.36009575919E+03  0.17300000000E+03 0. -1.
<mgrwt>
<rscale>  2 0.20518720E+03</rscale>
<asrwt>0</asrwt>
<pdfrwt beam="1">  1        3 0.19333687E+00 0.20518720E+03</pdfrwt>
<pdfrwt beam="2">  1       -3 0.66804408E-02 0.20518720E+03</pdfrwt>
<totfact> 0.61969058E+01</totfact>
</mgrwt>
</event>
<event>
 4    1  0.8249026E-001  0.2117083E+03  0.7546771E-02  0.1140220E+00
          2   -1    0    0  502    0  0.00000000000E+00  0.00000000000E+00  0.65248796137E+03  0.65248796137E+03  0.00000000000E+00 0. -1.
         -2   -1    0    0    0  501 -0.00000000000E+00 -0.00000000000E+00 -0.76026296876E+02  0.76026296876E+02  0.00000000000E+00 0.  1.
          6    1    1    2  502    0 -0.81932265948E+02  0.90435181128E+02  0.40137138845E+03  0.45378343916E+03  0.17300000000E+03 0. -1.
         -6    1    1    2    0  501  0.81932265948E+02 -0.90435181128E+02  0.17509027604E+03  0.27473081908E+03  0.17300000000E+03 0. -1.
<mgrwt>
<rscale>  2 0.21170833E+03</rscale>
<asrwt>0</asrwt>
<pdfrwt beam="1">  1        2 0.10038276E+00 0.21170833E+03</pdfrwt>
<pdfrwt beam="2">  1       -2 0.11696354E-01 0.21170833E+03</pdfrwt>
<totfact> 0.23382520E+03</totfact>
</mgrwt>
</event>
<event>
 4    1  0.8249026E-001  0.2145691E+03  0.7546771E-02  0.1137998E+00
          1   -1    0    0  502    0  0.00000000000E+00  0.00000000000E+00  0.90995021927E+03  0.90995021927E+03  0.00000000000E+00 0.  1.
         -1   -1    0    0    0  501 -0.00000000000E+00 -0.00000000000E+00 -0.53836127678E+02  0.53836127678E+02  0.00000000000E+00 0. -1.
          6    1    1    2  502    0 -0.10780210241E+02 -0.12647002212E+03  0.30983672861E+03  0.37688019028E+03  0.17300000000E+03 0.  1.
         -6    1    1    2    0  501  0.10780210241E+02  0.12647002212E+03  0.54627736298E+03  0.58690615667E+03  0.17300000000E+03 0. -1.
<mgrwt>
<rscale>  2 0.21456906E+03</rscale>
<asrwt>0</asrwt>
<pdfrwt beam="1">  1        1 0.13999233E+00 0.21456906E+03</pdfrwt>
<pdfrwt beam="2">  1       -1 0.82824818E-02 0.21456906E+03</pdfrwt>
<totfact> 0.15296871E+03</totfact>
</mgrwt>
</event>
<event>
 4    1  0.8249026E-001  0.3999591E+03  0.7546771E-02  0.1043794E+00
         -2   -1    0    0    0  501 -0.00000000000E+00  0.00000000000E+00  0.24158560729E+03  0.24158560729E+03  0.00000000000E+00 0.  1.
          2   -1    0    0  502    0  0.00000000000E+00 -0.00000000000E+00 -0.10108237458E+04  0.10108237458E+04  0.00000000000E+00 0. -1.
          6    1    1    2  502    0  0.32955943782E+03 -0.14638609433E+03 -0.75239609719E+03  0.85209576852E+03  0.17300000000E+03 0.  1.
         -6    1    1    2    0  501 -0.32955943782E+03  0.14638609433E+03 -0.16842041374E+02  0.40031358462E+03  0.17300000000E+03 0. -1.
<mgrwt>
<rscale>  2 0.39995914E+03</rscale>
<asrwt>0</asrwt>
<pdfrwt beam="2">  1        2 0.15551134E+00 0.39995914E+03</pdfrwt>
<pdfrwt beam="1">  1       -2 0.37167017E-01 0.39995914E+03</pdfrwt>
<totfact> 0.17606743E+02</totfact>
</mgrwt>
</event>
<event>
 4    1  0.8249026E-001  0.2266297E+03  0.7546771E-02  0.1129035E+00
         -1   -1    0    0    0  501 -0.00000000000E+00  0.00000000000E+00  0.54594328165E+02  0.54594328165E+02  0.00000000000E+00 0. -1.
          1   -1    0    0  502    0  0.00000000000E+00 -0.00000000000E+00 -0.11248356789E+04  0.11248356789E+04  0.00000000000E+00 0.  1.
          6    1    1    2  502    0 -0.14498420573E+03 -0.20287913882E+02 -0.77366949653E+03  0.80617957629E+03  0.17300000000E+03 0.  1.
         -6    1    1    2    0  501  0.14498420573E+03  0.20287913882E+02 -0.29657185416E+03  0.37325043073E+03  0.17300000000E+03 0. -1.
<mgrwt>
<rscale>  2 0.22662970E+03</rscale>
<asrwt>0</asrwt>
<pdfrwt beam="2">  1        1 0.17305165E+00 0.22662970E+03</pdfrwt>
<pdfrwt beam="1">  1       -1 0.83991273E-02 0.22662970E+03</pdfrwt>
<totfact> 0.10373359E+03</totfact>
</mgrwt>
</event>
<event>
 4    1  0.8249026E-001  0.2980888E+03  0.7546771E-02  0.1086200E+00
         -2   -1    0    0    0  501 -0.00000000000E+00  0.00000000000E+00  0.33010471329E+02  0.33010471329E+02  0.00000000000E+00 0. -1.
          2   -1    0    0  502    0  0.00000000000E+00 -0.00000000000E+00 -0.31248397503E+04  0.31248397503E+04  0.00000000000E+00 0.  1.
          6    1    1    2  502    0 -0.67726438476E+02 -0.23311164820E+03 -0.21337041111E+04  0.21544257111E+04  0.17300000000E+03 0.  1.
         -6    1    1    2    0  501  0.67726438476E+02  0.23311164820E+03 -0.95812516794E+03  0.10034245106E+04  0.17300000000E+03 0.  1.
<mgrwt>
<rscale>  2 0.29808876E+03</rscale>
<asrwt>0</asrwt>
<pdfrwt beam="2">  1        2 0.48074471E+00 0.29808876E+03</pdfrwt>
<pdfrwt beam="1">  1       -2 0.50785327E-02 0.29808876E+03</pdfrwt>
<totfact> 0.33294006E+02</totfact>
</mgrwt>
</event>
<event>
 4    1  0.8249026E-001  0.1766867E+03  0.7546771E-02  0.1171049E+00
         -2   -1    0    0    0  501 -0.00000000000E+00  0.00000000000E+00  0.45655552227E+02  0.45655552227E+02  0.00000000000E+00 0.  1.
          2   -1    0    0  502    0  0.00000000000E+00 -0.00000000000E+00 -0.68867993164E+03  0.68867993164E+03  0.00000000000E+00 0. -1.
          6    1    1    2  502    0  0.15250608216E+02  0.32505634012E+02 -0.29053069341E+03  0.34003864649E+03  0.17300000000E+03 0. -1.
         -6    1    1    2    0  501 -0.15250608216E+02 -0.32505634012E+02 -0.35249368600E+03  0.39429683738E+03  0.17300000000E+03 0. -1.
<mgrwt>
<rscale>  2 0.17668672E+03</rscale>
<asrwt>0</asrwt>
<pdfrwt beam="2">  1        2 0.10595075E+00 0.17668672E+03</pdfrwt>
<pdfrwt beam="1">  1       -2 0.70239314E-02 0.17668672E+03</pdfrwt>
<totfact> 0.48640356E+03</totfact>
</mgrwt>
</event>
<event>
 4    1  0.8249026E-001  0.2235266E+03  0.7546771E-02  0.1131281E+00
         -1   -1    0    0    0  501 -0.00000000000E+00  0.00000000000E+00  0.75391925242E+02  0.75391925242E+02  0.00000000000E+00 0.  1.
          1   -1    0    0  502    0  0.00000000000E+00 -0.00000000000E+00 -0.12115317398E+04  0.12115317398E+04  0.00000000000E+00 0. -1.
          6    1    1    2  502    0 -0.91127439832E+02  0.10830948342E+03 -0.13499312922E+03  0.26112697950E+03  0.17300000000E+03 0.  1.
         -6    1    1    2    0  501  0.91127439832E+02 -0.10830948342E+03 -0.10011466854E+04  0.10257966855E+04  0.17300000000E+03 0. -1.
<mgrwt>
<rscale>  2 0.22352663E+03</rscale>
<asrwt>0</asrwt>
<pdfrwt beam="2">  1        1 0.18638949E+00 0.22352663E+03</pdfrwt>
<pdfrwt beam="1">  1       -1 0.11598758E-01 0.22352663E+03</pdfrwt>
<totfact> 0.54775874E+02</totfact>
</mgrwt>
</event>
<event>
 4    1  0.8249026E-001  0.2305853E+03  0.7546771E-02  0.1126228E+00
          1   -1    0    0  502    0  0.00000000000E+00  0.00000000000E+00  0.18734814200E+03  0.18734814200E+03  0.00000000000E+00 0.  1.
         -1   -1    0    0    0  501 -0.00000000000E+00 -0.00000000000E+00 -0.31282359687E+03  0.31282359687E+03  0.00000000000E+00 0. -1.
          6    1    1    2  502    0  0.15185115626E+03  0.13484132679E+02 -0.13891182506E+03  0.26919526488E+03  0.17300000000E+03 0.  1.
         -6    1    1    2    0  501 -0.15185115626E+03 -0.13484132679E+02  0.13436370181E+02  0.23097647399E+03  0.17300000000E+03 0. -1.
<mgrwt>
<rscale>  2 0.23058533E+03</rscale>
<asrwt>0</asrwt>
<pdfrwt beam="1">  1        1 0.28822792E-01 0.23058533E+03</pdfrwt>
<pdfrwt beam="2">  1       -1 0.48126706E-01 0.23058533E+03</pdfrwt>
<totfact> 0.70431904E+02</totfact>
</mgrwt>
</event>
<event>
 4    1  0.8249026E-001  0.1889594E+03  0.7546771E-02  0.1159403E+00
         -2   -1    0    0    0  501 -0.00000000000E+00  0.00000000000E+00  0.21135938536E+03  0.21135938536E+03  0.00000000000E+00 0.  1.
          2   -1    0    0  502    0  0.00000000000E+00 -0.00000000000E+00 -0.23053954782E+03  0.23053954782E+03  0.00000000000E+00 0. -1.
          6    1    1    2  502    0  0.65495029279E+02 -0.38562324170E+02  0.10462735228E+03  0.21599197798E+03  0.17300000000E+03 0.  1.
         -6    1    1    2    0  501 -0.65495029279E+02  0.38562324170E+02 -0.12380751474E+03  0.22590695521E+03  0.17300000000E+03 0. -1.
<mgrwt>
<rscale>  2 0.18895939E+03</rscale>
<asrwt>0</asrwt>
<pdfrwt beam="2">  1        2 0.35467623E-01 0.18895939E+03</pdfrwt>
<pdfrwt beam="1">  1       -2 0.32516828E-01 0.18895939E+03</pdfrwt>
<totfact> 0.12746656E+03</totfact>
</mgrwt>
</event>
<event>
 4    1  0.8249026E-001  0.2554359E+03  0.7546771E-02  0.1109917E+00
          2   -1    0    0  502    0  0.00000000000E+00  0.00000000000E+00  0.10317804431E+04  0.10317804431E+04  0.00000000000E+00 0.  1.
         -2   -1    0    0    0  501 -0.00000000000E+00 -0.00000000000E+00 -0.10793349695E+03  0.10793349695E+03  0.00000000000E+00 0. -1.
          6    1    1    2  502    0  0.18682037935E+03  0.20412332385E+02  0.95215262097E+02  0.27260495885E+03  0.17300000000E+03 0. -1.
         -6    1    1    2    0  501 -0.18682037935E+03 -0.20412332385E+02  0.82863168401E+03  0.86710898116E+03  0.17300000000E+03 0. -1.
<mgrwt>
<rscale>  2 0.25543594E+03</rscale>
<asrwt>0</asrwt>
<pdfrwt beam="1">  1        2 0.15873545E+00 0.25543594E+03</pdfrwt>
<pdfrwt beam="2">  1       -2 0.16605154E-01 0.25543594E+03</pdfrwt>
<totfact> 0.72782266E+02</totfact>
</mgrwt>
</event>
<event>
 4    1  0.8249026E-001  0.1752994E+03  0.7546771E-02  0.1172431E+00
         -2   -1    0    0    0  501 -0.00000000000E+00  0.00000000000E+00  0.33481013914E+02  0.33481013914E+02  0.00000000000E+00 0. -1.
          2   -1    0    0  502    0  0.00000000000E+00 -0.00000000000E+00 -0.15736198450E+04  0.15736198450E+04  0.00000000000E+00 0.  1.
          6    1    1    2  502    0  0.16126117952E+02  0.23256075420E+02 -0.12888042272E+04  0.13006714546E+04  0.17300000000E+03 0.  1.
         -6    1    1    2    0  501 -0.16126117952E+02 -0.23256075420E+02 -0.25133460387E+03  0.30642940431E+03  0.17300000000E+03 0. -1.
<mgrwt>
<rscale>  2 0.17529945E+03</rscale>
<asrwt>0</asrwt>
<pdfrwt beam="2">  1        2 0.24209532E+00 0.17529945E+03</pdfrwt>
<pdfrwt beam="1">  1       -2 0.51509261E-02 0.17529945E+03</pdfrwt>
<totfact> 0.23341382E+03</totfact>
</mgrwt>
</event>
<event>
 4    1  0.8249026E-001  0.2410642E+03  0.7546771E-02  0.1119086E+00
          2   -1    0    0  502    0  0.00000000000E+00  0.00000000000E+00  0.16201362209E+04  0.16201362209E+04  0.00000000000E+00 0. -1.
         -2   -1    0    0    0  501 -0.00000000000E+00 -0.00000000000E+00 -0.36945195079E+02  0.36945195079E+02  0.00000000000E+00 0.  1.
          6    1    1    2  502    0 -0.47334113256E+02 -0.16106650775E+03  0.65015591740E+03  0.69340800048E+03  0.17300000000E+03 0.  1.
         -6    1    1    2    0  501  0.47334113256E+02  0.16106650775E+03  0.93303510845E+03  0.96367341553E+03  0.17300000000E+03 0.  1.
<mgrwt>
<rscale>  2 0.24106418E+03</rscale>
<asrwt>0</asrwt>
<pdfrwt beam="1">  1        2 0.24925167E+00 0.24106418E+03</pdfrwt>
<pdfrwt beam="2">  1       -2 0.56838774E-02 0.24106418E+03</pdfrwt>
<totfact> 0.18964933E+03</totfact>
</mgrwt>
</event>
<event>
 4    1  0.8249026E-001  0.4510906E+03  0.7546771E-02  0.1027397E+00
         -2   -1    0    0    0  501 -0.00000000000E+00  0.00000000000E+00  0.17877955113E+03  0.17877955113E+03  0.00000000000E+00 0. -1.
          2   -1    0    0  502    0  0.00000000000E+00 -0.00000000000E+00 -0.12048253386E+04  0.12048253386E+04  0.00000000000E+00 0.  1.
          6    1    1    2  502    0  0.29755857019E+03 -0.29156917499E+03 -0.67573365964E+03  0.81246456247E+03  0.17300000000E+03 0.  1.
         -6    1    1    2    0  501 -0.29755857019E+03  0.29156917499E+03 -0.35031212781E+03  0.57114032723E+03  0.17300000000E+03 0. -1.
<mgrwt>
<rscale>  2 0.45109055E+03</rscale>
<asrwt>0</asrwt>
<pdfrwt beam="2">  1        2 0.18535775E+00 0.45109055E+03</pdfrwt>
<pdfrwt beam="1">  1       -2 0.27504545E-01 0.45109055E+03</pdfrwt>
<totfact> 0.23448952E+02</totfact>
</mgrwt>
</event>
<event>
 4    1  0.8249026E-001  0.2089168E+03  0.7546771E-02  0.1142427E+00
         -2   -1    0    0    0  501 -0.00000000000E+00  0.00000000000E+00  0.99385258936E+02  0.99385258936E+02  0.00000000000E+00 0. -1.
          2   -1    0    0  502    0  0.00000000000E+00 -0.00000000000E+00 -0.61329359841E+03  0.61329359841E+03  0.00000000000E+00 0.  1.
          6    1    1    2  502    0  0.85369371392E+02  0.80182833505E+02 -0.44682953246E+03  0.49325738458E+03  0.17300000000E+03 0.  1.
         -6    1    1    2    0  501 -0.85369371392E+02 -0.80182833505E+02 -0.67078807010E+02  0.21942147277E+03  0.17300000000E+03 0. -1.
<mgrwt>
<rscale>  2 0.20891677E+03</rscale>
<asrwt>0</asrwt>
<pdfrwt beam="2">  1        2 0.94352865E-01 0.20891677E+03</pdfrwt>
<pdfrwt beam="1">  1       -2 0.15290039E-01 0.20891677E+03</pdfrwt>
<totfact> 0.16240726E+03</totfact>
</mgrwt>
</event>
<event>
 4    1  0.8249026E-001  0.2188332E+03  0.7546771E-02  0.1134756E+00
         -1   -1    0    0    0  501 -0.00000000000E+00  0.00000000000E+00  0.98625095031E+03  0.98625095031E+03  0.00000000000E+00 0. -1.
          1   -1    0    0  502    0  0.00000000000E+00 -0.00000000000E+00 -0.48567875868E+02  0.48567875868E+02  0.00000000000E+00 0.  1.
          6    1    1    2  502    0 -0.10661120046E+03  0.81197333485E+02  0.46059807519E+03  0.50993974340E+03  0.17300000000E+03 0. -1.
         -6    1    1    2    0  501  0.10661120046E+03 -0.81197333485E+02  0.47708499925E+03  0.52487908278E+03  0.17300000000E+03 0.  1.
<mgrwt>
<rscale>  2 0.21883317E+03</rscale>
<asrwt>0</asrwt>
<pdfrwt beam="2">  1        1 0.74719816E-02 0.21883317E+03</pdfrwt>
<pdfrwt beam="1">  1       -1 0.15173090E+00 0.21883317E+03</pdfrwt>
<totfact> 0.35080434E+02</totfact>
</mgrwt>
</event>
<event>
 4    1  0.8249026E-001  0.2010365E+03  0.7546771E-02  0.1148867E+00
          1   -1    0    0  502    0  0.00000000000E+00  0.00000000000E+00  0.22421566396E+04  0.22421566396E+04  0.00000000000E+00 0.  1.
         -1   -1    0    0    0  501 -0.00000000000E+00 -0.00000000000E+00 -0.24943807834E+02  0.24943807834E+02  0.00000000000E+00 0. -1.
          6    1    1    2  502    0  0.19357796794E+02  0.10055824058E+03  0.17055917720E+04  0.17173988985E+04  0.17300000000E+03 0.  1.
         -6    1    1    2    0  501 -0.19357796794E+02 -0.10055824058E+03  0.51162105979E+03  0.54970154890E+03  0.17300000000E+03 0. -1.
<mgrwt>
<rscale>  2 0.20103652E+03</rscale>
<asrwt>0</asrwt>
<pdfrwt beam="1">  1        1 0.34494702E+00 0.20103652E+03</pdfrwt>
<pdfrwt beam="2">  1       -1 0.38375106E-02 0.20103652E+03</pdfrwt>
<totfact> 0.62033028E+02</totfact>
</mgrwt>
</event>
<event>
 4    1  0.8249026E-001  0.1782679E+03  0.7546771E-02  0.1169490E+00
         -4   -1    0    0    0  501 -0.00000000000E+00  0.00000000000E+00  0.99626412611E+03  0.99626412611E+03  0.00000000000E+00 0. -1.
          4   -1    0    0  502    0  0.00000000000E+00 -0.00000000000E+00 -0.35389081095E+02  0.35389081095E+02  0.00000000000E+00 0.  1.
          6    1    1    2  502    0  0.12397070214E+02 -0.41191643608E+02  0.64243611435E+03  0.66671103176E+03  0.17300000000E+03 0. -1.
         -6    1    1    2    0  501 -0.12397070214E+02  0.41191643608E+02  0.31843893066E+03  0.36494217544E+03  0.17300000000E+03 0.  1.
<mgrwt>
<rscale>  2 0.17826789E+03</rscale>
<asrwt>0</asrwt>
<pdfrwt beam="2">  1        4 0.54444748E-02 0.17826789E+03</pdfrwt>
<pdfrwt beam="1">  1       -4 0.15327138E+00 0.17826789E+03</pdfrwt>
<totfact> 0.10949172E+02</totfact>
</mgrwt>
</event>
<event>
 4    1  0.8249026E-001  0.2035426E+03  0.7546771E-02  0.1146784E+00
         -2   -1    0    0    0  501 -0.00000000000E+00  0.00000000000E+00  0.28414334075E+03  0.28414334075E+03  0.00000000000E+00 0. -1.
          2   -1    0    0  502    0  0.00000000000E+00 -0.00000000000E+00 -0.15093407290E+03  0.15093407290E+03  0.00000000000E+00 0.  1.
          6    1    1    2  502    0 -0.56550448840E+02 -0.91118777180E+02  0.26503870134E+02  0.20526090702E+03  0.17300000000E+03 0. -1.
         -6    1    1    2    0  501  0.56550448840E+02  0.91118777180E+02  0.10670539771E+03  0.22981650663E+03  0.17300000000E+03 0. -1.
<mgrwt>
<rscale>  2 0.20354259E+03</rscale>
<asrwt>0</asrwt>
<pdfrwt beam="2">  1        2 0.23220627E-01 0.20354259E+03</pdfrwt>
<pdfrwt beam="1">  1       -2 0.43714360E-01 0.20354259E+03</pdfrwt>
<totfact> 0.11648112E+03</totfact>
</mgrwt>
</event>
<event>
 4    1  0.8249026E-001  0.2010591E+03  0.7546771E-02  0.1148849E+00
          3   -1    0    0  502    0  0.00000000000E+00  0.00000000000E+00  0.19650098929E+02  0.19650098929E+02  0.00000000000E+00 0.  1.
         -3   -1    0    0    0  501 -0.00000000000E+00 -0.00000000000E+00 -0.21099944606E+04  0.21099944606E+04  0.00000000000E+00 0. -1.
          6    1    1    2  502    0 -0.44804998769E+02 -0.92131802625E+02 -0.12135599659E+04  0.12301026575E+04  0.17300000000E+03 0. -1.
         -6    1    1    2    0  501  0.44804998769E+02  0.92131802625E+02 -0.87678439570E+03  0.89954190203E+03  0.17300000000E+03 0. -1.
<mgrwt>
<rscale>  2 0.20105909E+03</rscale>
<asrwt>0</asrwt>
<pdfrwt beam="1">  1        3 0.30230918E-02 0.20105909E+03</pdfrwt>
<pdfrwt beam="2">  1       -3 0.32461457E+00 0.20105909E+03</pdfrwt>
<totfact> 0.40539890E+01</totfact>
</mgrwt>
</event>
<event>
 4    1  0.8249026E-001  0.1860005E+03  0.7546771E-02  0.1162119E+00
         -2   -1    0    0    0  501 -0.00000000000E+00  0.00000000000E+00  0.11883204987E+03  0.11883204987E+03  0.00000000000E+00 0. -1.
          2   -1    0    0  502    0  0.00000000000E+00 -0.00000000000E+00 -0.39812753709E+03  0.39812753709E+03  0.00000000000E+00 0.  1.
          6    1    1    2  502    0 -0.49380757988E+02 -0.47209418775E+02 -0.27364376297E+03  0.33087323478E+03  0.17300000000E+03 0.  1.
         -6    1    1    2    0  501  0.49380757988E+02  0.47209418775E+02 -0.56517242453E+01  0.18608635218E+03  0.17300000000E+03 0. -1.
<mgrwt>
<rscale>  2 0.18600051E+03</rscale>
<asrwt>0</asrwt>
<pdfrwt beam="2">  1        2 0.61250391E-01 0.18600051E+03</pdfrwt>
<pdfrwt beam="1">  1       -2 0.18281854E-01 0.18600051E+03</pdfrwt>
<totfact> 0.19463020E+03</totfact>
</mgrwt>
</event>
<event>
 4    1  0.8249026E-001  0.1948952E+03  0.7546771E-02  0.1154119E+00
          2   -1    0    0  502    0  0.00000000000E+00  0.00000000000E+00  0.14141968097E+03  0.14141968097E+03  0.00000000000E+00 0.  1.
         -2   -1    0    0    0  501 -0.00000000000E+00 -0.00000000000E+00 -0.26861163278E+03  0.26861163278E+03  0.00000000000E+00 0. -1.
          6    1    1    2  502    0  0.25709611686E+02 -0.85989350698E+02 -0.65362035463E+02  0.20556348958E+03  0.17300000000E+03 0. -1.
         -6    1    1    2    0  501 -0.25709611686E+02  0.85989350698E+02 -0.61829916349E+02  0.20446782417E+03  0.17300000000E+03 0. -1.
<mgrwt>
<rscale>  2 0.19489523E+03</rscale>
<asrwt>0</asrwt>
<pdfrwt beam="1">  1        2 0.21756874E-01 0.19489523E+03</pdfrwt>
<pdfrwt beam="2">  1       -2 0.41324866E-01 0.19489523E+03</pdfrwt>
<totfact> 0.13955274E+03</totfact>
</mgrwt>
</event>
<event>
 4    1  0.8249026E-001  0.1867218E+03  0.7546771E-02  0.1161452E+00
          2   -1    0    0  502    0  0.00000000000E+00  0.00000000000E+00  0.25536852220E+04  0.25536852220E+04  0.00000000000E+00 0.  1.
         -2   -1    0    0    0  501 -0.00000000000E+00 -0.00000000000E+00 -0.13675059490E+02  0.13675059490E+02  0.00000000000E+00 0. -1.
          6    1    1    2  502    0  0.17702393828E+02  0.67989980776E+02  0.12182413328E+04  0.12324678321E+04  0.17300000000E+03 0. -1.
         -6    1    1    2    0  501 -0.17702393828E+02 -0.67989980776E+02  0.13217688297E+04  0.13348924494E+04  0.17300000000E+03 0. -1.
<mgrwt>
<rscale>  2 0.18672175E+03</rscale>
<asrwt>0</asrwt>
<pdfrwt beam="1">  1        2 0.39287427E+00 0.18672175E+03</pdfrwt>
<pdfrwt beam="2">  1       -2 0.21038573E-02 0.18672175E+03</pdfrwt>
<totfact> 0.27059442E+03</totfact>
</mgrwt>
</event>
<event>
 4    1  0.8249026E-001  0.1859922E+03  0.7546771E-02  0.1162127E+00
          2   -1    0    0  502    0  0.00000000000E+00  0.00000000000E+00  0.18324467271E+04  0.18324467271E+04  0.00000000000E+00 0.  1.
         -2   -1    0    0    0  501 -0.00000000000E+00 -0.00000000000E+00 -0.58706290742E+02  0.58706290742E+02  0.00000000000E+00 0. -1.
          6    1    1    2  502    0  0.13609454874E+02  0.66924429651E+02  0.10802763108E+03  0.21508850649E+03  0.17300000000E+03 0. -1.
         -6    1    1    2    0  501 -0.13609454874E+02 -0.66924429651E+02  0.16657128053E+04  0.16760645114E+04  0.17300000000E+03 0.  1.
<mgrwt>
<rscale>  2 0.18599219E+03</rscale>
<asrwt>0</asrwt>
<pdfrwt beam="1">  1        2 0.28191484E+00 0.18599219E+03</pdfrwt>
<pdfrwt beam="2">  1       -2 0.90317384E-02 0.18599219E+03</pdfrwt>
<totfact> 0.72085801E+02</totfact>
</mgrwt>
</event>
<event>
 4    1  0.8249026E-001  0.2380891E+03  0.7546771E-02  0.1121072E+00
          2   -1    0    0  502    0  0.00000000000E+00  0.00000000000E+00  0.10398176003E+04  0.10398176003E+04  0.00000000000E+00 0.  1.
         -2   -1    0    0    0  501 -0.00000000000E+00 -0.00000000000E+00 -0.68170991287E+02  0.68170991287E+02  0.00000000000E+00 0. -1.
          6    1    1    2  502    0  0.14743352858E+03  0.70857261270E+02  0.23787806061E+03  0.33655960623E+03  0.17300000000E+03 0. -1.
         -6    1    1    2    0  501 -0.14743352858E+03 -0.70857261270E+02  0.73376854840E+03  0.77142898535E+03  0.17300000000E+03 0.  1.
<mgrwt>
<rscale>  2 0.23808905E+03</rscale>
<asrwt>0</asrwt>
<pdfrwt beam="1">  1        2 0.15997193E+00 0.23808905E+03</pdfrwt>
<pdfrwt beam="2">  1       -2 0.10487846E-01 0.23808905E+03</pdfrwt>
<totfact> 0.15264959E+03</totfact>
</mgrwt>
</event>
<event>
 4    1  0.8249026E-001  0.1923460E+03  0.7546771E-02  0.1156362E+00
          1   -1    0    0  502    0  0.00000000000E+00  0.00000000000E+00  0.34798043110E+03  0.34798043110E+03  0.00000000000E+00 0. -1.
         -1   -1    0    0    0  501 -0.00000000000E+00 -0.00000000000E+00 -0.13824982722E+03  0.13824982722E+03  0.00000000000E+00 0.  1.
          6    1    1    2  502    0  0.54349440930E+02 -0.64141436287E+02 -0.11972590543E+02  0.19271826199E+03  0.17300000000E+03 0.  1.
         -6    1    1    2    0  501 -0.54349440930E+02  0.64141436287E+02  0.22170319442E+03  0.29351199634E+03  0.17300000000E+03 0. -1.
<mgrwt>
<rscale>  2 0.19234600E+03</rscale>
<asrwt>0</asrwt>
<pdfrwt beam="1">  1        1 0.53535451E-01 0.19234600E+03</pdfrwt>
<pdfrwt beam="2">  1       -1 0.21269204E-01 0.19234600E+03</pdfrwt>
<totfact> 0.13146612E+03</totfact>
</mgrwt>
</event>
<event>
 4    1  0.8249026E-001  0.2694088E+03  0.7546771E-02  0.1101618E+00
         -2   -1    0    0    0  501 -0.00000000000E+00  0.00000000000E+00  0.96793960262E+02  0.96793960262E+02  0.00000000000E+00 0.  1.
          2   -1    0    0  502    0  0.00000000000E+00 -0.00000000000E+00 -0.76390546970E+03  0.76390546970E+03  0.00000000000E+00 0. -1.
          6    1    1    2  502    0 -0.12588640275E+03 -0.16372137888E+03 -0.27518377699E+03  0.38510672212E+03  0.17300000000E+03 0.  1.
         -6    1    1    2    0  501  0.12588640275E+03  0.16372137888E+03 -0.39192773244E+03  0.47559270785E+03  0.17300000000E+03 0. -1.
<mgrwt>
<rscale>  2 0.26940875E+03</rscale>
<asrwt>0</asrwt>
<pdfrwt beam="2">  1        2 0.11752392E+00 0.26940875E+03</pdfrwt>
<pdfrwt beam="1">  1       -2 0.14891378E-01 0.26940875E+03</pdfrwt>
<totfact> 0.13045061E+03</totfact>
</mgrwt>
</event>
<event>
 4    1  0.8249026E-001  0.1736696E+03  0.7546771E-02  0.1174074E+00
          2   -1    0    0  502    0  0.00000000000E+00  0.00000000000E+00  0.37488323690E+03  0.37488323690E+03  0.00000000000E+00 0.  1.
         -2   -1    0    0    0  501 -0.00000000000E+00 -0.00000000000E+00 -0.87524136885E+02  0.87524136885E+02  0.00000000000E+00 0. -1.
          6    1    1    2  502    0 -0.14800167073E+02 -0.36152393397E+01  0.77970750746E+02  0.19036951666E+03  0.17300000000E+03 0. -1.
         -6    1    1    2    0  501  0.14800167073E+02  0.36152393397E+01  0.20938834927E+03  0.27203785713E+03  0.17300000000E+03 0.  1.
<mgrwt>
<rscale>  2 0.17366956E+03</rscale>
<asrwt>0</asrwt>
<pdfrwt beam="1">  1        2 0.57674343E-01 0.17366956E+03</pdfrwt>
<pdfrwt beam="2">  1       -2 0.13465252E-01 0.17366956E+03</pdfrwt>
<totfact> 0.34345176E+03</totfact>
</mgrwt>
</event>
<event>
 4    1  0.8249026E-001  0.2384802E+03  0.7546771E-02  0.1120809E+00
         -2   -1    0    0    0  501 -0.00000000000E+00  0.00000000000E+00  0.10156645792E+03  0.10156645792E+03  0.00000000000E+00 0. -1.
          2   -1    0    0  502    0  0.00000000000E+00 -0.00000000000E+00 -0.11754074448E+04  0.11754074448E+04  0.00000000000E+00 0.  1.
          6    1    1    2  502    0  0.16388469657E+03 -0.92520778416E+01 -0.74907125838E+02  0.24996774235E+03  0.17300000000E+03 0. -1.
         -6    1    1    2    0  501 -0.16388469657E+03  0.92520778416E+01 -0.99893386105E+03  0.10270061604E+04  0.17300000000E+03 0.  1.
<mgrwt>
<rscale>  2 0.23848018E+03</rscale>
<asrwt>0</asrwt>
<pdfrwt beam="2">  1        2 0.18083192E+00 0.23848018E+03</pdfrwt>
<pdfrwt beam="1">  1       -2 0.15625609E-01 0.23848018E+03</pdfrwt>
<totfact> 0.66432290E+02</totfact>
</mgrwt>
</event>
<event>
 4    1  0.8249026E-001  0.1840209E+03  0.7546771E-02  0.1163967E+00
         -2   -1    0    0    0  501 -0.00000000000E+00  0.00000000000E+00  0.94454576633E+02  0.94454576633E+02  0.00000000000E+00 0.  1.
          2   -1    0    0  502    0  0.00000000000E+00 -0.00000000000E+00 -0.36464601579E+03  0.36464601579E+03  0.00000000000E+00 0. -1.
          6    1    1    2  502    0 -0.51454233013E+02  0.35876799416E+02 -0.10533826981E+03  0.21203734086E+03  0.17300000000E+03 0. -1.
         -6    1    1    2    0  501  0.51454233013E+02 -0.35876799416E+02 -0.16485316936E+03  0.24706325157E+03  0.17300000000E+03 0. -1.
<mgrwt>
<rscale>  2 0.18402088E+03</rscale>
<asrwt>0</asrwt>
<pdfrwt beam="2">  1        2 0.56099387E-01 0.18402088E+03</pdfrwt>
<pdfrwt beam="1">  1       -2 0.14531473E-01 0.18402088E+03</pdfrwt>
<totfact> 0.31316977E+03</totfact>
</mgrwt>
</event>
<event>
 4    1  0.8249026E-001  0.2286789E+03  0.7546771E-02  0.1127573E+00
         -2   -1    0    0    0  501 -0.00000000000E+00  0.00000000000E+00  0.13304929382E+03  0.13304929382E+03  0.00000000000E+00 0. -1.
          2   -1    0    0  502    0  0.00000000000E+00 -0.00000000000E+00 -0.40534243642E+03  0.40534243642E+03  0.00000000000E+00 0.  1.
          6    1    1    2  502    0 -0.13227741605E+03  0.69768972270E+02 -0.18303969352E+03  0.29291219451E+03  0.17300000000E+03 0.  1.
         -6    1    1    2    0  501  0.13227741605E+03 -0.69768972270E+02 -0.89253449083E+02  0.24547953573E+03  0.17300000000E+03 0.  1.
<mgrwt>
<rscale>  2 0.22867887E+03</rscale>
<asrwt>0</asrwt>
<pdfrwt beam="2">  1        2 0.62360374E-01 0.22867887E+03</pdfrwt>
<pdfrwt beam="1">  1       -2 0.20469122E-01 0.22867887E+03</pdfrwt>
<totfact> 0.15825105E+03</totfact>
</mgrwt>
</event>
<event>
 4    1  0.8249026E-001  0.1885081E+03  0.7546771E-02  0.1159814E+00
          2   -1    0    0  502    0  0.00000000000E+00  0.00000000000E+00  0.86640801786E+02  0.86640801786E+02  0.00000000000E+00 0.  1.
         -2   -1    0    0    0  501 -0.00000000000E+00 -0.00000000000E+00 -0.41286867746E+03  0.41286867746E+03  0.00000000000E+00 0. -1.
          6    1    1    2  502    0 -0.74712872987E+02 -0.49299521247E+01 -0.14282956769E+03  0.23650708916E+03  0.17300000000E+03 0. -1.
         -6    1    1    2    0  501  0.74712872987E+02  0.49299521247E+01 -0.18339830799E+03  0.26300239008E+03  0.17300000000E+03 0. -1.
<mgrwt>
<rscale>  2 0.18850814E+03</rscale>
<asrwt>0</asrwt>
<pdfrwt beam="1">  1        2 0.13329354E-01 0.18850814E+03</pdfrwt>
<pdfrwt beam="2">  1       -2 0.63518257E-01 0.18850814E+03</pdfrwt>
<totfact> 0.10432165E+03</totfact>
</mgrwt>
</event>
<event>
 4    1  0.8249026E-001  0.2031481E+03  0.7546771E-02  0.1147110E+00
          1   -1    0    0  502    0  0.00000000000E+00  0.00000000000E+00  0.11671796499E+04  0.11671796499E+04  0.00000000000E+00 0.  1.
         -1   -1    0    0    0  501 -0.00000000000E+00 -0.00000000000E+00 -0.40938480447E+02  0.40938480447E+02  0.00000000000E+00 0. -1.
          6    1    1    2  502    0  0.10168793095E+03  0.31618032020E+02  0.34009769633E+03  0.39615095393E+03  0.17300000000E+03 0. -1.
         -6    1    1    2    0  501 -0.10168793095E+03 -0.31618032020E+02  0.78614347315E+03  0.81196717645E+03  0.17300000000E+03 0.  1.
<mgrwt>
<rscale>  2 0.20314806E+03</rscale>
<asrwt>0</asrwt>
<pdfrwt beam="1">  1        1 0.17956607E+00 0.20314806E+03</pdfrwt>
<pdfrwt beam="2">  1       -1 0.62982287E-02 0.20314806E+03</pdfrwt>
<totfact> 0.15001881E+03</totfact>
</mgrwt>
</event>
<event>
 4    1  0.8249026E-001  0.1975479E+03  0.7546771E-02  0.1151824E+00
          1   -1    0    0  502    0  0.00000000000E+00  0.00000000000E+00  0.58603418207E+03  0.58603418207E+03  0.00000000000E+00 0.  1.
         -1   -1    0    0    0  501 -0.00000000000E+00 -0.00000000000E+00 -0.76506630279E+02  0.76506630279E+02  0.00000000000E+00 0. -1.
          6    1    1    2  502    0  0.83740690504E+02  0.45647265219E+02  0.13551008743E+03  0.23955825985E+03  0.17300000000E+03 0. -1.
         -6    1    1    2    0  501 -0.83740690504E+02 -0.45647265219E+02  0.37401746436E+03  0.42298255250E+03  0.17300000000E+03 0.  1.
<mgrwt>
<rscale>  2 0.19754791E+03</rscale>
<asrwt>0</asrwt>
<pdfrwt beam="1">  1        1 0.90159102E-01 0.19754791E+03</pdfrwt>
<pdfrwt beam="2">  1       -1 0.11770251E-01 0.19754791E+03</pdfrwt>
<totfact> 0.17074358E+03</totfact>
</mgrwt>
</event>
<event>
 4    1  0.8249026E-001  0.1754289E+03  0.7546771E-02  0.1172302E+00
          1   -1    0    0  502    0  0.00000000000E+00  0.00000000000E+00  0.96654078543E+03  0.96654078543E+03  0.00000000000E+00 0. -1.
         -1   -1    0    0    0  501 -0.00000000000E+00 -0.00000000000E+00 -0.32077563563E+02  0.32077563563E+02  0.00000000000E+00 0.  1.
          6    1    1    2  502    0 -0.27549717245E+02  0.93434607927E+01  0.42432111665E+03  0.45915541727E+03  0.17300000000E+03 0.  1.
         -6    1    1    2    0  501  0.27549717245E+02 -0.93434607927E+01  0.51014210522E+03  0.53946293172E+03  0.17300000000E+03 0. -1.
<mgrwt>
<rscale>  2 0.17542887E+03</rscale>
<asrwt>0</asrwt>
<pdfrwt beam="1">  1        1 0.14869856E+00 0.17542887E+03</pdfrwt>
<pdfrwt beam="2">  1       -1 0.49350105E-02 0.17542887E+03</pdfrwt>
<totfact> 0.30138843E+03</totfact>
</mgrwt>
</event>
<event>
 4    1  0.8249026E-001  0.1962405E+03  0.7546771E-02  0.1152950E+00
         -2   -1    0    0    0  501 -0.00000000000E+00  0.00000000000E+00  0.56550890797E+03  0.56550890797E+03  0.00000000000E+00 0.  1.
          2   -1    0    0  502    0  0.00000000000E+00 -0.00000000000E+00 -0.10383019034E+03  0.10383019034E+03  0.00000000000E+00 0. -1.
          6    1    1    2  502    0 -0.90900818851E+02 -0.17843222201E+02  0.42716671599E+03  0.47008695227E+03  0.17300000000E+03 0. -1.
         -6    1    1    2    0  501  0.90900818851E+02  0.17843222201E+02  0.34512001646E+02  0.19925214605E+03  0.17300000000E+03 0. -1.
<mgrwt>
<rscale>  2 0.19624051E+03</rscale>
<asrwt>0</asrwt>
<pdfrwt beam="2">  1        2 0.15973876E-01 0.19624051E+03</pdfrwt>
<pdfrwt beam="1">  1       -2 0.87001369E-01 0.19624051E+03</pdfrwt>
<totfact> 0.42618915E+02</totfact>
</mgrwt>
</event>
<event>
 4    1  0.8249026E-001  0.1838420E+03  0.7546771E-02  0.1164136E+00
         -1   -1    0    0    0  501 -0.00000000000E+00  0.00000000000E+00  0.99439434038E+02  0.99439434038E+02  0.00000000000E+00 0. -1.
          1   -1    0    0  502    0  0.00000000000E+00 -0.00000000000E+00 -0.42680653327E+03  0.42680653327E+03  0.00000000000E+00 0.  1.
          6    1    1    2  502    0  0.24355637735E+02 -0.57233547141E+02 -0.44940183082E+02  0.18925510842E+03  0.17300000000E+03 0. -1.
         -6    1    1    2    0  501 -0.24355637735E+02  0.57233547141E+02 -0.28242691615E+03  0.33699085888E+03  0.17300000000E+03 0.  1.
<mgrwt>
<rscale>  2 0.18384199E+03</rscale>
<asrwt>0</asrwt>
<pdfrwt beam="2">  1        1 0.65662544E-01 0.18384199E+03</pdfrwt>
<pdfrwt beam="1">  1       -1 0.15298374E-01 0.18384199E+03</pdfrwt>
<totfact> 0.17190279E+03</totfact>
</mgrwt>
</event>
<event>
 4    1  0.8249026E-001  0.1805154E+03  0.7546771E-02  0.1167305E+00
         -1   -1    0    0    0  501 -0.00000000000E+00  0.00000000000E+00  0.28939533153E+03  0.28939533153E+03  0.00000000000E+00 0.  1.
          1   -1    0    0  502    0  0.00000000000E+00 -0.00000000000E+00 -0.16072695681E+03  0.16072695681E+03  0.00000000000E+00 0. -1.
          6    1    1    2  502    0 -0.21252389700E+02 -0.46959019717E+02  0.18748915443E+03  0.26026524284E+03  0.17300000000E+03 0.  1.
         -6    1    1    2    0  501  0.21252389700E+02  0.46959019717E+02 -0.58820779707E+02  0.18985704550E+03  0.17300000000E+03 0. -1.
<mgrwt>
<rscale>  2 0.18051541E+03</rscale>
<asrwt>0</asrwt>
<pdfrwt beam="2">  1        1 0.24727224E-01 0.18051541E+03</pdfrwt>
<pdfrwt beam="1">  1       -1 0.44522359E-01 0.18051541E+03</pdfrwt>
<totfact> 0.98253410E+02</totfact>
</mgrwt>
</event>
<event>
 4    1  0.8249026E-001  0.2199770E+03  0.7546771E-02  0.1133900E+00
         -1   -1    0    0    0  501 -0.00000000000E+00  0.00000000000E+00  0.31638418482E+03  0.31638418482E+03  0.00000000000E+00 0. -1.
          1   -1    0    0  502    0  0.00000000000E+00 -0.00000000000E+00 -0.16121244466E+03  0.16121244466E+03  0.00000000000E+00 0.  1.
          6    1    1    2  502    0 -0.13573166728E+03 -0.61463903303E+01  0.23513251594E+02  0.22123005361E+03  0.17300000000E+03 0.  1.
         -6    1    1    2    0  501  0.13573166728E+03  0.61463903303E+01  0.13165848856E+03  0.25636657588E+03  0.17300000000E+03 0. -1.
<mgrwt>
<rscale>  2 0.21997696E+03</rscale>
<asrwt>0</asrwt>
<pdfrwt beam="2">  1        1 0.24801915E-01 0.21997696E+03</pdfrwt>
<pdfrwt beam="1">  1       -1 0.48674490E-01 0.21997696E+03</pdfrwt>
<totfact> 0.83441984E+02</totfact>
</mgrwt>
</event>
<event>
 4    1  0.8249026E-001  0.1985621E+03  0.7546771E-02  0.1150958E+00
          2   -1    0    0  502    0  0.00000000000E+00  0.00000000000E+00  0.70186099024E+03  0.70186099024E+03  0.00000000000E+00 0. -1.
         -2   -1    0    0    0  501 -0.00000000000E+00 -0.00000000000E+00 -0.57421693257E+02  0.57421693257E+02  0.00000000000E+00 0.  1.
          6    1    1    2  502    0 -0.14792169405E+02  0.96328128889E+02  0.37816270440E+03  0.42712287189E+03  0.17300000000E+03 0. -1.
         -6    1    1    2    0  501  0.14792169405E+02 -0.96328128889E+02  0.26627659258E+03  0.33215981161E+03  0.17300000000E+03 0.  1.
<mgrwt>
<rscale>  2 0.19856212E+03</rscale>
<asrwt>0</asrwt>
<pdfrwt beam="1">  1        2 0.10797861E+00 0.19856212E+03</pdfrwt>
<pdfrwt beam="2">  1       -2 0.88341071E-02 0.19856212E+03</pdfrwt>
<totfact> 0.33422933E+03</totfact>
</mgrwt>
</event>
<event>
 4    1  0.8249026E-001  0.2034593E+03  0.7546771E-02  0.1146853E+00
         -2   -1    0    0    0  501 -0.00000000000E+00  0.00000000000E+00  0.83334779836E+02  0.83334779836E+02  0.00000000000E+00 0.  1.
          2   -1    0    0  502    0  0.00000000000E+00 -0.00000000000E+00 -0.54639567854E+03  0.54639567854E+03  0.00000000000E+00 0. -1.
          6    1    1    2  502    0 -0.34470901086E+02  0.10138265892E+03 -0.32645033683E+03  0.38466285104E+03  0.17300000000E+03 0. -1.
         -6    1    1    2    0  501  0.34470901086E+02 -0.10138265892E+03 -0.13661056187E+03  0.24506760734E+03  0.17300000000E+03 0.  1.
<mgrwt>
<rscale>  2 0.20345930E+03</rscale>
<asrwt>0</asrwt>
<pdfrwt beam="2">  1        2 0.84060877E-01 0.20345930E+03</pdfrwt>
<pdfrwt beam="1">  1       -2 0.12820735E-01 0.20345930E+03</pdfrwt>
<totfact> 0.24727658E+03</totfact>
</mgrwt>
</event>
<event>
 4    1  0.8249026E-001  0.2083520E+03  0.7546771E-02  0.1142878E+00
         -1   -1    0    0    0  501 -0.00000000000E+00  0.00000000000E+00  0.10935620391E+04  0.10935620391E+04  0.00000000000E+00 0. -1.
          1   -1    0    0  502    0  0.00000000000E+00 -0.00000000000E+00 -0.11442413089E+03  0.11442413089E+03  0.00000000000E+00 0.  1.
          6    1    1    2  502    0 -0.11095292903E+03  0.34220104184E+02  0.97767457477E+03  0.99962900225E+03  0.17300000000E+03 0. -1.
         -6    1    1    2    0  501  0.11095292903E+03 -0.34220104184E+02  0.14633334163E+01  0.20835716771E+03  0.17300000000E+03 0.  1.
<mgrwt>
<rscale>  2 0.20835203E+03</rscale>
<asrwt>0</asrwt>
<pdfrwt beam="2">  1        1 0.17603713E-01 0.20835203E+03</pdfrwt>
<pdfrwt beam="1">  1       -1 0.16824031E+00 0.20835203E+03</pdfrwt>
<totfact> 0.84903912E+01</totfact>
</mgrwt>
</event>
<event>
 4    1  0.8249026E-001  0.2254412E+03  0.7546771E-02  0.1129890E+00
          2   -1    0    0  502    0  0.00000000000E+00  0.00000000000E+00  0.23067787600E+03  0.23067787600E+03  0.00000000000E+00 0.  1.
         -2   -1    0    0    0  501 -0.00000000000E+00 -0.00000000000E+00 -0.22929974105E+03  0.22929974105E+03  0.00000000000E+00 0. -1.
          6    1    1    2  502    0  0.72753003874E+02 -0.12490693863E+03 -0.44815360098E+02  0.22985247310E+03  0.17300000000E+03 0. -1.
         -6    1    1    2    0  501 -0.72753003874E+02  0.12490693863E+03  0.46193495050E+02  0.23012514394E+03  0.17300000000E+03 0. -1.
<mgrwt>
<rscale>  2 0.22544122E+03</rscale>
<asrwt>0</asrwt>
<pdfrwt beam="1">  1        2 0.35488904E-01 0.22544122E+03</pdfrwt>
<pdfrwt beam="2">  1       -2 0.35276883E-01 0.22544122E+03</pdfrwt>
<totfact> 0.10995493E+03</totfact>
</mgrwt>
</event>
<event>
 4    1  0.8249026E-001  0.1931210E+03  0.7546771E-02  0.1155676E+00
          2   -1    0    0  502    0  0.00000000000E+00  0.00000000000E+00  0.40748645949E+03  0.40748645949E+03  0.00000000000E+00 0. -1.
         -2   -1    0    0    0  501 -0.00000000000E+00 -0.00000000000E+00 -0.10500689316E+03  0.10500689316E+03  0.00000000000E+00 0.  1.
          6    1    1    2  502    0 -0.20851438513E+02 -0.83258186533E+02  0.24305287678E+03  0.31043583721E+03  0.17300000000E+03 0. -1.
         -6    1    1    2    0  501  0.20851438513E+02  0.83258186533E+02  0.59426689548E+02  0.20205751543E+03  0.17300000000E+03 0.  1.
<mgrwt>
<rscale>  2 0.19312097E+03</rscale>
<asrwt>0</asrwt>
<pdfrwt beam="1">  1        2 0.62690224E-01 0.19312097E+03</pdfrwt>
<pdfrwt beam="2">  1       -2 0.16154907E-01 0.19312097E+03</pdfrwt>
<totfact> 0.23366331E+03</totfact>
</mgrwt>
</event>
<event>
 4    1  0.8249026E-001  0.2055903E+03  0.7546771E-02  0.1145106E+00
         -2   -1    0    0    0  501 -0.00000000000E+00  0.00000000000E+00  0.36274478100E+03  0.36274478100E+03  0.00000000000E+00 0. -1.
          2   -1    0    0  502    0  0.00000000000E+00 -0.00000000000E+00 -0.18872072253E+03  0.18872072253E+03  0.00000000000E+00 0.  1.
          6    1    1    2  502    0 -0.81892579412E+01 -0.11077593412E+03  0.25755995140E+03  0.32955196872E+03  0.17300000000E+03 0. -1.
         -6    1    1    2    0  501  0.81892579412E+01  0.11077593412E+03 -0.83535892925E+02  0.22191353481E+03  0.17300000000E+03 0.  1.
<mgrwt>
<rscale>  2 0.20559030E+03</rscale>
<asrwt>0</asrwt>
<pdfrwt beam="2">  1        2 0.29033957E-01 0.20559030E+03</pdfrwt>
<pdfrwt beam="1">  1       -2 0.55806889E-01 0.20559030E+03</pdfrwt>
<totfact> 0.55919561E+02</totfact>
</mgrwt>
</event>
<event>
 4    1  0.8249026E-001  0.1939005E+03  0.7546771E-02  0.1154990E+00
         -1   -1    0    0    0  501 -0.00000000000E+00  0.00000000000E+00  0.11391922818E+03  0.11391922818E+03  0.00000000000E+00 0.  1.
          1   -1    0    0  502    0  0.00000000000E+00 -0.00000000000E+00 -0.33915549359E+03  0.33915549359E+03  0.00000000000E+00 0. -1.
          6    1    1    2  502    0  0.81703920987E+02  0.31510093107E+02 -0.14976583716E+03  0.24500453598E+03  0.17300000000E+03 0. -1.
         -6    1    1    2    0  501 -0.81703920987E+02 -0.31510093107E+02 -0.75470428252E+02  0.20807018579E+03  0.17300000000E+03 0.  1.
<mgrwt>
<rscale>  2 0.19390053E+03</rscale>
<asrwt>0</asrwt>
<pdfrwt beam="2">  1        1 0.52177767E-01 0.19390053E+03</pdfrwt>
<pdfrwt beam="1">  1       -1 0.17526035E-01 0.19390053E+03</pdfrwt>
<totfact> 0.18563891E+03</totfact>
</mgrwt>
</event>
<event>
 4    1  0.8249026E-001  0.4162992E+03  0.7546771E-02  0.1038278E+00
          2   -1    0    0  502    0  0.00000000000E+00  0.00000000000E+00  0.37698411857E+04  0.37698411857E+04  0.00000000000E+00 0.  1.
         -2   -1    0    0    0  501 -0.00000000000E+00 -0.00000000000E+00 -0.49830274891E+02  0.49830274891E+02  0.00000000000E+00 0. -1.
          6    1    1    2  502    0 -0.28550032908E+03  0.24872797019E+03  0.13285372673E+04  0.13922342877E+04  0.17300000000E+03 0. -1.
         -6    1    1    2    0  501  0.28550032908E+03 -0.24872797019E+03  0.23914736435E+04  0.24274371729E+04  0.17300000000E+03 0.  1.
<mgrwt>
<rscale>  2 0.41629922E+03</rscale>
<asrwt>0</asrwt>
<pdfrwt beam="1">  1        2 0.57997534E+00 0.41629922E+03</pdfrwt>
<pdfrwt beam="2">  1       -2 0.76661991E-02 0.41629922E+03</pdfrwt>
<totfact> 0.63643850E+01</totfact>
</mgrwt>
</event>
<event>
 4    1  0.8249026E-001  0.2056118E+03  0.7546771E-02  0.1145089E+00
          1   -1    0    0  502    0  0.00000000000E+00  0.00000000000E+00  0.21030292590E+03  0.21030292590E+03  0.00000000000E+00 0. -1.
         -1   -1    0    0    0  501 -0.00000000000E+00 -0.00000000000E+00 -0.20405796161E+03  0.20405796161E+03  0.00000000000E+00 0.  1.
          6    1    1    2  502    0  0.97069080097E+02  0.54081389523E+02 -0.22134759921E+02  0.20679978385E+03  0.17300000000E+03 0.  1.
         -6    1    1    2    0  501 -0.97069080097E+02 -0.54081389523E+02  0.28379724214E+02  0.20756110365E+03  0.17300000000E+03 0. -1.
<mgrwt>
<rscale>  2 0.20561178E+03</rscale>
<asrwt>0</asrwt>
<pdfrwt beam="1">  1        1 0.32354296E-01 0.20561178E+03</pdfrwt>
<pdfrwt beam="2">  1       -1 0.31393532E-01 0.20561178E+03</pdfrwt>
<totfact> 0.12933597E+03</totfact>
</mgrwt>
</event>
<event>
 4    1  0.8249026E-001  0.2217177E+03  0.7546771E-02  0.1132609E+00
          1   -1    0    0  502    0  0.00000000000E+00  0.00000000000E+00  0.14182220583E+04  0.14182220583E+04  0.00000000000E+00 0. -1.
         -1   -1    0    0    0  501 -0.00000000000E+00 -0.00000000000E+00 -0.51713288632E+02  0.51713288632E+02  0.00000000000E+00 0.  1.
          6    1    1    2  502    0  0.99122758841E+02 -0.96976424043E+02  0.11052838297E+04  0.11273025735E+04  0.17300000000E+03 0. -1.
         -6    1    1    2    0  501 -0.99122758841E+02  0.96976424043E+02  0.26122494002E+03  0.34263277343E+03  0.17300000000E+03 0.  1.
<mgrwt>
<rscale>  2 0.22171772E+03</rscale>
<asrwt>0</asrwt>
<pdfrwt beam="1">  1        1 0.21818798E+00 0.22171772E+03</pdfrwt>
<pdfrwt beam="2">  1       -1 0.79558916E-02 0.22171772E+03</pdfrwt>
<totfact> 0.70910165E+02</totfact>
</mgrwt>
</event>
<event>
 4    1  0.8249026E-001  0.2061391E+03  0.7546771E-02  0.1144660E+00
         -2   -1    0    0    0  501 -0.00000000000E+00  0.00000000000E+00  0.96046133327E+02  0.96046133327E+02  0.00000000000E+00 0. -1.
          2   -1    0    0  502    0  0.00000000000E+00 -0.00000000000E+00 -0.44530234438E+03  0.44530234438E+03  0.00000000000E+00 0.  1.
          6    1    1    2  502    0  0.10043927349E+03  0.49762118835E+02 -0.19638176720E+03  0.28470882427E+03  0.17300000000E+03 0.  1.
         -6    1    1    2    0  501 -0.10043927349E+03 -0.49762118835E+02 -0.15287444385E+03  0.25663965343E+03  0.17300000000E+03 0. -1.
<mgrwt>
<rscale>  2 0.20613907E+03</rscale>
<asrwt>0</asrwt>
<pdfrwt beam="2">  1        2 0.68508053E-01 0.20613907E+03</pdfrwt>
<pdfrwt beam="1">  1       -2 0.14776328E-01 0.20613907E+03</pdfrwt>
<totfact> 0.24629453E+03</totfact>
</mgrwt>
</event>
<event>
 4    1  0.8249026E-001  0.1955449E+03  0.7546771E-02  0.1153553E+00
          3   -1    0    0  502    0  0.00000000000E+00  0.00000000000E+00  0.38981359854E+03  0.38981359854E+03  0.00000000000E+00 0.  1.
         -3   -1    0    0    0  501 -0.00000000000E+00 -0.00000000000E+00 -0.14282541287E+03  0.14282541287E+03  0.00000000000E+00 0. -1.
          6    1    1    2  502    0  0.61048777849E+02 -0.67689296694E+02 -0.25549659144E+02  0.19720694523E+03  0.17300000000E+03 0. -1.
         -6    1    1    2    0  501 -0.61048777849E+02  0.67689296694E+02  0.27253784482E+03  0.33543206618E+03  0.17300000000E+03 0.  1.
<mgrwt>
<rscale>  2 0.19554486E+03</rscale>
<asrwt>0</asrwt>
<pdfrwt beam="1">  1        3 0.59971322E-01 0.19554486E+03</pdfrwt>
<pdfrwt beam="2">  1       -3 0.21973141E-01 0.19554486E+03</pdfrwt>
<totfact> 0.12748909E+02</totfact>
</mgrwt>
</event>
<event>
 4    1  0.8249026E-001  0.1857545E+03  0.7546771E-02  0.1162347E+00
         -1   -1    0    0    0  501 -0.00000000000E+00  0.00000000000E+00  0.40837746963E+02  0.40837746963E+02  0.00000000000E+00 0. -1.
          1   -1    0    0  502    0  0.00000000000E+00 -0.00000000000E+00 -0.86236154468E+03  0.86236154468E+03  0.00000000000E+00 0.  1.
          6    1    1    2  502    0  0.19132993517E+01  0.67617125403E+02 -0.47498166070E+03  0.51001207276E+03  0.17300000000E+03 0. -1.
         -6    1    1    2    0  501 -0.19132993517E+01 -0.67617125403E+02 -0.34654213702E+03  0.39318721888E+03  0.17300000000E+03 0.  1.
<mgrwt>
<rscale>  2 0.18575451E+03</rscale>
<asrwt>0</asrwt>
<pdfrwt beam="2">  1        1 0.13267101E+00 0.18575451E+03</pdfrwt>
<pdfrwt beam="1">  1       -1 0.62827304E-02 0.18575451E+03</pdfrwt>
<totfact> 0.25301694E+03</totfact>
</mgrwt>
</event>
<event>
 4    1  0.8249026E-001  0.3407918E+03  0.7546771E-02  0.1066459E+00
          2   -1    0    0  502    0  0.00000000000E+00  0.00000000000E+00  0.10678926557E+04  0.10678926557E+04  0.00000000000E+00 0. -1.
         -2   -1    0    0    0  501 -0.00000000000E+00 -0.00000000000E+00 -0.14985956536E+03  0.14985956536E+03  0.00000000000E+00 0.  1.
          6    1    1    2  502    0 -0.16670347104E+03 -0.24170226003E+03  0.77789848985E+03  0.84927327184E+03  0.17300000000E+03 0. -1.
         -6    1    1    2    0  501  0.16670347104E+03  0.24170226003E+03  0.14013460048E+03  0.36847894921E+03  0.17300000000E+03 0.  1.
<mgrwt>
<rscale>  2 0.34079177E+03</rscale>
<asrwt>0</asrwt>
<pdfrwt beam="1">  1        2 0.16429117E+00 0.34079177E+03</pdfrwt>
<pdfrwt beam="2">  1       -2 0.23055318E-01 0.34079177E+03</pdfrwt>
<totfact> 0.39139325E+02</totfact>
</mgrwt>
</event>
<event>
 4    1  0.8249026E-001  0.2323723E+03  0.7546771E-02  0.1124981E+00
         -3   -1    0    0    0  501 -0.00000000000E+00  0.00000000000E+00  0.60736010116E+02  0.60736010116E+02  0.00000000000E+00 0. -1.
          3   -1    0    0  502    0  0.00000000000E+00 -0.00000000000E+00 -0.89753930811E+03  0.89753930811E+03  0.00000000000E+00 0.  1.
          6    1    1    2  502    0  0.15463313079E+03  0.12508940664E+02 -0.37178210611E+03  0.43842766012E+03  0.17300000000E+03 0. -1.
         -6    1    1    2    0  501 -0.15463313079E+03 -0.12508940664E+02 -0.46502119188E+03  0.51984765810E+03  0.17300000000E+03 0.  1.
<mgrwt>
<rscale>  2 0.23237228E+03</rscale>
<asrwt>0</asrwt>
<pdfrwt beam="2">  1        3 0.13808297E+00 0.23237228E+03</pdfrwt>
<pdfrwt beam="1">  1       -3 0.93440019E-02 0.23237228E+03</pdfrwt>
<totfact> 0.86261769E+01</totfact>
</mgrwt>
</event>
<event>
 4    1  0.8249026E-001  0.1862213E+03  0.7546771E-02  0.1161914E+00
          2   -1    0    0  502    0  0.00000000000E+00  0.00000000000E+00  0.36447866049E+04  0.36447866049E+04  0.00000000000E+00 0. -1.
         -2   -1    0    0    0  501 -0.00000000000E+00 -0.00000000000E+00 -0.15916484983E+02  0.15916484983E+02  0.00000000000E+00 0.  1.
          6    1    1    2  502    0  0.41696439812E+02  0.54870492295E+02  0.65360708901E+03  0.67961797418E+03  0.17300000000E+03 0.  1.
         -6    1    1    2    0  501 -0.41696439812E+02 -0.54870492295E+02  0.29752630309E+04  0.29810851157E+04  0.17300000000E+03 0. -1.
<mgrwt>
<rscale>  2 0.18622128E+03</rscale>
<asrwt>0</asrwt>
<pdfrwt beam="1">  1        2 0.56073574E+00 0.18622128E+03</pdfrwt>
<pdfrwt beam="2">  1       -2 0.24486929E-02 0.18622128E+03</pdfrwt>
<totfact> 0.47740963E+02</totfact>
</mgrwt>
</event>
<event>
 4    1  0.8249026E-001  0.2067919E+03  0.7546771E-02  0.1144132E+00
         -2   -1    0    0    0  501 -0.00000000000E+00  0.00000000000E+00  0.14744822913E+02  0.14744822913E+02  0.00000000000E+00 0. -1.
          2   -1    0    0  502    0  0.00000000000E+00 -0.00000000000E+00 -0.31139776609E+04  0.31139776609E+04  0.00000000000E+00 0.  1.
          6    1    1    2  502    0  0.74016782961E+02  0.85763638808E+02 -0.19595031622E+04  0.19703846143E+04  0.17300000000E+03 0.  1.
         -6    1    1    2    0  501 -0.74016782961E+02 -0.85763638808E+02 -0.11397296758E+04  0.11583378695E+04  0.17300000000E+03 0. -1.
<mgrwt>
<rscale>  2 0.20679189E+03</rscale>
<asrwt>0</asrwt>
<pdfrwt beam="2">  1        2 0.47907357E+00 0.20679189E+03</pdfrwt>
<pdfrwt beam="1">  1       -2 0.22684339E-02 0.20679189E+03</pdfrwt>
<totfact> 0.11572469E+03</totfact>
</mgrwt>
</event>
<event>
 4    1  0.8249026E-001  0.3245199E+03  0.7546771E-02  0.1073588E+00
          1   -1    0    0  502    0  0.00000000000E+00  0.00000000000E+00  0.16309130840E+04  0.16309130840E+04  0.00000000000E+00 0.  1.
         -1   -1    0    0    0  501 -0.00000000000E+00 -0.00000000000E+00 -0.14325735404E+03  0.14325735404E+03  0.00000000000E+00 0. -1.
          6    1    1    2  502    0 -0.13258119546E+03 -0.24042956463E+03  0.86396020563E+02  0.33582349725E+03  0.17300000000E+03 0. -1.
         -6    1    1    2    0  501  0.13258119546E+03  0.24042956463E+03  0.14012597094E+04  0.14383469408E+04  0.17300000000E+03 0.  1.
<mgrwt>
<rscale>  2 0.32451987E+03</rscale>
<asrwt>0</asrwt>
<pdfrwt beam="1">  1        1 0.25090969E+00 0.32451987E+03</pdfrwt>
<pdfrwt beam="2">  1       -1 0.22039594E-01 0.32451987E+03</pdfrwt>
<totfact> 0.10036976E+02</totfact>
</mgrwt>
</event>
<event>
 4    1  0.8249026E-001  0.4208329E+03  0.7546771E-02  0.1036796E+00
          2   -1    0    0  502    0  0.00000000000E+00  0.00000000000E+00  0.15882472474E+04  0.15882472474E+04  0.00000000000E+00 0.  1.
         -2   -1    0    0    0  501 -0.00000000000E+00 -0.00000000000E+00 -0.11845911047E+03  0.11845911047E+03  0.00000000000E+00 0. -1.
          6    1    1    2  502    0 -0.10430269647E+03  0.36917780849E+03  0.52816080354E+03  0.67531780754E+03  0.17300000000E+03 0. -1.
         -6    1    1    2    0  501  0.10430269647E+03 -0.36917780849E+03  0.94162733337E+03  0.10313885503E+04  0.17300000000E+03 0.  1.
<mgrwt>
<rscale>  2 0.42083287E+03</rscale>
<asrwt>0</asrwt>
<pdfrwt beam="1">  1        2 0.24434571E+00 0.42083287E+03</pdfrwt>
<pdfrwt beam="2">  1       -2 0.18224480E-01 0.42083287E+03</pdfrwt>
<totfact> 0.29709169E+02</totfact>
</mgrwt>
</event>
<event>
 4    1  0.8249026E-001  0.2258325E+03  0.7546771E-02  0.1129608E+00
          1   -1    0    0  502    0  0.00000000000E+00  0.00000000000E+00  0.10490752193E+04  0.10490752193E+04  0.00000000000E+00 0.  1.
         -1   -1    0    0    0  501 -0.00000000000E+00 -0.00000000000E+00 -0.49332584998E+02  0.49332584998E+02  0.00000000000E+00 0. -1.
          6    1    1    2  502    0  0.12538635060E+02 -0.14461705343E+03  0.43361269169E+03  0.48889699929E+03  0.17300000000E+03 0. -1.
         -6    1    1    2    0  501 -0.12538635060E+02  0.14461705343E+03  0.56612994263E+03  0.60951080504E+03  0.17300000000E+03 0.  1.
<mgrwt>
<rscale>  2 0.22583248E+03</rscale>
<asrwt>0</asrwt>
<pdfrwt beam="1">  1        1 0.16139617E+00 0.22583248E+03</pdfrwt>
<pdfrwt beam="2">  1       -1 0.75896293E-02 0.22583248E+03</pdfrwt>
<totfact> 0.13734364E+03</totfact>
</mgrwt>
</event>
<event>
 4    1  0.8249026E-001  0.1860203E+03  0.7546771E-02  0.1162100E+00
          2   -1    0    0  502    0  0.00000000000E+00  0.00000000000E+00  0.83194184057E+02  0.83194184057E+02  0.00000000000E+00 0.  1.
         -2   -1    0    0    0  501 -0.00000000000E+00 -0.00000000000E+00 -0.42096379207E+03  0.42096379207E+03  0.00000000000E+00 0. -1.
          6    1    1    2  502    0  0.10865075888E+02 -0.67501943292E+02 -0.14133948217E+03  0.23362450950E+03  0.17300000000E+03 0. -1.
         -6    1    1    2    0  501 -0.10865075888E+02  0.67501943292E+02 -0.19643012585E+03  0.27053346662E+03  0.17300000000E+03 0.  1.
<mgrwt>
<rscale>  2 0.18602033E+03</rscale>
<asrwt>0</asrwt>
<pdfrwt beam="1">  1        2 0.12799105E-01 0.18602033E+03</pdfrwt>
<pdfrwt beam="2">  1       -2 0.64763661E-01 0.18602033E+03</pdfrwt>
<totfact> 0.10512163E+03</totfact>
</mgrwt>
</event>
<event>
 4    1  0.8249026E-001  0.1979479E+03  0.7546771E-02  0.1151482E+00
          2   -1    0    0  502    0  0.00000000000E+00  0.00000000000E+00  0.10527447892E+04  0.10527447892E+04  0.00000000000E+00 0.  1.
         -2   -1    0    0    0  501 -0.00000000000E+00 -0.00000000000E+00 -0.38009184421E+02  0.38009184421E+02  0.00000000000E+00 0. -1.
          6    1    1    2  502    0 -0.87433579429E+02  0.40121376718E+02  0.58594398178E+03  0.61847692396E+03  0.17300000000E+03 0. -1.
         -6    1    1    2    0  501  0.87433579429E+02 -0.40121376718E+02  0.42879162295E+03  0.47227704962E+03  0.17300000000E+03 0.  1.
<mgrwt>
<rscale>  2 0.19794786E+03</rscale>
<asrwt>0</asrwt>
<pdfrwt beam="1">  1        2 0.16196072E+00 0.19794786E+03</pdfrwt>
<pdfrwt beam="2">  1       -2 0.58475676E-02 0.19794786E+03</pdfrwt>
<totfact> 0.37243257E+03</totfact>
</mgrwt>
</event>
<event>
 4    1  0.8249026E-001  0.2330543E+03  0.7546771E-02  0.1124508E+00
          2   -1    0    0  502    0  0.00000000000E+00  0.00000000000E+00  0.13981169760E+04  0.13981169760E+04  0.00000000000E+00 0.  1.
         -2   -1    0    0    0  501 -0.00000000000E+00 -0.00000000000E+00 -0.47874267871E+02  0.47874267871E+02  0.00000000000E+00 0. -1.
          6    1    1    2  502    0  0.51800126914E+02  0.14731615911E+03  0.36119028029E+03  0.42985197738E+03  0.17300000000E+03 0. -1.
         -6    1    1    2    0  501 -0.51800126914E+02 -0.14731615911E+03  0.98905242780E+03  0.10161392665E+04  0.17300000000E+03 0. -1.
<mgrwt>
<rscale>  2 0.23305429E+03</rscale>
<asrwt>0</asrwt>
<pdfrwt beam="1">  1        2 0.21509489E+00 0.23305429E+03</pdfrwt>
<pdfrwt beam="2">  1       -2 0.73652731E-02 0.23305429E+03</pdfrwt>
<totfact> 0.16702484E+03</totfact>
</mgrwt>
</event>
<event>
 4    1  0.8249026E-001  0.2035165E+03  0.7546771E-02  0.1146806E+00
         -1   -1    0    0    0  501 -0.00000000000E+00  0.00000000000E+00  0.17052463863E+04  0.17052463863E+04  0.00000000000E+00 0.  1.
          1   -1    0    0  502    0  0.00000000000E+00 -0.00000000000E+00 -0.46932838251E+02  0.46932838251E+02  0.00000000000E+00 0. -1.
          6    1    1    2  502    0 -0.10711082914E+03 -0.41505496121E+01  0.14376893968E+04  0.14520226440E+04  0.17300000000E+03 0.  1.
         -6    1    1    2    0  501  0.10711082914E+03  0.41505496121E+01  0.22062415123E+03  0.30015658062E+03  0.17300000000E+03 0. -1.
<mgrwt>
<rscale>  2 0.20351648E+03</rscale>
<asrwt>0</asrwt>
<pdfrwt beam="2">  1        1 0.72204380E-02 0.20351648E+03</pdfrwt>
<pdfrwt beam="1">  1       -1 0.26234555E+00 0.20351648E+03</pdfrwt>
<totfact> 0.67307818E+01</totfact>
</mgrwt>
</event>
<event>
 4    1  0.8249026E-001  0.1741706E+03  0.7546771E-02  0.1173567E+00
          4   -1    0    0  502    0  0.00000000000E+00  0.00000000000E+00  0.90424731841E+03  0.90424731841E+03  0.00000000000E+00 0.  1.
         -4   -1    0    0    0  501 -0.00000000000E+00 -0.00000000000E+00 -0.35071610826E+02  0.35071610826E+02  0.00000000000E+00 0. -1.
          6    1    1    2  502    0 -0.10049303076E+02  0.17476224927E+02  0.33668694879E+03  0.37906926599E+03  0.17300000000E+03 0. -1.
         -6    1    1    2    0  501  0.10049303076E+02 -0.17476224927E+02  0.53248875879E+03  0.56024966325E+03  0.17300000000E+03 0.  1.
<mgrwt>
<rscale>  2 0.17417063E+03</rscale>
<asrwt>0</asrwt>
<pdfrwt beam="1">  1        4 0.13911495E+00 0.17417063E+03</pdfrwt>
<pdfrwt beam="2">  1       -4 0.53956331E-02 0.17417063E+03</pdfrwt>
<totfact> 0.14176808E+02</totfact>
</mgrwt>
</event>
<event>
 4    1  0.8249026E-001  0.2030921E+03  0.7546771E-02  0.1147156E+00
         -1   -1    0    0    0  501 -0.00000000000E+00  0.00000000000E+00  0.25659690420E+02  0.25659690420E+02  0.00000000000E+00 0. -1.
          1   -1    0    0  502    0  0.00000000000E+00 -0.00000000000E+00 -0.19549319743E+04  0.19549319743E+04  0.00000000000E+00 0.  1.
          6    1    1    2  502    0  0.20258114043E+02 -0.10443669910E+03 -0.13821505372E+04  0.13969919552E+04  0.17300000000E+03 0. -1.
         -6    1    1    2    0  501 -0.20258114043E+02  0.10443669910E+03 -0.54712174665E+03  0.58359970952E+03  0.17300000000E+03 0. -1.
<mgrwt>
<rscale>  2 0.20309214E+03</rscale>
<asrwt>0</asrwt>
<pdfrwt beam="2">  1        1 0.30075877E+00 0.20309214E+03</pdfrwt>
<pdfrwt beam="1">  1       -1 0.39476446E-02 0.20309214E+03</pdfrwt>
<totfact> 0.91147829E+02</totfact>
</mgrwt>
</event>
<event>
 4    1  0.8249026E-001  0.3391660E+03  0.7546771E-02  0.1067152E+00
         -1   -1    0    0    0  501 -0.00000000000E+00  0.00000000000E+00  0.77719501153E+03  0.77719501153E+03  0.00000000000E+00 0.  1.
          1   -1    0    0  502    0  0.00000000000E+00 -0.00000000000E+00 -0.38821221371E+03  0.38821221371E+03  0.00000000000E+00 0. -1.
          6    1    1    2  502    0 -0.28388720415E+03  0.67175906256E+02 -0.26386210274E+03  0.42971706543E+03  0.17300000000E+03 0. -1.
         -6    1    1    2    0  501  0.28388720415E+03 -0.67175906256E+02  0.65284490055E+03  0.73569015981E+03  0.17300000000E+03 0.  1.
<mgrwt>
<rscale>  2 0.33916596E+03</rscale>
<asrwt>0</asrwt>
<pdfrwt beam="2">  1        1 0.59724956E-01 0.33916596E+03</pdfrwt>
<pdfrwt beam="1">  1       -1 0.11956846E+00 0.33916596E+03</pdfrwt>
<totfact> 0.41948523E+01</totfact>
</mgrwt>
</event>
<event>
 4    1  0.8249026E-001  0.1773502E+03  0.7546771E-02  0.1170392E+00
          2   -1    0    0  502    0  0.00000000000E+00  0.00000000000E+00  0.85767913902E+03  0.85767913902E+03  0.00000000000E+00 0. -1.
         -2   -1    0    0    0  501 -0.00000000000E+00 -0.00000000000E+00 -0.43737740803E+02  0.43737740803E+02  0.00000000000E+00 0.  1.
          6    1    1    2  502    0  0.35862106724E+02  0.15426856670E+02  0.58812002467E+03  0.61427863549E+03  0.17300000000E+03 0. -1.
         -6    1    1    2    0  501 -0.35862106724E+02 -0.15426856670E+02  0.22582137354E+03  0.28713824433E+03  0.17300000000E+03 0.  1.
<mgrwt>
<rscale>  2 0.17735016E+03</rscale>
<asrwt>0</asrwt>
<pdfrwt beam="1">  1        2 0.13195062E+00 0.17735016E+03</pdfrwt>
<pdfrwt beam="2">  1       -2 0.67288838E-02 0.17735016E+03</pdfrwt>
<totfact> 0.39583180E+03</totfact>
</mgrwt>
</event>
<event>
 4    1  0.8249026E-001  0.2622973E+03  0.7546771E-02  0.1105771E+00
         -2   -1    0    0    0  501 -0.00000000000E+00  0.00000000000E+00  0.51472024681E+02  0.51472024681E+02  0.00000000000E+00 0.  1.
          2   -1    0    0  502    0  0.00000000000E+00 -0.00000000000E+00 -0.13608524892E+04  0.13608524892E+04  0.00000000000E+00 0. -1.
          6    1    1    2  502    0 -0.20478049881E+02  0.19609059084E+03 -0.56050867927E+03  0.61884557838E+03  0.17300000000E+03 0.  1.
         -6    1    1    2    0  501  0.20478049881E+02 -0.19609059084E+03 -0.74887178523E+03  0.79347893548E+03  0.17300000000E+03 0. -1.
<mgrwt>
<rscale>  2 0.26229729E+03</rscale>
<asrwt>0</asrwt>
<pdfrwt beam="2">  1        2 0.20936191E+00 0.26229729E+03</pdfrwt>
<pdfrwt beam="1">  1       -2 0.79187734E-02 0.26229729E+03</pdfrwt>
<totfact> 0.15614638E+03</totfact>
</mgrwt>
</event>
<event>
 4    1  0.8249026E-001  0.1862524E+03  0.7546771E-02  0.1161886E+00
          1   -1    0    0  502    0  0.00000000000E+00  0.00000000000E+00  0.19282632377E+03  0.19282632377E+03  0.00000000000E+00 0.  1.
         -1   -1    0    0    0  501 -0.00000000000E+00 -0.00000000000E+00 -0.20143169640E+03  0.20143169640E+03  0.00000000000E+00 0. -1.
          6    1    1    2  502    0 -0.21262436896E+02  0.65641876560E+02 -0.68749292284E+02  0.19853567027E+03  0.17300000000E+03 0.  1.
         -6    1    1    2    0  501  0.21262436896E+02 -0.65641876560E+02  0.60143919651E+02  0.19572234990E+03  0.17300000000E+03 0.  1.
<mgrwt>
<rscale>  2 0.18625237E+03</rscale>
<asrwt>0</asrwt>
<pdfrwt beam="1">  1        1 0.29665588E-01 0.18625237E+03</pdfrwt>
<pdfrwt beam="2">  1       -1 0.30989492E-01 0.18625237E+03</pdfrwt>
<totfact> 0.14713120E+03</totfact>
</mgrwt>
</event>
<event>
 4    1  0.8249026E-001  0.2267559E+03  0.7546771E-02  0.1128944E+00
         -1   -1    0    0    0  501 -0.00000000000E+00  0.00000000000E+00  0.26923037232E+03  0.26923037232E+03  0.00000000000E+00 0. -1.
          1   -1    0    0  502    0  0.00000000000E+00 -0.00000000000E+00 -0.20682580664E+03  0.20682580664E+03  0.00000000000E+00 0.  1.
          6    1    1    2  502    0 -0.13342756233E+03  0.60715047251E+02  0.97081999953E+02  0.24666403480E+03  0.17300000000E+03 0. -1.
         -6    1    1    2    0  501  0.13342756233E+03 -0.60715047251E+02 -0.34677434271E+02  0.22939214415E+03  0.17300000000E+03 0.  1.
<mgrwt>
<rscale>  2 0.22675588E+03</rscale>
<asrwt>0</asrwt>
<pdfrwt beam="2">  1        1 0.31819355E-01 0.22675588E+03</pdfrwt>
<pdfrwt beam="1">  1       -1 0.41420057E-01 0.22675588E+03</pdfrwt>
<totfact> 0.81553941E+02</totfact>
</mgrwt>
</event>
<event>
 4    1  0.8249026E-001  0.1846529E+03  0.7546771E-02  0.1163374E+00
         -1   -1    0    0    0  501 -0.00000000000E+00  0.00000000000E+00  0.26050688004E+03  0.26050688004E+03  0.00000000000E+00 0.  1.
          1   -1    0    0  502    0  0.00000000000E+00 -0.00000000000E+00 -0.19057002498E+03  0.19057002498E+03  0.00000000000E+00 0. -1.
          6    1    1    2  502    0  0.80276930651E+01 -0.64056655732E+02 -0.91249898320E+02  0.20596903394E+03  0.17300000000E+03 0. -1.
         -6    1    1    2    0  501 -0.80276930651E+01  0.64056655732E+02  0.16118675337E+03  0.24510787108E+03  0.17300000000E+03 0.  1.
<mgrwt>
<rscale>  2 0.18465291E+03</rscale>
<asrwt>0</asrwt>
<pdfrwt beam="2">  1        1 0.29318465E-01 0.18465291E+03</pdfrwt>
<pdfrwt beam="1">  1       -1 0.40077982E-01 0.18465291E+03</pdfrwt>
<totfact> 0.95638899E+02</totfact>
</mgrwt>
</event>
<event>
 4    1  0.8249026E-001  0.1846657E+03  0.7546771E-02  0.1163362E+00
         -2   -1    0    0    0  501 -0.00000000000E+00  0.00000000000E+00  0.26663344531E+02  0.26663344531E+02  0.00000000000E+00 0.  1.
          2   -1    0    0  502    0  0.00000000000E+00 -0.00000000000E+00 -0.12991933087E+04  0.12991933087E+04  0.00000000000E+00 0. -1.
          6    1    1    2  502    0  0.56000228031E+02 -0.32192899555E+02 -0.71899061865E+03  0.74232669225E+03  0.17300000000E+03 0.  1.
         -6    1    1    2    0  501 -0.56000228031E+02  0.32192899555E+02 -0.55353934548E+03  0.58352996094E+03  0.17300000000E+03 0.  1.
<mgrwt>
<rscale>  2 0.18466567E+03</rscale>
<asrwt>0</asrwt>
<pdfrwt beam="2">  1        2 0.19987584E+00 0.18466567E+03</pdfrwt>
<pdfrwt beam="1">  1       -2 0.41020540E-02 0.18466567E+03</pdfrwt>
<totfact> 0.46081204E+03</totfact>
</mgrwt>
</event>
<event>
 4    1  0.8249026E-001  0.1863313E+03  0.7546771E-02  0.1161813E+00
          2   -1    0    0  502    0  0.00000000000E+00  0.00000000000E+00  0.57559419337E+03  0.57559419337E+03  0.00000000000E+00 0.  1.
         -2   -1    0    0    0  501 -0.00000000000E+00 -0.00000000000E+00 -0.71699780737E+02  0.71699780737E+02  0.00000000000E+00 0. -1.
          6    1    1    2  502    0  0.44533141498E+02 -0.52982414569E+02  0.12300463219E+03  0.22326996324E+03  0.17300000000E+03 0. -1.
         -6    1    1    2    0  501 -0.44533141498E+02  0.52982414569E+02  0.38088978045E+03  0.42402401087E+03  0.17300000000E+03 0.  1.
<mgrwt>
<rscale>  2 0.18633126E+03</rscale>
<asrwt>0</asrwt>
<pdfrwt beam="1">  1        2 0.88552950E-01 0.18633126E+03</pdfrwt>
<pdfrwt beam="2">  1       -2 0.11030736E-01 0.18633126E+03</pdfrwt>
<totfact> 0.29613248E+03</totfact>
</mgrwt>
</event>
<event>
 4    1  0.8249026E-001  0.5321990E+03  0.7546771E-02  0.1005700E+00
          2   -1    0    0  502    0  0.00000000000E+00  0.00000000000E+00  0.55622994600E+03  0.55622994600E+03  0.00000000000E+00 0. -1.
         -2   -1    0    0    0  501 -0.00000000000E+00 -0.00000000000E+00 -0.55057030884E+03  0.55057030884E+03  0.00000000000E+00 0.  1.
          6    1    1    2  502    0  0.15472824136E+03 -0.47892168395E+03 -0.14885566770E+03  0.55262448176E+03  0.17300000000E+03 0.  1.
         -6    1    1    2    0  501 -0.15472824136E+03  0.47892168395E+03  0.15451530486E+03  0.55417577308E+03  0.17300000000E+03 0. -1.
<mgrwt>
<rscale>  2 0.53219903E+03</rscale>
<asrwt>0</asrwt>
<pdfrwt beam="1">  1        2 0.85573838E-01 0.53219903E+03</pdfrwt>
<pdfrwt beam="2">  1       -2 0.84703125E-01 0.53219903E+03</pdfrwt>
<totfact> 0.67839173E+01</totfact>
</mgrwt>
</event>
<event>
 4    1  0.8249026E-001  0.1927374E+03  0.7546771E-02  0.1156015E+00
          3   -1    0    0  502    0  0.00000000000E+00  0.00000000000E+00  0.20779226987E+03  0.20779226987E+03  0.00000000000E+00 0.  1.
         -3   -1    0    0    0  501 -0.00000000000E+00 -0.00000000000E+00 -0.27991954479E+03  0.27991954479E+03  0.00000000000E+00 0. -1.
          6    1    1    2  502    0  0.84526452449E+02  0.86018124898E+01  0.11052203531E+03  0.22217748003E+03  0.17300000000E+03 0.  1.
         -6    1    1    2    0  501 -0.84526452449E+02 -0.86018124898E+01 -0.18264931023E+03  0.26553433464E+03  0.17300000000E+03 0. -1.
<mgrwt>
<rscale>  2 0.19273742E+03</rscale>
<asrwt>0</asrwt>
<pdfrwt beam="1">  1        3 0.31968041E-01 0.19273742E+03</pdfrwt>
<pdfrwt beam="2">  1       -3 0.43064545E-01 0.19273742E+03</pdfrwt>
<totfact> 0.12474131E+02</totfact>
</mgrwt>
</event>
<event>
 4    1  0.8249026E-001  0.3062504E+03  0.7546771E-02  0.1082157E+00
          2   -1    0    0  502    0  0.00000000000E+00  0.00000000000E+00  0.14244285003E+04  0.14244285003E+04  0.00000000000E+00 0.  1.
         -2   -1    0    0    0  501 -0.00000000000E+00 -0.00000000000E+00 -0.81448132940E+02  0.81448132940E+02  0.00000000000E+00 0. -1.
          6    1    1    2  502    0 -0.16831465064E+03 -0.18849527287E+03  0.10010591269E+04  0.10468565638E+04  0.17300000000E+03 0.  1.
         -6    1    1    2    0  501  0.16831465064E+03  0.18849527287E+03  0.34192124043E+03  0.45902006946E+03  0.17300000000E+03 0. -1.
<mgrwt>
<rscale>  2 0.30625037E+03</rscale>
<asrwt>0</asrwt>
<pdfrwt beam="1">  1        2 0.21914283E+00 0.30625037E+03</pdfrwt>
<pdfrwt beam="2">  1       -2 0.12530483E-01 0.30625037E+03</pdfrwt>
<totfact> 0.69027615E+02</totfact>
</mgrwt>
</event>
<event>
 4    1  0.8249026E-001  0.1936338E+03  0.7546771E-02  0.1155224E+00
         -2   -1    0    0    0  501 -0.00000000000E+00  0.00000000000E+00  0.10391646569E+03  0.10391646569E+03  0.00000000000E+00 0.  1.
          2   -1    0    0  502    0  0.00000000000E+00 -0.00000000000E+00 -0.36391388124E+03  0.36391388124E+03  0.00000000000E+00 0. -1.
          6    1    1    2  502    0 -0.47948731926E+02 -0.72566889690E+02 -0.10839363168E+03  0.22190812009E+03  0.17300000000E+03 0.  1.
         -6    1    1    2    0  501  0.47948731926E+02  0.72566889690E+02 -0.15160378387E+03  0.24592222684E+03  0.17300000000E+03 0. -1.
<mgrwt>
<rscale>  2 0.19363376E+03</rscale>
<asrwt>0</asrwt>
<pdfrwt beam="2">  1        2 0.55986750E-01 0.19363376E+03</pdfrwt>
<pdfrwt beam="1">  1       -2 0.15987149E-01 0.19363376E+03</pdfrwt>
<totfact> 0.26863579E+03</totfact>
</mgrwt>
</event>
<event>
 4    1  0.8249026E-001  0.1842835E+03  0.7546771E-02  0.1163721E+00
         -2   -1    0    0    0  501 -0.00000000000E+00  0.00000000000E+00  0.60824130763E+02  0.60824130763E+02  0.00000000000E+00 0.  1.
          2   -1    0    0  502    0  0.00000000000E+00 -0.00000000000E+00 -0.59737588188E+03  0.59737588188E+03  0.00000000000E+00 0. -1.
          6    1    1    2  502    0  0.52660147648E+02  0.35472559814E+02 -0.35240568457E+03  0.39768097788E+03  0.17300000000E+03 0. -1.
         -6    1    1    2    0  501 -0.52660147648E+02 -0.35472559814E+02 -0.18414606655E+03  0.26051903477E+03  0.17300000000E+03 0.  1.
<mgrwt>
<rscale>  2 0.18428346E+03</rscale>
<asrwt>0</asrwt>
<pdfrwt beam="2">  1        2 0.91903977E-01 0.18428346E+03</pdfrwt>
<pdfrwt beam="1">  1       -2 0.93575590E-02 0.18428346E+03</pdfrwt>
<totfact> 0.36820387E+03</totfact>
</mgrwt>
</event>
<event>
 4    1  0.8249026E-001  0.3129762E+03  0.7546771E-02  0.1078928E+00
         -2   -1    0    0    0  501 -0.00000000000E+00  0.00000000000E+00  0.14105237851E+03  0.14105237851E+03  0.00000000000E+00 0.  1.
          2   -1    0    0  502    0  0.00000000000E+00 -0.00000000000E+00 -0.89264515213E+03  0.89264515213E+03  0.00000000000E+00 0. -1.
          6    1    1    2  502    0 -0.26779808024E+02 -0.25943776652E+03 -0.61933528119E+03  0.69392384549E+03  0.17300000000E+03 0. -1.
         -6    1    1    2    0  501  0.26779808024E+02  0.25943776652E+03 -0.13225749244E+03  0.33977368515E+03  0.17300000000E+03 0.  1.
<mgrwt>
<rscale>  2 0.31297622E+03</rscale>
<asrwt>0</asrwt>
<pdfrwt beam="2">  1        2 0.13733002E+00 0.31297622E+03</pdfrwt>
<pdfrwt beam="1">  1       -2 0.21700366E-01 0.31297622E+03</pdfrwt>
<totfact> 0.56154035E+02</totfact>
</mgrwt>
</event>
<event>
 4    1  0.8249026E-001  0.1845942E+03  0.7546771E-02  0.1163429E+00
         -2   -1    0    0    0  501 -0.00000000000E+00  0.00000000000E+00  0.21985614344E+03  0.21985614344E+03  0.00000000000E+00 0. -1.
          2   -1    0    0  502    0  0.00000000000E+00 -0.00000000000E+00 -0.23950464686E+03  0.23950464686E+03  0.00000000000E+00 0.  1.
          6    1    1    2  502    0  0.10723105098E+02  0.63490476499E+02  0.12661474973E+03  0.22384441123E+03  0.17300000000E+03 0. -1.
         -6    1    1    2    0  501 -0.10723105098E+02 -0.63490476499E+02 -0.14626325315E+03  0.23551637907E+03  0.17300000000E+03 0.  1.
<mgrwt>
<rscale>  2 0.18459422E+03</rscale>
<asrwt>0</asrwt>
<pdfrwt beam="2">  1        2 0.36846869E-01 0.18459422E+03</pdfrwt>
<pdfrwt beam="1">  1       -2 0.33824022E-01 0.18459422E+03</pdfrwt>
<totfact> 0.11369944E+03</totfact>
</mgrwt>
</event>
<event>
 4    1  0.8249026E-001  0.5290484E+03  0.7546771E-02  0.1006463E+00
         -1   -1    0    0    0  501 -0.00000000000E+00  0.00000000000E+00  0.40301619236E+03  0.40301619236E+03  0.00000000000E+00 0.  1.
          1   -1    0    0  502    0  0.00000000000E+00 -0.00000000000E+00 -0.69929675816E+03  0.69929675816E+03  0.00000000000E+00 0. -1.
          6    1    1    2  502    0  0.26565171696E+03 -0.42354736099E+03 -0.10246264629E+03  0.53887920317E+03  0.17300000000E+03 0.  1.
         -6    1    1    2    0  501 -0.26565171696E+03  0.42354736099E+03 -0.19381791951E+03  0.56343374735E+03  0.17300000000E+03 0. -1.
<mgrwt>
<rscale>  2 0.52904839E+03</rscale>
<asrwt>0</asrwt>
<pdfrwt beam="2">  1        1 0.10758412E+00 0.52904839E+03</pdfrwt>
<pdfrwt beam="1">  1       -1 0.62002492E-01 0.52904839E+03</pdfrwt>
<totfact> 0.75003126E+01</totfact>
</mgrwt>
</event>
<event>
 4    1  0.8249026E-001  0.1830077E+03  0.7546771E-02  0.1164924E+00
         -1   -1    0    0    0  501 -0.00000000000E+00  0.00000000000E+00  0.53940603164E+02  0.53940603164E+02  0.00000000000E+00 0.  1.
          1   -1    0    0  502    0  0.00000000000E+00 -0.00000000000E+00 -0.62338957377E+03  0.62338957377E+03  0.00000000000E+00 0. -1.
          6    1    1    2  502    0  0.51585397429E+02  0.30029295177E+02 -0.30611915033E+03  0.35665213584E+03  0.17300000000E+03 0.  1.
         -6    1    1    2    0  501 -0.51585397429E+02 -0.30029295177E+02 -0.26332982028E+03  0.32067804110E+03  0.17300000000E+03 0. -1.
<mgrwt>
<rscale>  2 0.18300768E+03</rscale>
<asrwt>0</asrwt>
<pdfrwt beam="2">  1        1 0.95906080E-01 0.18300768E+03</pdfrwt>
<pdfrwt beam="1">  1       -1 0.82985550E-02 0.18300768E+03</pdfrwt>
<totfact> 0.26794386E+03</totfact>
</mgrwt>
</event>
<event>
 4    1  0.8249026E-001  0.3222540E+03  0.7546771E-02  0.1074617E+00
          1   -1    0    0  502    0  0.00000000000E+00  0.00000000000E+00  0.57108310290E+03  0.57108310290E+03  0.00000000000E+00 0. -1.
         -1   -1    0    0    0  501 -0.00000000000E+00 -0.00000000000E+00 -0.18188466867E+03  0.18188466867E+03  0.00000000000E+00 0.  1.
          6    1    1    2  502    0  0.23120003410E+03 -0.14305662419E+03  0.18892346561E+03  0.37355016979E+03  0.17300000000E+03 0.  1.
         -6    1    1    2    0  501 -0.23120003410E+03  0.14305662419E+03  0.20027496861E+03  0.37941760179E+03  0.17300000000E+03 0.  1.
<mgrwt>
<rscale>  2 0.32225402E+03</rscale>
<asrwt>0</asrwt>
<pdfrwt beam="1">  1        1 0.87858938E-01 0.32225402E+03</pdfrwt>
<pdfrwt beam="2">  1       -1 0.27982257E-01 0.32225402E+03</pdfrwt>
<totfact> 0.43493342E+02</totfact>
</mgrwt>
</event>
<event>
 4    1  0.8249026E-001  0.2164434E+03  0.7546771E-02  0.1136563E+00
          2   -1    0    0  502    0  0.00000000000E+00  0.00000000000E+00  0.21523062635E+04  0.21523062635E+04  0.00000000000E+00 0. -1.
         -2   -1    0    0    0  501 -0.00000000000E+00 -0.00000000000E+00 -0.22156428853E+02  0.22156428853E+02  0.00000000000E+00 0.  1.
          6    1    1    2  502    0  0.10967279070E+02 -0.12960887968E+03  0.92080480921E+03  0.94590128426E+03  0.17300000000E+03 0.  1.
         -6    1    1    2    0  501 -0.10967279070E+02  0.12960887968E+03  0.12093450254E+04  0.12285614081E+04  0.17300000000E+03 0.  1.
<mgrwt>
<rscale>  2 0.21644339E+03</rscale>
<asrwt>0</asrwt>
<pdfrwt beam="1">  1        2 0.33112388E+00 0.21644339E+03</pdfrwt>
<pdfrwt beam="2">  1       -2 0.34086831E-02 0.21644339E+03</pdfrwt>
<totfact> 0.21661082E+03</totfact>
</mgrwt>
</event>
<event>
 4    1  0.8249026E-001  0.1834909E+03  0.7546771E-02  0.1164467E+00
          1   -1    0    0  502    0  0.00000000000E+00  0.00000000000E+00  0.23530543707E+03  0.23530543707E+03  0.00000000000E+00 0.  1.
         -1   -1    0    0    0  501 -0.00000000000E+00 -0.00000000000E+00 -0.33541059369E+03  0.33541059369E+03  0.00000000000E+00 0. -1.
          6    1    1    2  502    0  0.53051440367E+02 -0.30421487773E+02  0.16602965476E+03  0.24745659923E+03  0.17300000000E+03 0.  1.
         -6    1    1    2    0  501 -0.53051440367E+02  0.30421487773E+02 -0.26613481138E+03  0.32325943153E+03  0.17300000000E+03 0. -1.
<mgrwt>
<rscale>  2 0.18349093E+03</rscale>
<asrwt>0</asrwt>
<pdfrwt beam="1">  1        1 0.36200837E-01 0.18349093E+03</pdfrwt>
<pdfrwt beam="2">  1       -1 0.51601630E-01 0.18349093E+03</pdfrwt>
<totfact> 0.46519381E+02</totfact>
</mgrwt>
</event>
<event>
 4    1  0.8249026E-001  0.1821083E+03  0.7546771E-02  0.1165778E+00
         -1   -1    0    0    0  501 -0.00000000000E+00  0.00000000000E+00  0.71159147806E+03  0.71159147806E+03  0.00000000000E+00 0.  1.
          1   -1    0    0  502    0  0.00000000000E+00 -0.00000000000E+00 -0.53048603757E+02  0.53048603757E+02  0.00000000000E+00 0. -1.
          6    1    1    2  502    0 -0.40091035205E+02  0.40337650537E+02  0.46252194700E+03  0.49708145068E+03  0.17300000000E+03 0. -1.
         -6    1    1    2    0  501  0.40091035205E+02 -0.40337650537E+02  0.19602092730E+03  0.26755863113E+03  0.17300000000E+03 0. -1.
<mgrwt>
<rscale>  2 0.18210826E+03</rscale>
<asrwt>0</asrwt>
<pdfrwt beam="2">  1        1 0.81613242E-02 0.18210826E+03</pdfrwt>
<pdfrwt beam="1">  1       -1 0.10947561E+00 0.18210826E+03</pdfrwt>
<totfact> 0.69105776E+02</totfact>
</mgrwt>
</event>
<event>
 4    1  0.8249026E-001  0.1934053E+03  0.7546771E-02  0.1155425E+00
          3   -1    0    0  502    0  0.00000000000E+00  0.00000000000E+00  0.21512563716E+04  0.21512563716E+04  0.00000000000E+00 0. -1.
         -3   -1    0    0    0  501 -0.00000000000E+00 -0.00000000000E+00 -0.18722946351E+02  0.18722946351E+02  0.00000000000E+00 0.  1.
          6    1    1    2  502    0  0.59410151324E+02 -0.62825649768E+02  0.13560023861E+04  0.13697255562E+04  0.17300000000E+03 0.  1.
         -6    1    1    2    0  501 -0.59410151324E+02  0.62825649768E+02  0.77653103920E+03  0.80025376175E+03  0.17300000000E+03 0.  1.
<mgrwt>
<rscale>  2 0.19340535E+03</rscale>
<asrwt>0</asrwt>
<pdfrwt beam="1">  1        3 0.33096232E+00 0.19340535E+03</pdfrwt>
<pdfrwt beam="2">  1       -3 0.28804550E-02 0.19340535E+03</pdfrwt>
<totfact> 0.41309221E+01</totfact>
</mgrwt>
</event>
<event>
 4    1  0.8249026E-001  0.1760171E+03  0.7546771E-02  0.1171714E+00
         -1   -1    0    0    0  501 -0.00000000000E+00  0.00000000000E+00  0.39702977762E+02  0.39702977762E+02  0.00000000000E+00 0. -1.
          1   -1    0    0  502    0  0.00000000000E+00 -0.00000000000E+00 -0.93120259930E+03  0.93120259930E+03  0.00000000000E+00 0.  1.
          6    1    1    2  502    0 -0.61392249161E+01 -0.31864422729E+02 -0.25035721818E+03  0.30604046826E+03  0.17300000000E+03 0. -1.
         -6    1    1    2    0  501  0.61392249161E+01  0.31864422729E+02 -0.64114240336E+03  0.66486510880E+03  0.17300000000E+03 0.  1.
<mgrwt>
<rscale>  2 0.17601713E+03</rscale>
<asrwt>0</asrwt>
<pdfrwt beam="2">  1        1 0.14326194E+00 0.17601713E+03</pdfrwt>
<pdfrwt beam="1">  1       -1 0.61081503E-02 0.17601713E+03</pdfrwt>
<totfact> 0.23308042E+03</totfact>
</mgrwt>
</event>
<event>
 4    1  0.8249026E-001  0.1941515E+03  0.7546771E-02  0.1154769E+00
          2   -1    0    0  502    0  0.00000000000E+00  0.00000000000E+00  0.72676240104E+02  0.72676240104E+02  0.00000000000E+00 0. -1.
         -2   -1    0    0    0  501 -0.00000000000E+00 -0.00000000000E+00 -0.10152386561E+04  0.10152386561E+04  0.00000000000E+00 0.  1.
          6    1    1    2  502    0  0.90458283027E+01  0.87658319221E+02 -0.85170841997E+03  0.87355711925E+03  0.17300000000E+03 0. -1.
         -6    1    1    2    0  501 -0.90458283027E+01 -0.87658319221E+02 -0.90853995984E+02  0.21435777692E+03  0.17300000000E+03 0. -1.
<mgrwt>
<rscale>  2 0.19415151E+03</rscale>
<asrwt>0</asrwt>
<pdfrwt beam="1">  1        2 0.11180960E-01 0.19415151E+03</pdfrwt>
<pdfrwt beam="2">  1       -2 0.15619056E+00 0.19415151E+03</pdfrwt>
<totfact> 0.15956574E+02</totfact>
</mgrwt>
</event>
<event>
 4    1  0.8249026E-001  0.4001352E+03  0.7546771E-02  0.1043733E+00
         -2   -1    0    0    0  501 -0.00000000000E+00  0.00000000000E+00  0.67630320320E+02  0.67630320320E+02  0.00000000000E+00 0.  1.
          2   -1    0    0  502    0  0.00000000000E+00 -0.00000000000E+00 -0.27421482683E+04  0.27421482683E+04  0.00000000000E+00 0. -1.
          6    1    1    2  502    0  0.31926721288E+03  0.16807027476E+03 -0.18566149905E+04  0.18992439005E+04  0.17300000000E+03 0. -1.
         -6    1    1    2    0  501 -0.31926721288E+03 -0.16807027476E+03 -0.81790295741E+03  0.91053468809E+03  0.17300000000E+03 0.  1.
<mgrwt>
<rscale>  2 0.40013519E+03</rscale>
<asrwt>0</asrwt>
<pdfrwt beam="2">  1        2 0.42186903E+00 0.40013519E+03</pdfrwt>
<pdfrwt beam="1">  1       -2 0.10404663E-01 0.40013519E+03</pdfrwt>
<totfact> 0.17762635E+02</totfact>
</mgrwt>
</event>
<event>
 4    1  0.8249026E-001  0.2025603E+03  0.7546771E-02  0.1147597E+00
          1   -1    0    0  502    0  0.00000000000E+00  0.00000000000E+00  0.15691215257E+04  0.15691215257E+04  0.00000000000E+00 0. -1.
         -1   -1    0    0    0  501 -0.00000000000E+00 -0.00000000000E+00 -0.29615036693E+02  0.29615036693E+02  0.00000000000E+00 0.  1.
          6    1    1    2  502    0 -0.10350752555E+03 -0.19693918739E+02  0.49627716238E+03  0.53602395486E+03  0.17300000000E+03 0.  1.
         -6    1    1    2    0  501  0.10350752555E+03  0.19693918739E+02  0.10432293266E+04  0.10627126075E+04  0.17300000000E+03 0.  1.
<mgrwt>
<rscale>  2 0.20256026E+03</rscale>
<asrwt>0</asrwt>
<pdfrwt beam="1">  1        1 0.24140325E+00 0.20256026E+03</pdfrwt>
<pdfrwt beam="2">  1       -1 0.45561607E-02 0.20256026E+03</pdfrwt>
<totfact> 0.13081896E+03</totfact>
</mgrwt>
</event>
<event>
 4    1  0.8249026E-001  0.2030929E+03  0.7546771E-02  0.1147155E+00
         -2   -1    0    0    0  501 -0.00000000000E+00  0.00000000000E+00  0.16653357907E+03  0.16653357907E+03  0.00000000000E+00 0.  1.
          2   -1    0    0  502    0  0.00000000000E+00 -0.00000000000E+00 -0.24778404082E+03  0.24778404082E+03  0.00000000000E+00 0. -1.
          6    1    1    2  502    0 -0.10616841346E+03  0.67827202978E+01 -0.36343781991E+02  0.20631918912E+03  0.17300000000E+03 0. -1.
         -6    1    1    2    0  501  0.10616841346E+03 -0.67827202978E+01 -0.44906679761E+02  0.20799843076E+03  0.17300000000E+03 0.  1.
<mgrwt>
<rscale>  2 0.20309293E+03</rscale>
<asrwt>0</asrwt>
<pdfrwt beam="2">  1        2 0.38120622E-01 0.20309293E+03</pdfrwt>
<pdfrwt beam="1">  1       -2 0.25620551E-01 0.20309293E+03</pdfrwt>
<totfact> 0.18146266E+03</totfact>
</mgrwt>
</event>
<event>
 4    1  0.8249026E-001  0.2279258E+03  0.7546771E-02  0.1128108E+00
         -1   -1    0    0    0  501 -0.00000000000E+00  0.00000000000E+00  0.23651823843E+03  0.23651823843E+03  0.00000000000E+00 0.  1.
          1   -1    0    0  502    0  0.00000000000E+00 -0.00000000000E+00 -0.21973136821E+03  0.21973136821E+03  0.00000000000E+00 0. -1.
          6    1    1    2  502    0  0.14601024608E+03  0.26498563174E+02  0.38836835853E+01  0.22795887526E+03  0.17300000000E+03 0. -1.
         -6    1    1    2    0  501 -0.14601024608E+03 -0.26498563174E+02  0.12903186638E+02  0.22829073138E+03  0.17300000000E+03 0. -1.
<mgrwt>
<rscale>  2 0.22792579E+03</rscale>
<asrwt>0</asrwt>
<pdfrwt beam="2">  1        1 0.33804826E-01 0.22792579E+03</pdfrwt>
<pdfrwt beam="1">  1       -1 0.36387421E-01 0.22792579E+03</pdfrwt>
<totfact> 0.95000019E+02</totfact>
</mgrwt>
</event>
<event>
 4    1  0.8249026E-001  0.1732562E+03  0.7546771E-02  0.1174494E+00
         -2   -1    0    0    0  501 -0.00000000000E+00  0.00000000000E+00  0.15603713089E+02  0.15603713089E+02  0.00000000000E+00 0. -1.
          2   -1    0    0  502    0  0.00000000000E+00 -0.00000000000E+00 -0.19876507483E+04  0.19876507483E+04  0.00000000000E+00 0.  1.
          6    1    1    2  502    0  0.29747549908E+01 -0.89359235776E+01 -0.11656112542E+04  0.11784172842E+04  0.17300000000E+03 0.  1.
         -6    1    1    2    0  501 -0.29747549908E+01  0.89359235776E+01 -0.80643578099E+03  0.82483717712E+03  0.17300000000E+03 0. -1.
<mgrwt>
<rscale>  2 0.17325617E+03</rscale>
<asrwt>0</asrwt>
<pdfrwt beam="2">  1        2 0.30579222E+00 0.17325617E+03</pdfrwt>
<pdfrwt beam="1">  1       -2 0.24005728E-02 0.17325617E+03</pdfrwt>
<totfact> 0.44399332E+03</totfact>
</mgrwt>
</event>
<event>
 4    1  0.8249026E-001  0.1849975E+03  0.7546771E-02  0.1163052E+00
         -1   -1    0    0    0  501 -0.00000000000E+00  0.00000000000E+00  0.46214167453E+03  0.46214167453E+03  0.00000000000E+00 0. -1.
          1   -1    0    0  502    0  0.00000000000E+00 -0.00000000000E+00 -0.11528204898E+03  0.11528204898E+03  0.00000000000E+00 0.  1.
          6    1    1    2  502    0  0.64907460083E+02 -0.90610057048E+01  0.77731164271E+00  0.18499914706E+03  0.17300000000E+03 0. -1.
         -6    1    1    2    0  501 -0.64907460083E+02  0.90610057048E+01  0.34608231391E+03  0.39242457645E+03  0.17300000000E+03 0. -1.
<mgrwt>
<rscale>  2 0.18499751E+03</rscale>
<asrwt>0</asrwt>
<pdfrwt beam="2">  1        1 0.17735700E-01 0.18499751E+03</pdfrwt>
<pdfrwt beam="1">  1       -1 0.71098718E-01 0.18499751E+03</pdfrwt>
<totfact> 0.62086468E+02</totfact>
</mgrwt>
</event>
<event>
 4    1  0.8249026E-001  0.1875189E+03  0.7546771E-02  0.1160718E+00
         -2   -1    0    0    0  501 -0.00000000000E+00  0.00000000000E+00  0.92204091627E+02  0.92204091627E+02  0.00000000000E+00 0.  1.
          2   -1    0    0  502    0  0.00000000000E+00 -0.00000000000E+00 -0.43760231090E+03  0.43760231090E+03  0.00000000000E+00 0. -1.
          6    1    1    2  502    0 -0.49694717413E+02  0.52581035532E+02 -0.26766401919E+03  0.32681394922E+03  0.17300000000E+03 0. -1.
         -6    1    1    2    0  501  0.49694717413E+02 -0.52581035532E+02 -0.77734200082E+02  0.20299245330E+03  0.17300000000E+03 0.  1.
<mgrwt>
<rscale>  2 0.18751888E+03</rscale>
<asrwt>0</asrwt>
<pdfrwt beam="2">  1        2 0.67323432E-01 0.18751888E+03</pdfrwt>
<pdfrwt beam="1">  1       -2 0.14185245E-01 0.18751888E+03</pdfrwt>
<totfact> 0.26766786E+03</totfact>
</mgrwt>
</event>
<event>
 4    1  0.8249026E-001  0.2285526E+03  0.7546771E-02  0.1127663E+00
         -1   -1    0    0    0  501 -0.00000000000E+00  0.00000000000E+00  0.59314799872E+03  0.59314799872E+03  0.00000000000E+00 0. -1.
          1   -1    0    0  502    0  0.00000000000E+00 -0.00000000000E+00 -0.88865087759E+02  0.88865087759E+02  0.00000000000E+00 0.  1.
          6    1    1    2  502    0  0.19443870058E+02  0.14808527310E+03  0.28447326181E+03  0.36491279626E+03  0.17300000000E+03 0. -1.
         -6    1    1    2    0  501 -0.19443870058E+02 -0.14808527310E+03  0.21980964915E+03  0.31710029021E+03  0.17300000000E+03 0. -1.
<mgrwt>
<rscale>  2 0.22855265E+03</rscale>
<asrwt>0</asrwt>
<pdfrwt beam="2">  1        1 0.13671552E-01 0.22855265E+03</pdfrwt>
<pdfrwt beam="1">  1       -1 0.91253536E-01 0.22855265E+03</pdfrwt>
<totfact> 0.52042378E+02</totfact>
</mgrwt>
</event>
<event>
 4    1  0.8249026E-001  0.2299418E+03  0.7546771E-02  0.1126681E+00
          2   -1    0    0  502    0  0.00000000000E+00  0.00000000000E+00  0.10315995106E+04  0.10315995106E+04  0.00000000000E+00 0. -1.
         -2   -1    0    0    0  501 -0.00000000000E+00 -0.00000000000E+00 -0.80688222337E+02  0.80688222337E+02  0.00000000000E+00 0.  1.
          6    1    1    2  502    0  0.96268102607E+02  0.11694738509E+03  0.81135638062E+03  0.84331039056E+03  0.17300000000E+03 0. -1.
         -6    1    1    2    0  501 -0.96268102607E+02 -0.11694738509E+03  0.13955490762E+03  0.26897734235E+03  0.17300000000E+03 0.  1.
<mgrwt>
<rscale>  2 0.22994182E+03</rscale>
<asrwt>0</asrwt>
<pdfrwt beam="1">  1        2 0.15870761E+00 0.22994182E+03</pdfrwt>
<pdfrwt beam="2">  1       -2 0.12413573E-01 0.22994182E+03</pdfrwt>
<totfact> 0.11772111E+03</totfact>
</mgrwt>
</event>
<event>
 4    1  0.8249026E-001  0.3579841E+03  0.7546771E-02  0.1059385E+00
         -2   -1    0    0    0  501 -0.00000000000E+00  0.00000000000E+00  0.36383158547E+03  0.36383158547E+03  0.00000000000E+00 0. -1.
          2   -1    0    0  502    0  0.00000000000E+00 -0.00000000000E+00 -0.36217448669E+03  0.36217448669E+03  0.00000000000E+00 0.  1.
          6    1    1    2  502    0  0.26964023223E+03 -0.15974287269E+03  0.60977500693E+02  0.36314032523E+03  0.17300000000E+03 0. -1.
         -6    1    1    2    0  501 -0.26964023223E+03  0.15974287269E+03 -0.59320401910E+02  0.36286574693E+03  0.17300000000E+03 0.  1.
<mgrwt>
<rscale>  2 0.35798413E+03</rscale>
<asrwt>0</asrwt>
<pdfrwt beam="2">  1        2 0.55719152E-01 0.35798413E+03</pdfrwt>
<pdfrwt beam="1">  1       -2 0.55974090E-01 0.35798413E+03</pdfrwt>
<totfact> 0.27259543E+02</totfact>
</mgrwt>
</event>
<event>
 4    1  0.8249026E-001  0.2647899E+03  0.7546771E-02  0.1104299E+00
          2   -1    0    0  502    0  0.00000000000E+00  0.00000000000E+00  0.85826608618E+03  0.85826608618E+03  0.00000000000E+00 0. -1.
         -2   -1    0    0    0  501 -0.00000000000E+00 -0.00000000000E+00 -0.82509348997E+02  0.82509348997E+02  0.00000000000E+00 0.  1.
          6    1    1    2  502    0 -0.19050287367E+03 -0.62396879423E+02  0.34106896192E+03  0.43178901355E+03  0.17300000000E+03 0.  1.
         -6    1    1    2    0  501  0.19050287367E+03  0.62396879423E+02  0.43468777527E+03  0.50898642163E+03  0.17300000000E+03 0. -1.
<mgrwt>
<rscale>  2 0.26478995E+03</rscale>
<asrwt>0</asrwt>
<pdfrwt beam="1">  1        2 0.13204093E+00 0.26478995E+03</pdfrwt>
<pdfrwt beam="2">  1       -2 0.12693747E-01 0.26478995E+03</pdfrwt>
<totfact> 0.14602161E+03</totfact>
</mgrwt>
</event>
<event>
 4    1  0.8249026E-001  0.2108953E+03  0.7546771E-02  0.1140859E+00
          2   -1    0    0  502    0  0.00000000000E+00  0.00000000000E+00  0.12852511623E+04  0.12852511623E+04  0.00000000000E+00 0.  1.
         -2   -1    0    0    0  501 -0.00000000000E+00 -0.00000000000E+00 -0.40190763356E+02  0.40190763356E+02  0.00000000000E+00 0. -1.
          6    1    1    2  502    0 -0.11986028576E+03  0.13465624592E+02  0.37547850671E+03  0.43065173882E+03  0.17300000000E+03 0. -1.
         -6    1    1    2    0  501  0.11986028576E+03 -0.13465624592E+02  0.86958189219E+03  0.89479018679E+03  0.17300000000E+03 0. -1.
<mgrwt>
<rscale>  2 0.21089526E+03</rscale>
<asrwt>0</asrwt>
<pdfrwt beam="1">  1        2 0.19773092E+00 0.21089526E+03</pdfrwt>
<pdfrwt beam="2">  1       -2 0.61831953E-02 0.21089526E+03</pdfrwt>
<totfact> 0.25223376E+03</totfact>
</mgrwt>
</event>
<event>
 4    1  0.8249026E-001  0.2192828E+03  0.7546771E-02  0.1134419E+00
         -2   -1    0    0    0  501 -0.00000000000E+00  0.00000000000E+00  0.23150370919E+03  0.23150370919E+03  0.00000000000E+00 0. -1.
          2   -1    0    0  502    0  0.00000000000E+00 -0.00000000000E+00 -0.20821053109E+03  0.20821053109E+03  0.00000000000E+00 0.  1.
          6    1    1    2  502    0  0.85989833316E+02  0.10373865029E+03  0.22457658659E+02  0.22042981974E+03  0.17300000000E+03 0.  1.
         -6    1    1    2    0  501 -0.85989833316E+02 -0.10373865029E+03  0.83551944448E+00  0.21928442054E+03  0.17300000000E+03 0. -1.
<mgrwt>
<rscale>  2 0.21928283E+03</rscale>
<asrwt>0</asrwt>
<pdfrwt beam="2">  1        2 0.32032389E-01 0.21928283E+03</pdfrwt>
<pdfrwt beam="1">  1       -2 0.35615955E-01 0.21928283E+03</pdfrwt>
<totfact> 0.12069569E+03</totfact>
</mgrwt>
</event>
<event>
 4    1  0.8249026E-001  0.1873753E+03  0.7546771E-02  0.1160850E+00
         -1   -1    0    0    0  501 -0.00000000000E+00  0.00000000000E+00  0.83086554337E+03  0.83086554337E+03  0.00000000000E+00 0. -1.
          1   -1    0    0  502    0  0.00000000000E+00 -0.00000000000E+00 -0.45612166428E+02  0.45612166428E+02  0.00000000000E+00 0.  1.
          6    1    1    2  502    0 -0.70973894112E+02 -0.11966936180E+02  0.51149264183E+03  0.54473316757E+03  0.17300000000E+03 0. -1.
         -6    1    1    2    0  501  0.70973894112E+02  0.11966936180E+02  0.27376073511E+03  0.33174454223E+03  0.17300000000E+03 0. -1.
<mgrwt>
<rscale>  2 0.18737530E+03</rscale>
<asrwt>0</asrwt>
<pdfrwt beam="2">  1        1 0.70172570E-02 0.18737530E+03</pdfrwt>
<pdfrwt beam="1">  1       -1 0.12782546E+00 0.18737530E+03</pdfrwt>
<totfact> 0.58902450E+02</totfact>
</mgrwt>
</event>
<event>
 4    1  0.8249026E-001  0.2420558E+03  0.7546771E-02  0.1118431E+00
          2   -1    0    0  502    0  0.00000000000E+00  0.00000000000E+00  0.55217601206E+04  0.55217601206E+04  0.00000000000E+00 0.  1.
         -2   -1    0    0    0  501 -0.00000000000E+00 -0.00000000000E+00 -0.11584375603E+02  0.11584375603E+02  0.00000000000E+00 0. -1.
          6    1    1    2  502    0 -0.51701591995E+02  0.16121084198E+03  0.19530810778E+04  0.19680235483E+04  0.17300000000E+03 0. -1.
         -6    1    1    2    0  501  0.51701591995E+02 -0.16121084198E+03  0.35570946673E+04  0.35653209480E+04  0.17300000000E+03 0.  1.
<mgrwt>
<rscale>  2 0.24205576E+03</rscale>
<asrwt>0</asrwt>
<pdfrwt beam="1">  1        2 0.84949945E+00 0.24205576E+03</pdfrwt>
<pdfrwt beam="2">  1       -2 0.17822160E-02 0.24205576E+03</pdfrwt>
<totfact> 0.82960795E+00</totfact>
</mgrwt>
</event>
<event>
 4    1  0.8249026E-001  0.1835149E+03  0.7546771E-02  0.1164444E+00
          1   -1    0    0  502    0  0.00000000000E+00  0.00000000000E+00  0.14021006900E+04  0.14021006900E+04  0.00000000000E+00 0.  1.
         -1   -1    0    0    0  501 -0.00000000000E+00 -0.00000000000E+00 -0.27249889631E+02  0.27249889631E+02  0.00000000000E+00 0. -1.
          6    1    1    2  502    0  0.77817928163E+01  0.60730385868E+02  0.44135754993E+03  0.47798977285E+03  0.17300000000E+03 0. -1.
         -6    1    1    2    0  501 -0.77817928163E+01 -0.60730385868E+02  0.93349325048E+03  0.95136080682E+03  0.17300000000E+03 0.  1.
<mgrwt>
<rscale>  2 0.18351495E+03</rscale>
<asrwt>0</asrwt>
<pdfrwt beam="1">  1        1 0.21570774E+00 0.18351495E+03</pdfrwt>
<pdfrwt beam="2">  1       -1 0.41922918E-02 0.18351495E+03</pdfrwt>
<totfact> 0.19072564E+03</totfact>
</mgrwt>
</event>
<event>
 4    1  0.8249026E-001  0.1816892E+03  0.7546771E-02  0.1166178E+00
          2   -1    0    0  502    0  0.00000000000E+00  0.00000000000E+00  0.49040900433E+03  0.49040900433E+03  0.00000000000E+00 0.  1.
         -2   -1    0    0    0  501 -0.00000000000E+00 -0.00000000000E+00 -0.84345136833E+02  0.84345136833E+02  0.00000000000E+00 0. -1.
          6    1    1    2  502    0  0.39221003855E+02  0.39289860174E+02  0.33217009732E+03  0.37861319815E+03  0.17300000000E+03 0.  1.
         -6    1    1    2    0  501 -0.39221003855E+02 -0.39289860174E+02  0.73893770174E+02  0.19614094301E+03  0.17300000000E+03 0. -1.
<mgrwt>
<rscale>  2 0.18168924E+03</rscale>
<asrwt>0</asrwt>
<pdfrwt beam="1">  1        2 0.75447538E-01 0.18168924E+03</pdfrwt>
<pdfrwt beam="2">  1       -2 0.12976175E-01 0.18168924E+03</pdfrwt>
<totfact> 0.27277836E+03</totfact>
</mgrwt>
</event>
<event>
 4    1  0.8249026E-001  0.1737104E+03  0.7546771E-02  0.1174033E+00
         -1   -1    0    0    0  501 -0.00000000000E+00  0.00000000000E+00  0.63534129163E+03  0.63534129163E+03  0.00000000000E+00 0.  1.
          1   -1    0    0  502    0  0.00000000000E+00 -0.00000000000E+00 -0.66271445918E+02  0.66271445918E+02  0.00000000000E+00 0. -1.
          6    1    1    2  502    0 -0.71794500858E+01  0.13955008522E+02  0.97804339700E+02  0.19935138733E+03  0.17300000000E+03 0. -1.
         -6    1    1    2    0  501  0.71794500858E+01 -0.13955008522E+02  0.47126550601E+03  0.50226135022E+03  0.17300000000E+03 0.  1.
<mgrwt>
<rscale>  2 0.17371035E+03</rscale>
<asrwt>0</asrwt>
<pdfrwt beam="2">  1        1 0.10195607E-01 0.17371035E+03</pdfrwt>
<pdfrwt beam="1">  1       -1 0.97744810E-01 0.17371035E+03</pdfrwt>
<totfact> 0.66040667E+02</totfact>
</mgrwt>
</event>
<event>
 4    1  0.8249026E-001  0.1761229E+03  0.7546771E-02  0.1171609E+00
         -2   -1    0    0    0  501 -0.00000000000E+00  0.00000000000E+00  0.21304559288E+02  0.21304559288E+02  0.00000000000E+00 0.  1.
          2   -1    0    0  502    0  0.00000000000E+00 -0.00000000000E+00 -0.30246945022E+04  0.30246945022E+04  0.00000000000E+00 0. -1.
          6    1    1    2  502    0  0.32724365913E+02 -0.44029981172E+01 -0.25984996356E+04  0.26044614850E+04  0.17300000000E+03 0. -1.
         -6    1    1    2    0  501 -0.32724365913E+02  0.44029981172E+01 -0.40489030732E+03  0.44153757652E+03  0.17300000000E+03 0.  1.
<mgrwt>
<rscale>  2 0.17612288E+03</rscale>
<asrwt>0</asrwt>
<pdfrwt beam="2">  1        2 0.46533733E+00 0.17612288E+03</pdfrwt>
<pdfrwt beam="1">  1       -2 0.32776265E-02 0.17612288E+03</pdfrwt>
<totfact> 0.76524152E+02</totfact>
</mgrwt>
</event>
<event>
 4    1  0.8249026E-001  0.1795876E+03  0.7546771E-02  0.1168203E+00
         -2   -1    0    0    0  501 -0.00000000000E+00  0.00000000000E+00  0.49085334336E+02  0.49085334336E+02  0.00000000000E+00 0.  1.
          2   -1    0    0  502    0  0.00000000000E+00 -0.00000000000E+00 -0.83144718816E+03  0.83144718816E+03  0.00000000000E+00 0. -1.
          6    1    1    2  502    0 -0.34110921815E+02 -0.34046332411E+02 -0.18954727277E+03  0.26111276558E+03  0.17300000000E+03 0.  1.
         -6    1    1    2    0  501  0.34110921815E+02  0.34046332411E+02 -0.59281458106E+03  0.61941975692E+03  0.17300000000E+03 0. -1.
<mgrwt>
<rscale>  2 0.17958760E+03</rscale>
<asrwt>0</asrwt>
<pdfrwt beam="2">  1        2 0.12791494E+00 0.17958760E+03</pdfrwt>
<pdfrwt beam="1">  1       -2 0.75515903E-02 0.17958760E+03</pdfrwt>
<totfact> 0.34493518E+03</totfact>
</mgrwt>
</event>
<event>
 4    1  0.8249026E-001  0.1812026E+03  0.7546771E-02  0.1166644E+00
          1   -1    0    0  502    0  0.00000000000E+00  0.00000000000E+00  0.42588750097E+03  0.42588750097E+03  0.00000000000E+00 0.  1.
         -1   -1    0    0    0  501 -0.00000000000E+00 -0.00000000000E+00 -0.78482356961E+02  0.78482356961E+02  0.00000000000E+00 0. -1.
          6    1    1    2  502    0 -0.41369444553E+02  0.34553361887E+02  0.14018920590E+03  0.22910124227E+03  0.17300000000E+03 0. -1.
         -6    1    1    2    0  501  0.41369444553E+02 -0.34553361887E+02  0.20721593811E+03  0.27526861566E+03  0.17300000000E+03 0.  1.
<mgrwt>
<rscale>  2 0.18120255E+03</rscale>
<asrwt>0</asrwt>
<pdfrwt beam="1">  1        1 0.65521152E-01 0.18120255E+03</pdfrwt>
<pdfrwt beam="2">  1       -1 0.12074209E-01 0.18120255E+03</pdfrwt>
<totfact> 0.24971280E+03</totfact>
</mgrwt>
</event>
<event>
 4    1  0.8249026E-001  0.1884364E+03  0.7546771E-02  0.1159879E+00
         -1   -1    0    0    0  501 -0.00000000000E+00  0.00000000000E+00  0.62971555846E+02  0.62971555846E+02  0.00000000000E+00 0. -1.
          1   -1    0    0  502    0  0.00000000000E+00 -0.00000000000E+00 -0.69480985634E+03  0.69480985634E+03  0.00000000000E+00 0.  1.
          6    1    1    2  502    0 -0.95797739441E+01 -0.74077810887E+02 -0.48039537351E+03  0.51603101556E+03  0.17300000000E+03 0.  1.
         -6    1    1    2    0  501  0.95797739441E+01  0.74077810887E+02 -0.15144292699E+03  0.24175039663E+03  0.17300000000E+03 0. -1.
<mgrwt>
<rscale>  2 0.18843645E+03</rscale>
<asrwt>0</asrwt>
<pdfrwt beam="2">  1        1 0.10689383E+00 0.18843645E+03</pdfrwt>
<pdfrwt beam="1">  1       -1 0.96879314E-02 0.18843645E+03</pdfrwt>
<totfact> 0.18146707E+03</totfact>
</mgrwt>
</event>
<event>
 4    1  0.8249026E-001  0.1867699E+03  0.7546771E-02  0.1161407E+00
          2   -1    0    0  502    0  0.00000000000E+00  0.00000000000E+00  0.36598821163E+04  0.36598821163E+04  0.00000000000E+00 0. -1.
         -2   -1    0    0    0  501 -0.00000000000E+00 -0.00000000000E+00 -0.12912710377E+02  0.12912710377E+02  0.00000000000E+00 0.  1.
          6    1    1    2  502    0 -0.62045358787E+02  0.33232061413E+02  0.88372981701E+03  0.90325045581E+03  0.17300000000E+03 0.  1.
         -6    1    1    2    0  501  0.62045358787E+02 -0.33232061413E+02  0.27632395889E+04  0.27695443709E+04  0.17300000000E+03 0. -1.
<mgrwt>
<rscale>  2 0.18676990E+03</rscale>
<asrwt>0</asrwt>
<pdfrwt beam="1">  1        2 0.56305796E+00 0.18676990E+03</pdfrwt>
<pdfrwt beam="2">  1       -2 0.19865737E-02 0.18676990E+03</pdfrwt>
<totfact> 0.63354757E+02</totfact>
</mgrwt>
</event>
<event>
 4    1  0.8249026E-001  0.1964761E+03  0.7546771E-02  0.1152747E+00
          2   -1    0    0  502    0  0.00000000000E+00  0.00000000000E+00  0.16512386923E+04  0.16512386923E+04  0.00000000000E+00 0.  1.
         -2   -1    0    0    0  501 -0.00000000000E+00 -0.00000000000E+00 -0.36724599097E+02  0.36724599097E+02  0.00000000000E+00 0. -1.
          6    1    1    2  502    0 -0.20333642515E+02  0.90886782401E+02  0.29846800671E+03  0.35733179996E+03  0.17300000000E+03 0. -1.
         -6    1    1    2    0  501  0.20333642515E+02 -0.90886782401E+02  0.13160460865E+04  0.13306314915E+04  0.17300000000E+03 0.  1.
<mgrwt>
<rscale>  2 0.19647612E+03</rscale>
<asrwt>0</asrwt>
<pdfrwt beam="1">  1        2 0.25403666E+00 0.19647612E+03</pdfrwt>
<pdfrwt beam="2">  1       -2 0.56499396E-02 0.19647612E+03</pdfrwt>
<totfact> 0.18467030E+03</totfact>
</mgrwt>
</event>
<event>
 4    1  0.8249026E-001  0.1805539E+03  0.7546771E-02  0.1167268E+00
          1   -1    0    0  502    0  0.00000000000E+00  0.00000000000E+00  0.13748192648E+04  0.13748192648E+04  0.00000000000E+00 0. -1.
         -1   -1    0    0    0  501 -0.00000000000E+00 -0.00000000000E+00 -0.25126525202E+02  0.25126525202E+02  0.00000000000E+00 0.  1.
          6    1    1    2  502    0  0.25484976439E+01  0.51616070266E+02  0.50876518019E+03  0.53985342652E+03  0.17300000000E+03 0.  1.
         -6    1    1    2    0  501 -0.25484976439E+01 -0.51616070266E+02  0.84092755936E+03  0.86009236344E+03  0.17300000000E+03 0. -1.
<mgrwt>
<rscale>  2 0.18055391E+03</rscale>
<asrwt>0</asrwt>
<pdfrwt beam="1">  1        1 0.21151060E+00 0.18055391E+03</pdfrwt>
<pdfrwt beam="2">  1       -1 0.38656203E-02 0.18055391E+03</pdfrwt>
<totfact> 0.22420094E+03</totfact>
</mgrwt>
</event>
<event>
 4    1  0.8249026E-001  0.2026152E+03  0.7546771E-02  0.1147551E+00
         -1   -1    0    0    0  501 -0.00000000000E+00  0.00000000000E+00  0.50490333128E+02  0.50490333128E+02  0.00000000000E+00 0.  1.
          1   -1    0    0  502    0  0.00000000000E+00 -0.00000000000E+00 -0.11628149676E+04  0.11628149676E+04  0.00000000000E+00 0. -1.
          6    1    1    2  502    0 -0.10829859209E+02  0.10491259862E+03 -0.22346359399E+03  0.30164369219E+03  0.17300000000E+03 0.  1.
         -6    1    1    2    0  501  0.10829859209E+02 -0.10491259862E+03 -0.88886104053E+03  0.91166160859E+03  0.17300000000E+03 0. -1.
<mgrwt>
<rscale>  2 0.20261525E+03</rscale>
<asrwt>0</asrwt>
<pdfrwt beam="2">  1        1 0.17889459E+00 0.20261525E+03</pdfrwt>
<pdfrwt beam="1">  1       -1 0.77677446E-02 0.20261525E+03</pdfrwt>
<totfact> 0.10997299E+03</totfact>
</mgrwt>
</event>
<event>
 4    1  0.8249026E-001  0.1988764E+03  0.7546771E-02  0.1150690E+00
          2   -1    0    0  502    0  0.00000000000E+00  0.00000000000E+00  0.10492032242E+04  0.10492032242E+04  0.00000000000E+00 0. -1.
         -2   -1    0    0    0  501 -0.00000000000E+00 -0.00000000000E+00 -0.37899291475E+02  0.37899291475E+02  0.00000000000E+00 0.  1.
          6    1    1    2  502    0 -0.42804558913E+02 -0.88264434574E+02  0.54536073296E+03  0.58049131753E+03  0.17300000000E+03 0. -1.
         -6    1    1    2    0  501  0.42804558913E+02  0.88264434574E+02  0.46594319973E+03  0.50661119811E+03  0.17300000000E+03 0.  1.
<mgrwt>
<rscale>  2 0.19887645E+03</rscale>
<asrwt>0</asrwt>
<pdfrwt beam="1">  1        2 0.16141586E+00 0.19887645E+03</pdfrwt>
<pdfrwt beam="2">  1       -2 0.58306610E-02 0.19887645E+03</pdfrwt>
<totfact> 0.37593666E+03</totfact>
</mgrwt>
</event>
<event>
 4    1  0.8249026E-001  0.2622451E+03  0.7546771E-02  0.1105802E+00
         -1   -1    0    0    0  501 -0.00000000000E+00  0.00000000000E+00  0.98167917027E+03  0.98167917027E+03  0.00000000000E+00 0. -1.
          1   -1    0    0  502    0  0.00000000000E+00 -0.00000000000E+00 -0.71798420869E+02  0.71798420869E+02  0.00000000000E+00 0.  1.
          6    1    1    2  502    0 -0.19599201302E+03 -0.20750925956E+02  0.37288250961E+03  0.45586602864E+03  0.17300000000E+03 0. -1.
         -6    1    1    2    0  501  0.19599201302E+03  0.20750925956E+02  0.53699823979E+03  0.59761156250E+03  0.17300000000E+03 0.  1.
<mgrwt>
<rscale>  2 0.26224506E+03</rscale>
<asrwt>0</asrwt>
<pdfrwt beam="2">  1        1 0.11045912E-01 0.26224506E+03</pdfrwt>
<pdfrwt beam="1">  1       -1 0.15102756E+00 0.26224506E+03</pdfrwt>
<totfact> 0.20880951E+02</totfact>
</mgrwt>
</event>
<event>
 4    1  0.8249026E-001  0.1955297E+03  0.7546771E-02  0.1153566E+00
         -2   -1    0    0    0  501 -0.00000000000E+00  0.00000000000E+00  0.48133025935E+02  0.48133025935E+02  0.00000000000E+00 0.  1.
          2   -1    0    0  502    0  0.00000000000E+00 -0.00000000000E+00 -0.80010982030E+03  0.80010982030E+03  0.00000000000E+00 0. -1.
          6    1    1    2  502    0 -0.90430055753E+02 -0.11191841370E+02 -0.41214269438E+03  0.45617261297E+03  0.17300000000E+03 0.  1.
         -6    1    1    2    0  501  0.90430055753E+02  0.11191841370E+02 -0.33983409999E+03  0.39207023326E+03  0.17300000000E+03 0.  1.
<mgrwt>
<rscale>  2 0.19552967E+03</rscale>
<asrwt>0</asrwt>
<pdfrwt beam="2">  1        2 0.12309383E+00 0.19552967E+03</pdfrwt>
<pdfrwt beam="1">  1       -2 0.74050804E-02 0.19552967E+03</pdfrwt>
<totfact> 0.37426413E+03</totfact>
</mgrwt>
</event>
<event>
 4    1  0.8249026E-001  0.2335648E+03  0.7546771E-02  0.1124156E+00
         -4   -1    0    0    0  501 -0.00000000000E+00  0.00000000000E+00  0.48722982763E+02  0.48722982763E+02  0.00000000000E+00 0.  1.
          4   -1    0    0  502    0  0.00000000000E+00 -0.00000000000E+00 -0.12971690213E+04  0.12971690213E+04  0.00000000000E+00 0. -1.
          6    1    1    2  502    0 -0.15436839593E+03  0.28176161985E+02 -0.37527472912E+03  0.44202219410E+03  0.17300000000E+03 0.  1.
         -6    1    1    2    0  501  0.15436839593E+03 -0.28176161985E+02 -0.87317130945E+03  0.90386980999E+03  0.17300000000E+03 0. -1.
<mgrwt>
<rscale>  2 0.23356476E+03</rscale>
<asrwt>0</asrwt>
<pdfrwt beam="2">  1        4 0.19956444E+00 0.23356476E+03</pdfrwt>
<pdfrwt beam="1">  1       -4 0.74958444E-02 0.23356476E+03</pdfrwt>
<totfact> 0.32392635E+01</totfact>
</mgrwt>
</event>
<event>
 4    1  0.8249026E-001  0.2192159E+03  0.7546771E-02  0.1134469E+00
          1   -1    0    0  502    0  0.00000000000E+00  0.00000000000E+00  0.10645853040E+04  0.10645853040E+04  0.00000000000E+00 0.  1.
         -1   -1    0    0    0  501 -0.00000000000E+00 -0.00000000000E+00 -0.82772333619E+02  0.82772333619E+02  0.00000000000E+00 0. -1.
          6    1    1    2  502    0  0.11426431470E+03 -0.71205769900E+02  0.10408941862E+03  0.24267303589E+03  0.17300000000E+03 0. -1.
         -6    1    1    2    0  501 -0.11426431470E+03  0.71205769900E+02  0.87772355174E+03  0.90468460170E+03  0.17300000000E+03 0.  1.
<mgrwt>
<rscale>  2 0.21921586E+03</rscale>
<asrwt>0</asrwt>
<pdfrwt beam="1">  1        1 0.16378235E+00 0.21921586E+03</pdfrwt>
<pdfrwt beam="2">  1       -1 0.12734206E-01 0.21921586E+03</pdfrwt>
<totfact> 0.60204962E+02</totfact>
</mgrwt>
</event>
<event>
 4    1  0.8249026E-001  0.3013443E+03  0.7546771E-02  0.1084571E+00
          1   -1    0    0  502    0  0.00000000000E+00  0.00000000000E+00  0.21941891854E+04  0.21941891854E+04  0.00000000000E+00 0.  1.
         -1   -1    0    0    0  501 -0.00000000000E+00 -0.00000000000E+00 -0.12630136875E+03  0.12630136875E+03  0.00000000000E+00 0. -1.
          6    1    1    2  502    0 -0.15834479874E+03  0.18922562472E+03  0.19852916285E+04  0.20080316886E+04  0.17300000000E+03 0.  1.
         -6    1    1    2    0  501  0.15834479874E+03 -0.18922562472E+03  0.82596188132E+02  0.31245886551E+03  0.17300000000E+03 0. -1.
<mgrwt>
<rscale>  2 0.30134434E+03</rscale>
<asrwt>0</asrwt>
<pdfrwt beam="1">  1        1 0.33756754E+00 0.30134434E+03</pdfrwt>
<pdfrwt beam="2">  1       -1 0.19430981E-01 0.30134434E+03</pdfrwt>
<totfact> 0.53174592E+01</totfact>
</mgrwt>
</event>
<event>
 4    1  0.8249026E-001  0.2088707E+03  0.7546771E-02  0.1142463E+00
         -1   -1    0    0    0  501 -0.00000000000E+00  0.00000000000E+00  0.11798768632E+02  0.11798768632E+02  0.00000000000E+00 0.  1.
          1   -1    0    0  502    0  0.00000000000E+00 -0.00000000000E+00 -0.37490610266E+04  0.37490610266E+04  0.00000000000E+00 0. -1.
          6    1    1    2  502    0  0.11324292249E+03 -0.29563410960E+02 -0.16482894437E+04  0.16614707476E+04  0.17300000000E+03 0.  1.
         -6    1    1    2    0  501 -0.11324292249E+03  0.29563410960E+02 -0.20889728142E+04  0.20993890476E+04  0.17300000000E+03 0. -1.
<mgrwt>
<rscale>  2 0.20887067E+03</rscale>
<asrwt>0</asrwt>
<pdfrwt beam="2">  1        1 0.57677878E+00 0.20887067E+03</pdfrwt>
<pdfrwt beam="1">  1       -1 0.18151947E-02 0.20887067E+03</pdfrwt>
<totfact> 0.16210179E+02</totfact>
</mgrwt>
</event>
<event>
 4    1  0.8249026E-001  0.2159414E+03  0.7546771E-02  0.1136946E+00
         -2   -1    0    0    0  501 -0.00000000000E+00  0.00000000000E+00  0.59352472991E+02  0.59352472991E+02  0.00000000000E+00 0.  1.
          2   -1    0    0  502    0  0.00000000000E+00 -0.00000000000E+00 -0.85561056403E+03  0.85561056403E+03  0.00000000000E+00 0. -1.
          6    1    1    2  502    0 -0.81451984121E+02 -0.10033576708E+03 -0.26731930199E+03  0.34364269393E+03  0.17300000000E+03 0. -1.
         -6    1    1    2    0  501  0.81451984121E+02  0.10033576708E+03 -0.52893878905E+03  0.57132034309E+03  0.17300000000E+03 0.  1.
<mgrwt>
<rscale>  2 0.21594141E+03</rscale>
<asrwt>0</asrwt>
<pdfrwt beam="2">  1        2 0.13163240E+00 0.21594141E+03</pdfrwt>
<pdfrwt beam="1">  1       -2 0.91311494E-02 0.21594141E+03</pdfrwt>
<totfact> 0.24807606E+03</totfact>
</mgrwt>
</event>
<event>
 4    1  0.8249026E-001  0.1943260E+03  0.7546771E-02  0.1154616E+00
          2   -1    0    0  502    0  0.00000000000E+00  0.00000000000E+00  0.38605776158E+04  0.38605776158E+04  0.00000000000E+00 0.  1.
         -2   -1    0    0    0  501 -0.00000000000E+00 -0.00000000000E+00 -0.10144512050E+02  0.10144512050E+02  0.00000000000E+00 0. -1.
          6    1    1    2  502    0 -0.76872211365E+02 -0.43866211879E+02  0.22912780241E+04  0.22995037649E+04  0.17300000000E+03 0. -1.
         -6    1    1    2    0  501  0.76872211365E+02  0.43866211879E+02  0.15591550797E+04  0.15712183629E+04  0.17300000000E+03 0. -1.
<mgrwt>
<rscale>  2 0.19432597E+03</rscale>
<asrwt>0</asrwt>
<pdfrwt beam="1">  1        2 0.59393384E+00 0.19432597E+03</pdfrwt>
<pdfrwt beam="2">  1       -2 0.15606973E-02 0.19432597E+03</pdfrwt>
<totfact> 0.64898952E+02</totfact>
</mgrwt>
</event>
<event>
 4    1  0.8249026E-001  0.2499657E+03  0.7546771E-02  0.1113327E+00
          2   -1    0    0  502    0  0.00000000000E+00  0.00000000000E+00  0.37954051535E+04  0.37954051535E+04  0.00000000000E+00 0.  1.
         -2   -1    0    0    0  501 -0.00000000000E+00 -0.00000000000E+00 -0.17447036853E+02  0.17447036853E+02  0.00000000000E+00 0. -1.
          6    1    1    2  502    0 -0.11401543039E+03 -0.13983672685E+03  0.23417918405E+04  0.23550948713E+04  0.17300000000E+03 0.  1.
         -6    1    1    2    0  501  0.11401543039E+03  0.13983672685E+03  0.14361662762E+04  0.14577573191E+04  0.17300000000E+03 0. -1.
<mgrwt>
<rscale>  2 0.24996565E+03</rscale>
<asrwt>0</asrwt>
<pdfrwt beam="1">  1        2 0.58390783E+00 0.24996565E+03</pdfrwt>
<pdfrwt beam="2">  1       -2 0.26841625E-02 0.24996565E+03</pdfrwt>
<totfact> 0.31947912E+02</totfact>
</mgrwt>
</event>
<event>
 4    1  0.8249026E-001  0.1812530E+03  0.7546771E-02  0.1166596E+00
          2   -1    0    0  502    0  0.00000000000E+00  0.00000000000E+00  0.14053642236E+03  0.14053642236E+03  0.00000000000E+00 0.  1.
         -2   -1    0    0    0  501 -0.00000000000E+00 -0.00000000000E+00 -0.23405028924E+03  0.23405028924E+03  0.00000000000E+00 0. -1.
          6    1    1    2  502    0 -0.53799543166E+02  0.54092989441E+01 -0.40230564688E+02  0.18566407756E+03  0.17300000000E+03 0. -1.
         -6    1    1    2    0  501  0.53799543166E+02 -0.54092989441E+01 -0.53283302197E+02  0.18892263404E+03  0.17300000000E+03 0.  1.
<mgrwt>
<rscale>  2 0.18125300E+03</rscale>
<asrwt>0</asrwt>
<pdfrwt beam="1">  1        2 0.21620988E-01 0.18125300E+03</pdfrwt>
<pdfrwt beam="2">  1       -2 0.36007736E-01 0.18125300E+03</pdfrwt>
<totfact> 0.18193189E+03</totfact>
</mgrwt>
</event>
<event>
 4    1  0.8249026E-001  0.1769674E+03  0.7546771E-02  0.1170771E+00
          1   -1    0    0  502    0  0.00000000000E+00  0.00000000000E+00  0.98101705351E+02  0.98101705351E+02  0.00000000000E+00 0. -1.
         -1   -1    0    0    0  501 -0.00000000000E+00 -0.00000000000E+00 -0.33084576728E+03  0.33084576728E+03  0.00000000000E+00 0.  1.
          6    1    1    2  502    0 -0.25467695453E+02  0.27200589786E+02 -0.15655074567E+03  0.23627444121E+03  0.17300000000E+03 0.  1.
         -6    1    1    2    0  501  0.25467695453E+02 -0.27200589786E+02 -0.76193316257E+02  0.19267303143E+03  0.17300000000E+03 0. -1.
<mgrwt>
<rscale>  2 0.17696744E+03</rscale>
<asrwt>0</asrwt>
<pdfrwt beam="1">  1        1 0.15092570E-01 0.17696744E+03</pdfrwt>
<pdfrwt beam="2">  1       -1 0.50899348E-01 0.17696744E+03</pdfrwt>
<totfact> 0.14510456E+03</totfact>
</mgrwt>
</event>
<event>
 4    1  0.8249026E-001  0.2753775E+03  0.7546771E-02  0.1098241E+00
          1   -1    0    0  502    0  0.00000000000E+00  0.00000000000E+00  0.11134477335E+04  0.11134477335E+04  0.00000000000E+00 0. -1.
         -1   -1    0    0    0  501 -0.00000000000E+00 -0.00000000000E+00 -0.71887217724E+02  0.71887217724E+02  0.00000000000E+00 0.  1.
          6    1    1    2  502    0  0.11304878370E+03  0.18199933876E+03  0.38485980025E+03  0.47323340188E+03  0.17300000000E+03 0.  1.
         -6    1    1    2    0  501 -0.11304878370E+03 -0.18199933876E+03  0.65670071552E+03  0.71210154933E+03  0.17300000000E+03 0.  1.
<mgrwt>
<rscale>  2 0.27537754E+03</rscale>
<asrwt>0</asrwt>
<pdfrwt beam="1">  1        1 0.17129964E+00 0.27537754E+03</pdfrwt>
<pdfrwt beam="2">  1       -1 0.11059573E-01 0.27537754E+03</pdfrwt>
<totfact> 0.68876927E+02</totfact>
</mgrwt>
</event>
<event>
 4    1  0.8249026E-001  0.2471672E+03  0.7546771E-02  0.1115108E+00
          2   -1    0    0  502    0  0.00000000000E+00  0.00000000000E+00  0.10266524320E+03  0.10266524320E+03  0.00000000000E+00 0. -1.
         -2   -1    0    0    0  501 -0.00000000000E+00 -0.00000000000E+00 -0.97732429584E+03  0.97732429584E+03  0.00000000000E+00 0.  1.
          6    1    1    2  502    0  0.14443794765E+03  0.10149032322E+03 -0.77504747172E+03  0.81350488004E+03  0.17300000000E+03 0.  1.
         -6    1    1    2    0  501 -0.14443794765E+03 -0.10149032322E+03 -0.99611580919E+02  0.26648465900E+03  0.17300000000E+03 0. -1.
<mgrwt>
<rscale>  2 0.24716716E+03</rscale>
<asrwt>0</asrwt>
<pdfrwt beam="1">  1        2 0.15794652E-01 0.24716716E+03</pdfrwt>
<pdfrwt beam="2">  1       -2 0.15035759E+00 0.24716716E+03</pdfrwt>
<totfact> 0.11597744E+02</totfact>
</mgrwt>
</event>
<event>
 4    1  0.8249026E-001  0.2545908E+03  0.7546771E-02  0.1110437E+00
         -2   -1    0    0    0  501 -0.00000000000E+00  0.00000000000E+00  0.96018422539E+02  0.96018422539E+02  0.00000000000E+00 0. -1.
          2   -1    0    0  502    0  0.00000000000E+00 -0.00000000000E+00 -0.67769598397E+03  0.67769598397E+03  0.00000000000E+00 0.  1.
          6    1    1    2  502    0  0.53577627864E+02 -0.17893264283E+03 -0.26662875486E+03  0.36865613490E+03  0.17300000000E+03 0. -1.
         -6    1    1    2    0  501 -0.53577627864E+02  0.17893264283E+03 -0.31504880656E+03  0.40505827161E+03  0.17300000000E+03 0.  1.
<mgrwt>
<rscale>  2 0.25459076E+03</rscale>
<asrwt>0</asrwt>
<pdfrwt beam="2">  1        2 0.10426092E+00 0.25459076E+03</pdfrwt>
<pdfrwt beam="1">  1       -2 0.14772065E-01 0.25459076E+03</pdfrwt>
<totfact> 0.15312029E+03</totfact>
</mgrwt>
</event>
<event>
 4    1  0.8249026E-001  0.1830731E+03  0.7546771E-02  0.1164862E+00
          1   -1    0    0  502    0  0.00000000000E+00  0.00000000000E+00  0.35323986749E+03  0.35323986749E+03  0.00000000000E+00 0. -1.
         -1   -1    0    0    0  501 -0.00000000000E+00 -0.00000000000E+00 -0.10031412163E+03  0.10031412163E+03  0.00000000000E+00 0.  1.
          6    1    1    2  502    0 -0.14422344820E+02  0.58127217070E+02  0.73686470394E+02  0.19734607499E+03  0.17300000000E+03 0.  1.
         -6    1    1    2    0  501  0.14422344820E+02 -0.58127217070E+02  0.17923927546E+03  0.25620791413E+03  0.17300000000E+03 0. -1.
<mgrwt>
<rscale>  2 0.18307315E+03</rscale>
<asrwt>0</asrwt>
<pdfrwt beam="1">  1        1 0.54344594E-01 0.18307315E+03</pdfrwt>
<pdfrwt beam="2">  1       -1 0.15432942E-01 0.18307315E+03</pdfrwt>
<totfact> 0.21557720E+03</totfact>
</mgrwt>
</event>
<event>
 4    1  0.8249026E-001  0.1885150E+03  0.7546771E-02  0.1159808E+00
          1   -1    0    0  502    0  0.00000000000E+00  0.00000000000E+00  0.22528551395E+03  0.22528551395E+03  0.00000000000E+00 0.  1.
         -1   -1    0    0    0  501 -0.00000000000E+00 -0.00000000000E+00 -0.21959152970E+03  0.21959152970E+03  0.00000000000E+00 0. -1.
          6    1    1    2  502    0  0.23093731868E+02  0.71243042745E+02  0.12089436321E+03  0.22394941091E+03  0.17300000000E+03 0.  1.
         -6    1    1    2    0  501 -0.23093731868E+02 -0.71243042745E+02 -0.11520037897E+03  0.22092763273E+03  0.17300000000E+03 0. -1.
<mgrwt>
<rscale>  2 0.18851496E+03</rscale>
<asrwt>0</asrwt>
<pdfrwt beam="1">  1        1 0.34659310E-01 0.18851496E+03</pdfrwt>
<pdfrwt beam="2">  1       -1 0.33783312E-01 0.18851496E+03</pdfrwt>
<totfact> 0.10447811E+03</totfact>
</mgrwt>
</event>
<event>
 4    1  0.8249026E-001  0.1904889E+03  0.7546771E-02  0.1158021E+00
         -2   -1    0    0    0  501 -0.00000000000E+00  0.00000000000E+00  0.19048610466E+02  0.19048610466E+02  0.00000000000E+00 0.  1.
          2   -1    0    0  502    0  0.00000000000E+00 -0.00000000000E+00 -0.26976989281E+04  0.26976989281E+04  0.00000000000E+00 0. -1.
          6    1    1    2  502    0  0.61811556090E+02  0.50362222140E+02 -0.20757008070E+04  0.20844231485E+04  0.17300000000E+03 0. -1.
         -6    1    1    2    0  501 -0.61811556090E+02 -0.50362222140E+02 -0.60294951072E+03  0.63232439014E+03  0.17300000000E+03 0.  1.
<mgrwt>
<rscale>  2 0.19048890E+03</rscale>
<asrwt>0</asrwt>
<pdfrwt beam="2">  1        2 0.41503048E+00 0.19048890E+03</pdfrwt>
<pdfrwt beam="1">  1       -2 0.29305564E-02 0.19048890E+03</pdfrwt>
<totfact> 0.13832046E+03</totfact>
</mgrwt>
</event>
<event>
 4    1  0.8249026E-001  0.1946659E+03  0.7546771E-02  0.1154319E+00
         -2   -1    0    0    0  501 -0.00000000000E+00  0.00000000000E+00  0.78411535222E+02  0.78411535222E+02  0.00000000000E+00 0.  1.
          2   -1    0    0  502    0  0.00000000000E+00 -0.00000000000E+00 -0.83672443092E+03  0.83672443092E+03  0.00000000000E+00 0. -1.
          6    1    1    2  502    0 -0.88266064442E+02 -0.13225625350E+02 -0.81767871978E+02  0.21114165905E+03  0.17300000000E+03 0.  1.
         -6    1    1    2    0  501  0.88266064442E+02  0.13225625350E+02 -0.67654502372E+03  0.70399430709E+03  0.17300000000E+03 0. -1.
<mgrwt>
<rscale>  2 0.19466591E+03</rscale>
<asrwt>0</asrwt>
<pdfrwt beam="2">  1        2 0.12872683E+00 0.19466591E+03</pdfrwt>
<pdfrwt beam="1">  1       -2 0.12063313E-01 0.19466591E+03</pdfrwt>
<totfact> 0.16362993E+03</totfact>
</mgrwt>
</event>
<event>
 4    1  0.8249026E-001  0.1826459E+03  0.7546771E-02  0.1165267E+00
         -2   -1    0    0    0  501 -0.00000000000E+00  0.00000000000E+00  0.86293181973E+02  0.86293181973E+02  0.00000000000E+00 0.  1.
          2   -1    0    0  502    0  0.00000000000E+00 -0.00000000000E+00 -0.41042062755E+03  0.41042062755E+03  0.00000000000E+00 0. -1.
          6    1    1    2  502    0  0.54856658919E+02  0.20525111731E+02 -0.22191690483E+03  0.28741371904E+03  0.17300000000E+03 0. -1.
         -6    1    1    2    0  501 -0.54856658919E+02 -0.20525111731E+02 -0.10221054074E+03  0.20930009049E+03  0.17300000000E+03 0.  1.
<mgrwt>
<rscale>  2 0.18264592E+03</rscale>
<asrwt>0</asrwt>
<pdfrwt beam="2">  1        2 0.63141634E-01 0.18264592E+03</pdfrwt>
<pdfrwt beam="1">  1       -2 0.13275874E-01 0.18264592E+03</pdfrwt>
<totfact> 0.31941112E+03</totfact>
</mgrwt>
</event>
<event>
 4    1  0.8249026E-001  0.1797884E+03  0.7546771E-02  0.1168008E+00
          1   -1    0    0  502    0  0.00000000000E+00  0.00000000000E+00  0.27140289722E+03  0.27140289722E+03  0.00000000000E+00 0. -1.
         -1   -1    0    0    0  501 -0.00000000000E+00 -0.00000000000E+00 -0.22537089513E+03  0.22537089513E+03  0.00000000000E+00 0.  1.
          6    1    1    2  502    0 -0.11716802217E+02  0.47514067072E+02  0.19358046514E+03  0.26419172301E+03  0.17300000000E+03 0. -1.
         -6    1    1    2    0  501  0.11716802217E+02 -0.47514067072E+02 -0.14754846306E+03  0.23258206933E+03  0.17300000000E+03 0.  1.
<mgrwt>
<rscale>  2 0.17978840E+03</rscale>
<asrwt>0</asrwt>
<pdfrwt beam="1">  1        1 0.41754292E-01 0.17978840E+03</pdfrwt>
<pdfrwt beam="2">  1       -1 0.34672446E-01 0.17978840E+03</pdfrwt>
<totfact> 0.79137824E+02</totfact>
</mgrwt>
</event>
<event>
 4    1  0.8249026E-001  0.1751216E+03  0.7546771E-02  0.1172610E+00
         -3   -1    0    0    0  501 -0.00000000000E+00  0.00000000000E+00  0.23310356054E+03  0.23310356054E+03  0.00000000000E+00 0. -1.
          3   -1    0    0  502    0  0.00000000000E+00 -0.00000000000E+00 -0.15156381299E+03  0.15156381299E+03  0.00000000000E+00 0.  1.
          6    1    1    2  502    0  0.20151077591E+01 -0.27101979353E+02 -0.29100318104E+02  0.17752297445E+03  0.17300000000E+03 0.  1.
         -6    1    1    2    0  501 -0.20151077591E+01  0.27101979353E+02  0.11064006565E+03  0.20714439908E+03  0.17300000000E+03 0. -1.
<mgrwt>
<rscale>  2 0.17512161E+03</rscale>
<asrwt>0</asrwt>
<pdfrwt beam="2">  1        3 0.23317510E-01 0.17512161E+03</pdfrwt>
<pdfrwt beam="1">  1       -3 0.35862086E-01 0.17512161E+03</pdfrwt>
<totfact> 0.31418167E+02</totfact>
</mgrwt>
</event>
<event>
 4    1  0.8249026E-001  0.2051449E+03  0.7546771E-02  0.1145469E+00
          1   -1    0    0  502    0  0.00000000000E+00  0.00000000000E+00  0.26641141185E+03  0.26641141185E+03  0.00000000000E+00 0.  1.
         -1   -1    0    0    0  501 -0.00000000000E+00 -0.00000000000E+00 -0.15842389285E+03  0.15842389285E+03  0.00000000000E+00 0. -1.
          6    1    1    2  502    0 -0.95538373344E+02  0.55025783667E+02  0.42596003314E+02  0.20952049338E+03  0.17300000000E+03 0.  1.
         -6    1    1    2    0  501  0.95538373344E+02 -0.55025783667E+02  0.65391515685E+02  0.21531481132E+03  0.17300000000E+03 0.  1.
<mgrwt>
<rscale>  2 0.20514487E+03</rscale>
<asrwt>0</asrwt>
<pdfrwt beam="1">  1        1 0.40986371E-01 0.20514487E+03</pdfrwt>
<pdfrwt beam="2">  1       -1 0.24372907E-01 0.20514487E+03</pdfrwt>
<totfact> 0.14712448E+03</totfact>
</mgrwt>
</event>
<event>
 4    1  0.8249026E-001  0.1945175E+03  0.7546771E-02  0.1154449E+00
          2   -1    0    0  502    0  0.00000000000E+00  0.00000000000E+00  0.14547525341E+04  0.14547525341E+04  0.00000000000E+00 0. -1.
         -2   -1    0    0    0  501 -0.00000000000E+00 -0.00000000000E+00 -0.28250521148E+02  0.28250521148E+02  0.00000000000E+00 0.  1.
          6    1    1    2  502    0  0.87440627242E+02  0.16192589569E+02  0.92210524547E+03  0.94239861363E+03  0.17300000000E+03 0. -1.
         -6    1    1    2    0  501 -0.87440627242E+02 -0.16192589569E+02  0.50439676746E+03  0.54060444160E+03  0.17300000000E+03 0. -1.
<mgrwt>
<rscale>  2 0.19451751E+03</rscale>
<asrwt>0</asrwt>
<pdfrwt beam="1">  1        2 0.22380802E+00 0.19451751E+03</pdfrwt>
<pdfrwt beam="2">  1       -2 0.43462352E-02 0.19451751E+03</pdfrwt>
<totfact> 0.34863192E+03</totfact>
</mgrwt>
</event>
<event>
 4    1  0.8249026E-001  0.1822388E+03  0.7546771E-02  0.1165654E+00
          2   -1    0    0  502    0  0.00000000000E+00  0.00000000000E+00  0.10369617479E+04  0.10369617479E+04  0.00000000000E+00 0.  1.
         -2   -1    0    0    0  501 -0.00000000000E+00 -0.00000000000E+00 -0.34661166579E+02  0.34661166579E+02  0.00000000000E+00 0. -1.
          6    1    1    2  502    0  0.54718677713E+02 -0.16965792189E+02  0.64885566349E+03  0.67396190088E+03  0.17300000000E+03 0.  1.
         -6    1    1    2    0  501 -0.54718677713E+02  0.16965792189E+02  0.35344491782E+03  0.39766101359E+03  0.17300000000E+03 0. -1.
<mgrwt>
<rscale>  2 0.18223878E+03</rscale>
<asrwt>0</asrwt>
<pdfrwt beam="1">  1        2 0.15953255E+00 0.18223878E+03</pdfrwt>
<pdfrwt beam="2">  1       -2 0.53324880E-02 0.18223878E+03</pdfrwt>
<totfact> 0.43700590E+03</totfact>
</mgrwt>
</event>
<event>
 4    1  0.8249026E-001  0.1789710E+03  0.7546771E-02  0.1168803E+00
          3   -1    0    0  502    0  0.00000000000E+00  0.00000000000E+00  0.27550580122E+04  0.27550580122E+04  0.00000000000E+00 0. -1.
         -3   -1    0    0    0  501 -0.00000000000E+00 -0.00000000000E+00 -0.32134539161E+02  0.32134539161E+02  0.00000000000E+00 0.  1.
          6    1    1    2  502    0 -0.42780383433E+01  0.45643197511E+02  0.24747744138E+04  0.24812373934E+04  0.17300000000E+03 0. -1.
         -6    1    1    2    0  501  0.42780383433E+01 -0.45643197511E+02  0.24814905919E+03  0.30595515794E+03  0.17300000000E+03 0.  1.
<mgrwt>
<rscale>  2 0.17897096E+03</rscale>
<asrwt>0</asrwt>
<pdfrwt beam="1">  1        3 0.42385489E+00 0.17897096E+03</pdfrwt>
<pdfrwt beam="2">  1       -3 0.49437774E-02 0.17897096E+03</pdfrwt>
<totfact> 0.59087467E+00</totfact>
</mgrwt>
</event>
<event>
 4    1  0.8249026E-001  0.1887970E+03  0.7546771E-02  0.1159551E+00
         -2   -1    0    0    0  501 -0.00000000000E+00  0.00000000000E+00  0.14506828442E+03  0.14506828442E+03  0.00000000000E+00 0.  1.
          2   -1    0    0  502    0  0.00000000000E+00 -0.00000000000E+00 -0.26754576674E+03  0.26754576674E+03  0.00000000000E+00 0. -1.
          6    1    1    2  502    0 -0.72123548563E+02 -0.22660328810E+02 -0.12018127076E+03  0.22380311571E+03  0.17300000000E+03 0. -1.
         -6    1    1    2    0  501  0.72123548563E+02  0.22660328810E+02 -0.22962115557E+01  0.18881093545E+03  0.17300000000E+03 0.  1.
<mgrwt>
<rscale>  2 0.18879697E+03</rscale>
<asrwt>0</asrwt>
<pdfrwt beam="2">  1        2 0.41160887E-01 0.18879697E+03</pdfrwt>
<pdfrwt beam="1">  1       -2 0.22318198E-01 0.18879697E+03</pdfrwt>
<totfact> 0.21221043E+03</totfact>
</mgrwt>
</event>
<event>
 4    1  0.8249026E-001  0.1750129E+03  0.7546771E-02  0.1172719E+00
         -1   -1    0    0    0  501 -0.00000000000E+00  0.00000000000E+00  0.22135403390E+02  0.22135403390E+02  0.00000000000E+00 0.  1.
          1   -1    0    0  502    0  0.00000000000E+00 -0.00000000000E+00 -0.14518326615E+04  0.14518326615E+04  0.00000000000E+00 0. -1.
          6    1    1    2  502    0  0.41870802588E+01  0.26133645733E+02 -0.55523473322E+03  0.58216415903E+03  0.17300000000E+03 0.  1.
         -6    1    1    2    0  501 -0.41870802588E+01 -0.26133645733E+02 -0.87446252493E+03  0.89180390590E+03  0.17300000000E+03 0. -1.
<mgrwt>
<rscale>  2 0.17501285E+03</rscale>
<asrwt>0</asrwt>
<pdfrwt beam="2">  1        1 0.22335881E+00 0.17501285E+03</pdfrwt>
<pdfrwt beam="1">  1       -1 0.34054475E-02 0.17501285E+03</pdfrwt>
<totfact> 0.24026139E+03</totfact>
</mgrwt>
</event>
<event>
 4    1  0.8249026E-001  0.1851076E+03  0.7546771E-02  0.1162949E+00
         -1   -1    0    0    0  501 -0.00000000000E+00  0.00000000000E+00  0.12555138095E+02  0.12555138095E+02  0.00000000000E+00 0.  1.
          1   -1    0    0  502    0  0.00000000000E+00 -0.00000000000E+00 -0.29572987839E+04  0.29572987839E+04  0.00000000000E+00 0. -1.
          6    1    1    2  502    0 -0.63772699809E+02 -0.16396750076E+02 -0.18848205248E+04  0.18938883867E+04  0.17300000000E+03 0. -1.
         -6    1    1    2    0  501  0.63772699809E+02  0.16396750076E+02 -0.10599231210E+04  0.10759655353E+04  0.17300000000E+03 0. -1.
<mgrwt>
<rscale>  2 0.18510757E+03</rscale>
<asrwt>0</asrwt>
<pdfrwt beam="2">  1        1 0.45496869E+00 0.18510757E+03</pdfrwt>
<pdfrwt beam="1">  1       -1 0.19315612E-02 0.18510757E+03</pdfrwt>
<totfact> 0.56846362E+02</totfact>
</mgrwt>
</event>
<event>
 4    1  0.8249026E-001  0.2191093E+03  0.7546771E-02  0.1134549E+00
          1   -1    0    0  502    0  0.00000000000E+00  0.00000000000E+00  0.71354169138E+03  0.71354169138E+03  0.00000000000E+00 0.  1.
         -1   -1    0    0    0  501 -0.00000000000E+00 -0.00000000000E+00 -0.74973355677E+02  0.74973355677E+02  0.00000000000E+00 0. -1.
          6    1    1    2  502    0 -0.12423863622E+03  0.51426087612E+02  0.19301033695E+03  0.29199635509E+03  0.17300000000E+03 0. -1.
         -6    1    1    2    0  501  0.12423863622E+03 -0.51426087612E+02  0.44555799875E+03  0.49651869196E+03  0.17300000000E+03 0.  1.
<mgrwt>
<rscale>  2 0.21910929E+03</rscale>
<asrwt>0</asrwt>
<pdfrwt beam="1">  1        1 0.10977564E+00 0.21910929E+03</pdfrwt>
<pdfrwt beam="2">  1       -1 0.11534363E-01 0.21910929E+03</pdfrwt>
<totfact> 0.13351921E+03</totfact>
</mgrwt>
</event>
<event>
 4    1  0.8249026E-001  0.1905240E+03  0.7546771E-02  0.1157990E+00
         -1   -1    0    0    0  501 -0.00000000000E+00  0.00000000000E+00  0.22999317097E+02  0.22999317097E+02  0.00000000000E+00 0.  1.
          1   -1    0    0  502    0  0.00000000000E+00 -0.00000000000E+00 -0.18193201258E+04  0.18193201258E+04  0.00000000000E+00 0. -1.
          6    1    1    2  502    0 -0.79798624082E+02  0.16049943026E+01 -0.56286800394E+03  0.59423882932E+03  0.17300000000E+03 0.  1.
         -6    1    1    2    0  501  0.79798624082E+02 -0.16049943026E+01 -0.12334528048E+04  0.12480806136E+04  0.17300000000E+03 0. -1.
<mgrwt>
<rscale>  2 0.19052400E+03</rscale>
<asrwt>0</asrwt>
<pdfrwt beam="2">  1        1 0.27989545E+00 0.19052400E+03</pdfrwt>
<pdfrwt beam="1">  1       -1 0.35383559E-02 0.19052400E+03</pdfrwt>
<totfact> 0.13115865E+03</totfact>
</mgrwt>
</event>
<event>
 4    1  0.8249026E-001  0.2149598E+03  0.7546771E-02  0.1137697E+00
          2   -1    0    0  502    0  0.00000000000E+00  0.00000000000E+00  0.14061640178E+03  0.14061640178E+03  0.00000000000E+00 0. -1.
         -2   -1    0    0    0  501 -0.00000000000E+00 -0.00000000000E+00 -0.33611718153E+03  0.33611718153E+03  0.00000000000E+00 0.  1.
          6    1    1    2  502    0  0.12190501527E+03 -0.37654960369E+02 -0.13337790580E+03  0.25297706328E+03  0.17300000000E+03 0. -1.
         -6    1    1    2    0  501 -0.12190501527E+03  0.37654960369E+02 -0.62122873952E+02  0.22375652003E+03  0.17300000000E+03 0. -1.
<mgrwt>
<rscale>  2 0.21495983E+03</rscale>
<asrwt>0</asrwt>
<pdfrwt beam="1">  1        2 0.21633293E-01 0.21495983E+03</pdfrwt>
<pdfrwt beam="2">  1       -2 0.51710335E-01 0.21495983E+03</pdfrwt>
<totfact> 0.90688579E+02</totfact>
</mgrwt>
</event>
<event>
 4    1  0.8249026E-001  0.1911882E+03  0.7546771E-02  0.1157394E+00
         -2   -1    0    0    0  501 -0.00000000000E+00  0.00000000000E+00  0.28276978153E+02  0.28276978153E+02  0.00000000000E+00 0. -1.
          2   -1    0    0  502    0  0.00000000000E+00 -0.00000000000E+00 -0.13400929953E+04  0.13400929953E+04  0.00000000000E+00 0.  1.
          6    1    1    2  502    0  0.72566386338E+02  0.36851940130E+02 -0.52720842235E+03  0.56080448154E+03  0.17300000000E+03 0. -1.
         -6    1    1    2    0  501 -0.72566386338E+02 -0.36851940130E+02 -0.78460759478E+03  0.80756549189E+03  0.17300000000E+03 0.  1.
<mgrwt>
<rscale>  2 0.19118825E+03</rscale>
<asrwt>0</asrwt>
<pdfrwt beam="2">  1        2 0.20616815E+00 0.19118825E+03</pdfrwt>
<pdfrwt beam="1">  1       -2 0.43503043E-02 0.19118825E+03</pdfrwt>
<totfact> 0.40108599E+03</totfact>
</mgrwt>
</event>
<event>
 4    1  0.8249026E-001  0.2269549E+03  0.7546771E-02  0.1128802E+00
         -1   -1    0    0    0  501 -0.00000000000E+00  0.00000000000E+00  0.94674551867E+02  0.94674551867E+02  0.00000000000E+00 0. -1.
          1   -1    0    0  502    0  0.00000000000E+00 -0.00000000000E+00 -0.55540465529E+03  0.55540465529E+03  0.00000000000E+00 0.  1.
          6    1    1    2  502    0 -0.12839494816E+03 -0.71373987283E+02 -0.18390785141E+03  0.29211403010E+03  0.17300000000E+03 0. -1.
         -6    1    1    2    0  501  0.12839494816E+03  0.71373987283E+02 -0.27682225202E+03  0.35796517706E+03  0.17300000000E+03 0.  1.
<mgrwt>
<rscale>  2 0.22695486E+03</rscale>
<asrwt>0</asrwt>
<pdfrwt beam="2">  1        1 0.85446869E-01 0.22695486E+03</pdfrwt>
<pdfrwt beam="1">  1       -1 0.14565316E-01 0.22695486E+03</pdfrwt>
<totfact> 0.13174680E+03</totfact>
</mgrwt>
</event>
<event>
 4    1  0.8249026E-001  0.2151869E+03  0.7546771E-02  0.1137523E+00
          2   -1    0    0  502    0  0.00000000000E+00  0.00000000000E+00  0.30841911163E+04  0.30841911163E+04  0.00000000000E+00 0.  1.
         -2   -1    0    0    0  501 -0.00000000000E+00 -0.00000000000E+00 -0.21645935975E+02  0.21645935975E+02  0.00000000000E+00 0. -1.
          6    1    1    2  502    0  0.97557454113E+02  0.82818846510E+02  0.67169060033E+03  0.70531814153E+03  0.17300000000E+03 0. -1.
         -6    1    1    2    0  501 -0.97557454113E+02 -0.82818846510E+02  0.23908545800E+04  0.24005189108E+04  0.17300000000E+03 0.  1.
<mgrwt>
<rscale>  2 0.21518694E+03</rscale>
<asrwt>0</asrwt>
<pdfrwt beam="1">  1        2 0.47449059E+00 0.21518694E+03</pdfrwt>
<pdfrwt beam="2">  1       -2 0.33301464E-02 0.21518694E+03</pdfrwt>
<totfact> 0.68132414E+02</totfact>
</mgrwt>
</event>
<event>
 4    1  0.8249026E-001  0.1731142E+03  0.7546771E-02  0.1174639E+00
         -2   -1    0    0    0  501 -0.00000000000E+00  0.00000000000E+00  0.15048833619E+02  0.15048833619E+02  0.00000000000E+00 0.  1.
          2   -1    0    0  502    0  0.00000000000E+00 -0.00000000000E+00 -0.20380072265E+04  0.20380072265E+04  0.00000000000E+00 0. -1.
          6    1    1    2  502    0 -0.18937379664E+01 -0.59941683631E+01 -0.85627220662E+03  0.87359636453E+03  0.17300000000E+03 0.  1.
         -6    1    1    2    0  501  0.18937379664E+01  0.59941683631E+01 -0.11666861863E+04  0.11794596956E+04  0.17300000000E+03 0. -1.
<mgrwt>
<rscale>  2 0.17311417E+03</rscale>
<asrwt>0</asrwt>
<pdfrwt beam="2">  1        2 0.31353950E+00 0.17311417E+03</pdfrwt>
<pdfrwt beam="1">  1       -2 0.23152057E-02 0.17311417E+03</pdfrwt>
<totfact> 0.44095192E+03</totfact>
</mgrwt>
</event>
<event>
 4    1  0.8249026E-001  0.2452559E+03  0.7546771E-02  0.1116340E+00
          1   -1    0    0  502    0  0.00000000000E+00  0.00000000000E+00  0.42315376272E+04  0.42315376272E+04  0.00000000000E+00 0.  1.
         -1   -1    0    0    0  501 -0.00000000000E+00 -0.00000000000E+00 -0.14577933900E+02  0.14577933900E+02  0.00000000000E+00 0. -1.
          6    1    1    2  502    0 -0.49708106202E+02  0.16658504747E+03  0.24435574602E+04  0.24558345903E+04  0.17300000000E+03 0.  1.
         -6    1    1    2    0  501  0.49708106202E+02 -0.16658504747E+03  0.17734022331E+04  0.17902809708E+04  0.17300000000E+03 0. -1.
<mgrwt>
<rscale>  2 0.24525594E+03</rscale>
<asrwt>0</asrwt>
<pdfrwt beam="1">  1        1 0.65100481E+00 0.24525594E+03</pdfrwt>
<pdfrwt beam="2">  1       -1 0.22427624E-02 0.24525594E+03</pdfrwt>
<totfact> 0.46179542E+01</totfact>
</mgrwt>
</event>
<event>
 4    1  0.8249026E-001  0.1871892E+03  0.7546771E-02  0.1161021E+00
         -4   -1    0    0    0  501 -0.00000000000E+00  0.00000000000E+00  0.20325589102E+03  0.20325589102E+03  0.00000000000E+00 0. -1.
          4   -1    0    0  502    0  0.00000000000E+00 -0.00000000000E+00 -0.25134520208E+03  0.25134520208E+03  0.00000000000E+00 0.  1.
          6    1    1    2  502    0  0.65330469255E+02 -0.29029616013E+02  0.10334926741E+03  0.21382436693E+03  0.17300000000E+03 0. -1.
         -6    1    1    2    0  501 -0.65330469255E+02  0.29029616013E+02 -0.15143857847E+03  0.24077672618E+03  0.17300000000E+03 0.  1.
<mgrwt>
<rscale>  2 0.18718918E+03</rscale>
<asrwt>0</asrwt>
<pdfrwt beam="2">  1        4 0.38668493E-01 0.18718918E+03</pdfrwt>
<pdfrwt beam="1">  1       -4 0.31270137E-01 0.18718918E+03</pdfrwt>
<totfact> 0.11248254E+02</totfact>
</mgrwt>
</event>
<event>
 4    1  0.8249026E-001  0.1938451E+03  0.7546771E-02  0.1155038E+00
          1   -1    0    0  502    0  0.00000000000E+00  0.00000000000E+00  0.94639143551E+02  0.94639143551E+02  0.00000000000E+00 0. -1.
         -1   -1    0    0    0  501 -0.00000000000E+00 -0.00000000000E+00 -0.56138512662E+03  0.56138512662E+03  0.00000000000E+00 0.  1.
          6    1    1    2  502    0 -0.79106810781E+02  0.37269521802E+02 -0.55899872977E+02  0.20174414630E+03  0.17300000000E+03 0. -1.
         -6    1    1    2    0  501  0.79106810781E+02 -0.37269521802E+02 -0.41084611009E+03  0.45428012387E+03  0.17300000000E+03 0.  1.
<mgrwt>
<rscale>  2 0.19384505E+03</rscale>
<asrwt>0</asrwt>
<pdfrwt beam="1">  1        1 0.14559868E-01 0.19384505E+03</pdfrwt>
<pdfrwt beam="2">  1       -1 0.86366943E-01 0.19384505E+03</pdfrwt>
<totfact> 0.53858448E+02</totfact>
</mgrwt>
</event>
<event>
 4    1  0.8249026E-001  0.1917098E+03  0.7546771E-02  0.1156928E+00
         -2   -1    0    0    0  501 -0.00000000000E+00  0.00000000000E+00  0.14592113459E+02  0.14592113459E+02  0.00000000000E+00 0. -1.
          2   -1    0    0  502    0  0.00000000000E+00 -0.00000000000E+00 -0.27201037062E+04  0.27201037062E+04  0.00000000000E+00 0.  1.
          6    1    1    2  502    0  0.57864511641E+02 -0.58952144601E+02 -0.17248534261E+04  0.17354745745E+04  0.17300000000E+03 0.  1.
         -6    1    1    2    0  501 -0.57864511641E+02  0.58952144601E+02 -0.98065816658E+03  0.99922124515E+03  0.17300000000E+03 0. -1.
<mgrwt>
<rscale>  2 0.19170983E+03</rscale>
<asrwt>0</asrwt>
<pdfrwt beam="2">  1        2 0.41847714E+00 0.19170983E+03</pdfrwt>
<pdfrwt beam="1">  1       -2 0.22449424E-02 0.19170983E+03</pdfrwt>
<totfact> 0.19906461E+03</totfact>
</mgrwt>
</event>
<event>
 4    1  0.8249026E-001  0.2306484E+03  0.7546771E-02  0.1126184E+00
          1   -1    0    0  502    0  0.00000000000E+00  0.00000000000E+00  0.59351024830E+03  0.59351024830E+03  0.00000000000E+00 0.  1.
         -1   -1    0    0    0  501 -0.00000000000E+00 -0.00000000000E+00 -0.90011598929E+02  0.90011598929E+02  0.00000000000E+00 0. -1.
          6    1    1    2  502    0  0.15142258390E+03 -0.18462975617E+02  0.27388563433E+03  0.35806706226E+03  0.17300000000E+03 0.  1.
         -6    1    1    2    0  501 -0.15142258390E+03  0.18462975617E+02  0.22961301504E+03  0.32545478497E+03  0.17300000000E+03 0. -1.
<mgrwt>
<rscale>  2 0.23064839E+03</rscale>
<asrwt>0</asrwt>
<pdfrwt beam="1">  1        1 0.91309266E-01 0.23064839E+03</pdfrwt>
<pdfrwt beam="2">  1       -1 0.13847939E-01 0.23064839E+03</pdfrwt>
<totfact> 0.13031031E+03</totfact>
</mgrwt>
</event>
<event>
 4    1  0.8249026E-001  0.2736664E+03  0.7546771E-02  0.1099199E+00
         -2   -1    0    0    0  501 -0.00000000000E+00  0.00000000000E+00  0.10673024796E+03  0.10673024796E+03  0.00000000000E+00 0. -1.
          2   -1    0    0  502    0  0.00000000000E+00 -0.00000000000E+00 -0.70295300469E+03  0.70295300469E+03  0.00000000000E+00 0.  1.
          6    1    1    2  502    0  0.72955660035E+02 -0.19910242617E+03 -0.28106327800E+03  0.39228799456E+03  0.17300000000E+03 0.  1.
         -6    1    1    2    0  501 -0.72955660035E+02  0.19910242617E+03 -0.31515947873E+03  0.41739525809E+03  0.17300000000E+03 0. -1.
<mgrwt>
<rscale>  2 0.27366641E+03</rscale>
<asrwt>0</asrwt>
<pdfrwt beam="2">  1        2 0.10814662E+00 0.27366641E+03</pdfrwt>
<pdfrwt beam="1">  1       -2 0.16420038E-01 0.27366641E+03</pdfrwt>
<totfact> 0.12287311E+03</totfact>
</mgrwt>
</event>
<event>
 4    1  0.8249026E-001  0.2193698E+03  0.7546771E-02  0.1134354E+00
         -1   -1    0    0    0  501 -0.00000000000E+00  0.00000000000E+00  0.10049121647E+03  0.10049121647E+03  0.00000000000E+00 0.  1.
          1   -1    0    0  502    0  0.00000000000E+00 -0.00000000000E+00 -0.48559575168E+03  0.48559575168E+03  0.00000000000E+00 0. -1.
          6    1    1    2  502    0  0.77715445125E+02  0.11024709538E+03 -0.22701748066E+03  0.31568979866E+03  0.17300000000E+03 0. -1.
         -6    1    1    2    0  501 -0.77715445125E+02 -0.11024709538E+03 -0.15808705456E+03  0.27039716949E+03  0.17300000000E+03 0. -1.
<mgrwt>
<rscale>  2 0.21936981E+03</rscale>
<asrwt>0</asrwt>
<pdfrwt beam="2">  1        1 0.74707039E-01 0.21936981E+03</pdfrwt>
<pdfrwt beam="1">  1       -1 0.15460187E-01 0.21936981E+03</pdfrwt>
<totfact> 0.14338705E+03</totfact>
</mgrwt>
</event>
<event>
 4    1  0.8249026E-001  0.1776780E+03  0.7546771E-02  0.1170069E+00
         -1   -1    0    0    0  501 -0.00000000000E+00  0.00000000000E+00  0.24980401889E+03  0.24980401889E+03  0.00000000000E+00 0. -1.
          1   -1    0    0  502    0  0.00000000000E+00 -0.00000000000E+00 -0.13782410281E+03  0.13782410281E+03  0.00000000000E+00 0.  1.
          6    1    1    2  502    0  0.38104246584E+02  0.13730585576E+02  0.13367947674E+00  0.17767802469E+03  0.17300000000E+03 0.  1.
         -6    1    1    2    0  501 -0.38104246584E+02 -0.13730585576E+02  0.11184623660E+03  0.20995009700E+03  0.17300000000E+03 0. -1.
<mgrwt>
<rscale>  2 0.17767797E+03</rscale>
<asrwt>0</asrwt>
<pdfrwt beam="2">  1        1 0.21203708E-01 0.17767797E+03</pdfrwt>
<pdfrwt beam="1">  1       -1 0.38431388E-01 0.17767797E+03</pdfrwt>
<totfact> 0.15505508E+03</totfact>
</mgrwt>
</event>
<event>
 4    1  0.8249026E-001  0.1920169E+03  0.7546771E-02  0.1156655E+00
          2   -1    0    0  502    0  0.00000000000E+00  0.00000000000E+00  0.68991760170E+03  0.68991760170E+03  0.00000000000E+00 0. -1.
         -2   -1    0    0    0  501 -0.00000000000E+00 -0.00000000000E+00 -0.63899005106E+02  0.63899005106E+02  0.00000000000E+00 0.  1.
          6    1    1    2  502    0  0.29511518436E+02 -0.77913877451E+02  0.16053573217E+03  0.25028428501E+03  0.17300000000E+03 0.  1.
         -6    1    1    2    0  501 -0.29511518436E+02  0.77913877451E+02  0.46548286442E+03  0.50353232179E+03  0.17300000000E+03 0. -1.
<mgrwt>
<rscale>  2 0.19201693E+03</rscale>
<asrwt>0</asrwt>
<pdfrwt beam="1">  1        2 0.10614116E+00 0.19201693E+03</pdfrwt>
<pdfrwt beam="2">  1       -2 0.98306167E-02 0.19201693E+03</pdfrwt>
<totfact> 0.28804644E+03</totfact>
</mgrwt>
</event>
<event>
 4    1  0.8249026E-001  0.1851461E+03  0.7546771E-02  0.1162914E+00
         -2   -1    0    0    0  501 -0.00000000000E+00  0.00000000000E+00  0.31662177695E+03  0.31662177695E+03  0.00000000000E+00 0. -1.
          2   -1    0    0  502    0  0.00000000000E+00 -0.00000000000E+00 -0.13196480817E+03  0.13196480817E+03  0.00000000000E+00 0.  1.
          6    1    1    2  502    0 -0.65228527228E+02  0.97629745075E+01  0.18738000406E+03  0.26342046685E+03  0.17300000000E+03 0. -1.
         -6    1    1    2    0  501  0.65228527228E+02 -0.97629745075E+01 -0.27230352755E+01  0.18516611827E+03  0.17300000000E+03 0.  1.
<mgrwt>
<rscale>  2 0.18514609E+03</rscale>
<asrwt>0</asrwt>
<pdfrwt beam="2">  1        2 0.20302278E-01 0.18514609E+03</pdfrwt>
<pdfrwt beam="1">  1       -2 0.48711042E-01 0.18514609E+03</pdfrwt>
<totfact> 0.10942254E+03</totfact>
</mgrwt>
</event>
<event>
 4    1  0.8249026E-001  0.1894540E+03  0.7546771E-02  0.1158955E+00
          2   -1    0    0  502    0  0.00000000000E+00  0.00000000000E+00  0.38687080944E+03  0.38687080944E+03  0.00000000000E+00 0. -1.
         -2   -1    0    0    0  501 -0.00000000000E+00 -0.00000000000E+00 -0.94922659053E+02  0.94922659053E+02  0.00000000000E+00 0.  1.
          6    1    1    2  502    0 -0.47913685642E+02  0.60564945665E+02  0.10975855637E+03  0.21895153484E+03  0.17300000000E+03 0.  1.
         -6    1    1    2    0  501  0.47913685642E+02 -0.60564945665E+02  0.18218959402E+03  0.26284193365E+03  0.17300000000E+03 0. -1.
<mgrwt>
<rscale>  2 0.18945404E+03</rscale>
<asrwt>0</asrwt>
<pdfrwt beam="1">  1        2 0.59518585E-01 0.18945404E+03</pdfrwt>
<pdfrwt beam="2">  1       -2 0.14603486E-01 0.18945404E+03</pdfrwt>
<totfact> 0.29179540E+03</totfact>
</mgrwt>
</event>
<event>
 4    1  0.8249026E-001  0.1893936E+03  0.7546771E-02  0.1159009E+00
         -2   -1    0    0    0  501 -0.00000000000E+00  0.00000000000E+00  0.59433535150E+02  0.59433535150E+02  0.00000000000E+00 0. -1.
          2   -1    0    0  502    0  0.00000000000E+00 -0.00000000000E+00 -0.66436574801E+03  0.66436574801E+03  0.00000000000E+00 0.  1.
          6    1    1    2  502    0  0.40373220839E+02  0.65657599610E+02 -0.19295347621E+03  0.27037189449E+03  0.17300000000E+03 0. -1.
         -6    1    1    2    0  501 -0.40373220839E+02 -0.65657599610E+02 -0.41197873665E+03  0.45342738867E+03  0.17300000000E+03 0.  1.
<mgrwt>
<rscale>  2 0.18939355E+03</rscale>
<asrwt>0</asrwt>
<pdfrwt beam="2">  1        2 0.10221012E+00 0.18939355E+03</pdfrwt>
<pdfrwt beam="1">  1       -2 0.91436208E-02 0.18939355E+03</pdfrwt>
<totfact> 0.33762597E+03</totfact>
</mgrwt>
</event>
<event>
 4    1  0.8249026E-001  0.1879281E+03  0.7546771E-02  0.1160343E+00
          1   -1    0    0  502    0  0.00000000000E+00  0.00000000000E+00  0.12572982533E+03  0.12572982533E+03  0.00000000000E+00 0. -1.
         -1   -1    0    0    0  501 -0.00000000000E+00 -0.00000000000E+00 -0.28292724231E+03  0.28292724231E+03  0.00000000000E+00 0.  1.
          6    1    1    2  502    0  0.83159692567E+01  0.72930110857E+02 -0.61284054325E+02  0.19766813534E+03  0.17300000000E+03 0.  1.
         -6    1    1    2    0  501 -0.83159692567E+01 -0.72930110857E+02 -0.95913362654E+02  0.21098893229E+03  0.17300000000E+03 0. -1.
<mgrwt>
<rscale>  2 0.18792806E+03</rscale>
<asrwt>0</asrwt>
<pdfrwt beam="1">  1        1 0.19343050E-01 0.18792806E+03</pdfrwt>
<pdfrwt beam="2">  1       -1 0.43527268E-01 0.18792806E+03</pdfrwt>
<totfact> 0.14008145E+03</totfact>
</mgrwt>
</event>
<event>
 4    1  0.8249026E-001  0.1918574E+03  0.7546771E-02  0.1156797E+00
         -1   -1    0    0    0  501 -0.00000000000E+00  0.00000000000E+00  0.13634119148E+03  0.13634119148E+03  0.00000000000E+00 0.  1.
          1   -1    0    0  502    0  0.00000000000E+00 -0.00000000000E+00 -0.47580737480E+03  0.47580737480E+03  0.00000000000E+00 0. -1.
          6    1    1    2  502    0  0.82716047928E+02 -0.61893678156E+01 -0.37104243065E+03  0.41771011264E+03  0.17300000000E+03 0. -1.
         -6    1    1    2    0  501 -0.82716047928E+02  0.61893678156E+01  0.31576247321E+02  0.19443845364E+03  0.17300000000E+03 0.  1.
<mgrwt>
<rscale>  2 0.19185738E+03</rscale>
<asrwt>0</asrwt>
<pdfrwt beam="2">  1        1 0.73201135E-01 0.19185738E+03</pdfrwt>
<pdfrwt beam="1">  1       -1 0.20975568E-01 0.19185738E+03</pdfrwt>
<totfact> 0.90093338E+02</totfact>
</mgrwt>
</event>
<event>
 4    1  0.8249026E-001  0.2086867E+03  0.7546771E-02  0.1142610E+00
         -1   -1    0    0    0  501 -0.00000000000E+00  0.00000000000E+00  0.11472895761E+03  0.11472895761E+03  0.00000000000E+00 0. -1.
          1   -1    0    0  502    0  0.00000000000E+00 -0.00000000000E+00 -0.49392666062E+03  0.49392666062E+03  0.00000000000E+00 0.  1.
          6    1    1    2  502    0  0.39601177637E+02  0.10978570508E+03 -0.43178979268E+02  0.21310696507E+03  0.17300000000E+03 0.  1.
         -6    1    1    2    0  501 -0.39601177637E+02 -0.10978570508E+03 -0.33601872375E+03  0.39554865316E+03  0.17300000000E+03 0. -1.
<mgrwt>
<rscale>  2 0.20868674E+03</rscale>
<asrwt>0</asrwt>
<pdfrwt beam="2">  1        1 0.75988716E-01 0.20868674E+03</pdfrwt>
<pdfrwt beam="1">  1       -1 0.17650609E-01 0.20868674E+03</pdfrwt>
<totfact> 0.11341043E+03</totfact>
</mgrwt>
</event>
<event>
 4    1  0.8249026E-001  0.1756800E+03  0.7546771E-02  0.1172051E+00
         -1   -1    0    0    0  501 -0.00000000000E+00  0.00000000000E+00  0.25399206744E+03  0.25399206744E+03  0.00000000000E+00 0.  1.
          1   -1    0    0  502    0  0.00000000000E+00 -0.00000000000E+00 -0.14946021039E+03  0.14946021039E+03  0.00000000000E+00 0. -1.
          6    1    1    2  502    0  0.37558783689E+01  0.30337132191E+02 -0.34963945420E+02  0.17912544680E+03  0.17300000000E+03 0. -1.
         -6    1    1    2    0  501 -0.37558783689E+01 -0.30337132191E+02  0.13949580247E+03  0.22432683103E+03  0.17300000000E+03 0.  1.
<mgrwt>
<rscale>  2 0.17567996E+03</rscale>
<asrwt>0</asrwt>
<pdfrwt beam="2">  1        1 0.22993879E-01 0.17567996E+03</pdfrwt>
<pdfrwt beam="1">  1       -1 0.39075703E-01 0.17567996E+03</pdfrwt>
<totfact> 0.13579087E+03</totfact>
</mgrwt>
</event>
<event>
 4    1  0.8249026E-001  0.2245334E+03  0.7546771E-02  0.1130548E+00
          2   -1    0    0  502    0  0.00000000000E+00  0.00000000000E+00  0.10231240637E+04  0.10231240637E+04  0.00000000000E+00 0.  1.
         -2   -1    0    0    0  501 -0.00000000000E+00 -0.00000000000E+00 -0.61807270222E+02  0.61807270222E+02  0.00000000000E+00 0. -1.
          6    1    1    2  502    0  0.31216155621E+02  0.13968461618E+03  0.72491919133E+03  0.75889595751E+03  0.17300000000E+03 0.  1.
         -6    1    1    2    0  501 -0.31216155621E+02 -0.13968461618E+03  0.23639760214E+03  0.32603537640E+03  0.17300000000E+03 0. -1.
<mgrwt>
<rscale>  2 0.22453338E+03</rscale>
<asrwt>0</asrwt>
<pdfrwt beam="1">  1        2 0.15740369E+00 0.22453338E+03</pdfrwt>
<pdfrwt beam="2">  1       -2 0.95088116E-02 0.22453338E+03</pdfrwt>
<totfact> 0.18255312E+03</totfact>
</mgrwt>
</event>
<event>
 4    1  0.8249026E-001  0.2377825E+03  0.7546771E-02  0.1121279E+00
         -2   -1    0    0    0  501 -0.00000000000E+00  0.00000000000E+00  0.79226281366E+02  0.79226281366E+02  0.00000000000E+00 0. -1.
          2   -1    0    0  502    0  0.00000000000E+00 -0.00000000000E+00 -0.73395924787E+03  0.73395924787E+03  0.00000000000E+00 0.  1.
          6    1    1    2  502    0  0.15530032793E+03 -0.49933242069E+02 -0.39498694819E+03  0.46103710236E+03  0.17300000000E+03 0. -1.
         -6    1    1    2    0  501 -0.15530032793E+03  0.49933242069E+02 -0.25974601832E+03  0.35214842687E+03  0.17300000000E+03 0.  1.
<mgrwt>
<rscale>  2 0.23778251E+03</rscale>
<asrwt>0</asrwt>
<pdfrwt beam="2">  1        2 0.11291680E+00 0.23778251E+03</pdfrwt>
<pdfrwt beam="1">  1       -2 0.12188659E-01 0.23778251E+03</pdfrwt>
<totfact> 0.19017864E+03</totfact>
</mgrwt>
</event>
<event>
 4    1  0.8249026E-001  0.2117969E+03  0.7546771E-02  0.1140151E+00
          2   -1    0    0  502    0  0.00000000000E+00  0.00000000000E+00  0.44191363732E+03  0.44191363732E+03  0.00000000000E+00 0.  1.
         -2   -1    0    0    0  501 -0.00000000000E+00 -0.00000000000E+00 -0.16709344250E+03  0.16709344250E+03  0.00000000000E+00 0. -1.
          6    1    1    2  502    0 -0.77472236064E+02 -0.94482657289E+02 -0.53362170314E+02  0.21841575289E+03  0.17300000000E+03 0. -1.
         -6    1    1    2    0  501  0.77472236064E+02  0.94482657289E+02  0.32818236514E+03  0.39059132693E+03  0.17300000000E+03 0.  1.
<mgrwt>
<rscale>  2 0.21179688E+03</rscale>
<asrwt>0</asrwt>
<pdfrwt beam="1">  1        2 0.67986713E-01 0.21179688E+03</pdfrwt>
<pdfrwt beam="2">  1       -2 0.25706684E-01 0.21179688E+03</pdfrwt>
<totfact> 0.96703189E+02</totfact>
</mgrwt>
</event>
<event>
 4    1  0.8249026E-001  0.4974082E+03  0.7546771E-02  0.1014458E+00
          1   -1    0    0  502    0  0.00000000000E+00  0.00000000000E+00  0.37065018132E+03  0.37065018132E+03  0.00000000000E+00 0. -1.
         -1   -1    0    0    0  501 -0.00000000000E+00 -0.00000000000E+00 -0.70336723828E+03  0.70336723828E+03  0.00000000000E+00 0.  1.
          6    1    1    2  502    0 -0.66194140898E+02  0.46163211335E+03 -0.28759777415E+03  0.57456709970E+03  0.17300000000E+03 0.  1.
         -6    1    1    2    0  501  0.66194140898E+02 -0.46163211335E+03 -0.45119282805E+02  0.49945031990E+03  0.17300000000E+03 0. -1.
<mgrwt>
<rscale>  2 0.49740815E+03</rscale>
<asrwt>0</asrwt>
<pdfrwt beam="1">  1        1 0.57023105E-01 0.49740815E+03</pdfrwt>
<pdfrwt beam="2">  1       -1 0.10821034E+00 0.49740815E+03</pdfrwt>
<totfact> 0.55047772E+01</totfact>
</mgrwt>
</event>
<event>
 4    1  0.8249026E-001  0.2533393E+03  0.7546771E-02  0.1111212E+00
          1   -1    0    0  502    0  0.00000000000E+00  0.00000000000E+00  0.22207847526E+03  0.22207847526E+03  0.00000000000E+00 0.  1.
         -1   -1    0    0    0  501 -0.00000000000E+00 -0.00000000000E+00 -0.77558256570E+03  0.77558256570E+03  0.00000000000E+00 0. -1.
          6    1    1    2  502    0  0.18409958209E+03  0.18951294473E+02 -0.67186112735E+03  0.71803773029E+03  0.17300000000E+03 0. -1.
         -6    1    1    2    0  501 -0.18409958209E+03 -0.18951294473E+02  0.11835703690E+03  0.27962331067E+03  0.17300000000E+03 0.  1.
<mgrwt>
<rscale>  2 0.25333931E+03</rscale>
<asrwt>0</asrwt>
<pdfrwt beam="1">  1        1 0.34165920E-01 0.25333931E+03</pdfrwt>
<pdfrwt beam="2">  1       -1 0.11932039E+00 0.25333931E+03</pdfrwt>
<totfact> 0.87060281E+01</totfact>
</mgrwt>
</event>
<event>
 4    1  0.8249026E-001  0.1861639E+03  0.7546771E-02  0.1161967E+00
          1   -1    0    0  502    0  0.00000000000E+00  0.00000000000E+00  0.75458154505E+03  0.75458154505E+03  0.00000000000E+00 0.  1.
         -1   -1    0    0    0  501 -0.00000000000E+00 -0.00000000000E+00 -0.47831453416E+02  0.47831453416E+02  0.00000000000E+00 0. -1.
          6    1    1    2  502    0 -0.34967838059E+02  0.59205159294E+02  0.27335575726E+03  0.33072703339E+03  0.17300000000E+03 0. -1.
         -6    1    1    2    0  501  0.34967838059E+02 -0.59205159294E+02  0.43339433437E+03  0.47168596507E+03  0.17300000000E+03 0.  1.
<mgrwt>
<rscale>  2 0.18616391E+03</rscale>
<asrwt>0</asrwt>
<pdfrwt beam="1">  1        1 0.11608946E+00 0.18616391E+03</pdfrwt>
<pdfrwt beam="2">  1       -1 0.73586857E-02 0.18616391E+03</pdfrwt>
<totfact> 0.24452889E+03</totfact>
</mgrwt>
</event>
<event>
 4    1  0.8249026E-001  0.1841958E+03  0.7546771E-02  0.1163803E+00
         -1   -1    0    0    0  501 -0.00000000000E+00  0.00000000000E+00  0.12765764616E+03  0.12765764616E+03  0.00000000000E+00 0.  1.
          1   -1    0    0  502    0  0.00000000000E+00 -0.00000000000E+00 -0.28502149517E+03  0.28502149517E+03  0.00000000000E+00 0. -1.
          6    1    1    2  502    0 -0.57798193700E+02  0.25660347888E+02 -0.13230240505E+03  0.22678626729E+03  0.17300000000E+03 0.  1.
         -6    1    1    2    0  501  0.57798193700E+02 -0.25660347888E+02 -0.25061443959E+02  0.18589287405E+03  0.17300000000E+03 0.  1.
<mgrwt>
<rscale>  2 0.18419578E+03</rscale>
<asrwt>0</asrwt>
<pdfrwt beam="2">  1        1 0.43849460E-01 0.18419578E+03</pdfrwt>
<pdfrwt beam="1">  1       -1 0.19639638E-01 0.18419578E+03</pdfrwt>
<totfact> 0.19194303E+03</totfact>
</mgrwt>
</event>
<event>
 4    1  0.8249026E-001  0.1755701E+03  0.7546771E-02  0.1172160E+00
         -3   -1    0    0    0  501 -0.00000000000E+00  0.00000000000E+00  0.32097627568E+03  0.32097627568E+03  0.00000000000E+00 0.  1.
          3   -1    0    0  502    0  0.00000000000E+00 -0.00000000000E+00 -0.98266621643E+02  0.98266621643E+02  0.00000000000E+00 0. -1.
          6    1    1    2  502    0  0.28612799006E+02 -0.87852408287E+01  0.79763459632E+02  0.19283952452E+03  0.17300000000E+03 0. -1.
         -6    1    1    2    0  501 -0.28612799006E+02  0.87852408287E+01  0.14294619441E+03  0.22640337281E+03  0.17300000000E+03 0.  1.
<mgrwt>
<rscale>  2 0.17557014E+03</rscale>
<asrwt>0</asrwt>
<pdfrwt beam="2">  1        3 0.15117942E-01 0.17557014E+03</pdfrwt>
<pdfrwt beam="1">  1       -3 0.49380965E-01 0.17557014E+03</pdfrwt>
<totfact> 0.36068314E+02</totfact>
</mgrwt>
</event>
<event>
 4    1  0.8249026E-001  0.3610799E+03  0.7546771E-02  0.1058157E+00
         -2   -1    0    0    0  501 -0.00000000000E+00  0.00000000000E+00  0.75459304191E+02  0.75459304191E+02  0.00000000000E+00 0.  1.
          2   -1    0    0  502    0  0.00000000000E+00 -0.00000000000E+00 -0.21679241427E+04  0.21679241427E+04  0.00000000000E+00 0. -1.
          6    1    1    2  502    0  0.23364748894E+03  0.21414608818E+03 -0.15516360399E+04  0.15930954449E+04  0.17300000000E+03 0.  1.
         -6    1    1    2    0  501 -0.23364748894E+03 -0.21414608818E+03 -0.54082879867E+03  0.65028800208E+03  0.17300000000E+03 0. -1.
<mgrwt>
<rscale>  2 0.36107990E+03</rscale>
<asrwt>0</asrwt>
<pdfrwt beam="2">  1        2 0.33352684E+00 0.36107990E+03</pdfrwt>
<pdfrwt beam="1">  1       -2 0.11609122E-01 0.36107990E+03</pdfrwt>
<totfact> 0.31132699E+02</totfact>
</mgrwt>
</event>
<event>
 4    1  0.8249026E-001  0.2392768E+03  0.7546771E-02  0.1120276E+00
         -2   -1    0    0    0  501 -0.00000000000E+00  0.00000000000E+00  0.11303194254E+03  0.11303194254E+03  0.00000000000E+00 0.  1.
          2   -1    0    0  502    0  0.00000000000E+00 -0.00000000000E+00 -0.52792434640E+03  0.52792434640E+03  0.00000000000E+00 0. -1.
          6    1    1    2  502    0  0.22533677853E+02 -0.16375781735E+03 -0.27197048360E+03  0.36224485273E+03  0.17300000000E+03 0. -1.
         -6    1    1    2    0  501 -0.22533677853E+02  0.16375781735E+03 -0.14292192026E+03  0.27871143620E+03  0.17300000000E+03 0. -1.
<mgrwt>
<rscale>  2 0.23927680E+03</rscale>
<asrwt>0</asrwt>
<pdfrwt beam="2">  1        2 0.81219131E-01 0.23927680E+03</pdfrwt>
<pdfrwt beam="1">  1       -2 0.17389529E-01 0.23927680E+03</pdfrwt>
<totfact> 0.15591267E+03</totfact>
</mgrwt>
</event>
<event>
 4    1  0.8249026E-001  0.2549630E+03  0.7546771E-02  0.1110208E+00
          2   -1    0    0  502    0  0.00000000000E+00  0.00000000000E+00  0.15207416392E+04  0.15207416392E+04  0.00000000000E+00 0. -1.
         -2   -1    0    0    0  501 -0.00000000000E+00 -0.00000000000E+00 -0.80846680459E+02  0.80846680459E+02  0.00000000000E+00 0.  1.
          6    1    1    2  502    0  0.16041428981E+03 -0.96666441818E+02  0.12696835147E+04  0.12950298733E+04  0.17300000000E+03 0. -1.
         -6    1    1    2    0  501 -0.16041428981E+03  0.96666441818E+02  0.17021144413E+03  0.30655844640E+03  0.17300000000E+03 0.  1.
<mgrwt>
<rscale>  2 0.25496303E+03</rscale>
<asrwt>0</asrwt>
<pdfrwt beam="1">  1        2 0.23396023E+00 0.25496303E+03</pdfrwt>
<pdfrwt beam="2">  1       -2 0.12437952E-01 0.25496303E+03</pdfrwt>
<totfact> 0.62340910E+02</totfact>
</mgrwt>
</event>
<event>
 4    1  0.8249026E-001  0.2650244E+03  0.7546771E-02  0.1104162E+00
         -2   -1    0    0    0  501 -0.00000000000E+00  0.00000000000E+00  0.39561590995E+02  0.39561590995E+02  0.00000000000E+00 0.  1.
          2   -1    0    0  502    0  0.00000000000E+00 -0.00000000000E+00 -0.19268926402E+04  0.19268926402E+04  0.00000000000E+00 0. -1.
          6    1    1    2  502    0  0.47937885298E+01  0.20071361288E+03 -0.66798220646E+03  0.71863632176E+03  0.17300000000E+03 0.  1.
         -6    1    1    2    0  501 -0.47937885298E+01 -0.20071361288E+03 -0.12193488428E+04  0.12478179095E+04  0.17300000000E+03 0.  1.
<mgrwt>
<rscale>  2 0.26502440E+03</rscale>
<asrwt>0</asrwt>
<pdfrwt beam="2">  1        2 0.29644508E+00 0.26502440E+03</pdfrwt>
<pdfrwt beam="1">  1       -2 0.60863975E-02 0.26502440E+03</pdfrwt>
<totfact> 0.11760834E+03</totfact>
</mgrwt>
</event>
<event>
 4    1  0.8249026E-001  0.2349180E+03  0.7546771E-02  0.1123225E+00
         -2   -1    0    0    0  501 -0.00000000000E+00  0.00000000000E+00  0.12591926813E+03  0.12591926813E+03  0.00000000000E+00 0. -1.
          2   -1    0    0  502    0  0.00000000000E+00 -0.00000000000E+00 -0.43829301663E+03  0.43829301663E+03  0.00000000000E+00 0.  1.
          6    1    1    2  502    0 -0.55299081106E+02 -0.14899487236E+03 -0.15408094673E+03  0.28094020450E+03  0.17300000000E+03 0. -1.
         -6    1    1    2    0  501  0.55299081106E+02  0.14899487236E+03 -0.15829280178E+03  0.28327208026E+03  0.17300000000E+03 0.  1.
<mgrwt>
<rscale>  2 0.23491799E+03</rscale>
<asrwt>0</asrwt>
<pdfrwt beam="2">  1        2 0.67429696E-01 0.23491799E+03</pdfrwt>
<pdfrwt beam="1">  1       -2 0.19372195E-01 0.23491799E+03</pdfrwt>
<totfact> 0.15972217E+03</totfact>
</mgrwt>
</event>
<event>
 4    1  0.8249026E-001  0.1773659E+03  0.7546771E-02  0.1170377E+00
         -1   -1    0    0    0  501 -0.00000000000E+00  0.00000000000E+00  0.22200221768E+03  0.22200221768E+03  0.00000000000E+00 0.  1.
          1   -1    0    0  502    0  0.00000000000E+00 -0.00000000000E+00 -0.14231874911E+03  0.14231874911E+03  0.00000000000E+00 0. -1.
          6    1    1    2  502    0  0.24559097657E+02  0.30438393458E+02  0.27871464957E+02  0.17954237281E+03  0.17300000000E+03 0. -1.
         -6    1    1    2    0  501 -0.24559097657E+02 -0.30438393458E+02  0.51812003617E+02  0.18477859398E+03  0.17300000000E+03 0.  1.
<mgrwt>
<rscale>  2 0.17736585E+03</rscale>
<asrwt>0</asrwt>
<pdfrwt beam="2">  1        1 0.21895192E-01 0.17736585E+03</pdfrwt>
<pdfrwt beam="1">  1       -1 0.34154187E-01 0.17736585E+03</pdfrwt>
<totfact> 0.18267064E+03</totfact>
</mgrwt>
</event>
<event>
 4    1  0.8249026E-001  0.2703435E+03  0.7546771E-02  0.1101083E+00
         -1   -1    0    0    0  501 -0.00000000000E+00  0.00000000000E+00  0.20234516866E+03  0.20234516866E+03  0.00000000000E+00 0. -1.
          1   -1    0    0  502    0  0.00000000000E+00 -0.00000000000E+00 -0.55387854407E+03  0.55387854407E+03  0.00000000000E+00 0.  1.
          6    1    1    2  502    0 -0.17416367970E+03  0.11324149717E+03 -0.39878359229E+03  0.48178208506E+03  0.17300000000E+03 0.  1.
         -6    1    1    2    0  501  0.17416367970E+03 -0.11324149717E+03  0.47250216872E+02  0.27444162768E+03  0.17300000000E+03 0. -1.
<mgrwt>
<rscale>  2 0.27034353E+03</rscale>
<asrwt>0</asrwt>
<pdfrwt beam="2">  1        1 0.85212084E-01 0.27034353E+03</pdfrwt>
<pdfrwt beam="1">  1       -1 0.31130026E-01 0.27034353E+03</pdfrwt>
<totfact> 0.37946383E+02</totfact>
</mgrwt>
</event>
<event>
 4    1  0.8249026E-001  0.2379338E+03  0.7546771E-02  0.1121177E+00
          2   -1    0    0  502    0  0.00000000000E+00  0.00000000000E+00  0.12391048540E+03  0.12391048540E+03  0.00000000000E+00 0.  1.
         -2   -1    0    0    0  501 -0.00000000000E+00 -0.00000000000E+00 -0.47036261161E+03  0.47036261161E+03  0.00000000000E+00 0. -1.
          6    1    1    2  502    0  0.14125363032E+03  0.82042165996E+02 -0.12292351717E+03  0.26781093360E+03  0.17300000000E+03 0. -1.
         -6    1    1    2    0  501 -0.14125363032E+03 -0.82042165996E+02 -0.22352860904E+03  0.32646216341E+03  0.17300000000E+03 0.  1.
<mgrwt>
<rscale>  2 0.23793383E+03</rscale>
<asrwt>0</asrwt>
<pdfrwt beam="1">  1        2 0.19063152E-01 0.23793383E+03</pdfrwt>
<pdfrwt beam="2">  1       -2 0.72363479E-01 0.23793383E+03</pdfrwt>
<totfact> 0.52150189E+02</totfact>
</mgrwt>
</event>
<event>
 4    1  0.8249026E-001  0.1855093E+03  0.7546771E-02  0.1162575E+00
          1   -1    0    0  502    0  0.00000000000E+00  0.00000000000E+00  0.23431794822E+02  0.23431794822E+02  0.00000000000E+00 0. -1.
         -1   -1    0    0    0  501 -0.00000000000E+00 -0.00000000000E+00 -0.16660619653E+04  0.16660619653E+04  0.00000000000E+00 0.  1.
          6    1    1    2  502    0 -0.58485195175E+02 -0.32621827958E+02 -0.53055166704E+03  0.56204872842E+03  0.17300000000E+03 0.  1.
         -6    1    1    2    0  501  0.58485195175E+02  0.32621827958E+02 -0.11120785035E+04  0.11274450317E+04  0.17300000000E+03 0.  1.
<mgrwt>
<rscale>  2 0.18550930E+03</rscale>
<asrwt>0</asrwt>
<pdfrwt beam="1">  1        1 0.36048921E-02 0.18550930E+03</pdfrwt>
<pdfrwt beam="2">  1       -1 0.25631718E+00 0.18550930E+03</pdfrwt>
<totfact> 0.19169620E+02</totfact>
</mgrwt>
</event>
<event>
 4    1  0.8249026E-001  0.1790300E+03  0.7546771E-02  0.1168745E+00
          1   -1    0    0  502    0  0.00000000000E+00  0.00000000000E+00  0.20051642217E+04  0.20051642217E+04  0.00000000000E+00 0. -1.
         -1   -1    0    0    0  501 -0.00000000000E+00 -0.00000000000E+00 -0.16101650435E+02  0.16101650435E+02  0.00000000000E+00 0.  1.
          6    1    1    2  502    0  0.43853159094E+02 -0.14129046242E+02  0.10807024358E+04  0.10954311864E+04  0.17300000000E+03 0. -1.
         -6    1    1    2    0  501 -0.43853159094E+02  0.14129046242E+02  0.90836013551E+03  0.92583468573E+03  0.17300000000E+03 0.  1.
<mgrwt>
<rscale>  2 0.17902997E+03</rscale>
<asrwt>0</asrwt>
<pdfrwt beam="1">  1        1 0.30848660E+00 0.17902997E+03</pdfrwt>
<pdfrwt beam="2">  1       -1 0.24771786E-02 0.17902997E+03</pdfrwt>
<totfact> 0.16825607E+03</totfact>
</mgrwt>
</event>
<event>
 4    1  0.8249026E-001  0.2105059E+03  0.7546771E-02  0.1141166E+00
         -2   -1    0    0    0  501 -0.00000000000E+00  0.00000000000E+00  0.16651774561E+03  0.16651774561E+03  0.00000000000E+00 0. -1.
          2   -1    0    0  502    0  0.00000000000E+00 -0.00000000000E+00 -0.39084962829E+03  0.39084962829E+03  0.00000000000E+00 0.  1.
          6    1    1    2  502    0 -0.10758807600E+03 -0.52995843983E+02 -0.26960099276E+03  0.34204889836E+03  0.17300000000E+03 0.  1.
         -6    1    1    2    0  501  0.10758807600E+03  0.52995843983E+02  0.45269110075E+02  0.21531847553E+03  0.17300000000E+03 0. -1.
<mgrwt>
<rscale>  2 0.21050595E+03</rscale>
<asrwt>0</asrwt>
<pdfrwt beam="2">  1        2 0.60130711E-01 0.21050595E+03</pdfrwt>
<pdfrwt beam="1">  1       -2 0.25618115E-01 0.21050595E+03</pdfrwt>
<totfact> 0.11121116E+03</totfact>
</mgrwt>
</event>
<event>
 4    1  0.8249026E-001  0.1784665E+03  0.7546771E-02  0.1169295E+00
         -2   -1    0    0    0  501 -0.00000000000E+00  0.00000000000E+00  0.40223314238E+02  0.40223314238E+02  0.00000000000E+00 0.  1.
          2   -1    0    0  502    0  0.00000000000E+00 -0.00000000000E+00 -0.92077237733E+03  0.92077237733E+03  0.00000000000E+00 0. -1.
          6    1    1    2  502    0 -0.34529137655E+02  0.27000523436E+02 -0.62007968764E+03  0.64525119809E+03  0.17300000000E+03 0.  1.
         -6    1    1    2    0  501  0.34529137655E+02 -0.27000523436E+02 -0.26046937545E+03  0.31574449348E+03  0.17300000000E+03 0.  1.
<mgrwt>
<rscale>  2 0.17846649E+03</rscale>
<asrwt>0</asrwt>
<pdfrwt beam="2">  1        2 0.14165730E+00 0.17846649E+03</pdfrwt>
<pdfrwt beam="1">  1       -2 0.61882018E-02 0.17846649E+03</pdfrwt>
<totfact> 0.41005207E+03</totfact>
</mgrwt>
</event>
<event>
 4    1  0.8249026E-001  0.2151583E+03  0.7546771E-02  0.1137545E+00
          1   -1    0    0  502    0  0.00000000000E+00  0.00000000000E+00  0.45888294504E+03  0.45888294504E+03  0.00000000000E+00 0. -1.
         -1   -1    0    0    0  501 -0.00000000000E+00 -0.00000000000E+00 -0.10142176047E+03  0.10142176047E+03  0.00000000000E+00 0.  1.
          6    1    1    2  502    0  0.12639332332E+03 -0.19718692974E+02  0.15829590195E+03  0.26711550237E+03  0.17300000000E+03 0. -1.
         -6    1    1    2    0  501 -0.12639332332E+03  0.19718692974E+02  0.19916528262E+03  0.29318920314E+03  0.17300000000E+03 0.  1.
<mgrwt>
<rscale>  2 0.21515831E+03</rscale>
<asrwt>0</asrwt>
<pdfrwt beam="1">  1        1 0.70597375E-01 0.21515831E+03</pdfrwt>
<pdfrwt beam="2">  1       -1 0.15603348E-01 0.21515831E+03</pdfrwt>
<totfact> 0.15213992E+03</totfact>
</mgrwt>
</event>
<event>
 4    1  0.8249026E-001  0.1921659E+03  0.7546771E-02  0.1156522E+00
         -2   -1    0    0    0  501 -0.00000000000E+00  0.00000000000E+00  0.68546030810E+02  0.68546030810E+02  0.00000000000E+00 0.  1.
          2   -1    0    0  502    0  0.00000000000E+00 -0.00000000000E+00 -0.18910277095E+04  0.18910277095E+04  0.00000000000E+00 0. -1.
          6    1    1    2  502    0  0.58816910916E+02  0.59492090590E+02 -0.17397913288E+04  0.17503718479E+04  0.17300000000E+03 0. -1.
         -6    1    1    2    0  501 -0.58816910916E+02 -0.59492090590E+02 -0.82690349864E+02  0.20920189247E+03  0.17300000000E+03 0.  1.
<mgrwt>
<rscale>  2 0.19216591E+03</rscale>
<asrwt>0</asrwt>
<pdfrwt beam="2">  1        2 0.29092732E+00 0.19216591E+03</pdfrwt>
<pdfrwt beam="1">  1       -2 0.10545544E-01 0.19216591E+03</pdfrwt>
<totfact> 0.52552655E+02</totfact>
</mgrwt>
</event>
<event>
 4    1  0.8249026E-001  0.1801148E+03  0.7546771E-02  0.1167692E+00
         -2   -1    0    0    0  501 -0.00000000000E+00  0.00000000000E+00  0.16412309319E+03  0.16412309319E+03  0.00000000000E+00 0. -1.
          2   -1    0    0  502    0  0.00000000000E+00 -0.00000000000E+00 -0.20159889836E+03  0.20159889836E+03  0.00000000000E+00 0.  1.
          6    1    1    2  502    0  0.48438417354E+02 -0.12885956337E+02 -0.44283130484E+02  0.18547863433E+03  0.17300000000E+03 0. -1.
         -6    1    1    2    0  501 -0.48438417354E+02  0.12885956337E+02  0.68073253179E+01  0.18024335723E+03  0.17300000000E+03 0. -1.
<mgrwt>
<rscale>  2 0.18011476E+03</rscale>
<asrwt>0</asrwt>
<pdfrwt beam="2">  1        2 0.31015215E-01 0.18011476E+03</pdfrwt>
<pdfrwt beam="1">  1       -2 0.25249707E-01 0.18011476E+03</pdfrwt>
<totfact> 0.23189390E+03</totfact>
</mgrwt>
</event>
<event>
 4    1  0.8249026E-001  0.8303816E+03  0.7546771E-02  0.9517053E-01
          4   -1    0    0  502    0  0.00000000000E+00  0.00000000000E+00  0.77607622037E+03  0.77607622037E+03  0.00000000000E+00 0. -1.
         -4   -1    0    0    0  501 -0.00000000000E+00 -0.00000000000E+00 -0.93728508933E+03  0.93728508933E+03  0.00000000000E+00 0.  1.
          6    1    1    2  502    0  0.80677220878E+03 -0.93398232033E+02 -0.27607643167E+03  0.87507246713E+03  0.17300000000E+03 0.  1.
         -6    1    1    2    0  501 -0.80677220878E+03  0.93398232033E+02  0.11486756271E+03  0.83828884257E+03  0.17300000000E+03 0. -1.
<mgrwt>
<rscale>  2 0.83038162E+03</rscale>
<asrwt>0</asrwt>
<pdfrwt beam="1">  1        4 0.11939634E+00 0.83038162E+03</pdfrwt>
<pdfrwt beam="2">  1       -4 0.14419771E+00 0.83038162E+03</pdfrwt>
<totfact> 0.34486778E-01</totfact>
</mgrwt>
</event>
<event>
 4    1  0.8249026E-001  0.1783011E+03  0.7546771E-02  0.1169457E+00
          2   -1    0    0  502    0  0.00000000000E+00  0.00000000000E+00  0.47020161369E+02  0.47020161369E+02  0.00000000000E+00 0. -1.
         -2   -1    0    0    0  501 -0.00000000000E+00 -0.00000000000E+00 -0.71258698241E+03  0.71258698241E+03  0.00000000000E+00 0.  1.
          6    1    1    2  502    0  0.29307365813E+02  0.31675610771E+02 -0.24686411403E+03  0.30452119270E+03  0.17300000000E+03 0. -1.
         -6    1    1    2    0  501 -0.29307365813E+02 -0.31675610771E+02 -0.41870270702E+03  0.45508595108E+03  0.17300000000E+03 0.  1.
<mgrwt>
<rscale>  2 0.17830105E+03</rscale>
<asrwt>0</asrwt>
<pdfrwt beam="1">  1        2 0.72338720E-02 0.17830105E+03</pdfrwt>
<pdfrwt beam="2">  1       -2 0.10962875E+00 0.17830105E+03</pdfrwt>
<totfact> 0.66019968E+02</totfact>
</mgrwt>
</event>
<event>
 4    1  0.8249026E-001  0.2266662E+03  0.7546771E-02  0.1129008E+00
         -2   -1    0    0    0  501 -0.00000000000E+00  0.00000000000E+00  0.18276633409E+03  0.18276633409E+03  0.00000000000E+00 0. -1.
          2   -1    0    0  502    0  0.00000000000E+00 -0.00000000000E+00 -0.35752111794E+03  0.35752111794E+03  0.00000000000E+00 0.  1.
          6    1    1    2  502    0  0.12768242510E+03 -0.71733942350E+02 -0.21226533397E+03  0.31053845522E+03  0.17300000000E+03 0. -1.
         -6    1    1    2    0  501 -0.12768242510E+03  0.71733942350E+02  0.37510550119E+02  0.22974899681E+03  0.17300000000E+03 0. -1.
<mgrwt>
<rscale>  2 0.22666619E+03</rscale>
<asrwt>0</asrwt>
<pdfrwt beam="2">  1        2 0.55003248E-01 0.22666619E+03</pdfrwt>
<pdfrwt beam="1">  1       -2 0.28117898E-01 0.22666619E+03</pdfrwt>
<totfact> 0.10383385E+03</totfact>
</mgrwt>
</event>
<event>
 4    1  0.8249026E-001  0.2116500E+03  0.7546771E-02  0.1140266E+00
         -2   -1    0    0    0  501 -0.00000000000E+00  0.00000000000E+00  0.65175653398E+02  0.65175653398E+02  0.00000000000E+00 0. -1.
          2   -1    0    0  502    0  0.00000000000E+00 -0.00000000000E+00 -0.70042889165E+03  0.70042889165E+03  0.00000000000E+00 0.  1.
          6    1    1    2  502    0  0.18220480250E+02 -0.12056003499E+03 -0.26523228503E+03  0.33932856196E+03  0.17300000000E+03 0. -1.
         -6    1    1    2    0  501 -0.18220480250E+02  0.12056003499E+03 -0.37002095322E+03  0.42627598309E+03  0.17300000000E+03 0.  1.
<mgrwt>
<rscale>  2 0.21164997E+03</rscale>
<asrwt>0</asrwt>
<pdfrwt beam="2">  1        2 0.10775829E+00 0.21164997E+03</pdfrwt>
<pdfrwt beam="1">  1       -2 0.10027024E-01 0.21164997E+03</pdfrwt>
<totfact> 0.27477327E+03</totfact>
</mgrwt>
</event>
<event>
 4    1  0.8249026E-001  0.1846151E+03  0.7546771E-02  0.1163410E+00
         -1   -1    0    0    0  501 -0.00000000000E+00  0.00000000000E+00  0.65172447564E+02  0.65172447564E+02  0.00000000000E+00 0. -1.
          1   -1    0    0  502    0  0.00000000000E+00 -0.00000000000E+00 -0.53317396342E+03  0.53317396342E+03  0.00000000000E+00 0.  1.
          6    1    1    2  502    0  0.64437444959E+02 -0.12442537782E+01 -0.19259729485E+03  0.26678914983E+03  0.17300000000E+03 0. -1.
         -6    1    1    2    0  501 -0.64437444959E+02  0.12442537782E+01 -0.27540422100E+03  0.33155726116E+03  0.17300000000E+03 0.  1.
<mgrwt>
<rscale>  2 0.18461509E+03</rscale>
<asrwt>0</asrwt>
<pdfrwt beam="2">  1        1 0.82026764E-01 0.18461509E+03</pdfrwt>
<pdfrwt beam="1">  1       -1 0.10026530E-01 0.18461509E+03</pdfrwt>
<totfact> 0.24827798E+03</totfact>
</mgrwt>
</event>
<event>
 4    1  0.8249026E-001  0.2643397E+03  0.7546771E-02  0.1104564E+00
         -2   -1    0    0    0  501 -0.00000000000E+00  0.00000000000E+00  0.70365184242E+02  0.70365184242E+02  0.00000000000E+00 0. -1.
          2   -1    0    0  502    0  0.00000000000E+00 -0.00000000000E+00 -0.10142814047E+04  0.10142814047E+04  0.00000000000E+00 0.  1.
          6    1    1    2  502    0  0.85827344917E+01  0.19968176860E+03 -0.39347677909E+03  0.47402473324E+03  0.17300000000E+03 0. -1.
         -6    1    1    2    0  501 -0.85827344917E+01 -0.19968176860E+03 -0.55043944139E+03  0.61062185572E+03  0.17300000000E+03 0.  1.
<mgrwt>
<rscale>  2 0.26433969E+03</rscale>
<asrwt>0</asrwt>
<pdfrwt beam="2">  1        2 0.15604329E+00 0.26433969E+03</pdfrwt>
<pdfrwt beam="1">  1       -2 0.10825413E-01 0.26433969E+03</pdfrwt>
<totfact> 0.15034059E+03</totfact>
</mgrwt>
</event>
<event>
 4    1  0.8249026E-001  0.1983433E+03  0.7546771E-02  0.1151144E+00
          1   -1    0    0  502    0  0.00000000000E+00  0.00000000000E+00  0.58266401615E+02  0.58266401615E+02  0.00000000000E+00 0. -1.
         -1   -1    0    0    0  501 -0.00000000000E+00 -0.00000000000E+00 -0.78822004411E+03  0.78822004411E+03  0.00000000000E+00 0.  1.
          6    1    1    2  502    0 -0.86441737809E+02 -0.44032699424E+02 -0.20469255728E+03  0.28502472815E+03  0.17300000000E+03 0. -1.
         -6    1    1    2    0  501  0.86441737809E+02  0.44032699424E+02 -0.52526108522E+03  0.56146171757E+03  0.17300000000E+03 0.  1.
<mgrwt>
<rscale>  2 0.19834327E+03</rscale>
<asrwt>0</asrwt>
<pdfrwt beam="1">  1        1 0.89640619E-02 0.19834327E+03</pdfrwt>
<pdfrwt beam="2">  1       -1 0.12126462E+00 0.19834327E+03</pdfrwt>
<totfact> 0.48010714E+02</totfact>
</mgrwt>
</event>
<event>
 4    1  0.8249026E-001  0.2382146E+03  0.7546771E-02  0.1120988E+00
          1   -1    0    0  502    0  0.00000000000E+00  0.00000000000E+00  0.17765630647E+04  0.17765630647E+04  0.00000000000E+00 0. -1.
         -1   -1    0    0    0  501 -0.00000000000E+00 -0.00000000000E+00 -0.31957322157E+02  0.31957322157E+02  0.00000000000E+00 0.  1.
          6    1    1    2  502    0  0.23381448951E+02 -0.16208177364E+03  0.85221965361E+03  0.88488673371E+03  0.17300000000E+03 0.  1.
         -6    1    1    2    0  501 -0.23381448951E+02  0.16208177364E+03  0.89238608893E+03  0.92363365314E+03  0.17300000000E+03 0. -1.
<mgrwt>
<rscale>  2 0.23821460E+03</rscale>
<asrwt>0</asrwt>
<pdfrwt beam="1">  1        1 0.27331732E+00 0.23821460E+03</pdfrwt>
<pdfrwt beam="2">  1       -1 0.49165125E-02 0.23821460E+03</pdfrwt>
<totfact> 0.85338465E+02</totfact>
</mgrwt>
</event>
<event>
 4    1  0.8249026E-001  0.2205478E+03  0.7546771E-02  0.1133475E+00
          4   -1    0    0  502    0  0.00000000000E+00  0.00000000000E+00  0.45970026903E+03  0.45970026903E+03  0.00000000000E+00 0. -1.
         -4   -1    0    0    0  501 -0.00000000000E+00 -0.00000000000E+00 -0.11185477331E+03  0.11185477331E+03  0.00000000000E+00 0.  1.
          6    1    1    2  502    0  0.53552721105E+02 -0.12587469016E+03  0.10749401772E+03  0.24534933342E+03  0.17300000000E+03 0.  1.
         -6    1    1    2    0  501 -0.53552721105E+02  0.12587469016E+03  0.24035147799E+03  0.32620570893E+03  0.17300000000E+03 0. -1.
<mgrwt>
<rscale>  2 0.22054780E+03</rscale>
<asrwt>0</asrwt>
<pdfrwt beam="1">  1        4 0.70723117E-01 0.22054780E+03</pdfrwt>
<pdfrwt beam="2">  1       -4 0.17208427E-01 0.22054780E+03</pdfrwt>
<totfact> 0.99186929E+01</totfact>
</mgrwt>
</event>
<event>
 4    1  0.8249026E-001  0.1869150E+03  0.7546771E-02  0.1161274E+00
         -1   -1    0    0    0  501 -0.00000000000E+00  0.00000000000E+00  0.11812675094E+04  0.11812675094E+04  0.00000000000E+00 0. -1.
          1   -1    0    0  502    0  0.00000000000E+00 -0.00000000000E+00 -0.30104738806E+02  0.30104738806E+02  0.00000000000E+00 0.  1.
          6    1    1    2  502    0  0.27417329861E+02 -0.65242004393E+02  0.49531577944E+03  0.52941000224E+03  0.17300000000E+03 0.  1.
         -6    1    1    2    0  501 -0.27417329861E+02  0.65242004393E+02  0.65584699121E+03  0.68196224601E+03  0.17300000000E+03 0.  1.
<mgrwt>
<rscale>  2 0.18691503E+03</rscale>
<asrwt>0</asrwt>
<pdfrwt beam="2">  1        1 0.46314992E-02 0.18691503E+03</pdfrwt>
<pdfrwt beam="1">  1       -1 0.18173343E+00 0.18691503E+03</pdfrwt>
<totfact> 0.41176701E+02</totfact>
</mgrwt>
</event>
<event>
 4    1  0.8249026E-001  0.2395405E+03  0.7546771E-02  0.1120099E+00
         -1   -1    0    0    0  501 -0.00000000000E+00  0.00000000000E+00  0.16094322575E+03  0.16094322575E+03  0.00000000000E+00 0.  1.
          1   -1    0    0  502    0  0.00000000000E+00 -0.00000000000E+00 -0.65989696720E+03  0.65989696720E+03  0.00000000000E+00 0. -1.
          6    1    1    2  502    0  0.58159058234E+02 -0.15513927393E+03  0.28802493752E+02  0.24126594044E+03  0.17300000000E+03 0.  1.
         -6    1    1    2    0  501 -0.58159058234E+02  0.15513927393E+03 -0.52775623520E+03  0.57957425250E+03  0.17300000000E+03 0. -1.
<mgrwt>
<rscale>  2 0.23954054E+03</rscale>
<asrwt>0</asrwt>
<pdfrwt beam="2">  1        1 0.10152261E+00 0.23954054E+03</pdfrwt>
<pdfrwt beam="1">  1       -1 0.24760496E-01 0.23954054E+03</pdfrwt>
<totfact> 0.43850360E+02</totfact>
</mgrwt>
</event>
<event>
 4    1  0.8249026E-001  0.2548132E+03  0.7546771E-02  0.1110300E+00
         -1   -1    0    0    0  501 -0.00000000000E+00  0.00000000000E+00  0.20189681034E+03  0.20189681034E+03  0.00000000000E+00 0. -1.
          1   -1    0    0  502    0  0.00000000000E+00 -0.00000000000E+00 -0.48621937538E+03  0.48621937538E+03  0.00000000000E+00 0.  1.
          6    1    1    2  502    0 -0.17630956346E+03  0.62575486101E+02  0.58035836956E+02  0.26133869212E+03  0.17300000000E+03 0. -1.
         -6    1    1    2    0  501  0.17630956346E+03 -0.62575486101E+02 -0.34235840200E+03  0.42677749360E+03  0.17300000000E+03 0.  1.
<mgrwt>
<rscale>  2 0.25481317E+03</rscale>
<asrwt>0</asrwt>
<pdfrwt beam="2">  1        1 0.74802980E-01 0.25481317E+03</pdfrwt>
<pdfrwt beam="1">  1       -1 0.31061048E-01 0.25481317E+03</pdfrwt>
<totfact> 0.45429268E+02</totfact>
</mgrwt>
</event>
<event>
 4    1  0.8249026E-001  0.1932795E+03  0.7546771E-02  0.1155536E+00
         -1   -1    0    0    0  501 -0.00000000000E+00  0.00000000000E+00  0.37141063502E+03  0.37141063502E+03  0.00000000000E+00 0.  1.
          1   -1    0    0  502    0  0.00000000000E+00 -0.00000000000E+00 -0.10750067703E+03  0.10750067703E+03  0.00000000000E+00 0. -1.
          6    1    1    2  502    0  0.14716331392E+02 -0.84919913095E+02  0.19270594737E+03  0.27293322297E+03  0.17300000000E+03 0.  1.
         -6    1    1    2    0  501 -0.14716331392E+02  0.84919913095E+02  0.71204010623E+02  0.20597808907E+03  0.17300000000E+03 0. -1.
<mgrwt>
<rscale>  2 0.19327949E+03</rscale>
<asrwt>0</asrwt>
<pdfrwt beam="2">  1        1 0.16538566E-01 0.19327949E+03</pdfrwt>
<pdfrwt beam="1">  1       -1 0.57140097E-01 0.19327949E+03</pdfrwt>
<totfact> 0.10400369E+03</totfact>
</mgrwt>
</event>
<event>
 4    1  0.8249026E-001  0.2330066E+03  0.7546771E-02  0.1124541E+00
          2   -1    0    0  502    0  0.00000000000E+00  0.00000000000E+00  0.17148733077E+04  0.17148733077E+04  0.00000000000E+00 0.  1.
         -2   -1    0    0    0  501 -0.00000000000E+00 -0.00000000000E+00 -0.35502434488E+02  0.35502434488E+02  0.00000000000E+00 0. -1.
          6    1    1    2  502    0 -0.15342618582E+02  0.15533085670E+03  0.11276257095E+04  0.11514477025E+04  0.17300000000E+03 0.  1.
         -6    1    1    2    0  501  0.15342618582E+02 -0.15533085670E+03  0.55174516377E+03  0.59892803969E+03  0.17300000000E+03 0. -1.
<mgrwt>
<rscale>  2 0.23300659E+03</rscale>
<asrwt>0</asrwt>
<pdfrwt beam="1">  1        2 0.26382660E+00 0.23300659E+03</pdfrwt>
<pdfrwt beam="2">  1       -2 0.54619143E-02 0.23300659E+03</pdfrwt>
<totfact> 0.17979989E+03</totfact>
</mgrwt>
</event>
<event>
 4    1  0.8249026E-001  0.2116908E+03  0.7546771E-02  0.1140234E+00
         -2   -1    0    0    0  501 -0.00000000000E+00  0.00000000000E+00  0.66459947397E+03  0.66459947397E+03  0.00000000000E+00 0.  1.
          2   -1    0    0  502    0  0.00000000000E+00 -0.00000000000E+00 -0.69674925272E+02  0.69674925272E+02  0.00000000000E+00 0. -1.
          6    1    1    2  502    0 -0.47853666495E+02 -0.11222307717E+03  0.23154043540E+03  0.31372594039E+03  0.17300000000E+03 0. -1.
         -6    1    1    2    0  501  0.47853666495E+02  0.11222307717E+03  0.36338411330E+03  0.42054845885E+03  0.17300000000E+03 0.  1.
<mgrwt>
<rscale>  2 0.21169079E+03</rscale>
<asrwt>0</asrwt>
<pdfrwt beam="2">  1        2 0.10719220E-01 0.21169079E+03</pdfrwt>
<pdfrwt beam="1">  1       -2 0.10224607E+00 0.21169079E+03</pdfrwt>
<totfact> 0.47667086E+02</totfact>
</mgrwt>
</event>
<event>
 4    1  0.8249026E-001  0.1897946E+03  0.7546771E-02  0.1158647E+00
          1   -1    0    0  502    0  0.00000000000E+00  0.00000000000E+00  0.52685984655E+02  0.52685984655E+02  0.00000000000E+00 0.  1.
         -1   -1    0    0    0  501 -0.00000000000E+00 -0.00000000000E+00 -0.71308163270E+03  0.71308163270E+03  0.00000000000E+00 0. -1.
          6    1    1    2  502    0 -0.76724698072E+02 -0.14363653921E+02 -0.40790356429E+03  0.44989700111E+03  0.17300000000E+03 0. -1.
         -6    1    1    2    0  501  0.76724698072E+02  0.14363653921E+02 -0.25249208376E+03  0.31587061625E+03  0.17300000000E+03 0. -1.
<mgrwt>
<rscale>  2 0.18979461E+03</rscale>
<asrwt>0</asrwt>
<pdfrwt beam="1">  1        1 0.81055358E-02 0.18979461E+03</pdfrwt>
<pdfrwt beam="2">  1       -1 0.10970487E+00 0.18979461E+03</pdfrwt>
<totfact> 0.69455500E+02</totfact>
</mgrwt>
</event>
<event>
 4    1  0.8249026E-001  0.1818037E+03  0.7546771E-02  0.1166069E+00
         -2   -1    0    0    0  501 -0.00000000000E+00  0.00000000000E+00  0.40647300751E+02  0.40647300751E+02  0.00000000000E+00 0.  1.
          2   -1    0    0  502    0  0.00000000000E+00 -0.00000000000E+00 -0.17221980685E+04  0.17221980685E+04  0.00000000000E+00 0. -1.
          6    1    1    2  502    0 -0.49033668484E+02 -0.26819774116E+02 -0.14811507828E+04  0.14922668134E+04  0.17300000000E+03 0. -1.
         -6    1    1    2    0  501  0.49033668484E+02  0.26819774116E+02 -0.20039998494E+03  0.27057855586E+03  0.17300000000E+03 0.  1.
<mgrwt>
<rscale>  2 0.18180374E+03</rscale>
<asrwt>0</asrwt>
<pdfrwt beam="2">  1        2 0.26495360E+00 0.18180374E+03</pdfrwt>
<pdfrwt beam="1">  1       -2 0.62534298E-02 0.18180374E+03</pdfrwt>
<totfact> 0.14539642E+03</totfact>
</mgrwt>
</event>
<event>
 4    1  0.8249026E-001  0.2193369E+03  0.7546771E-02  0.1134378E+00
         -1   -1    0    0    0  501 -0.00000000000E+00  0.00000000000E+00  0.91099475859E+03  0.91099475859E+03  0.00000000000E+00 0.  1.
          1   -1    0    0  502    0  0.00000000000E+00 -0.00000000000E+00 -0.72645951095E+02  0.72645951095E+02  0.00000000000E+00 0. -1.
          6    1    1    2  502    0  0.79329811574E+02  0.10902502888E+03  0.67617776849E+03  0.71086218814E+03  0.17300000000E+03 0.  1.
         -6    1    1    2    0  501 -0.79329811574E+02 -0.10902502888E+03  0.16217103901E+03  0.27277852155E+03  0.17300000000E+03 0. -1.
<mgrwt>
<rscale>  2 0.21933690E+03</rscale>
<asrwt>0</asrwt>
<pdfrwt beam="2">  1        1 0.11176301E-01 0.21933690E+03</pdfrwt>
<pdfrwt beam="1">  1       -1 0.14015303E+00 0.21933690E+03</pdfrwt>
<totfact> 0.25012381E+02</totfact>
</mgrwt>
</event>
<event>
 4    1  0.8249026E-001  0.1762067E+03  0.7546771E-02  0.1171526E+00
          2   -1    0    0  502    0  0.00000000000E+00  0.00000000000E+00  0.32969623884E+04  0.32969623884E+04  0.00000000000E+00 0. -1.
         -2   -1    0    0    0  501 -0.00000000000E+00 -0.00000000000E+00 -0.94176334228E+01  0.94176334228E+01  0.00000000000E+00 0.  1.
          6    1    1    2  502    0 -0.74087686220E+01 -0.32633096003E+02  0.16355163605E+04  0.16449810255E+04  0.17300000000E+03 0.  1.
         -6    1    1    2    0  501  0.74087686220E+01  0.32633096003E+02  0.16520283945E+04  0.16613989963E+04  0.17300000000E+03 0. -1.
<mgrwt>
<rscale>  2 0.17620672E+03</rscale>
<asrwt>0</asrwt>
<pdfrwt beam="1">  1        2 0.50722406E+00 0.17620672E+03</pdfrwt>
<pdfrwt beam="2">  1       -2 0.14488693E-02 0.17620672E+03</pdfrwt>
<totfact> 0.17338394E+03</totfact>
</mgrwt>
</event>
<event>
 4    1  0.8249026E-001  0.2388893E+03  0.7546771E-02  0.1120535E+00
          2   -1    0    0  502    0  0.00000000000E+00  0.00000000000E+00  0.62632136669E+03  0.62632136669E+03  0.00000000000E+00 0.  1.
         -2   -1    0    0    0  501 -0.00000000000E+00 -0.00000000000E+00 -0.10790331533E+03  0.10790331533E+03  0.00000000000E+00 0. -1.
          6    1    1    2  502    0  0.94949038223E+02  0.13462462074E+03  0.40400879234E+03  0.46935190706E+03  0.17300000000E+03 0. -1.
         -6    1    1    2    0  501 -0.94949038223E+02 -0.13462462074E+03  0.11440925901E+03  0.26487277496E+03  0.17300000000E+03 0.  1.
<mgrwt>
<rscale>  2 0.23888932E+03</rscale>
<asrwt>0</asrwt>
<pdfrwt beam="1">  1        2 0.96357131E-01 0.23888932E+03</pdfrwt>
<pdfrwt beam="2">  1       -2 0.16600510E-01 0.23888932E+03</pdfrwt>
<totfact> 0.13842533E+03</totfact>
</mgrwt>
</event>
<event>
 4    1  0.8249026E-001  0.3892701E+03  0.7546771E-02  0.1047560E+00
         -2   -1    0    0    0  501 -0.00000000000E+00  0.00000000000E+00  0.14852538123E+03  0.14852538123E+03  0.00000000000E+00 0. -1.
          2   -1    0    0  502    0  0.00000000000E+00 -0.00000000000E+00 -0.10464575913E+04  0.10464575913E+04  0.00000000000E+00 0.  1.
          6    1    1    2  502    0  0.64699123710E+02  0.34266049645E+03 -0.54354329344E+03  0.66855852719E+03  0.17300000000E+03 0. -1.
         -6    1    1    2    0  501 -0.64699123710E+02 -0.34266049645E+03 -0.35438891664E+03  0.52642444536E+03  0.17300000000E+03 0. -1.
<mgrwt>
<rscale>  2 0.38927008E+03</rscale>
<asrwt>0</asrwt>
<pdfrwt beam="2">  1        2 0.16099347E+00 0.38927008E+03</pdfrwt>
<pdfrwt beam="1">  1       -2 0.22850060E-01 0.38927008E+03</pdfrwt>
<totfact> 0.40796470E+02</totfact>
</mgrwt>
</event>
<event>
 4    1  0.8249026E-001  0.1907735E+03  0.7546771E-02  0.1157766E+00
          2   -1    0    0  502    0  0.00000000000E+00  0.00000000000E+00  0.14414321736E+04  0.14414321736E+04  0.00000000000E+00 0. -1.
         -2   -1    0    0    0  501 -0.00000000000E+00 -0.00000000000E+00 -0.26073835128E+02  0.26073835128E+02  0.00000000000E+00 0.  1.
          6    1    1    2  502    0 -0.53773423581E+02  0.59782391276E+02  0.57716172852E+03  0.60787348705E+03  0.17300000000E+03 0.  1.
         -6    1    1    2    0  501  0.53773423581E+02 -0.59782391276E+02  0.83819660996E+03  0.85963252169E+03  0.17300000000E+03 0. -1.
<mgrwt>
<rscale>  2 0.19077347E+03</rscale>
<asrwt>0</asrwt>
<pdfrwt beam="1">  1        2 0.22175873E+00 0.19077347E+03</pdfrwt>
<pdfrwt beam="2">  1       -2 0.40113604E-02 0.19077347E+03</pdfrwt>
<totfact> 0.39961365E+03</totfact>
</mgrwt>
</event>
<event>
 4    1  0.8249026E-001  0.1871266E+03  0.7546771E-02  0.1161079E+00
         -2   -1    0    0    0  501 -0.00000000000E+00  0.00000000000E+00  0.14347368515E+02  0.14347368515E+02  0.00000000000E+00 0.  1.
          2   -1    0    0  502    0  0.00000000000E+00 -0.00000000000E+00 -0.25019700792E+04  0.25019700792E+04  0.00000000000E+00 0. -1.
          6    1    1    2  502    0 -0.25720473735E+02 -0.66526787406E+02 -0.10467819113E+04  0.10633760981E+04  0.17300000000E+03 0.  1.
         -6    1    1    2    0  501  0.25720473735E+02  0.66526787406E+02 -0.14408407994E+04  0.14529413496E+04  0.17300000000E+03 0. -1.
<mgrwt>
<rscale>  2 0.18712658E+03</rscale>
<asrwt>0</asrwt>
<pdfrwt beam="2">  1        2 0.38491818E+00 0.18712658E+03</pdfrwt>
<pdfrwt beam="1">  1       -2 0.22072891E-02 0.18712658E+03</pdfrwt>
<totfact> 0.26902937E+03</totfact>
</mgrwt>
</event>
<event>
 4    1  0.8249026E-001  0.4220898E+03  0.7546771E-02  0.1036388E+00
         -2   -1    0    0    0  501 -0.00000000000E+00  0.00000000000E+00  0.76911142779E+02  0.76911142779E+02  0.00000000000E+00 0.  1.
          2   -1    0    0  502    0  0.00000000000E+00 -0.00000000000E+00 -0.23464839141E+04  0.23464839141E+04  0.00000000000E+00 0. -1.
          6    1    1    2  502    0 -0.36538652270E+03  0.12134027279E+03 -0.99766995155E+03  0.10832844063E+04  0.17300000000E+03 0. -1.
         -6    1    1    2    0  501  0.36538652270E+03 -0.12134027279E+03 -0.12719028197E+04  0.13401106505E+04  0.17300000000E+03 0.  1.
<mgrwt>
<rscale>  2 0.42208977E+03</rscale>
<asrwt>0</asrwt>
<pdfrwt beam="2">  1        2 0.36099756E+00 0.42208977E+03</pdfrwt>
<pdfrwt beam="1">  1       -2 0.11832482E-01 0.42208977E+03</pdfrwt>
<totfact> 0.23905517E+02</totfact>
</mgrwt>
</event>
<event>
 4    1  0.8249026E-001  0.1730461E+03  0.7546771E-02  0.1174708E+00
         -1   -1    0    0    0  501 -0.00000000000E+00  0.00000000000E+00  0.41550903721E+02  0.41550903721E+02  0.00000000000E+00 0. -1.
          1   -1    0    0  502    0  0.00000000000E+00 -0.00000000000E+00 -0.79001429154E+03  0.79001429154E+03  0.00000000000E+00 0.  1.
          6    1    1    2  502    0  0.35159264327E+01  0.18983948674E+01 -0.25105789767E+03  0.30491807691E+03  0.17300000000E+03 0. -1.
         -6    1    1    2    0  501 -0.35159264327E+01 -0.18983948674E+01 -0.49740549014E+03  0.52664711835E+03  0.17300000000E+03 0.  1.
<mgrwt>
<rscale>  2 0.17304614E+03</rscale>
<asrwt>0</asrwt>
<pdfrwt beam="2">  1        1 0.12154065E+00 0.17304614E+03</pdfrwt>
<pdfrwt beam="1">  1       -1 0.63924471E-02 0.17304614E+03</pdfrwt>
<totfact> 0.28177882E+03</totfact>
</mgrwt>
</event>
<event>
 4    1  0.8249026E-001  0.2152751E+03  0.7546771E-02  0.1137455E+00
         -2   -1    0    0    0  501 -0.00000000000E+00  0.00000000000E+00  0.18697868572E+03  0.18697868572E+03  0.00000000000E+00 0. -1.
          2   -1    0    0  502    0  0.00000000000E+00 -0.00000000000E+00 -0.24872688558E+03  0.24872688558E+03  0.00000000000E+00 0.  1.
          6    1    1    2  502    0 -0.58096706025E+02 -0.11418910877E+03 -0.43781163481E+02  0.21968197488E+03  0.17300000000E+03 0.  1.
         -6    1    1    2    0  501  0.58096706025E+02  0.11418910877E+03 -0.17967036375E+02  0.21602359642E+03  0.17300000000E+03 0. -1.
<mgrwt>
<rscale>  2 0.21527513E+03</rscale>
<asrwt>0</asrwt>
<pdfrwt beam="2">  1        2 0.38265675E-01 0.21527513E+03</pdfrwt>
<pdfrwt beam="1">  1       -2 0.28765952E-01 0.21527513E+03</pdfrwt>
<totfact> 0.14719595E+03</totfact>
</mgrwt>
</event>
<event>
 4    1  0.8249026E-001  0.1732689E+03  0.7546771E-02  0.1174481E+00
          1   -1    0    0  502    0  0.00000000000E+00  0.00000000000E+00  0.67496713432E+03  0.67496713432E+03  0.00000000000E+00 0.  1.
         -1   -1    0    0    0  501 -0.00000000000E+00 -0.00000000000E+00 -0.16319087575E+03  0.16319087575E+03  0.00000000000E+00 0. -1.
          6    1    1    2  502    0  0.69118457530E+01  0.67344244856E+01  0.61332087620E+03  0.63732615141E+03  0.17300000000E+03 0.  1.
         -6    1    1    2    0  501 -0.69118457530E+01 -0.67344244856E+01 -0.10154461763E+03  0.20083185866E+03  0.17300000000E+03 0. -1.
<mgrwt>
<rscale>  2 0.17326894E+03</rscale>
<asrwt>0</asrwt>
<pdfrwt beam="1">  1        1 0.10384110E+00 0.17326894E+03</pdfrwt>
<pdfrwt beam="2">  1       -1 0.25106289E-01 0.17326894E+03</pdfrwt>
<totfact> 0.41747284E+02</totfact>
</mgrwt>
</event>
<event>
 4    1  0.8249026E-001  0.2820215E+03  0.7546771E-02  0.1094590E+00
         -2   -1    0    0    0  501 -0.00000000000E+00  0.00000000000E+00  0.56983772584E+02  0.56983772584E+02  0.00000000000E+00 0. -1.
          2   -1    0    0  502    0  0.00000000000E+00 -0.00000000000E+00 -0.14121258309E+04  0.14121258309E+04  0.00000000000E+00 0.  1.
          6    1    1    2  502    0  0.16135907334E+03 -0.15352641143E+03 -0.59851149343E+03  0.66162838310E+03  0.17300000000E+03 0. -1.
         -6    1    1    2    0  501 -0.16135907334E+03  0.15352641143E+03 -0.75663056492E+03  0.80748122042E+03  0.17300000000E+03 0.  1.
<mgrwt>
<rscale>  2 0.28202147E+03</rscale>
<asrwt>0</asrwt>
<pdfrwt beam="2">  1        2 0.21725012E+00 0.28202147E+03</pdfrwt>
<pdfrwt beam="1">  1       -2 0.87667345E-02 0.28202147E+03</pdfrwt>
<totfact> 0.12463414E+03</totfact>
</mgrwt>
</event>
<event>
 4    1  0.8249026E-001  0.1842479E+03  0.7546771E-02  0.1163754E+00
         -2   -1    0    0    0  501 -0.00000000000E+00  0.00000000000E+00  0.20622488050E+02  0.20622488050E+02  0.00000000000E+00 0. -1.
          2   -1    0    0  502    0  0.00000000000E+00 -0.00000000000E+00 -0.25326058097E+04  0.25326058097E+04  0.00000000000E+00 0.  1.
          6    1    1    2  502    0  0.62079777001E+02  0.12822072720E+02 -0.20112737804E+04  0.20196954038E+04  0.17300000000E+03 0.  1.
         -6    1    1    2    0  501 -0.62079777001E+02 -0.12822072720E+02 -0.50070954118E+03  0.53353289391E+03  0.17300000000E+03 0. -1.
<mgrwt>
<rscale>  2 0.18424794E+03</rscale>
<asrwt>0</asrwt>
<pdfrwt beam="2">  1        2 0.38963143E+00 0.18424794E+03</pdfrwt>
<pdfrwt beam="1">  1       -2 0.31726924E-02 0.18424794E+03</pdfrwt>
<totfact> 0.15167814E+03</totfact>
</mgrwt>
</event>
<event>
 4    1  0.8249026E-001  0.2173852E+03  0.7546771E-02  0.1135848E+00
         -2   -1    0    0    0  501 -0.00000000000E+00  0.00000000000E+00  0.16046828096E+03  0.16046828096E+03  0.00000000000E+00 0.  1.
          2   -1    0    0  502    0  0.00000000000E+00 -0.00000000000E+00 -0.48924290652E+03  0.48924290652E+03  0.00000000000E+00 0. -1.
          6    1    1    2  502    0  0.11690116560E+03 -0.60509956031E+02 -0.36934764839E+03  0.42857207406E+03  0.17300000000E+03 0. -1.
         -6    1    1    2    0  501 -0.11690116560E+03  0.60509956031E+02  0.40573022830E+02  0.22113911341E+03  0.17300000000E+03 0.  1.
<mgrwt>
<rscale>  2 0.21738523E+03</rscale>
<asrwt>0</asrwt>
<pdfrwt beam="2">  1        2 0.75268139E-01 0.21738523E+03</pdfrwt>
<pdfrwt beam="1">  1       -2 0.24687428E-01 0.21738523E+03</pdfrwt>
<totfact> 0.92841436E+02</totfact>
</mgrwt>
</event>
<event>
 4    1  0.8249026E-001  0.1847970E+03  0.7546771E-02  0.1163240E+00
         -1   -1    0    0    0  501 -0.00000000000E+00  0.00000000000E+00  0.11812550434E+03  0.11812550434E+03  0.00000000000E+00 0.  1.
          1   -1    0    0  502    0  0.00000000000E+00 -0.00000000000E+00 -0.29231655852E+03  0.29231655852E+03  0.00000000000E+00 0. -1.
          6    1    1    2  502    0 -0.64374257858E+02 -0.87680270646E+01 -0.10862742286E+03  0.21435913876E+03  0.17300000000E+03 0. -1.
         -6    1    1    2    0  501  0.64374257858E+02  0.87680270646E+01 -0.65563631322E+02  0.19608292410E+03  0.17300000000E+03 0.  1.
<mgrwt>
<rscale>  2 0.18479698E+03</rscale>
<asrwt>0</asrwt>
<pdfrwt beam="2">  1        1 0.44971778E-01 0.18479698E+03</pdfrwt>
<pdfrwt beam="1">  1       -1 0.18173154E-01 0.18479698E+03</pdfrwt>
<totfact> 0.21074248E+03</totfact>
</mgrwt>
</event>
<event>
 4    1  0.8249026E-001  0.2260668E+03  0.7546771E-02  0.1129439E+00
         -1   -1    0    0    0  501 -0.00000000000E+00  0.00000000000E+00  0.44788125195E+03  0.44788125195E+03  0.00000000000E+00 0. -1.
          1   -1    0    0  502    0  0.00000000000E+00 -0.00000000000E+00 -0.12318388358E+03  0.12318388358E+03  0.00000000000E+00 0.  1.
          6    1    1    2  502    0  0.67381722411E+02 -0.12898405454E+03  0.23985872039E+03  0.32960338072E+03  0.17300000000E+03 0. -1.
         -6    1    1    2    0  501 -0.67381722411E+02  0.12898405454E+03  0.84838647990E+02  0.24146175480E+03  0.17300000000E+03 0.  1.
<mgrwt>
<rscale>  2 0.22606677E+03</rscale>
<asrwt>0</asrwt>
<pdfrwt beam="2">  1        1 0.18951367E-01 0.22606677E+03</pdfrwt>
<pdfrwt beam="1">  1       -1 0.68904807E-01 0.22606677E+03</pdfrwt>
<totfact> 0.60715459E+02</totfact>
</mgrwt>
</event>
<event>
 4    1  0.8249026E-001  0.1847048E+03  0.7546771E-02  0.1163326E+00
         -1   -1    0    0    0  501 -0.00000000000E+00  0.00000000000E+00  0.10745896772E+03  0.10745896772E+03  0.00000000000E+00 0. -1.
          1   -1    0    0  502    0  0.00000000000E+00 -0.00000000000E+00 -0.31762875993E+03  0.31762875993E+03  0.00000000000E+00 0.  1.
          6    1    1    2  502    0 -0.56633485302E+02 -0.31296878689E+02 -0.10971713341E+03  0.21483411190E+03  0.17300000000E+03 0. -1.
         -6    1    1    2    0  501  0.56633485302E+02  0.31296878689E+02 -0.10045265879E+03  0.21025361574E+03  0.17300000000E+03 0.  1.
<mgrwt>
<rscale>  2 0.18470475E+03</rscale>
<asrwt>0</asrwt>
<pdfrwt beam="2">  1        1 0.48865962E-01 0.18470475E+03</pdfrwt>
<pdfrwt beam="1">  1       -1 0.16532149E-01 0.18470475E+03</pdfrwt>
<totfact> 0.22094678E+03</totfact>
</mgrwt>
</event>
<event>
 4    1  0.8249026E-001  0.2466773E+03  0.7546771E-02  0.1115423E+00
          1   -1    0    0  502    0  0.00000000000E+00  0.00000000000E+00  0.19587456482E+03  0.19587456482E+03  0.00000000000E+00 0.  1.
         -1   -1    0    0    0  501 -0.00000000000E+00 -0.00000000000E+00 -0.31808168092E+03  0.31808168092E+03  0.00000000000E+00 0. -1.
          6    1    1    2  502    0  0.87746152951E+02 -0.15238530950E+03 -0.10036677169E+03  0.26631402285E+03  0.17300000000E+03 0. -1.
         -6    1    1    2    0  501 -0.87746152951E+02  0.15238530950E+03 -0.21840344415E+02  0.24764222288E+03  0.17300000000E+03 0.  1.
<mgrwt>
<rscale>  2 0.24667726E+03</rscale>
<asrwt>0</asrwt>
<pdfrwt beam="1">  1        1 0.30134548E-01 0.24667726E+03</pdfrwt>
<pdfrwt beam="2">  1       -1 0.48935643E-01 0.24667726E+03</pdfrwt>
<totfact> 0.64575559E+02</totfact>
</mgrwt>
</event>
<event>
 4    1  0.8249026E-001  0.2760196E+03  0.7546771E-02  0.1097883E+00
          2   -1    0    0  502    0  0.00000000000E+00  0.00000000000E+00  0.22107056486E+04  0.22107056486E+04  0.00000000000E+00 0.  1.
         -2   -1    0    0    0  501 -0.00000000000E+00 -0.00000000000E+00 -0.35227665106E+02  0.35227665106E+02  0.00000000000E+00 0. -1.
          6    1    1    2  502    0 -0.21410279713E+03 -0.20440339341E+02  0.12532225219E+04  0.12832589390E+04  0.17300000000E+03 0.  1.
         -6    1    1    2    0  501  0.21410279713E+03  0.20440339341E+02  0.92225546154E+03  0.96267437462E+03  0.17300000000E+03 0. -1.
<mgrwt>
<rscale>  2 0.27601959E+03</rscale>
<asrwt>0</asrwt>
<pdfrwt beam="1">  1        2 0.34010845E+00 0.27601959E+03</pdfrwt>
<pdfrwt beam="2">  1       -2 0.54196425E-02 0.27601959E+03</pdfrwt>
<totfact> 0.99397419E+02</totfact>
</mgrwt>
</event>
<event>
 4    1  0.8249026E-001  0.1856669E+03  0.7546771E-02  0.1162429E+00
         -2   -1    0    0    0  501 -0.00000000000E+00  0.00000000000E+00  0.51287950333E+02  0.51287950333E+02  0.00000000000E+00 0.  1.
          2   -1    0    0  502    0  0.00000000000E+00 -0.00000000000E+00 -0.72843125926E+03  0.72843125926E+03  0.00000000000E+00 0. -1.
          6    1    1    2  502    0  0.63357077481E+02  0.23001695972E+02 -0.23018621128E+03  0.29573280026E+03  0.17300000000E+03 0. -1.
         -6    1    1    2    0  501 -0.63357077481E+02 -0.23001695972E+02 -0.44695709765E+03  0.48398640934E+03  0.17300000000E+03 0. -1.
<mgrwt>
<rscale>  2 0.18566690E+03</rscale>
<asrwt>0</asrwt>
<pdfrwt beam="2">  1        2 0.11206634E+00 0.18566690E+03</pdfrwt>
<pdfrwt beam="1">  1       -2 0.78904544E-02 0.18566690E+03</pdfrwt>
<totfact> 0.38037879E+03</totfact>
</mgrwt>
</event>
<event>
 4    1  0.8249026E-001  0.1756451E+03  0.7546771E-02  0.1172085E+00
          1   -1    0    0  502    0  0.00000000000E+00  0.00000000000E+00  0.14660702550E+03  0.14660702550E+03  0.00000000000E+00 0.  1.
         -1   -1    0    0    0  501 -0.00000000000E+00 -0.00000000000E+00 -0.23448542158E+03  0.23448542158E+03  0.00000000000E+00 0. -1.
          6    1    1    2  502    0 -0.17376769858E+02  0.24905146182E+02  0.17085505282E+02  0.17647417071E+03  0.17300000000E+03 0.  1.
         -6    1    1    2    0  501  0.17376769858E+02 -0.24905146182E+02 -0.10496390135E+03  0.20461827637E+03  0.17300000000E+03 0. -1.
<mgrwt>
<rscale>  2 0.17564515E+03</rscale>
<asrwt>0</asrwt>
<pdfrwt beam="1">  1        1 0.22554927E-01 0.17564515E+03</pdfrwt>
<pdfrwt beam="2">  1       -1 0.36074680E-01 0.17564515E+03</pdfrwt>
<totfact> 0.15998539E+03</totfact>
</mgrwt>
</event>
<event>
 4    1  0.8249026E-001  0.1942737E+03  0.7546771E-02  0.1154662E+00
         -2   -1    0    0    0  501 -0.00000000000E+00  0.00000000000E+00  0.22458431183E+02  0.22458431183E+02  0.00000000000E+00 0.  1.
          2   -1    0    0  502    0  0.00000000000E+00 -0.00000000000E+00 -0.19228736968E+04  0.19228736968E+04  0.00000000000E+00 0. -1.
          6    1    1    2  502    0  0.63205896431E+02 -0.61792210403E+02 -0.12955075375E+04  0.13099931459E+04  0.17300000000E+03 0. -1.
         -6    1    1    2    0  501 -0.63205896431E+02  0.61792210403E+02 -0.60490772820E+03  0.63533898215E+03  0.17300000000E+03 0.  1.
<mgrwt>
<rscale>  2 0.19427368E+03</rscale>
<asrwt>0</asrwt>
<pdfrwt beam="2">  1        2 0.29582673E+00 0.19427368E+03</pdfrwt>
<pdfrwt beam="1">  1       -2 0.34551432E-02 0.19427368E+03</pdfrwt>
<totfact> 0.27995903E+03</totfact>
</mgrwt>
</event>
<event>
 4    1  0.8249026E-001  0.1768349E+03  0.7546771E-02  0.1170902E+00
         -2   -1    0    0    0  501 -0.00000000000E+00  0.00000000000E+00  0.59543688265E+02  0.59543688265E+02  0.00000000000E+00 0.  1.
          2   -1    0    0  502    0  0.00000000000E+00 -0.00000000000E+00 -0.57367032883E+03  0.57367032883E+03  0.00000000000E+00 0. -1.
          6    1    1    2  502    0  0.30681702401E+02  0.20005720244E+02 -0.34912076046E+03  0.39135137803E+03  0.17300000000E+03 0. -1.
         -6    1    1    2    0  501 -0.30681702401E+02 -0.20005720244E+02 -0.16500588011E+03  0.24186263906E+03  0.17300000000E+03 0.  1.
<mgrwt>
<rscale>  2 0.17683494E+03</rscale>
<asrwt>0</asrwt>
<pdfrwt beam="2">  1        2 0.88256976E-01 0.17683494E+03</pdfrwt>
<pdfrwt beam="1">  1       -2 0.91605672E-02 0.17683494E+03</pdfrwt>
<totfact> 0.39816630E+03</totfact>
</mgrwt>
</event>
<event>
 4    1  0.8249026E-001  0.1763723E+03  0.7546771E-02  0.1171361E+00
         -2   -1    0    0    0  501 -0.00000000000E+00  0.00000000000E+00  0.28312138200E+02  0.28312138200E+02  0.00000000000E+00 0.  1.
          2   -1    0    0  502    0  0.00000000000E+00 -0.00000000000E+00 -0.12549430740E+04  0.12549430740E+04  0.00000000000E+00 0. -1.
          6    1    1    2  502    0  0.20168281463E+02  0.27774492956E+02 -0.38693434849E+03  0.42523566652E+03  0.17300000000E+03 0.  1.
         -6    1    1    2    0  501 -0.20168281463E+02 -0.27774492956E+02 -0.83969658735E+03  0.85801954573E+03  0.17300000000E+03 0. -1.
<mgrwt>
<rscale>  2 0.17637228E+03</rscale>
<asrwt>0</asrwt>
<pdfrwt beam="2">  1        2 0.19306820E+00 0.17637228E+03</pdfrwt>
<pdfrwt beam="1">  1       -2 0.43557128E-02 0.17637228E+03</pdfrwt>
<totfact> 0.44490445E+03</totfact>
</mgrwt>
</event>
<event>
 4    1  0.8249026E-001  0.1828492E+03  0.7546771E-02  0.1165074E+00
         -2   -1    0    0    0  501 -0.00000000000E+00  0.00000000000E+00  0.22454073577E+03  0.22454073577E+03  0.00000000000E+00 0.  1.
          2   -1    0    0  502    0  0.00000000000E+00 -0.00000000000E+00 -0.15663912536E+03  0.15663912536E+03  0.00000000000E+00 0. -1.
          6    1    1    2  502    0  0.27577231259E+02  0.52386423542E+02  0.76318034818E+02  0.19813703211E+03  0.17300000000E+03 0.  1.
         -6    1    1    2    0  501 -0.27577231259E+02 -0.52386423542E+02 -0.84164244158E+01  0.18304282902E+03  0.17300000000E+03 0. -1.
<mgrwt>
<rscale>  2 0.18284923E+03</rscale>
<asrwt>0</asrwt>
<pdfrwt beam="2">  1        2 0.24098327E-01 0.18284923E+03</pdfrwt>
<pdfrwt beam="1">  1       -2 0.34544729E-01 0.18284923E+03</pdfrwt>
<totfact> 0.17403212E+03</totfact>
</mgrwt>
</event>
<event>
 4    1  0.8249026E-001  0.1733443E+03  0.7546771E-02  0.1174404E+00
          2   -1    0    0  502    0  0.00000000000E+00  0.00000000000E+00  0.34633334842E+04  0.34633334842E+04  0.00000000000E+00 0.  1.
         -2   -1    0    0    0  501 -0.00000000000E+00 -0.00000000000E+00 -0.10713482244E+02  0.10713482244E+02  0.00000000000E+00 0. -1.
          6    1    1    2  502    0 -0.79983147835E+01  0.74352465984E+01  0.96882201250E+03  0.98420747195E+03  0.17300000000E+03 0. -1.
         -6    1    1    2    0  501  0.79983147835E+01 -0.74352465984E+01  0.24837979895E+04  0.24898394945E+04  0.17300000000E+03 0.  1.
<mgrwt>
<rscale>  2 0.17334433E+03</rscale>
<asrwt>0</asrwt>
<pdfrwt beam="1">  1        2 0.53281964E+00 0.17334433E+03</pdfrwt>
<pdfrwt beam="2">  1       -2 0.16482308E-02 0.17334433E+03</pdfrwt>
<totfact> 0.11287005E+03</totfact>
</mgrwt>
</event>
<event>
 4    1  0.8249026E-001  0.2197056E+03  0.7546771E-02  0.1134103E+00
          2   -1    0    0  502    0  0.00000000000E+00  0.00000000000E+00  0.10137231220E+04  0.10137231220E+04  0.00000000000E+00 0.  1.
         -2   -1    0    0    0  501 -0.00000000000E+00 -0.00000000000E+00 -0.54080805509E+02  0.54080805509E+02  0.00000000000E+00 0. -1.
          6    1    1    2  502    0 -0.72506772766E+02 -0.11438661789E+03  0.29524247401E+03  0.36801990287E+03  0.17300000000E+03 0. -1.
         -6    1    1    2    0  501  0.72506772766E+02  0.11438661789E+03  0.66439984244E+03  0.69978402460E+03  0.17300000000E+03 0.  1.
<mgrwt>
<rscale>  2 0.21970555E+03</rscale>
<asrwt>0</asrwt>
<pdfrwt beam="1">  1        2 0.15595739E+00 0.21970555E+03</pdfrwt>
<pdfrwt beam="2">  1       -2 0.83201247E-02 0.21970555E+03</pdfrwt>
<totfact> 0.22820576E+03</totfact>
</mgrwt>
</event>
<event>
 4    1  0.8249026E-001  0.2343223E+03  0.7546771E-02  0.1123634E+00
          2   -1    0    0  502    0  0.00000000000E+00  0.00000000000E+00  0.25821691497E+04  0.25821691497E+04  0.00000000000E+00 0.  1.
         -2   -1    0    0    0  501 -0.00000000000E+00 -0.00000000000E+00 -0.26665662503E+02  0.26665662503E+02  0.00000000000E+00 0. -1.
          6    1    1    2  502    0 -0.12742987968E+03 -0.93485751478E+02  0.69065651119E+03  0.72932391735E+03  0.17300000000E+03 0. -1.
         -6    1    1    2    0  501  0.12742987968E+03  0.93485751478E+02  0.18648469760E+04  0.18795108949E+04  0.17300000000E+03 0.  1.
<mgrwt>
<rscale>  2 0.23432234E+03</rscale>
<asrwt>0</asrwt>
<pdfrwt beam="1">  1        2 0.39725659E+00 0.23432234E+03</pdfrwt>
<pdfrwt beam="2">  1       -2 0.41024117E-02 0.23432234E+03</pdfrwt>
<totfact> 0.96177177E+02</totfact>
</mgrwt>
</event>
<event>
 4    1  0.8249026E-001  0.2068436E+03  0.7546771E-02  0.1144090E+00
         -1   -1    0    0    0  501 -0.00000000000E+00  0.00000000000E+00  0.13521478981E+03  0.13521478981E+03  0.00000000000E+00 0.  1.
          1   -1    0    0  502    0  0.00000000000E+00 -0.00000000000E+00 -0.32962448719E+03  0.32962448719E+03  0.00000000000E+00 0. -1.
          6    1    1    2  502    0 -0.96622236406E+02 -0.59324828093E+02 -0.14372799685E+03  0.25187701141E+03  0.17300000000E+03 0. -1.
         -6    1    1    2    0  501  0.96622236406E+02  0.59324828093E+02 -0.50681700525E+02  0.21296226559E+03  0.17300000000E+03 0. -1.
<mgrwt>
<rscale>  2 0.20684364E+03</rscale>
<asrwt>0</asrwt>
<pdfrwt beam="2">  1        1 0.50711459E-01 0.20684364E+03</pdfrwt>
<pdfrwt beam="1">  1       -1 0.20802276E-01 0.20684364E+03</pdfrwt>
<totfact> 0.14611952E+03</totfact>
</mgrwt>
</event>
<event>
 4    1  0.8249026E-001  0.2028787E+03  0.7546771E-02  0.1147333E+00
          1   -1    0    0  502    0  0.00000000000E+00  0.00000000000E+00  0.16490829878E+04  0.16490829878E+04  0.00000000000E+00 0. -1.
         -1   -1    0    0    0  501 -0.00000000000E+00 -0.00000000000E+00 -0.25007107409E+02  0.25007107409E+02  0.00000000000E+00 0.  1.
          6    1    1    2  502    0 -0.89697554475E+02 -0.56436833620E+02  0.84868052983E+03  0.87259292294E+03  0.17300000000E+03 0.  1.
         -6    1    1    2    0  501  0.89697554475E+02  0.56436833620E+02  0.77539535052E+03  0.80149717222E+03  0.17300000000E+03 0.  1.
<mgrwt>
<rscale>  2 0.20287870E+03</rscale>
<asrwt>0</asrwt>
<pdfrwt beam="1">  1        1 0.25370499E+00 0.20287870E+03</pdfrwt>
<pdfrwt beam="2">  1       -1 0.38472486E-02 0.20287870E+03</pdfrwt>
<totfact> 0.14917623E+03</totfact>
</mgrwt>
</event>
<event>
 4    1  0.8249026E-001  0.1803736E+03  0.7546771E-02  0.1167442E+00
          2   -1    0    0  502    0  0.00000000000E+00  0.00000000000E+00  0.12440375978E+03  0.12440375978E+03  0.00000000000E+00 0.  1.
         -2   -1    0    0    0  501 -0.00000000000E+00 -0.00000000000E+00 -0.33476540627E+03  0.33476540627E+03  0.00000000000E+00 0. -1.
          6    1    1    2  502    0  0.23803027800E+02  0.45155828908E+02 -0.21256721330E+03  0.27878208907E+03  0.17300000000E+03 0. -1.
         -6    1    1    2    0  501 -0.23803027800E+02 -0.45155828908E+02  0.22055668112E+01  0.18038707698E+03  0.17300000000E+03 0.  1.
<mgrwt>
<rscale>  2 0.18037359E+03</rscale>
<asrwt>0</asrwt>
<pdfrwt beam="1">  1        2 0.19139040E-01 0.18037359E+03</pdfrwt>
<pdfrwt beam="2">  1       -2 0.51502369E-01 0.18037359E+03</pdfrwt>
<totfact> 0.10469302E+03</totfact>
</mgrwt>
</event>
<event>
 4    1  0.8249026E-001  0.1863566E+03  0.7546771E-02  0.1161789E+00
          2   -1    0    0  502    0  0.00000000000E+00  0.00000000000E+00  0.78758295762E+03  0.78758295762E+03  0.00000000000E+00 0.  1.
         -2   -1    0    0    0  501 -0.00000000000E+00 -0.00000000000E+00 -0.44953330481E+02  0.44953330481E+02  0.00000000000E+00 0. -1.
          6    1    1    2  502    0  0.20646942391E+02 -0.66132400124E+02  0.42882127880E+03  0.46756441238E+03  0.17300000000E+03 0. -1.
         -6    1    1    2    0  501 -0.20646942391E+02  0.66132400124E+02  0.31380834834E+03  0.36497187571E+03  0.17300000000E+03 0. -1.
<mgrwt>
<rscale>  2 0.18635662E+03</rscale>
<asrwt>0</asrwt>
<pdfrwt beam="1">  1        2 0.12116660E+00 0.18635662E+03</pdfrwt>
<pdfrwt beam="2">  1       -2 0.69158976E-02 0.18635662E+03</pdfrwt>
<totfact> 0.42365334E+03</totfact>
</mgrwt>
</event>
<event>
 4    1  0.8249026E-001  0.1975496E+03  0.7546771E-02  0.1151823E+00
          3   -1    0    0  502    0  0.00000000000E+00  0.00000000000E+00  0.15056417490E+04  0.15056417490E+04  0.00000000000E+00 0.  1.
         -3   -1    0    0    0  501 -0.00000000000E+00 -0.00000000000E+00 -0.29015199763E+02  0.29015199763E+02  0.00000000000E+00 0. -1.
          6    1    1    2  502    0 -0.94575358804E+02 -0.12342597098E+02  0.98894227499E+03  0.10084803724E+04  0.17300000000E+03 0.  1.
         -6    1    1    2    0  501  0.94575358804E+02  0.12342597098E+02  0.48768427426E+03  0.52617657640E+03  0.17300000000E+03 0. -1.
<mgrwt>
<rscale>  2 0.19754958E+03</rscale>
<asrwt>0</asrwt>
<pdfrwt beam="1">  1        3 0.23163713E+00 0.19754958E+03</pdfrwt>
<pdfrwt beam="2">  1       -3 0.44638781E-02 0.19754958E+03</pdfrwt>
<totfact> 0.70331251E+01</totfact>
</mgrwt>
</event>
<event>
 4    1  0.8249026E-001  0.2619612E+03  0.7546771E-02  0.1105971E+00
          2   -1    0    0  502    0  0.00000000000E+00  0.00000000000E+00  0.21948561715E+03  0.21948561715E+03  0.00000000000E+00 0.  1.
         -2   -1    0    0    0  501 -0.00000000000E+00 -0.00000000000E+00 -0.52306935861E+03  0.52306935861E+03  0.00000000000E+00 0. -1.
          6    1    1    2  502    0 -0.19484432120E+03  0.27024866096E+02  0.83688596837E+02  0.27500442566E+03  0.17300000000E+03 0.  1.
         -6    1    1    2    0  501  0.19484432120E+03 -0.27024866096E+02 -0.38727233830E+03  0.46755055011E+03  0.17300000000E+03 0. -1.
<mgrwt>
<rscale>  2 0.26196117E+03</rscale>
<asrwt>0</asrwt>
<pdfrwt beam="1">  1        2 0.33767018E-01 0.26196117E+03</pdfrwt>
<pdfrwt beam="2">  1       -2 0.80472208E-01 0.26196117E+03</pdfrwt>
<totfact> 0.21769213E+02</totfact>
</mgrwt>
</event>
<event>
 4    1  0.8249026E-001  0.5906732E+03  0.7546771E-02  0.9924947E-01
          2   -1    0    0  502    0  0.00000000000E+00  0.00000000000E+00  0.16820734831E+04  0.16820734831E+04  0.00000000000E+00 0.  1.
         -2   -1    0    0    0  501 -0.00000000000E+00 -0.00000000000E+00 -0.21014297046E+03  0.21014297046E+03  0.00000000000E+00 0. -1.
          6    1    1    2  502    0 -0.54201649799E+03  0.15869444964E+03  0.84367278614E+03  0.10298925102E+04  0.17300000000E+03 0. -1.
         -6    1    1    2    0  501  0.54201649799E+03 -0.15869444964E+03  0.62825772649E+03  0.86232394338E+03  0.17300000000E+03 0.  1.
<mgrwt>
<rscale>  2 0.59067319E+03</rscale>
<asrwt>0</asrwt>
<pdfrwt beam="1">  1        2 0.25878053E+00 0.59067319E+03</pdfrwt>
<pdfrwt beam="2">  1       -2 0.32329689E-01 0.59067319E+03</pdfrwt>
<totfact> 0.92908959E+01</totfact>
</mgrwt>
</event>
<event>
 4    1  0.8249026E-001  0.1814660E+03  0.7546771E-02  0.1166392E+00
          2   -1    0    0  502    0  0.00000000000E+00  0.00000000000E+00  0.60207217559E+03  0.60207217559E+03  0.00000000000E+00 0. -1.
         -2   -1    0    0    0  501 -0.00000000000E+00 -0.00000000000E+00 -0.63464093733E+02  0.63464093733E+02  0.00000000000E+00 0.  1.
          6    1    1    2  502    0  0.42194940005E+02 -0.34935549872E+02  0.14560315338E+03  0.23265894326E+03  0.17300000000E+03 0.  1.
         -6    1    1    2    0  501 -0.42194940005E+02  0.34935549872E+02  0.39300492848E+03  0.43287732606E+03  0.17300000000E+03 0. -1.
<mgrwt>
<rscale>  2 0.18146599E+03</rscale>
<asrwt>0</asrwt>
<pdfrwt beam="1">  1        2 0.92626485E-01 0.18146599E+03</pdfrwt>
<pdfrwt beam="2">  1       -2 0.97637071E-02 0.18146599E+03</pdfrwt>
<totfact> 0.34107175E+03</totfact>
</mgrwt>
</event>
<event>
 4    1  0.8249026E-001  0.2362328E+03  0.7546771E-02  0.1122328E+00
          2   -1    0    0  502    0  0.00000000000E+00  0.00000000000E+00  0.19556087100E+03  0.19556087100E+03  0.00000000000E+00 0. -1.
         -2   -1    0    0    0  501 -0.00000000000E+00 -0.00000000000E+00 -0.53076708203E+03  0.53076708203E+03  0.00000000000E+00 0.  1.
          6    1    1    2  502    0 -0.10889692783E+03  0.11839932195E+03 -0.41454296440E+03  0.47712871394E+03  0.17300000000E+03 0.  1.
         -6    1    1    2    0  501  0.10889692783E+03 -0.11839932195E+03  0.79336753365E+02  0.24919923909E+03  0.17300000000E+03 0. -1.
<mgrwt>
<rscale>  2 0.23623281E+03</rscale>
<asrwt>0</asrwt>
<pdfrwt beam="1">  1        2 0.30086288E-01 0.23623281E+03</pdfrwt>
<pdfrwt beam="2">  1       -2 0.81656474E-01 0.23623281E+03</pdfrwt>
<totfact> 0.23943353E+02</totfact>
</mgrwt>
</event>
<event>
 4    1  0.8249026E-001  0.2004179E+03  0.7546771E-02  0.1149387E+00
         -2   -1    0    0    0  501 -0.00000000000E+00  0.00000000000E+00  0.65023590225E+02  0.65023590225E+02  0.00000000000E+00 0. -1.
          2   -1    0    0  502    0  0.00000000000E+00 -0.00000000000E+00 -0.76990743341E+03  0.76990743341E+03  0.00000000000E+00 0.  1.
          6    1    1    2  502    0  0.48810541445E+02  0.88633261951E+02 -0.53803845209E+03  0.57415389924E+03  0.17300000000E+03 0.  1.
         -6    1    1    2    0  501 -0.48810541445E+02 -0.88633261951E+02 -0.16684539109E+03  0.26077712440E+03  0.17300000000E+03 0.  1.
<mgrwt>
<rscale>  2 0.20041787E+03</rscale>
<asrwt>0</asrwt>
<pdfrwt beam="2">  1        2 0.11844730E+00 0.20041787E+03</pdfrwt>
<pdfrwt beam="1">  1       -2 0.10003629E-01 0.20041787E+03</pdfrwt>
<totfact> 0.24530106E+03</totfact>
</mgrwt>
</event>
<event>
 4    1  0.8249026E-001  0.2595233E+03  0.7546771E-02  0.1107430E+00
          1   -1    0    0  502    0  0.00000000000E+00  0.00000000000E+00  0.59304943028E+03  0.59304943028E+03  0.00000000000E+00 0.  1.
         -1   -1    0    0    0  501 -0.00000000000E+00 -0.00000000000E+00 -0.16637593975E+03  0.16637593975E+03  0.00000000000E+00 0. -1.
          6    1    1    2  502    0 -0.11956306024E+03  0.15207892015E+03 -0.58420365618E+00  0.25952391917E+03  0.17300000000E+03 0. -1.
         -6    1    1    2    0  501  0.11956306024E+03 -0.15207892015E+03  0.42725769419E+03  0.49990145086E+03  0.17300000000E+03 0.  1.
<mgrwt>
<rscale>  2 0.25952326E+03</rscale>
<asrwt>0</asrwt>
<pdfrwt beam="1">  1        1 0.91238373E-01 0.25952326E+03</pdfrwt>
<pdfrwt beam="2">  1       -1 0.25596299E-01 0.25952326E+03</pdfrwt>
<totfact> 0.48152765E+02</totfact>
</mgrwt>
</event>
<event>
 4    1  0.8249026E-001  0.1826831E+03  0.7546771E-02  0.1165231E+00
         -1   -1    0    0    0  501 -0.00000000000E+00  0.00000000000E+00  0.60303059704E+02  0.60303059704E+02  0.00000000000E+00 0. -1.
          1   -1    0    0  502    0  0.00000000000E+00 -0.00000000000E+00 -0.63255213339E+03  0.63255213339E+03  0.00000000000E+00 0.  1.
          6    1    1    2  502    0 -0.56614873817E+02  0.15455290582E+02 -0.40865161583E+03  0.44762624260E+03  0.17300000000E+03 0.  1.
         -6    1    1    2    0  501  0.56614873817E+02 -0.15455290582E+02 -0.16359745786E+03  0.24522895050E+03  0.17300000000E+03 0. -1.
<mgrwt>
<rscale>  2 0.18268309E+03</rscale>
<asrwt>0</asrwt>
<pdfrwt beam="2">  1        1 0.97315708E-01 0.18268309E+03</pdfrwt>
<pdfrwt beam="1">  1       -1 0.92773942E-02 0.18268309E+03</pdfrwt>
<totfact> 0.22143924E+03</totfact>
</mgrwt>
</event>
<event>
 4    1  0.8249026E-001  0.2862285E+03  0.7546771E-02  0.1092335E+00
         -2   -1    0    0    0  501 -0.00000000000E+00  0.00000000000E+00  0.12150244075E+03  0.12150244075E+03  0.00000000000E+00 0.  1.
          2   -1    0    0  502    0  0.00000000000E+00 -0.00000000000E+00 -0.13076926914E+04  0.13076926914E+04  0.00000000000E+00 0. -1.
          6    1    1    2  502    0 -0.13555610489E+03 -0.18336382775E+03 -0.95756917992E+02  0.30182136811E+03  0.17300000000E+03 0.  1.
         -6    1    1    2    0  501  0.13555610489E+03  0.18336382775E+03 -0.10904333327E+04  0.11273737641E+04  0.17300000000E+03 0. -1.
<mgrwt>
<rscale>  2 0.28622849E+03</rscale>
<asrwt>0</asrwt>
<pdfrwt beam="2">  1        2 0.20118349E+00 0.28622849E+03</pdfrwt>
<pdfrwt beam="1">  1       -2 0.18692683E-01 0.28622849E+03</pdfrwt>
<totfact> 0.41177263E+02</totfact>
</mgrwt>
</event>
<event>
 4    1  0.8249026E-001  0.2832037E+03  0.7546771E-02  0.1093952E+00
          2   -1    0    0  502    0  0.00000000000E+00  0.00000000000E+00  0.12707815065E+04  0.12707815065E+04  0.00000000000E+00 0. -1.
         -2   -1    0    0    0  501 -0.00000000000E+00 -0.00000000000E+00 -0.72962673786E+02  0.72962673786E+02  0.00000000000E+00 0.  1.
          6    1    1    2  502    0  0.19842805444E+03 -0.10441088288E+03  0.35206615949E+03  0.45183504281E+03  0.17300000000E+03 0.  1.
         -6    1    1    2    0  501 -0.19842805444E+03  0.10441088288E+03  0.84575267327E+03  0.89190913752E+03  0.17300000000E+03 0. -1.
<mgrwt>
<rscale>  2 0.28320368E+03</rscale>
<asrwt>0</asrwt>
<pdfrwt beam="1">  1        2 0.19550483E+00 0.28320368E+03</pdfrwt>
<pdfrwt beam="2">  1       -2 0.11225028E-01 0.28320368E+03</pdfrwt>
<totfact> 0.10049297E+03</totfact>
</mgrwt>
</event>
<event>
 4    1  0.8249026E-001  0.1795990E+03  0.7546771E-02  0.1168192E+00
         -2   -1    0    0    0  501 -0.00000000000E+00  0.00000000000E+00  0.11452552278E+03  0.11452552278E+03  0.00000000000E+00 0.  1.
          2   -1    0    0  502    0  0.00000000000E+00 -0.00000000000E+00 -0.31363861939E+03  0.31363861939E+03  0.00000000000E+00 0. -1.
          6    1    1    2  502    0  0.29880127119E+02 -0.37867907084E+02 -0.31183988899E+02  0.18228615292E+03  0.17300000000E+03 0.  1.
         -6    1    1    2    0  501 -0.29880127119E+02  0.37867907084E+02 -0.16792910771E+03  0.24587798925E+03  0.17300000000E+03 0. -1.
<mgrwt>
<rscale>  2 0.17959900E+03</rscale>
<asrwt>0</asrwt>
<pdfrwt beam="2">  1        2 0.48252095E-01 0.17959900E+03</pdfrwt>
<pdfrwt beam="1">  1       -2 0.17619311E-01 0.17959900E+03</pdfrwt>
<totfact> 0.26721654E+03</totfact>
</mgrwt>
</event>
<event>
 4    1  0.8249026E-001  0.2192398E+03  0.7546771E-02  0.1134451E+00
          1   -1    0    0  502    0  0.00000000000E+00  0.00000000000E+00  0.55604085602E+02  0.55604085602E+02  0.00000000000E+00 0.  1.
         -1   -1    0    0    0  501 -0.00000000000E+00 -0.00000000000E+00 -0.86457394245E+03  0.86457394245E+03  0.00000000000E+00 0. -1.
          6    1    1    2  502    0 -0.11822213134E+03 -0.64502918681E+02 -0.39864525830E+03  0.45495509759E+03  0.17300000000E+03 0.  1.
         -6    1    1    2    0  501  0.11822213134E+03  0.64502918681E+02 -0.41032459855E+03  0.46522293046E+03  0.17300000000E+03 0. -1.
<mgrwt>
<rscale>  2 0.21923982E+03</rscale>
<asrwt>0</asrwt>
<pdfrwt beam="1">  1        1 0.85544751E-02 0.21923982E+03</pdfrwt>
<pdfrwt beam="2">  1       -1 0.13301137E+00 0.21923982E+03</pdfrwt>
<totfact> 0.40855264E+02</totfact>
</mgrwt>
</event>
<event>
 4    1  0.8249026E-001  0.1811009E+03  0.7546771E-02  0.1166742E+00
          1   -1    0    0  502    0  0.00000000000E+00  0.00000000000E+00  0.97232634134E+02  0.97232634134E+02  0.00000000000E+00 0.  1.
         -1   -1    0    0    0  501 -0.00000000000E+00 -0.00000000000E+00 -0.38807475039E+03  0.38807475039E+03  0.00000000000E+00 0. -1.
          6    1    1    2  502    0 -0.44876588434E+02  0.29234146092E+02 -0.23318379876E+03  0.29524943267E+03  0.17300000000E+03 0. -1.
         -6    1    1    2    0  501  0.44876588434E+02 -0.29234146092E+02 -0.57658317497E+02  0.19005795186E+03  0.17300000000E+03 0.  1.
<mgrwt>
<rscale>  2 0.18110092E+03</rscale>
<asrwt>0</asrwt>
<pdfrwt beam="1">  1        1 0.14958867E-01 0.18110092E+03</pdfrwt>
<pdfrwt beam="2">  1       -1 0.59703808E-01 0.18110092E+03</pdfrwt>
<totfact> 0.10888934E+03</totfact>
</mgrwt>
</event>
<event>
 4    1  0.8249026E-001  0.2470323E+03  0.7546771E-02  0.1115195E+00
          1   -1    0    0  502    0  0.00000000000E+00  0.00000000000E+00  0.40171297852E+03  0.40171297852E+03  0.00000000000E+00 0. -1.
         -1   -1    0    0    0  501 -0.00000000000E+00 -0.00000000000E+00 -0.17787143896E+03  0.17787143896E+03  0.00000000000E+00 0.  1.
          6    1    1    2  502    0  0.89625317183E+02  0.15186598021E+03  0.22262959905E+03  0.33254911186E+03  0.17300000000E+03 0. -1.
         -6    1    1    2    0  501 -0.89625317183E+02 -0.15186598021E+03  0.12119405012E+01  0.24703530562E+03  0.17300000000E+03 0.  1.
<mgrwt>
<rscale>  2 0.24703233E+03</rscale>
<asrwt>0</asrwt>
<pdfrwt beam="1">  1        1 0.61801997E-01 0.24703233E+03</pdfrwt>
<pdfrwt beam="2">  1       -1 0.27364837E-01 0.24703233E+03</pdfrwt>
<totfact> 0.72282223E+02</totfact>
</mgrwt>
</event>
<event>
 4    1  0.8249026E-001  0.2021098E+03  0.7546771E-02  0.1147971E+00
          2   -1    0    0  502    0  0.00000000000E+00  0.00000000000E+00  0.46934384822E+03  0.46934384822E+03  0.00000000000E+00 0.  1.
         -2   -1    0    0    0  501 -0.00000000000E+00 -0.00000000000E+00 -0.90126943306E+02  0.90126943306E+02  0.00000000000E+00 0. -1.
          6    1    1    2  502    0 -0.24133508012E+02  0.10167071853E+03  0.13777829279E+03  0.24460420924E+03  0.17300000000E+03 0. -1.
         -6    1    1    2    0  501  0.24133508012E+02 -0.10167071853E+03  0.24143861212E+03  0.31486658228E+03  0.17300000000E+03 0.  1.
<mgrwt>
<rscale>  2 0.20210978E+03</rscale>
<asrwt>0</asrwt>
<pdfrwt beam="1">  1        2 0.72206745E-01 0.20210978E+03</pdfrwt>
<pdfrwt beam="2">  1       -2 0.13865684E-01 0.20210978E+03</pdfrwt>
<totfact> 0.25788514E+03</totfact>
</mgrwt>
</event>
<event>
 4    1  0.8249026E-001  0.3199113E+03  0.7546771E-02  0.1075690E+00
         -2   -1    0    0    0  501 -0.00000000000E+00  0.00000000000E+00  0.28501993528E+03  0.28501993528E+03  0.00000000000E+00 0.  1.
          2   -1    0    0  502    0  0.00000000000E+00 -0.00000000000E+00 -0.68667912974E+03  0.68667912974E+03  0.00000000000E+00 0. -1.
          6    1    1    2  502    0  0.97941939298E+02  0.25064236247E+03  0.13475365898E+03  0.34713364277E+03  0.17300000000E+03 0. -1.
         -6    1    1    2    0  501 -0.97941939298E+02 -0.25064236247E+03 -0.53641285343E+03  0.62456542224E+03  0.17300000000E+03 0.  1.
<mgrwt>
<rscale>  2 0.31991126E+03</rscale>
<asrwt>0</asrwt>
<pdfrwt beam="2">  1        2 0.10564294E+00 0.31991126E+03</pdfrwt>
<pdfrwt beam="1">  1       -2 0.43849220E-01 0.31991126E+03</pdfrwt>
<totfact> 0.21496752E+02</totfact>
</mgrwt>
</event>
<event>
 4    1  0.8249026E-001  0.1951486E+03  0.7546771E-02  0.1153898E+00
          2   -1    0    0  502    0  0.00000000000E+00  0.00000000000E+00  0.20571600157E+03  0.20571600157E+03  0.00000000000E+00 0. -1.
         -2   -1    0    0    0  501 -0.00000000000E+00 -0.00000000000E+00 -0.18878209475E+03  0.18878209475E+03  0.00000000000E+00 0.  1.
          6    1    1    2  502    0 -0.20949602626E+02 -0.87835617360E+02 -0.18990382543E+02  0.19607043672E+03  0.17300000000E+03 0.  1.
         -6    1    1    2    0  501  0.20949602626E+02  0.87835617360E+02  0.35924289369E+02  0.19842765960E+03  0.17300000000E+03 0.  1.
<mgrwt>
<rscale>  2 0.19514861E+03</rscale>
<asrwt>0</asrwt>
<pdfrwt beam="1">  1        2 0.31648616E-01 0.19514861E+03</pdfrwt>
<pdfrwt beam="2">  1       -2 0.29043399E-01 0.19514861E+03</pdfrwt>
<totfact> 0.17729923E+03</totfact>
</mgrwt>
</event>
<event>
 4    1  0.8249026E-001  0.2329275E+03  0.7546771E-02  0.1124596E+00
         -2   -1    0    0    0  501 -0.00000000000E+00  0.00000000000E+00  0.53170744076E+02  0.53170744076E+02  0.00000000000E+00 0.  1.
          2   -1    0    0  502    0  0.00000000000E+00 -0.00000000000E+00 -0.10428047144E+04  0.10428047144E+04  0.00000000000E+00 0. -1.
          6    1    1    2  502    0  0.13589923378E+03  0.76534968078E+02 -0.41448658948E+03  0.47545171777E+03  0.17300000000E+03 0. -1.
         -6    1    1    2    0  501 -0.13589923378E+03 -0.76534968078E+02 -0.57514738086E+03  0.62052374071E+03  0.17300000000E+03 0. -1.
<mgrwt>
<rscale>  2 0.23292746E+03</rscale>
<asrwt>0</asrwt>
<pdfrwt beam="2">  1        2 0.16043150E+00 0.23292746E+03</pdfrwt>
<pdfrwt beam="1">  1       -2 0.81801144E-02 0.23292746E+03</pdfrwt>
<totfact> 0.22521600E+03</totfact>
</mgrwt>
</event>
<event>
 4    1  0.8249026E-001  0.2237450E+03  0.7546771E-02  0.1131121E+00
          2   -1    0    0  502    0  0.00000000000E+00  0.00000000000E+00  0.20258223337E+04  0.20258223337E+04  0.00000000000E+00 0.  1.
         -2   -1    0    0    0  501 -0.00000000000E+00 -0.00000000000E+00 -0.28264683013E+02  0.28264683013E+02  0.00000000000E+00 0. -1.
          6    1    1    2  502    0 -0.65463771964E+02 -0.12588616653E+03  0.13629065402E+04  0.13811502705E+04  0.17300000000E+03 0.  1.
         -6    1    1    2    0  501  0.65463771964E+02  0.12588616653E+03  0.63465111040E+03  0.67293674613E+03  0.17300000000E+03 0. -1.
<mgrwt>
<rscale>  2 0.22374502E+03</rscale>
<asrwt>0</asrwt>
<pdfrwt beam="1">  1        2 0.31166486E+00 0.22374502E+03</pdfrwt>
<pdfrwt beam="2">  1       -2 0.43484143E-02 0.22374502E+03</pdfrwt>
<totfact> 0.17498460E+03</totfact>
</mgrwt>
</event>
<event>
 4    1  0.8249026E-001  0.1827696E+03  0.7546771E-02  0.1165149E+00
         -1   -1    0    0    0  501 -0.00000000000E+00  0.00000000000E+00  0.93054389318E+02  0.93054389318E+02  0.00000000000E+00 0. -1.
          1   -1    0    0  502    0  0.00000000000E+00 -0.00000000000E+00 -0.40826929486E+03  0.40826929486E+03  0.00000000000E+00 0.  1.
          6    1    1    2  502    0  0.46226783673E+02  0.36589973521E+02 -0.24470130977E+03  0.30542343180E+03  0.17300000000E+03 0.  1.
         -6    1    1    2    0  501 -0.46226783673E+02 -0.36589973521E+02 -0.70513595768E+02  0.19590025237E+03  0.17300000000E+03 0. -1.
<mgrwt>
<rscale>  2 0.18276964E+03</rscale>
<asrwt>0</asrwt>
<pdfrwt beam="2">  1        1 0.62810659E-01 0.18276964E+03</pdfrwt>
<pdfrwt beam="1">  1       -1 0.14316060E-01 0.18276964E+03</pdfrwt>
<totfact> 0.20200544E+03</totfact>
</mgrwt>
</event>
<event>
 4    1  0.8249026E-001  0.2558497E+03  0.7546771E-02  0.1109663E+00
          1   -1    0    0  502    0  0.00000000000E+00  0.00000000000E+00  0.20729810244E+04  0.20729810244E+04  0.00000000000E+00 0. -1.
         -1   -1    0    0    0  501 -0.00000000000E+00 -0.00000000000E+00 -0.36018840062E+02  0.36018840062E+02  0.00000000000E+00 0.  1.
          6    1    1    2  502    0 -0.10623429619E+03  0.15570600568E+03  0.13887777992E+04  0.14121483142E+04  0.17300000000E+03 0. -1.
         -6    1    1    2    0  501  0.10623429619E+03 -0.15570600568E+03  0.64818438510E+03  0.69685155017E+03  0.17300000000E+03 0. -1.
<mgrwt>
<rscale>  2 0.25584973E+03</rscale>
<asrwt>0</asrwt>
<pdfrwt beam="1">  1        1 0.31892007E+00 0.25584973E+03</pdfrwt>
<pdfrwt beam="2">  1       -1 0.55413616E-02 0.25584973E+03</pdfrwt>
<totfact> 0.45692580E+02</totfact>
</mgrwt>
</event>
<event>
 4    1  0.8249026E-001  0.1976056E+03  0.7546771E-02  0.1151775E+00
          1   -1    0    0  502    0  0.00000000000E+00  0.00000000000E+00  0.11557528405E+04  0.11557528405E+04  0.00000000000E+00 0.  1.
         -1   -1    0    0    0  501 -0.00000000000E+00 -0.00000000000E+00 -0.34629156449E+02  0.34629156449E+02  0.00000000000E+00 0. -1.
          6    1    1    2  502    0 -0.25173052110E+02 -0.92115668643E+02  0.65344849529E+03  0.68267335890E+03  0.17300000000E+03 0. -1.
         -6    1    1    2    0  501  0.25173052110E+02  0.92115668643E+02  0.46767518877E+03  0.50770863805E+03  0.17300000000E+03 0.  1.
<mgrwt>
<rscale>  2 0.19760561E+03</rscale>
<asrwt>0</asrwt>
<pdfrwt beam="1">  1        1 0.17780810E+00 0.19760561E+03</pdfrwt>
<pdfrwt beam="2">  1       -1 0.53275634E-02 0.19760561E+03</pdfrwt>
<totfact> 0.19647161E+03</totfact>
</mgrwt>
</event>
<event>
 4    1  0.8249026E-001  0.1957389E+03  0.7546771E-02  0.1153385E+00
         -1   -1    0    0    0  501 -0.00000000000E+00  0.00000000000E+00  0.22691768227E+02  0.22691768227E+02  0.00000000000E+00 0. -1.
          1   -1    0    0  502    0  0.00000000000E+00 -0.00000000000E+00 -0.17583247829E+04  0.17583247829E+04  0.00000000000E+00 0.  1.
          6    1    1    2  502    0 -0.14125994556E+02  0.90471941039E+02 -0.10453482704E+04  0.10635162068E+04  0.17300000000E+03 0. -1.
         -6    1    1    2    0  501  0.14125994556E+02 -0.90471941039E+02 -0.69028474428E+03  0.71750034427E+03  0.17300000000E+03 0.  1.
<mgrwt>
<rscale>  2 0.19573890E+03</rscale>
<asrwt>0</asrwt>
<pdfrwt beam="2">  1        1 0.27051155E+00 0.19573890E+03</pdfrwt>
<pdfrwt beam="1">  1       -1 0.34910407E-02 0.19573890E+03</pdfrwt>
<totfact> 0.14640795E+03</totfact>
</mgrwt>
</event>
<event>
 4    1  0.8249026E-001  0.1888440E+03  0.7546771E-02  0.1159508E+00
         -2   -1    0    0    0  501 -0.00000000000E+00  0.00000000000E+00  0.26823075934E+02  0.26823075934E+02  0.00000000000E+00 0.  1.
          2   -1    0    0  502    0  0.00000000000E+00 -0.00000000000E+00 -0.13564007844E+04  0.13564007844E+04  0.00000000000E+00 0. -1.
          6    1    1    2  502    0 -0.24138793725E+02 -0.71765999278E+02 -0.56744199878E+03  0.59804051869E+03  0.17300000000E+03 0. -1.
         -6    1    1    2    0  501  0.24138793725E+02  0.71765999278E+02 -0.76213570965E+03  0.78518334161E+03  0.17300000000E+03 0. -1.
<mgrwt>
<rscale>  2 0.18884396E+03</rscale>
<asrwt>0</asrwt>
<pdfrwt beam="2">  1        2 0.20867708E+00 0.18884396E+03</pdfrwt>
<pdfrwt beam="1">  1       -2 0.41266263E-02 0.18884396E+03</pdfrwt>
<totfact> 0.42534629E+03</totfact>
</mgrwt>
</event>
<event>
 4    1  0.8249026E-001  0.3511463E+03  0.7546771E-02  0.1062146E+00
         -1   -1    0    0    0  501 -0.00000000000E+00  0.00000000000E+00  0.26662460614E+03  0.26662460614E+03  0.00000000000E+00 0. -1.
          1   -1    0    0  502    0  0.00000000000E+00 -0.00000000000E+00 -0.88031291319E+03  0.88031291319E+03  0.00000000000E+00 0.  1.
          6    1    1    2  502    0 -0.23257757163E+03  0.19819780822E+03 -0.70193958179E+03  0.78487124708E+03  0.17300000000E+03 0.  1.
         -6    1    1    2    0  501  0.23257757163E+03 -0.19819780822E+03  0.88251274747E+02  0.36206627225E+03  0.17300000000E+03 0. -1.
<mgrwt>
<rscale>  2 0.35114626E+03</rscale>
<asrwt>0</asrwt>
<pdfrwt beam="2">  1        1 0.13543275E+00 0.35114626E+03</pdfrwt>
<pdfrwt beam="1">  1       -1 0.41019172E-01 0.35114626E+03</pdfrwt>
<totfact> 0.11664990E+02</totfact>
</mgrwt>
</event>
<event>
 4    1  0.8249026E-001  0.2621432E+03  0.7546771E-02  0.1105862E+00
         -2   -1    0    0    0  501 -0.00000000000E+00  0.00000000000E+00  0.40367824660E+02  0.40367824660E+02  0.00000000000E+00 0. -1.
          2   -1    0    0  502    0  0.00000000000E+00 -0.00000000000E+00 -0.19912605711E+04  0.19912605711E+04  0.00000000000E+00 0.  1.
          6    1    1    2  502    0  0.14834669872E+03  0.12955033848E+03 -0.58849798349E+03  0.64424289658E+03  0.17300000000E+03 0. -1.
         -6    1    1    2    0  501 -0.14834669872E+03 -0.12955033848E+03 -0.13623947630E+04  0.13873854992E+04  0.17300000000E+03 0.  1.
<mgrwt>
<rscale>  2 0.26214315E+03</rscale>
<asrwt>0</asrwt>
<pdfrwt beam="2">  1        2 0.30634792E+00 0.26214315E+03</pdfrwt>
<pdfrwt beam="1">  1       -2 0.62104317E-02 0.26214315E+03</pdfrwt>
<totfact> 0.10549858E+03</totfact>
</mgrwt>
</event>
<event>
 4    1  0.8249026E-001  0.2514599E+03  0.7546771E-02  0.1112386E+00
          2   -1    0    0  502    0  0.00000000000E+00  0.00000000000E+00  0.13168320001E+04  0.13168320001E+04  0.00000000000E+00 0. -1.
         -2   -1    0    0    0  501 -0.00000000000E+00 -0.00000000000E+00 -0.48972146179E+02  0.48972146179E+02  0.00000000000E+00 0.  1.
          6    1    1    2  502    0 -0.11610274505E+03 -0.14079498295E+03  0.53862485465E+03  0.59443150041E+03  0.17300000000E+03 0.  1.
         -6    1    1    2    0  501  0.11610274505E+03  0.14079498295E+03  0.72923499927E+03  0.77137264586E+03  0.17300000000E+03 0. -1.
<mgrwt>
<rscale>  2 0.25145989E+03</rscale>
<asrwt>0</asrwt>
<pdfrwt beam="1">  1        2 0.20258951E+00 0.25145989E+03</pdfrwt>
<pdfrwt beam="2">  1       -2 0.75341774E-02 0.25145989E+03</pdfrwt>
<totfact> 0.17850478E+03</totfact>
</mgrwt>
</event>
<event>
 4    1  0.8249026E-001  0.2149145E+03  0.7546771E-02  0.1137732E+00
         -2   -1    0    0    0  501 -0.00000000000E+00  0.00000000000E+00  0.43268087829E+02  0.43268087829E+02  0.00000000000E+00 0.  1.
          2   -1    0    0  502    0  0.00000000000E+00 -0.00000000000E+00 -0.10708179381E+04  0.10708179381E+04  0.00000000000E+00 0. -1.
          6    1    1    2  502    0 -0.91096978329E+02 -0.89222110851E+02 -0.48272014823E+03  0.52840040313E+03  0.17300000000E+03 0.  1.
         -6    1    1    2    0  501  0.91096978329E+02  0.89222110851E+02 -0.54482970208E+03  0.58568562283E+03  0.17300000000E+03 0. -1.
<mgrwt>
<rscale>  2 0.21491451E+03</rscale>
<asrwt>0</asrwt>
<pdfrwt beam="2">  1        2 0.16474121E+00 0.21491451E+03</pdfrwt>
<pdfrwt beam="1">  1       -2 0.66566294E-02 0.21491451E+03</pdfrwt>
<totfact> 0.29827578E+03</totfact>
</mgrwt>
</event>
<event>
 4    1  0.8249026E-001  0.2019464E+03  0.7546771E-02  0.1148107E+00
          2   -1    0    0  502    0  0.00000000000E+00  0.00000000000E+00  0.17445987157E+04  0.17445987157E+04  0.00000000000E+00 0.  1.
         -2   -1    0    0    0  501 -0.00000000000E+00 -0.00000000000E+00 -0.25806997880E+02  0.25806997880E+02  0.00000000000E+00 0. -1.
          6    1    1    2  502    0 -0.10175498198E+03 -0.22344164311E+02  0.11310621230E+04  0.11489490259E+04  0.17300000000E+03 0.  1.
         -6    1    1    2    0  501  0.10175498198E+03  0.22344164311E+02  0.58772959489E+03  0.62145668775E+03  0.17300000000E+03 0. -1.
<mgrwt>
<rscale>  2 0.20194637E+03</rscale>
<asrwt>0</asrwt>
<pdfrwt beam="1">  1        2 0.26839971E+00 0.20194637E+03</pdfrwt>
<pdfrwt beam="2">  1       -2 0.39703087E-02 0.20194637E+03</pdfrwt>
<totfact> 0.28141557E+03</totfact>
</mgrwt>
</event>
<event>
 4    1  0.8249026E-001  0.2111023E+03  0.7546771E-02  0.1140696E+00
         -3   -1    0    0    0  501 -0.00000000000E+00  0.00000000000E+00  0.10981653479E+04  0.10981653479E+04  0.00000000000E+00 0.  1.
          3   -1    0    0  502    0  0.00000000000E+00 -0.00000000000E+00 -0.74065550603E+02  0.74065550603E+02  0.00000000000E+00 0. -1.
          6    1    1    2  502    0 -0.11169917744E+03  0.46459203895E+02  0.90614418392E+03  0.93040928947E+03  0.17300000000E+03 0.  1.
         -6    1    1    2    0  501  0.11169917744E+03 -0.46459203895E+02  0.11795561336E+03  0.24182160902E+03  0.17300000000E+03 0. -1.
<mgrwt>
<rscale>  2 0.21110226E+03</rscale>
<asrwt>0</asrwt>
<pdfrwt beam="2">  1        3 0.11394701E-01 0.21110226E+03</pdfrwt>
<pdfrwt beam="1">  1       -3 0.16894850E+00 0.21110226E+03</pdfrwt>
<totfact> 0.36674773E+01</totfact>
</mgrwt>
</event>
<event>
 4    1  0.8249026E-001  0.1949591E+03  0.7546771E-02  0.1154063E+00
         -3   -1    0    0    0  501 -0.00000000000E+00  0.00000000000E+00  0.16677823862E+03  0.16677823862E+03  0.00000000000E+00 0.  1.
          3   -1    0    0  502    0  0.00000000000E+00 -0.00000000000E+00 -0.24656687045E+03  0.24656687045E+03  0.00000000000E+00 0. -1.
          6    1    1    2  502    0  0.89773609986E+02 -0.45534562085E+01 -0.96757615971E+02  0.21764896338E+03  0.17300000000E+03 0.  1.
         -6    1    1    2    0  501 -0.89773609986E+02  0.45534562085E+01  0.16968984140E+02  0.19569614569E+03  0.17300000000E+03 0.  1.
<mgrwt>
<rscale>  2 0.19495906E+03</rscale>
<asrwt>0</asrwt>
<pdfrwt beam="2">  1        3 0.37933365E-01 0.19495906E+03</pdfrwt>
<pdfrwt beam="1">  1       -3 0.25658191E-01 0.19495906E+03</pdfrwt>
<totfact> 0.24018615E+02</totfact>
</mgrwt>
</event>
<event>
 4    1  0.8249026E-001  0.1897572E+03  0.7546771E-02  0.1158680E+00
         -1   -1    0    0    0  501 -0.00000000000E+00  0.00000000000E+00  0.39691588785E+02  0.39691588785E+02  0.00000000000E+00 0.  1.
          1   -1    0    0  502    0  0.00000000000E+00 -0.00000000000E+00 -0.90751830981E+03  0.90751830981E+03  0.00000000000E+00 0. -1.
          6    1    1    2  502    0 -0.48360020079E+01  0.77816567824E+02 -0.42490279917E+03  0.46534953947E+03  0.17300000000E+03 0.  1.
         -6    1    1    2    0  501  0.48360020079E+01 -0.77816567824E+02 -0.44292392186E+03  0.48186035913E+03  0.17300000000E+03 0.  1.
<mgrwt>
<rscale>  2 0.18975723E+03</rscale>
<asrwt>0</asrwt>
<pdfrwt beam="2">  1        1 0.13961818E+00 0.18975723E+03</pdfrwt>
<pdfrwt beam="1">  1       -1 0.61063994E-02 0.18975723E+03</pdfrwt>
<totfact> 0.24349621E+03</totfact>
</mgrwt>
</event>
<event>
 4    1  0.8249026E-001  0.1922188E+03  0.7546771E-02  0.1156475E+00
          1   -1    0    0  502    0  0.00000000000E+00  0.00000000000E+00  0.24666941069E+04  0.24666941069E+04  0.00000000000E+00 0.  1.
         -1   -1    0    0    0  501 -0.00000000000E+00 -0.00000000000E+00 -0.15082519058E+02  0.15082519058E+02  0.00000000000E+00 0. -1.
          6    1    1    2  502    0  0.54095186827E+02  0.63974699564E+02  0.13287214081E+04  0.13425530275E+04  0.17300000000E+03 0. -1.
         -6    1    1    2    0  501 -0.54095186827E+02 -0.63974699564E+02  0.11228901797E+04  0.11392235984E+04  0.17300000000E+03 0. -1.
<mgrwt>
<rscale>  2 0.19221876E+03</rscale>
<asrwt>0</asrwt>
<pdfrwt beam="1">  1        1 0.37949108E+00 0.19221876E+03</pdfrwt>
<pdfrwt beam="2">  1       -1 0.23203895E-02 0.19221876E+03</pdfrwt>
<totfact> 0.92849718E+02</totfact>
</mgrwt>
</event>
<event>
 4    1  0.8249026E-001  0.1927650E+03  0.7546771E-02  0.1155991E+00
          1   -1    0    0  502    0  0.00000000000E+00  0.00000000000E+00  0.45596025235E+02  0.45596025235E+02  0.00000000000E+00 0. -1.
         -1   -1    0    0    0  501 -0.00000000000E+00 -0.00000000000E+00 -0.10721383864E+04  0.10721383864E+04  0.00000000000E+00 0.  1.
          6    1    1    2  502    0 -0.85018327821E+02  0.11151825028E+01 -0.78699407394E+03  0.81025800342E+03  0.17300000000E+03 0.  1.
         -6    1    1    2    0  501  0.85018327821E+02 -0.11151825028E+01 -0.23954828725E+03  0.30747640824E+03  0.17300000000E+03 0. -1.
<mgrwt>
<rscale>  2 0.19276504E+03</rscale>
<asrwt>0</asrwt>
<pdfrwt beam="1">  1        1 0.70147735E-02 0.19276504E+03</pdfrwt>
<pdfrwt beam="2">  1       -1 0.16494436E+00 0.19276504E+03</pdfrwt>
<totfact> 0.30574637E+02</totfact>
</mgrwt>
</event>
<event>
 4    1  0.8249026E-001  0.1731004E+03  0.7546771E-02  0.1174653E+00
         -2   -1    0    0    0  501 -0.00000000000E+00  0.00000000000E+00  0.12983926569E+02  0.12983926569E+02  0.00000000000E+00 0. -1.
          2   -1    0    0  502    0  0.00000000000E+00 -0.00000000000E+00 -0.33138132662E+04  0.33138132662E+04  0.00000000000E+00 0.  1.
          6    1    1    2  502    0 -0.51723254157E+01 -0.28257645600E+01 -0.73389116281E+03  0.75402916173E+03  0.17300000000E+03 0. -1.
         -6    1    1    2    0  501  0.51723254157E+01  0.28257645600E+01 -0.25669381769E+04  0.25727680311E+04  0.17300000000E+03 0.  1.
<mgrwt>
<rscale>  2 0.17310037E+03</rscale>
<asrwt>0</asrwt>
<pdfrwt beam="2">  1        2 0.50981727E+00 0.17310037E+03</pdfrwt>
<pdfrwt beam="1">  1       -2 0.19975278E-02 0.17310037E+03</pdfrwt>
<totfact> 0.10614913E+03</totfact>
</mgrwt>
</event>
<event>
 4    1  0.8249026E-001  0.1778435E+03  0.7546771E-02  0.1169907E+00
         -2   -1    0    0    0  501 -0.00000000000E+00  0.00000000000E+00  0.13369417514E+03  0.13369417514E+03  0.00000000000E+00 0. -1.
          2   -1    0    0  502    0  0.00000000000E+00 -0.00000000000E+00 -0.24620873428E+03  0.24620873428E+03  0.00000000000E+00 0.  1.
          6    1    1    2  502    0 -0.11133595286E+02 -0.39690923380E+02 -0.93836790920E+02  0.20108125142E+03  0.17300000000E+03 0.  1.
         -6    1    1    2    0  501  0.11133595286E+02  0.39690923380E+02 -0.18677768214E+02  0.17882165800E+03  0.17300000000E+03 0. -1.
<mgrwt>
<rscale>  2 0.17784354E+03</rscale>
<asrwt>0</asrwt>
<pdfrwt beam="2">  1        2 0.37878266E-01 0.17784354E+03</pdfrwt>
<pdfrwt beam="1">  1       -2 0.20568335E-01 0.17784354E+03</pdfrwt>
<totfact> 0.26640301E+03</totfact>
</mgrwt>
</event>
<event>
 4    1  0.8249026E-001  0.2216230E+03  0.7546771E-02  0.1132679E+00
         -2   -1    0    0    0  501 -0.00000000000E+00  0.00000000000E+00  0.16709944611E+02  0.16709944611E+02  0.00000000000E+00 0. -1.
          2   -1    0    0  502    0  0.00000000000E+00 -0.00000000000E+00 -0.29402581933E+04  0.29402581933E+04  0.00000000000E+00 0.  1.
          6    1    1    2  502    0 -0.11176462728E+03 -0.81831594068E+02 -0.14874432931E+04  0.15038631227E+04  0.17300000000E+03 0. -1.
         -6    1    1    2    0  501  0.11176462728E+03  0.81831594068E+02 -0.14361049556E+04  0.14531050152E+04  0.17300000000E+03 0. -1.
<mgrwt>
<rscale>  2 0.22162297E+03</rscale>
<asrwt>0</asrwt>
<pdfrwt beam="2">  1        2 0.45234730E+00 0.22162297E+03</pdfrwt>
<pdfrwt beam="1">  1       -2 0.25707613E-02 0.22162297E+03</pdfrwt>
<totfact> 0.12150107E+03</totfact>
</mgrwt>
</event>
<event>
 4    1  0.8249026E-001  0.4805584E+03  0.7546771E-02  0.1018982E+00
         -2   -1    0    0    0  501 -0.00000000000E+00  0.00000000000E+00  0.25530988218E+03  0.25530988218E+03  0.00000000000E+00 0.  1.
          2   -1    0    0  502    0  0.00000000000E+00 -0.00000000000E+00 -0.12640532133E+04  0.12640532133E+04  0.00000000000E+00 0. -1.
          6    1    1    2  502    0 -0.14593755599E+03 -0.42392173081E+03 -0.99227018608E+02  0.49069583789E+03  0.17300000000E+03 0.  1.
         -6    1    1    2    0  501  0.14593755599E+03  0.42392173081E+03 -0.90951631250E+03  0.10286672576E+04  0.17300000000E+03 0. -1.
<mgrwt>
<rscale>  2 0.48055843E+03</rscale>
<asrwt>0</asrwt>
<pdfrwt beam="2">  1        2 0.19446972E+00 0.48055843E+03</pdfrwt>
<pdfrwt beam="1">  1       -2 0.39278444E-01 0.48055843E+03</pdfrwt>
<totfact> 0.11093579E+02</totfact>
</mgrwt>
</event>
<event>
 4    1  0.8249026E-001  0.2016640E+03  0.7546771E-02  0.1148343E+00
         -1   -1    0    0    0  501 -0.00000000000E+00  0.00000000000E+00  0.52252587640E+02  0.52252587640E+02  0.00000000000E+00 0. -1.
          1   -1    0    0  502    0  0.00000000000E+00 -0.00000000000E+00 -0.19797952932E+04  0.19797952932E+04  0.00000000000E+00 0.  1.
          6    1    1    2  502    0 -0.91025218958E+02 -0.49535536170E+02 -0.17552774113E+04  0.17668240293E+04  0.17300000000E+03 0.  1.
         -6    1    1    2    0  501  0.91025218958E+02  0.49535536170E+02 -0.17226529427E+03  0.26522385157E+03  0.17300000000E+03 0. -1.
<mgrwt>
<rscale>  2 0.20166398E+03</rscale>
<asrwt>0</asrwt>
<pdfrwt beam="2">  1        1 0.30458386E+00 0.20166398E+03</pdfrwt>
<pdfrwt beam="1">  1       -1 0.80388606E-02 0.20166398E+03</pdfrwt>
<totfact> 0.30206519E+02</totfact>
</mgrwt>
</event>
<event>
 4    1  0.8249026E-001  0.3283122E+03  0.7546771E-02  0.1071886E+00
          2   -1    0    0  502    0  0.00000000000E+00  0.00000000000E+00  0.68992569280E+03  0.68992569280E+03  0.00000000000E+00 0.  1.
         -2   -1    0    0    0  501 -0.00000000000E+00 -0.00000000000E+00 -0.40995889620E+03  0.40995889620E+03  0.00000000000E+00 0. -1.
          6    1    1    2  502    0  0.27862680026E+03  0.15066707667E+02  0.57262640233E+03  0.66006809963E+03  0.17300000000E+03 0.  1.
         -6    1    1    2    0  501 -0.27862680026E+03 -0.15066707667E+02 -0.29265960573E+03  0.43981648938E+03  0.17300000000E+03 0. -1.
<mgrwt>
<rscale>  2 0.32831220E+03</rscale>
<asrwt>0</asrwt>
<pdfrwt beam="1">  1        2 0.10614241E+00 0.32831220E+03</pdfrwt>
<pdfrwt beam="2">  1       -2 0.63070599E-01 0.32831220E+03</pdfrwt>
<totfact> 0.10208192E+02</totfact>
</mgrwt>
</event>
<event>
 4    1  0.8249026E-001  0.1829067E+03  0.7546771E-02  0.1165019E+00
          1   -1    0    0  502    0  0.00000000000E+00  0.00000000000E+00  0.27938015148E+03  0.27938015148E+03  0.00000000000E+00 0.  1.
         -1   -1    0    0    0  501 -0.00000000000E+00 -0.00000000000E+00 -0.13265165423E+03  0.13265165423E+03  0.00000000000E+00 0. -1.
          6    1    1    2  502    0  0.38464821726E+02  0.45236427364E+02  0.13762134517E+03  0.22889847426E+03  0.17300000000E+03 0.  1.
         -6    1    1    2    0  501 -0.38464821726E+02 -0.45236427364E+02  0.91071520786E+01  0.18313333146E+03  0.17300000000E+03 0.  1.
<mgrwt>
<rscale>  2 0.18290674E+03</rscale>
<asrwt>0</asrwt>
<pdfrwt beam="1">  1        1 0.42981562E-01 0.18290674E+03</pdfrwt>
<pdfrwt beam="2">  1       -1 0.20407947E-01 0.18290674E+03</pdfrwt>
<totfact> 0.18490763E+03</totfact>
</mgrwt>
</event>
<event>
 4    1  0.8249026E-001  0.1818395E+03  0.7546771E-02  0.1166035E+00
         -2   -1    0    0    0  501 -0.00000000000E+00  0.00000000000E+00  0.18855882942E+02  0.18855882942E+02  0.00000000000E+00 0. -1.
          2   -1    0    0  502    0  0.00000000000E+00 -0.00000000000E+00 -0.17910606359E+04  0.17910606359E+04  0.00000000000E+00 0.  1.
          6    1    1    2  502    0 -0.92727902081E+01 -0.55232373287E+02 -0.10169857658E+04  0.10331145375E+04  0.17300000000E+03 0.  1.
         -6    1    1    2    0  501  0.92727902081E+01  0.55232373287E+02 -0.75521898718E+03  0.77680198139E+03  0.17300000000E+03 0. -1.
<mgrwt>
<rscale>  2 0.18183949E+03</rscale>
<asrwt>0</asrwt>
<pdfrwt beam="2">  1        2 0.27554783E+00 0.18183949E+03</pdfrwt>
<pdfrwt beam="1">  1       -2 0.29009046E-02 0.18183949E+03</pdfrwt>
<totfact> 0.42462079E+03</totfact>
</mgrwt>
</event>
<event>
 4    1  0.8249026E-001  0.2015040E+03  0.7546771E-02  0.1148476E+00
         -1   -1    0    0    0  501 -0.00000000000E+00  0.00000000000E+00  0.51874100206E+02  0.51874100206E+02  0.00000000000E+00 0. -1.
          1   -1    0    0  502    0  0.00000000000E+00 -0.00000000000E+00 -0.80003342876E+03  0.80003342876E+03  0.00000000000E+00 0.  1.
          6    1    1    2  502    0 -0.69363167276E+02 -0.76574221301E+02 -0.43670738157E+03  0.48095446506E+03  0.17300000000E+03 0.  1.
         -6    1    1    2    0  501  0.69363167276E+02  0.76574221301E+02 -0.31145194699E+03  0.37095306391E+03  0.17300000000E+03 0. -1.
<mgrwt>
<rscale>  2 0.20150400E+03</rscale>
<asrwt>0</asrwt>
<pdfrwt beam="2">  1        1 0.12308207E+00 0.20150400E+03</pdfrwt>
<pdfrwt beam="1">  1       -1 0.79806308E-02 0.20150400E+03</pdfrwt>
<totfact> 0.19820789E+03</totfact>
</mgrwt>
</event>
<event>
 4    1  0.8249026E-001  0.1792450E+03  0.7546771E-02  0.1168536E+00
          1   -1    0    0  502    0  0.00000000000E+00  0.00000000000E+00  0.80735119417E+03  0.80735119417E+03  0.00000000000E+00 0. -1.
         -1   -1    0    0    0  501 -0.00000000000E+00 -0.00000000000E+00 -0.41052449221E+02  0.41052449221E+02  0.00000000000E+00 0.  1.
          6    1    1    2  502    0 -0.36464186029E+01 -0.46759920945E+02  0.45738213765E+03  0.49125065538E+03  0.17300000000E+03 0.  1.
         -6    1    1    2    0  501  0.36464186029E+01  0.46759920945E+02  0.30891660730E+03  0.35715298801E+03  0.17300000000E+03 0.  1.
<mgrwt>
<rscale>  2 0.17924505E+03</rscale>
<asrwt>0</asrwt>
<pdfrwt beam="1">  1        1 0.12420786E+00 0.17924505E+03</pdfrwt>
<pdfrwt beam="2">  1       -1 0.63157620E-02 0.17924505E+03</pdfrwt>
<totfact> 0.27786215E+03</totfact>
</mgrwt>
</event>
<event>
 4    1  0.8249026E-001  0.2266185E+03  0.7546771E-02  0.1129043E+00
          1   -1    0    0  502    0  0.00000000000E+00  0.00000000000E+00  0.31708445643E+04  0.31708445643E+04  0.00000000000E+00 0.  1.
         -1   -1    0    0    0  501 -0.00000000000E+00 -0.00000000000E+00 -0.16200917864E+02  0.16200917864E+02  0.00000000000E+00 0. -1.
          6    1    1    2  502    0 -0.13074843785E+03  0.65816400279E+02  0.16042228302E+04  0.16201502527E+04  0.17300000000E+03 0.  1.
         -6    1    1    2    0  501  0.13074843785E+03 -0.65816400279E+02  0.15504208163E+04  0.15668952295E+04  0.17300000000E+03 0.  1.
<mgrwt>
<rscale>  2 0.22661852E+03</rscale>
<asrwt>0</asrwt>
<pdfrwt beam="1">  1        1 0.48782175E+00 0.22661852E+03</pdfrwt>
<pdfrwt beam="2">  1       -1 0.24924514E-02 0.22661852E+03</pdfrwt>
<totfact> 0.27459230E+02</totfact>
</mgrwt>
</event>
<event>
 4    1  0.8249026E-001  0.2025623E+03  0.7546771E-02  0.1147595E+00
          2   -1    0    0  502    0  0.00000000000E+00  0.00000000000E+00  0.34673254200E+03  0.34673254200E+03  0.00000000000E+00 0. -1.
         -2   -1    0    0    0  501 -0.00000000000E+00 -0.00000000000E+00 -0.14376684961E+03  0.14376684961E+03  0.00000000000E+00 0.  1.
          6    1    1    2  502    0  0.98808661782E+02  0.36596967847E+02  0.20462733983E+03  0.28793026570E+03  0.17300000000E+03 0. -1.
         -6    1    1    2    0  501 -0.98808661782E+02 -0.36596967847E+02 -0.16616474444E+01  0.20256912591E+03  0.17300000000E+03 0.  1.
<mgrwt>
<rscale>  2 0.20256231E+03</rscale>
<asrwt>0</asrwt>
<pdfrwt beam="1">  1        2 0.53343468E-01 0.20256231E+03</pdfrwt>
<pdfrwt beam="2">  1       -2 0.22117977E-01 0.20256231E+03</pdfrwt>
<totfact> 0.16353429E+03</totfact>
</mgrwt>
</event>
<event>
 4    1  0.8249026E-001  0.1846928E+03  0.7546771E-02  0.1163337E+00
         -1   -1    0    0    0  501 -0.00000000000E+00  0.00000000000E+00  0.75092369533E+03  0.75092369533E+03  0.00000000000E+00 0.  1.
          1   -1    0    0  502    0  0.00000000000E+00 -0.00000000000E+00 -0.45952046425E+02  0.45952046425E+02  0.00000000000E+00 0. -1.
          6    1    1    2  502    0 -0.64666564073E+02  0.80898049867E+00  0.39511850697E+03  0.43615370400E+03  0.17300000000E+03 0. -1.
         -6    1    1    2    0  501  0.64666564073E+02 -0.80898049867E+00  0.30985314193E+03  0.36072203775E+03  0.17300000000E+03 0. -1.
<mgrwt>
<rscale>  2 0.18469277E+03</rscale>
<asrwt>0</asrwt>
<pdfrwt beam="2">  1        1 0.70695461E-02 0.18469277E+03</pdfrwt>
<pdfrwt beam="1">  1       -1 0.11552671E+00 0.18469277E+03</pdfrwt>
<totfact> 0.74175719E+02</totfact>
</mgrwt>
</event>
<event>
 4    1  0.8249026E-001  0.3326395E+03  0.7546771E-02  0.1069975E+00
         -2   -1    0    0    0  501 -0.00000000000E+00  0.00000000000E+00  0.32633083070E+02  0.32633083070E+02  0.00000000000E+00 0.  1.
          2   -1    0    0  502    0  0.00000000000E+00 -0.00000000000E+00 -0.35960133789E+04  0.35960133789E+04  0.00000000000E+00 0. -1.
          6    1    1    2  502    0 -0.20394018435E+03  0.19780907728E+03 -0.13481677900E+04  0.13885983652E+04  0.17300000000E+03 0. -1.
         -6    1    1    2    0  501  0.20394018435E+03 -0.19780907728E+03 -0.22152125058E+04  0.22400480967E+04  0.17300000000E+03 0.  1.
<mgrwt>
<rscale>  2 0.33263949E+03</rscale>
<asrwt>0</asrwt>
<pdfrwt beam="2">  1        2 0.55323286E+00 0.33263949E+03</pdfrwt>
<pdfrwt beam="1">  1       -2 0.50204740E-02 0.33263949E+03</pdfrwt>
<totfact> 0.16684819E+02</totfact>
</mgrwt>
</event>
<event>
 4    1  0.8249026E-001  0.1759323E+03  0.7546771E-02  0.1171799E+00
         -2   -1    0    0    0  501 -0.00000000000E+00  0.00000000000E+00  0.22145621711E+03  0.22145621711E+03  0.00000000000E+00 0.  1.
          2   -1    0    0  502    0  0.00000000000E+00 -0.00000000000E+00 -0.20989531001E+03  0.20989531001E+03  0.00000000000E+00 0. -1.
          6    1    1    2  502    0 -0.25389570555E+02 -0.19456471252E+02  0.13044641002E+03  0.21901700951E+03  0.17300000000E+03 0.  1.
         -6    1    1    2    0  501  0.25389570555E+02  0.19456471252E+02 -0.11888550292E+03  0.21233451762E+03  0.17300000000E+03 0. -1.
<mgrwt>
<rscale>  2 0.17593233E+03</rscale>
<asrwt>0</asrwt>
<pdfrwt beam="2">  1        2 0.32291586E-01 0.17593233E+03</pdfrwt>
<pdfrwt beam="1">  1       -2 0.34070187E-01 0.17593233E+03</pdfrwt>
<totfact> 0.12924615E+03</totfact>
</mgrwt>
</event>
<event>
 4    1  0.8249026E-001  0.3345636E+03  0.7546771E-02  0.1069135E+00
          1   -1    0    0  502    0  0.00000000000E+00  0.00000000000E+00  0.83033486853E+02  0.83033486853E+02  0.00000000000E+00 0. -1.
         -1   -1    0    0    0  501 -0.00000000000E+00 -0.00000000000E+00 -0.13480483539E+04  0.13480483539E+04  0.00000000000E+00 0.  1.
          6    1    1    2  502    0  0.10037969219E+03 -0.26819348910E+03 -0.63372683729E+03  0.71661882092E+03  0.17300000000E+03 0.  1.
         -6    1    1    2    0  501 -0.10037969219E+03  0.26819348910E+03 -0.63128802978E+03  0.71446301986E+03  0.17300000000E+03 0. -1.
<mgrwt>
<rscale>  2 0.33456364E+03</rscale>
<asrwt>0</asrwt>
<pdfrwt beam="1">  1        1 0.12774383E-01 0.33456364E+03</pdfrwt>
<pdfrwt beam="2">  1       -1 0.20739204E+00 0.33456364E+03</pdfrwt>
<totfact> 0.68353459E+01</totfact>
</mgrwt>
</event>
<event>
 4    1  0.8249026E-001  0.1744057E+03  0.7546771E-02  0.1173330E+00
          1   -1    0    0  502    0  0.00000000000E+00  0.00000000000E+00  0.22070632011E+03  0.22070632011E+03  0.00000000000E+00 0.  1.
         -1   -1    0    0    0  501 -0.00000000000E+00 -0.00000000000E+00 -0.21967450479E+03  0.21967450479E+03  0.00000000000E+00 0. -1.
          6    1    1    2  502    0  0.22094222924E+02  0.42766773924E+00  0.13492689369E+03  0.22050533832E+03  0.17300000000E+03 0.  1.
         -6    1    1    2    0  501 -0.22094222924E+02 -0.42766773924E+00 -0.13389507837E+03  0.21987548658E+03  0.17300000000E+03 0. -1.
<mgrwt>
<rscale>  2 0.17440567E+03</rscale>
<asrwt>0</asrwt>
<pdfrwt beam="1">  1        1 0.33954818E-01 0.17440567E+03</pdfrwt>
<pdfrwt beam="2">  1       -1 0.33796078E-01 0.17440567E+03</pdfrwt>
<totfact> 0.10699046E+03</totfact>
</mgrwt>
</event>
<event>
 4    1  0.8249026E-001  0.1730873E+03  0.7546771E-02  0.1174666E+00
          2   -1    0    0  502    0  0.00000000000E+00  0.00000000000E+00  0.13516826617E+04  0.13516826617E+04  0.00000000000E+00 0.  1.
         -2   -1    0    0    0  501 -0.00000000000E+00 -0.00000000000E+00 -0.23673409495E+02  0.23673409495E+02  0.00000000000E+00 0. -1.
          6    1    1    2  502    0  0.19153621472E+01  0.51523923187E+01  0.83762584564E+03  0.85532232115E+03  0.17300000000E+03 0.  1.
         -6    1    1    2    0  501 -0.19153621472E+01 -0.51523923187E+01  0.49038340652E+03  0.52003375001E+03  0.17300000000E+03 0. -1.
<mgrwt>
<rscale>  2 0.17308731E+03</rscale>
<asrwt>0</asrwt>
<pdfrwt beam="1">  1        2 0.20795112E+00 0.17308731E+03</pdfrwt>
<pdfrwt beam="2">  1       -2 0.36420640E-02 0.17308731E+03</pdfrwt>
<totfact> 0.51468582E+03</totfact>
</mgrwt>
</event>
<event>
 4    1  0.8249026E-001  0.1746021E+03  0.7546771E-02  0.1173132E+00
          4   -1    0    0  502    0  0.00000000000E+00  0.00000000000E+00  0.10184764485E+03  0.10184764485E+03  0.00000000000E+00 0. -1.
         -4   -1    0    0    0  501 -0.00000000000E+00 -0.00000000000E+00 -0.32152772416E+03  0.32152772416E+03  0.00000000000E+00 0.  1.
          6    1    1    2  502    0  0.17194760026E+02 -0.16162912575E+02 -0.54216888448E+02  0.18282606627E+03  0.17300000000E+03 0. -1.
         -6    1    1    2    0  501 -0.17194760026E+02  0.16162912575E+02 -0.16546319087E+03  0.24054930274E+03  0.17300000000E+03 0.  1.
<mgrwt>
<rscale>  2 0.17460212E+03</rscale>
<asrwt>0</asrwt>
<pdfrwt beam="1">  1        4 0.15668869E-01 0.17460212E+03</pdfrwt>
<pdfrwt beam="2">  1       -4 0.49465803E-01 0.17460212E+03</pdfrwt>
<totfact> 0.24091013E+02</totfact>
</mgrwt>
</event>
<event>
 4    1  0.8249026E-001  0.2828728E+03  0.7546771E-02  0.1094130E+00
          1   -1    0    0  502    0  0.00000000000E+00  0.00000000000E+00  0.24168595100E+03  0.24168595100E+03  0.00000000000E+00 0.  1.
         -1   -1    0    0    0  501 -0.00000000000E+00 -0.00000000000E+00 -0.36416673041E+03  0.36416673041E+03  0.00000000000E+00 0. -1.
          6    1    1    2  502    0  0.20315477539E+03 -0.93894397199E+02 -0.15255151976E+03  0.32138604010E+03  0.17300000000E+03 0. -1.
         -6    1    1    2    0  501 -0.20315477539E+03  0.93894397199E+02  0.30070740346E+02  0.28446664130E+03  0.17300000000E+03 0.  1.
<mgrwt>
<rscale>  2 0.28287280E+03</rscale>
<asrwt>0</asrwt>
<pdfrwt beam="1">  1        1 0.37182454E-01 0.28287280E+03</pdfrwt>
<pdfrwt beam="2">  1       -1 0.56025651E-01 0.28287280E+03</pdfrwt>
<totfact> 0.38404718E+02</totfact>
</mgrwt>
</event>
<event>
 4    1  0.8249026E-001  0.2189289E+03  0.7546771E-02  0.1134684E+00
         -1   -1    0    0    0  501 -0.00000000000E+00  0.00000000000E+00  0.90532403669E+02  0.90532403669E+02  0.00000000000E+00 0.  1.
          1   -1    0    0  502    0  0.00000000000E+00 -0.00000000000E+00 -0.58230078748E+03  0.58230078748E+03  0.00000000000E+00 0. -1.
          6    1    1    2  502    0 -0.10877874966E+03 -0.78536818601E+02 -0.34726234488E+03  0.41051307461E+03  0.17300000000E+03 0. -1.
         -6    1    1    2    0  501  0.10877874966E+03  0.78536818601E+02 -0.14450603893E+03  0.26232011654E+03  0.17300000000E+03 0.  1.
<mgrwt>
<rscale>  2 0.21892887E+03</rscale>
<asrwt>0</asrwt>
<pdfrwt beam="2">  1        1 0.89584737E-01 0.21892887E+03</pdfrwt>
<pdfrwt beam="1">  1       -1 0.13928062E-01 0.21892887E+03</pdfrwt>
<totfact> 0.13250593E+03</totfact>
</mgrwt>
</event>
<event>
 4    1  0.8249026E-001  0.2005750E+03  0.7546771E-02  0.1149255E+00
         -1   -1    0    0    0  501 -0.00000000000E+00  0.00000000000E+00  0.15073000089E+02  0.15073000089E+02  0.00000000000E+00 0.  1.
          1   -1    0    0  502    0  0.00000000000E+00 -0.00000000000E+00 -0.31694705316E+04  0.31694705316E+04  0.00000000000E+00 0. -1.
          6    1    1    2  502    0  0.91676457802E+02  0.43551923773E+02 -0.94449774975E+03  0.96556011841E+03  0.17300000000E+03 0.  1.
         -6    1    1    2    0  501 -0.91676457802E+02 -0.43551923773E+02 -0.22098997817E+04  0.22189834133E+04  0.17300000000E+03 0. -1.
<mgrwt>
<rscale>  2 0.20057503E+03</rscale>
<asrwt>0</asrwt>
<pdfrwt beam="2">  1        1 0.48761124E+00 0.20057503E+03</pdfrwt>
<pdfrwt beam="1">  1       -1 0.23189212E-02 0.20057503E+03</pdfrwt>
<totfact> 0.30815199E+02</totfact>
</mgrwt>
</event>
<event>
 4    1  0.8249026E-001  0.1857389E+03  0.7546771E-02  0.1162362E+00
         -2   -1    0    0    0  501 -0.00000000000E+00  0.00000000000E+00  0.20492554098E+03  0.20492554098E+03  0.00000000000E+00 0. -1.
          2   -1    0    0  502    0  0.00000000000E+00 -0.00000000000E+00 -0.18116844106E+03  0.18116844106E+03  0.00000000000E+00 0.  1.
          6    1    1    2  502    0  0.65692659560E+01  0.67281347651E+02  0.63231157340E+02  0.19620681501E+03  0.17300000000E+03 0. -1.
         -6    1    1    2    0  501 -0.65692659560E+01 -0.67281347651E+02 -0.39474057417E+02  0.18988716704E+03  0.17300000000E+03 0.  1.
<mgrwt>
<rscale>  2 0.18573889E+03</rscale>
<asrwt>0</asrwt>
<pdfrwt beam="2">  1        2 0.27872068E-01 0.18573889E+03</pdfrwt>
<pdfrwt beam="1">  1       -2 0.31527006E-01 0.18573889E+03</pdfrwt>
<totfact> 0.17531184E+03</totfact>
</mgrwt>
</event>
<event>
 4    1  0.8249026E-001  0.1809289E+03  0.7546771E-02  0.1166907E+00
          1   -1    0    0  502    0  0.00000000000E+00  0.00000000000E+00  0.42644474121E+03  0.42644474121E+03  0.00000000000E+00 0.  1.
         -1   -1    0    0    0  501 -0.00000000000E+00 -0.00000000000E+00 -0.11292432701E+03  0.11292432701E+03  0.00000000000E+00 0. -1.
          6    1    1    2  502    0  0.30363372989E+02 -0.43408793626E+02  0.41500859029E+01  0.18097646531E+03  0.17300000000E+03 0. -1.
         -6    1    1    2    0  501 -0.30363372989E+02  0.43408793626E+02  0.30937032830E+03  0.35839260291E+03  0.17300000000E+03 0. -1.
<mgrwt>
<rscale>  2 0.18092887E+03</rscale>
<asrwt>0</asrwt>
<pdfrwt beam="1">  1        1 0.65606882E-01 0.18092887E+03</pdfrwt>
<pdfrwt beam="2">  1       -1 0.17372974E-01 0.18092887E+03</pdfrwt>
<totfact> 0.14056230E+03</totfact>
</mgrwt>
</event>
<event>
 4    1  0.8249026E-001  0.2948242E+03  0.7546771E-02  0.1087857E+00
         -2   -1    0    0    0  501 -0.00000000000E+00  0.00000000000E+00  0.61577936998E+03  0.61577936998E+03  0.00000000000E+00 0.  1.
          2   -1    0    0  502    0  0.00000000000E+00 -0.00000000000E+00 -0.16331968495E+03  0.16331968495E+03  0.00000000000E+00 0. -1.
          6    1    1    2  502    0  0.98599388975E+02  0.21741773145E+03  0.36973209687E+03  0.47288807651E+03  0.17300000000E+03 0.  1.
         -6    1    1    2    0  501 -0.98599388975E+02 -0.21741773145E+03  0.82727588162E+02  0.30621097841E+03  0.17300000000E+03 0. -1.
<mgrwt>
<rscale>  2 0.29482420E+03</rscale>
<asrwt>0</asrwt>
<pdfrwt beam="2">  1        2 0.25126106E-01 0.29482420E+03</pdfrwt>
<pdfrwt beam="1">  1       -2 0.94735286E-01 0.29482420E+03</pdfrwt>
<totfact> 0.20879424E+02</totfact>
</mgrwt>
</event>
<event>
 4    1  0.8249026E-001  0.2134017E+03  0.7546771E-02  0.1138900E+00
          2   -1    0    0  502    0  0.00000000000E+00  0.00000000000E+00  0.21782925211E+04  0.21782925211E+04  0.00000000000E+00 0. -1.
         -2   -1    0    0    0  501 -0.00000000000E+00 -0.00000000000E+00 -0.20924644888E+02  0.20924644888E+02  0.00000000000E+00 0.  1.
          6    1    1    2  502    0 -0.72048306453E+02  0.10208009516E+03  0.11111335043E+04  0.11314406607E+04  0.17300000000E+03 0.  1.
         -6    1    1    2    0  501  0.72048306453E+02 -0.10208009516E+03  0.10462343720E+04  0.10677765053E+04  0.17300000000E+03 0.  1.
<mgrwt>
<rscale>  2 0.21340174E+03</rscale>
<asrwt>0</asrwt>
<pdfrwt beam="1">  1        2 0.33512175E+00 0.21340174E+03</pdfrwt>
<pdfrwt beam="2">  1       -2 0.32191779E-02 0.21340174E+03</pdfrwt>
<totfact> 0.22864227E+03</totfact>
</mgrwt>
</event>
<event>
 4    1  0.8249026E-001  0.2758803E+03  0.7546771E-02  0.1097961E+00
         -2   -1    0    0    0  501 -0.00000000000E+00  0.00000000000E+00  0.33052611215E+03  0.33052611215E+03  0.00000000000E+00 0.  1.
          2   -1    0    0  502    0  0.00000000000E+00 -0.00000000000E+00 -0.26957901635E+03  0.26957901635E+03  0.00000000000E+00 0. -1.
          6    1    1    2  502    0 -0.15587009536E+03  0.14793729788E+03  0.14505272227E+03  0.31168930519E+03  0.17300000000E+03 0.  1.
         -6    1    1    2    0  501  0.15587009536E+03 -0.14793729788E+03 -0.84105626472E+02  0.28841582331E+03  0.17300000000E+03 0. -1.
<mgrwt>
<rscale>  2 0.27588028E+03</rscale>
<asrwt>0</asrwt>
<pdfrwt beam="2">  1        2 0.41473695E-01 0.27588028E+03</pdfrwt>
<pdfrwt beam="1">  1       -2 0.50850171E-01 0.27588028E+03</pdfrwt>
<totfact> 0.45810398E+02</totfact>
</mgrwt>
</event>
<event>
 4    1  0.8249026E-001  0.2018763E+03  0.7546771E-02  0.1148166E+00
         -2   -1    0    0    0  501 -0.00000000000E+00  0.00000000000E+00  0.71676272361E+02  0.71676272361E+02  0.00000000000E+00 0. -1.
          2   -1    0    0  502    0  0.00000000000E+00 -0.00000000000E+00 -0.78314301294E+03  0.78314301294E+03  0.00000000000E+00 0.  1.
          6    1    1    2  502    0  0.88025468939E+02 -0.55466761544E+02 -0.57944896889E+03  0.61360830533E+03  0.17300000000E+03 0.  1.
         -6    1    1    2    0  501 -0.88025468939E+02  0.55466761544E+02 -0.13201777169E+03  0.24121097997E+03  0.17300000000E+03 0.  1.
<mgrwt>
<rscale>  2 0.20187631E+03</rscale>
<asrwt>0</asrwt>
<pdfrwt beam="2">  1        2 0.12048354E+00 0.20187631E+03</pdfrwt>
<pdfrwt beam="1">  1       -2 0.11027119E-01 0.20187631E+03</pdfrwt>
<totfact> 0.20565228E+03</totfact>
</mgrwt>
</event>
<event>
 4    1  0.8249026E-001  0.1872396E+03  0.7546771E-02  0.1160975E+00
         -2   -1    0    0    0  501 -0.00000000000E+00  0.00000000000E+00  0.71390402731E+02  0.71390402731E+02  0.00000000000E+00 0. -1.
          2   -1    0    0  502    0  0.00000000000E+00 -0.00000000000E+00 -0.52305889840E+03  0.52305889840E+03  0.00000000000E+00 0.  1.
          6    1    1    2  502    0 -0.54473158285E+02  0.46500798433E+02 -0.29932242464E+03  0.35306169875E+03  0.17300000000E+03 0.  1.
         -6    1    1    2    0  501  0.54473158285E+02 -0.46500798433E+02 -0.15234607103E+03  0.24138760239E+03  0.17300000000E+03 0. -1.
<mgrwt>
<rscale>  2 0.18723955E+03</rscale>
<asrwt>0</asrwt>
<pdfrwt beam="2">  1        2 0.80470600E-01 0.18723955E+03</pdfrwt>
<pdfrwt beam="1">  1       -2 0.10983139E-01 0.18723955E+03</pdfrwt>
<totfact> 0.33228918E+03</totfact>
</mgrwt>
</event>
<event>
 4    1  0.8249026E-001  0.1862811E+03  0.7546771E-02  0.1161859E+00
         -2   -1    0    0    0  501 -0.00000000000E+00  0.00000000000E+00  0.39454369513E+02  0.39454369513E+02  0.00000000000E+00 0. -1.
          2   -1    0    0  502    0  0.00000000000E+00 -0.00000000000E+00 -0.21842657870E+04  0.21842657870E+04  0.00000000000E+00 0.  1.
          6    1    1    2  502    0  0.64423553295E+02 -0.24924900316E+02 -0.21307278167E+03  0.28302059141E+03  0.17300000000E+03 0. -1.
         -6    1    1    2    0  501 -0.64423553295E+02  0.24924900316E+02 -0.19317386359E+04  0.19406995651E+04  0.17300000000E+03 0.  1.
<mgrwt>
<rscale>  2 0.18628109E+03</rscale>
<asrwt>0</asrwt>
<pdfrwt beam="2">  1        2 0.33604092E+00 0.18628109E+03</pdfrwt>
<pdfrwt beam="1">  1       -2 0.60699024E-02 0.18628109E+03</pdfrwt>
<totfact> 0.87558398E+02</totfact>
</mgrwt>
</event>
<event>
 4    1  0.8249026E-001  0.1731951E+03  0.7546771E-02  0.1174556E+00
          3   -1    0    0  502    0  0.00000000000E+00  0.00000000000E+00  0.58675083342E+02  0.58675083342E+02  0.00000000000E+00 0.  1.
         -3   -1    0    0    0  501 -0.00000000000E+00 -0.00000000000E+00 -0.51129818053E+03  0.51129818053E+03  0.00000000000E+00 0. -1.
          6    1    1    2  502    0 -0.65539812137E+01 -0.49590874062E+01 -0.22305551054E+03  0.28240097025E+03  0.17300000000E+03 0. -1.
         -6    1    1    2    0  501  0.65539812137E+01  0.49590874062E+01 -0.22956758665E+03  0.28757229362E+03  0.17300000000E+03 0. -1.
<mgrwt>
<rscale>  2 0.17319511E+03</rscale>
<asrwt>0</asrwt>
<pdfrwt beam="1">  1        3 0.90269361E-02 0.17319511E+03</pdfrwt>
<pdfrwt beam="2">  1       -3 0.78661257E-01 0.17319511E+03</pdfrwt>
<totfact> 0.32480103E+02</totfact>
</mgrwt>
</event>
<event>
 4    1  0.8249026E-001  0.1740563E+03  0.7546771E-02  0.1173683E+00
          2   -1    0    0  502    0  0.00000000000E+00  0.00000000000E+00  0.52365933034E+03  0.52365933034E+03  0.00000000000E+00 0. -1.
         -2   -1    0    0    0  501 -0.00000000000E+00 -0.00000000000E+00 -0.82803505591E+02  0.82803505591E+02  0.00000000000E+00 0.  1.
          6    1    1    2  502    0 -0.10468799618E+02 -0.16031262541E+02  0.53977850591E+02  0.18223393070E+03  0.17300000000E+03 0.  1.
         -6    1    1    2    0  501  0.10468799618E+02  0.16031262541E+02  0.38687797415E+03  0.42422890523E+03  0.17300000000E+03 0. -1.
<mgrwt>
<rscale>  2 0.17405630E+03</rscale>
<asrwt>0</asrwt>
<pdfrwt beam="1">  1        2 0.80562972E-01 0.17405630E+03</pdfrwt>
<pdfrwt beam="2">  1       -2 0.12739001E-01 0.17405630E+03</pdfrwt>
<totfact> 0.26092335E+03</totfact>
</mgrwt>
</event>
<event>
 4    1  0.8249026E-001  0.2206788E+03  0.7546771E-02  0.1133378E+00
         -1   -1    0    0    0  501 -0.00000000000E+00  0.00000000000E+00  0.49992903215E+02  0.49992903215E+02  0.00000000000E+00 0. -1.
          1   -1    0    0  502    0  0.00000000000E+00 -0.00000000000E+00 -0.14872938675E+04  0.14872938675E+04  0.00000000000E+00 0.  1.
          6    1    1    2  502    0  0.13684733503E+03 -0.65537816058E+01 -0.26714994269E+03  0.34650863920E+03  0.17300000000E+03 0. -1.
         -6    1    1    2    0  501 -0.13684733503E+03  0.65537816058E+01 -0.11701510216E+04  0.11907781315E+04  0.17300000000E+03 0.  1.
<mgrwt>
<rscale>  2 0.22067883E+03</rscale>
<asrwt>0</asrwt>
<pdfrwt beam="2">  1        1 0.22881446E+00 0.22067883E+03</pdfrwt>
<pdfrwt beam="1">  1       -1 0.76912154E-02 0.22067883E+03</pdfrwt>
<totfact> 0.67196200E+02</totfact>
</mgrwt>
</event>
<event>
 4    1  0.8249026E-001  0.1784529E+03  0.7546771E-02  0.1169309E+00
          2   -1    0    0  502    0  0.00000000000E+00  0.00000000000E+00  0.18826209258E+03  0.18826209258E+03  0.00000000000E+00 0. -1.
         -2   -1    0    0    0  501 -0.00000000000E+00 -0.00000000000E+00 -0.23084759565E+03  0.23084759565E+03  0.00000000000E+00 0.  1.
          6    1    1    2  502    0  0.43354017635E+02 -0.60728485809E+01  0.87038059810E+02  0.19854741044E+03  0.17300000000E+03 0. -1.
         -6    1    1    2    0  501 -0.43354017635E+02  0.60728485809E+01 -0.12962356288E+03  0.22056227780E+03  0.17300000000E+03 0.  1.
<mgrwt>
<rscale>  2 0.17845294E+03</rscale>
<asrwt>0</asrwt>
<pdfrwt beam="1">  1        2 0.28963399E-01 0.17845294E+03</pdfrwt>
<pdfrwt beam="2">  1       -2 0.35515014E-01 0.17845294E+03</pdfrwt>
<totfact> 0.13478151E+03</totfact>
</mgrwt>
</event>
<event>
 4    1  0.8249026E-001  0.1745472E+03  0.7546771E-02  0.1173187E+00
         -1   -1    0    0    0  501 -0.00000000000E+00  0.00000000000E+00  0.30455929812E+02  0.30455929812E+02  0.00000000000E+00 0. -1.
          1   -1    0    0  502    0  0.00000000000E+00 -0.00000000000E+00 -0.12347078019E+04  0.12347078019E+04  0.00000000000E+00 0.  1.
          6    1    1    2  502    0  0.79517165808E+01 -0.21782732554E+02 -0.87772038142E+03  0.89490769647E+03  0.17300000000E+03 0.  1.
         -6    1    1    2    0  501 -0.79517165808E+01  0.21782732554E+02 -0.32653149062E+03  0.37025603520E+03  0.17300000000E+03 0. -1.
<mgrwt>
<rscale>  2 0.17454718E+03</rscale>
<asrwt>0</asrwt>
<pdfrwt beam="2">  1        1 0.18995503E+00 0.17454718E+03</pdfrwt>
<pdfrwt beam="1">  1       -1 0.46855280E-02 0.17454718E+03</pdfrwt>
<totfact> 0.20956489E+03</totfact>
</mgrwt>
</event>
<event>
 4    1  0.8249026E-001  0.3415946E+03  0.7546771E-02  0.1066119E+00
          2   -1    0    0  502    0  0.00000000000E+00  0.00000000000E+00  0.67839779742E+02  0.67839779742E+02  0.00000000000E+00 0.  1.
         -2   -1    0    0    0  501 -0.00000000000E+00 -0.00000000000E+00 -0.17422704651E+04  0.17422704651E+04  0.00000000000E+00 0. -1.
          6    1    1    2  502    0 -0.13665130383E+03  0.26092961296E+03 -0.93945837028E+03  0.99963436878E+03  0.17300000000E+03 0.  1.
         -6    1    1    2    0  501  0.13665130383E+03 -0.26092961296E+03 -0.73497231513E+03  0.81047587611E+03  0.17300000000E+03 0. -1.
<mgrwt>
<rscale>  2 0.34159456E+03</rscale>
<asrwt>0</asrwt>
<pdfrwt beam="1">  1        2 0.10436891E-01 0.34159456E+03</pdfrwt>
<pdfrwt beam="2">  1       -2 0.26804156E+00 0.34159456E+03</pdfrwt>
<totfact> 0.33748696E+01</totfact>
</mgrwt>
</event>
<event>
 4    1  0.8249026E-001  0.1849651E+03  0.7546771E-02  0.1163082E+00
         -2   -1    0    0    0  501 -0.00000000000E+00  0.00000000000E+00  0.57382717155E+02  0.57382717155E+02  0.00000000000E+00 0. -1.
          2   -1    0    0  502    0  0.00000000000E+00 -0.00000000000E+00 -0.12053925941E+04  0.12053925941E+04  0.00000000000E+00 0.  1.
          6    1    1    2  502    0  0.22957677728E+02 -0.61286501042E+02 -0.12515006951E+03  0.22332628613E+03  0.17300000000E+03 0. -1.
         -6    1    1    2    0  501 -0.22957677728E+02  0.61286501042E+02 -0.10228598075E+04  0.10394490252E+04  0.17300000000E+03 0.  1.
<mgrwt>
<rscale>  2 0.18496511E+03</rscale>
<asrwt>0</asrwt>
<pdfrwt beam="2">  1        2 0.18544499E+00 0.18496511E+03</pdfrwt>
<pdfrwt beam="1">  1       -2 0.88281113E-02 0.18496511E+03</pdfrwt>
<totfact> 0.16078488E+03</totfact>
</mgrwt>
</event>
<event>
 4    1  0.8249026E-001  0.1903012E+03  0.7546771E-02  0.1158190E+00
          1   -1    0    0  502    0  0.00000000000E+00  0.00000000000E+00  0.58468103488E+03  0.58468103488E+03  0.00000000000E+00 0. -1.
         -1   -1    0    0    0  501 -0.00000000000E+00 -0.00000000000E+00 -0.78817076946E+02  0.78817076946E+02  0.00000000000E+00 0.  1.
          6    1    1    2  502    0 -0.45195215324E+02 -0.65137950626E+02  0.99413385723E+02  0.21470347310E+03  0.17300000000E+03 0.  1.
         -6    1    1    2    0  501  0.45195215324E+02  0.65137950626E+02  0.40645057221E+03  0.44879463873E+03  0.17300000000E+03 0. -1.
<mgrwt>
<rscale>  2 0.19030124E+03</rscale>
<asrwt>0</asrwt>
<pdfrwt beam="1">  1        1 0.89950926E-01 0.19030124E+03</pdfrwt>
<pdfrwt beam="2">  1       -1 0.12125705E-01 0.19030124E+03</pdfrwt>
<totfact> 0.16343838E+03</totfact>
</mgrwt>
</event>
<event>
 4    1  0.8249026E-001  0.1829718E+03  0.7546771E-02  0.1164958E+00
         -1   -1    0    0    0  501 -0.00000000000E+00  0.00000000000E+00  0.47248388908E+03  0.47248388908E+03  0.00000000000E+00 0. -1.
          1   -1    0    0  502    0  0.00000000000E+00 -0.00000000000E+00 -0.71026513859E+02  0.71026513859E+02  0.00000000000E+00 0.  1.
          6    1    1    2  502    0 -0.20856137658E+02 -0.55809426223E+02  0.21401475320E+03  0.28156879287E+03  0.17300000000E+03 0.  1.
         -6    1    1    2    0  501  0.20856137658E+02  0.55809426223E+02  0.18744262202E+03  0.26194161007E+03  0.17300000000E+03 0. -1.
<mgrwt>
<rscale>  2 0.18297178E+03</rscale>
<asrwt>0</asrwt>
<pdfrwt beam="2">  1        1 0.10927156E-01 0.18297178E+03</pdfrwt>
<pdfrwt beam="1">  1       -1 0.72689827E-01 0.18297178E+03</pdfrwt>
<totfact> 0.11208293E+03</totfact>
</mgrwt>
</event>
<event>
 4    1  0.8249026E-001  0.1881721E+03  0.7546771E-02  0.1160120E+00
         -1   -1    0    0    0  501 -0.00000000000E+00  0.00000000000E+00  0.15567018283E+03  0.15567018283E+03  0.00000000000E+00 0.  1.
          1   -1    0    0  502    0  0.00000000000E+00 -0.00000000000E+00 -0.24129038289E+03  0.24129038289E+03  0.00000000000E+00 0. -1.
          6    1    1    2  502    0  0.50573039965E+02 -0.54056621725E+02 -0.90328670014E+02  0.20872953636E+03  0.17300000000E+03 0. -1.
         -6    1    1    2    0  501 -0.50573039965E+02  0.54056621725E+02  0.47084699588E+01  0.18823102936E+03  0.17300000000E+03 0.  1.
<mgrwt>
<rscale>  2 0.18817213E+03</rscale>
<asrwt>0</asrwt>
<pdfrwt beam="2">  1        1 0.37121597E-01 0.18817213E+03</pdfrwt>
<pdfrwt beam="1">  1       -1 0.23949259E-01 0.18817213E+03</pdfrwt>
<totfact> 0.17106833E+03</totfact>
</mgrwt>
</event>
<event>
 4    1  0.8249026E-001  0.1884035E+03  0.7546771E-02  0.1159909E+00
         -2   -1    0    0    0  501 -0.00000000000E+00  0.00000000000E+00  0.18081549889E+02  0.18081549889E+02  0.00000000000E+00 0. -1.
          2   -1    0    0  502    0  0.00000000000E+00 -0.00000000000E+00 -0.29804117881E+04  0.29804117881E+04  0.00000000000E+00 0.  1.
          6    1    1    2  502    0 -0.43742293616E+02 -0.60444163007E+02 -0.23570803127E+04  0.23645979544E+04  0.17300000000E+03 0.  1.
         -6    1    1    2    0  501  0.43742293616E+02  0.60444163007E+02 -0.60524992544E+03  0.63389538359E+03  0.17300000000E+03 0. -1.
<mgrwt>
<rscale>  2 0.18840352E+03</rscale>
<asrwt>0</asrwt>
<pdfrwt beam="2">  1        2 0.45852533E+00 0.18840352E+03</pdfrwt>
<pdfrwt beam="1">  1       -2 0.27817742E-02 0.18840352E+03</pdfrwt>
<totfact> 0.10320183E+03</totfact>
</mgrwt>
</event>
<event>
 4    1  0.8249026E-001  0.2226376E+03  0.7546771E-02  0.1131932E+00
         -2   -1    0    0    0  501 -0.00000000000E+00  0.00000000000E+00  0.84090692091E+02  0.84090692091E+02  0.00000000000E+00 0.  1.
          2   -1    0    0  502    0  0.00000000000E+00 -0.00000000000E+00 -0.58957881502E+03  0.58957881502E+03  0.00000000000E+00 0. -1.
          6    1    1    2  502    0  0.11269472023E+02 -0.13968353545E+03 -0.25766916261E+03  0.34053030472E+03  0.17300000000E+03 0. -1.
         -6    1    1    2    0  501 -0.11269472023E+02  0.13968353545E+03 -0.24781896032E+03  0.33313920239E+03  0.17300000000E+03 0.  1.
<mgrwt>
<rscale>  2 0.22263758E+03</rscale>
<asrwt>0</asrwt>
<pdfrwt beam="2">  1        2 0.90704430E-01 0.22263758E+03</pdfrwt>
<pdfrwt beam="1">  1       -2 0.12937030E-01 0.22263758E+03</pdfrwt>
<totfact> 0.22386151E+03</totfact>
</mgrwt>
</event>
<event>
 4    1  0.8249026E-001  0.2440704E+03  0.7546771E-02  0.1117111E+00
         -2   -1    0    0    0  501 -0.00000000000E+00  0.00000000000E+00  0.42514868605E+02  0.42514868605E+02  0.00000000000E+00 0. -1.
          2   -1    0    0  502    0  0.00000000000E+00 -0.00000000000E+00 -0.14019254082E+04  0.14019254082E+04  0.00000000000E+00 0.  1.
          6    1    1    2  502    0 -0.11392078423E+03 -0.12908691902E+03 -0.69651715193E+03  0.73804235697E+03  0.17300000000E+03 0. -1.
         -6    1    1    2    0  501  0.11392078423E+03  0.12908691902E+03 -0.66289338764E+03  0.70639791981E+03  0.17300000000E+03 0.  1.
<mgrwt>
<rscale>  2 0.24407044E+03</rscale>
<asrwt>0</asrwt>
<pdfrwt beam="2">  1        2 0.21568081E+00 0.24407044E+03</pdfrwt>
<pdfrwt beam="1">  1       -2 0.65407498E-02 0.24407044E+03</pdfrwt>
<totfact> 0.19977877E+03</totfact>
</mgrwt>
</event>
<event>
 4    1  0.8249026E-001  0.1928232E+03  0.7546771E-02  0.1155939E+00
         -1   -1    0    0    0  501 -0.00000000000E+00  0.00000000000E+00  0.65057814883E+02  0.65057814883E+02  0.00000000000E+00 0.  1.
          1   -1    0    0  502    0  0.00000000000E+00 -0.00000000000E+00 -0.58888418258E+03  0.58888418258E+03  0.00000000000E+00 0. -1.
          6    1    1    2  502    0 -0.11462057592E+02  0.84382428073E+02 -0.20574027284E+03  0.28197487973E+03  0.17300000000E+03 0. -1.
         -6    1    1    2    0  501  0.11462057592E+02 -0.84382428073E+02 -0.31808609486E+03  0.37196711773E+03  0.17300000000E+03 0. -1.
<mgrwt>
<rscale>  2 0.19282316E+03</rscale>
<asrwt>0</asrwt>
<pdfrwt beam="2">  1        1 0.90597570E-01 0.19282316E+03</pdfrwt>
<pdfrwt beam="1">  1       -1 0.10008894E-01 0.19282316E+03</pdfrwt>
<totfact> 0.21786710E+03</totfact>
</mgrwt>
</event>
<event>
 4    1  0.8249026E-001  0.2416197E+03  0.7546771E-02  0.1118719E+00
         -2   -1    0    0    0  501 -0.00000000000E+00  0.00000000000E+00  0.71920053755E+02  0.71920053755E+02  0.00000000000E+00 0. -1.
          2   -1    0    0  502    0  0.00000000000E+00 -0.00000000000E+00 -0.87235296045E+03  0.87235296045E+03  0.00000000000E+00 0.  1.
          6    1    1    2  502    0  0.21754896312E+02 -0.16726565387E+03 -0.52467354568E+03  0.57763518246E+03  0.17300000000E+03 0.  1.
         -6    1    1    2    0  501 -0.21754896312E+02  0.16726565387E+03 -0.27575936102E+03  0.36663783175E+03  0.17300000000E+03 0. -1.
<mgrwt>
<rscale>  2 0.24161969E+03</rscale>
<asrwt>0</asrwt>
<pdfrwt beam="2">  1        2 0.13420815E+00 0.24161969E+03</pdfrwt>
<pdfrwt beam="1">  1       -2 0.11064624E-01 0.24161969E+03</pdfrwt>
<totfact> 0.17840697E+03</totfact>
</mgrwt>
</event>
<event>
 4    1  0.8249026E-001  0.1790454E+03  0.7546771E-02  0.1168730E+00
          2   -1    0    0  502    0  0.00000000000E+00  0.00000000000E+00  0.26249264547E+04  0.26249264547E+04  0.00000000000E+00 0. -1.
         -2   -1    0    0    0  501 -0.00000000000E+00 -0.00000000000E+00 -0.20552807583E+02  0.20552807583E+02  0.00000000000E+00 0.  1.
          6    1    1    2  502    0  0.38641079164E+02 -0.25201773864E+02  0.21447963576E+04  0.21522566478E+04  0.17300000000E+03 0. -1.
         -6    1    1    2    0  501 -0.38641079164E+02  0.25201773864E+02  0.45957728955E+03  0.49322261452E+03  0.17300000000E+03 0.  1.
<mgrwt>
<rscale>  2 0.17904542E+03</rscale>
<asrwt>0</asrwt>
<pdfrwt beam="1">  1        2 0.40383457E+00 0.17904542E+03</pdfrwt>
<pdfrwt beam="2">  1       -2 0.31619725E-02 0.17904542E+03</pdfrwt>
<totfact> 0.13587277E+03</totfact>
</mgrwt>
</event>
<event>
 4    1  0.8249026E-001  0.1819426E+03  0.7546771E-02  0.1165936E+00
         -2   -1    0    0    0  501 -0.00000000000E+00  0.00000000000E+00  0.92694601108E+02  0.92694601108E+02  0.00000000000E+00 0.  1.
          2   -1    0    0  502    0  0.00000000000E+00 -0.00000000000E+00 -0.70830555224E+03  0.70830555224E+03  0.00000000000E+00 0. -1.
          6    1    1    2  502    0  0.48664700930E+02  0.28387527830E+02 -0.25798051598E+02  0.18376246711E+03  0.17300000000E+03 0.  1.
         -6    1    1    2    0  501 -0.48664700930E+02 -0.28387527830E+02 -0.58981289953E+03  0.61723768624E+03  0.17300000000E+03 0.  1.
<mgrwt>
<rscale>  2 0.18194259E+03</rscale>
<asrwt>0</asrwt>
<pdfrwt beam="2">  1        2 0.10897008E+00 0.18194259E+03</pdfrwt>
<pdfrwt beam="1">  1       -2 0.14260708E-01 0.18194259E+03</pdfrwt>
<totfact> 0.15330189E+03</totfact>
</mgrwt>
</event>
<event>
 4    1  0.8249026E-001  0.1851735E+03  0.7546771E-02  0.1162888E+00
         -2   -1    0    0    0  501 -0.00000000000E+00  0.00000000000E+00  0.67455037900E+02  0.67455037900E+02  0.00000000000E+00 0. -1.
          2   -1    0    0  502    0  0.00000000000E+00 -0.00000000000E+00 -0.50855663513E+03  0.50855663513E+03  0.00000000000E+00 0.  1.
          6    1    1    2  502    0 -0.65932921771E+02 -0.36154143744E+01 -0.21443166565E+03  0.28331989099E+03  0.17300000000E+03 0.  1.
         -6    1    1    2    0  501  0.65932921771E+02  0.36154143744E+01 -0.22666993158E+03  0.29269178204E+03  0.17300000000E+03 0.  1.
<mgrwt>
<rscale>  2 0.18517349E+03</rscale>
<asrwt>0</asrwt>
<pdfrwt beam="2">  1        2 0.78239480E-01 0.18517349E+03</pdfrwt>
<pdfrwt beam="1">  1       -2 0.10377699E-01 0.18517349E+03</pdfrwt>
<totfact> 0.37512319E+03</totfact>
</mgrwt>
</event>
<event>
 4    1  0.8249026E-001  0.1796358E+03  0.7546771E-02  0.1168156E+00
         -2   -1    0    0    0  501 -0.00000000000E+00  0.00000000000E+00  0.36454530867E+02  0.36454530867E+02  0.00000000000E+00 0. -1.
          2   -1    0    0  502    0  0.00000000000E+00 -0.00000000000E+00 -0.92215678577E+03  0.92215678577E+03  0.00000000000E+00 0.  1.
          6    1    1    2  502    0  0.39100036058E+02  0.28481873561E+02 -0.34687986849E+03  0.39063368148E+03  0.17300000000E+03 0. -1.
         -6    1    1    2    0  501 -0.39100036058E+02 -0.28481873561E+02 -0.53882238642E+03  0.56797763516E+03  0.17300000000E+03 0.  1.
<mgrwt>
<rscale>  2 0.17963583E+03</rscale>
<asrwt>0</asrwt>
<pdfrwt beam="2">  1        2 0.14187027E+00 0.17963583E+03</pdfrwt>
<pdfrwt beam="1">  1       -2 0.56083896E-02 0.17963583E+03</pdfrwt>
<totfact> 0.47556283E+03</totfact>
</mgrwt>
</event>
<event>
 4    1  0.8249026E-001  0.1965032E+03  0.7546771E-02  0.1152723E+00
         -2   -1    0    0    0  501 -0.00000000000E+00  0.00000000000E+00  0.48005800729E+02  0.48005800729E+02  0.00000000000E+00 0.  1.
          2   -1    0    0  502    0  0.00000000000E+00 -0.00000000000E+00 -0.80451223612E+03  0.80451223612E+03  0.00000000000E+00 0. -1.
          6    1    1    2  502    0  0.81266237082E+02  0.45610348593E+02 -0.37221539289E+03  0.42090118067E+03  0.17300000000E+03 0.  1.
         -6    1    1    2    0  501 -0.81266237082E+02 -0.45610348593E+02 -0.38429104250E+03  0.43161685618E+03  0.17300000000E+03 0.  1.
<mgrwt>
<rscale>  2 0.19650319E+03</rscale>
<asrwt>0</asrwt>
<pdfrwt beam="2">  1        2 0.12377111E+00 0.19650319E+03</pdfrwt>
<pdfrwt beam="1">  1       -2 0.73855081E-02 0.19650319E+03</pdfrwt>
<totfact> 0.37325640E+03</totfact>
</mgrwt>
</event>
<event>
 4    1  0.8249026E-001  0.4526179E+03  0.7546771E-02  0.1026944E+00
          2   -1    0    0  502    0  0.00000000000E+00  0.00000000000E+00  0.23736224299E+04  0.23736224299E+04  0.00000000000E+00 0. -1.
         -2   -1    0    0    0  501 -0.00000000000E+00 -0.00000000000E+00 -0.95946613269E+02  0.95946613269E+02  0.00000000000E+00 0.  1.
          6    1    1    2  502    0 -0.40430058187E+03 -0.10712130333E+03  0.15302015736E+04  0.15957380080E+04  0.17300000000E+03 0. -1.
         -6    1    1    2    0  501  0.40430058187E+03  0.10712130333E+03  0.74747424298E+03  0.87383103518E+03  0.17300000000E+03 0.  1.
<mgrwt>
<rscale>  2 0.45261787E+03</rscale>
<asrwt>0</asrwt>
<pdfrwt beam="1">  1        2 0.36517264E+00 0.45261787E+03</pdfrwt>
<pdfrwt beam="2">  1       -2 0.14761019E-01 0.45261787E+03</pdfrwt>
<totfact> 0.15942684E+02</totfact>
</mgrwt>
</event>
<event>
 4    1  0.8249026E-001  0.1753905E+03  0.7546771E-02  0.1172340E+00
         -1   -1    0    0    0  501 -0.00000000000E+00  0.00000000000E+00  0.62515200768E+02  0.62515200768E+02  0.00000000000E+00 0. -1.
          1   -1    0    0  502    0  0.00000000000E+00 -0.00000000000E+00 -0.51185776719E+03  0.51185776719E+03  0.00000000000E+00 0.  1.
          6    1    1    2  502    0  0.26665563008E+02 -0.11034578437E+02 -0.28113830503E+03  0.33136167661E+03  0.17300000000E+03 0.  1.
         -6    1    1    2    0  501 -0.26665563008E+02  0.11034578437E+02 -0.16820426140E+03  0.24301129135E+03  0.17300000000E+03 0. -1.
<mgrwt>
<rscale>  2 0.17539046E+03</rscale>
<asrwt>0</asrwt>
<pdfrwt beam="2">  1        1 0.78747346E-01 0.17539046E+03</pdfrwt>
<pdfrwt beam="1">  1       -1 0.96177236E-02 0.17539046E+03</pdfrwt>
<totfact> 0.27898071E+03</totfact>
</mgrwt>
</event>
<event>
 4    1  0.8249026E-001  0.2319949E+03  0.7546771E-02  0.1125243E+00
         -2   -1    0    0    0  501 -0.00000000000E+00  0.00000000000E+00  0.66009511856E+02  0.66009511856E+02  0.00000000000E+00 0.  1.
          2   -1    0    0  502    0  0.00000000000E+00 -0.00000000000E+00 -0.10956131056E+04  0.10956131056E+04  0.00000000000E+00 0. -1.
          6    1    1    2  502    0 -0.15187982229E+02 -0.15382443535E+03 -0.80855344247E+03  0.84117792472E+03  0.17300000000E+03 0. -1.
         -6    1    1    2    0  501  0.15187982229E+02  0.15382443535E+03 -0.22105015125E+03  0.32044469270E+03  0.17300000000E+03 0.  1.
<mgrwt>
<rscale>  2 0.23199490E+03</rscale>
<asrwt>0</asrwt>
<pdfrwt beam="2">  1        2 0.16855586E+00 0.23199490E+03</pdfrwt>
<pdfrwt beam="1">  1       -2 0.10155310E-01 0.23199490E+03</pdfrwt>
<totfact> 0.14890913E+03</totfact>
</mgrwt>
</event>
<event>
 4    1  0.8249026E-001  0.2598037E+03  0.7546771E-02  0.1107261E+00
          2   -1    0    0  502    0  0.00000000000E+00  0.00000000000E+00  0.13386326531E+04  0.13386326531E+04  0.00000000000E+00 0.  1.
         -2   -1    0    0    0  501 -0.00000000000E+00 -0.00000000000E+00 -0.73726796545E+02  0.73726796545E+02  0.00000000000E+00 0. -1.
          6    1    1    2  502    0  0.44771973786E+02  0.18858535522E+03  0.10294755610E+04  0.10617522765E+04  0.17300000000E+03 0.  1.
         -6    1    1    2    0  501 -0.44771973786E+02 -0.18858535522E+03  0.23543029558E+03  0.35060717322E+03  0.17300000000E+03 0. -1.
<mgrwt>
<rscale>  2 0.25980371E+03</rscale>
<asrwt>0</asrwt>
<pdfrwt beam="1">  1        2 0.20594347E+00 0.25980371E+03</pdfrwt>
<pdfrwt beam="2">  1       -2 0.11342585E-01 0.25980371E+03</pdfrwt>
<totfact> 0.90755923E+02</totfact>
</mgrwt>
</event>
<event>
 4    1  0.8249026E-001  0.2111665E+03  0.7546771E-02  0.1140646E+00
         -1   -1    0    0    0  501 -0.00000000000E+00  0.00000000000E+00  0.63605413957E+03  0.63605413957E+03  0.00000000000E+00 0.  1.
          1   -1    0    0  502    0  0.00000000000E+00 -0.00000000000E+00 -0.72474817548E+02  0.72474817548E+02  0.00000000000E+00 0. -1.
          6    1    1    2  502    0 -0.10926467135E+03  0.52187296651E+02  0.21774401054E+03  0.30332117707E+03  0.17300000000E+03 0. -1.
         -6    1    1    2    0  501  0.10926467135E+03 -0.52187296651E+02  0.34583531148E+03  0.40520778004E+03  0.17300000000E+03 0. -1.
<mgrwt>
<rscale>  2 0.21116648E+03</rscale>
<asrwt>0</asrwt>
<pdfrwt beam="2">  1        1 0.11149972E-01 0.21116648E+03</pdfrwt>
<pdfrwt beam="1">  1       -1 0.97854479E-01 0.21116648E+03</pdfrwt>
<totfact> 0.58566172E+02</totfact>
</mgrwt>
</event>
<event>
 4    1  0.8249026E-001  0.3494557E+03  0.7546771E-02  0.1062839E+00
         -1   -1    0    0    0  501 -0.00000000000E+00  0.00000000000E+00  0.26106758126E+03  0.26106758126E+03  0.00000000000E+00 0. -1.
          1   -1    0    0  502    0  0.00000000000E+00 -0.00000000000E+00 -0.52873469312E+03  0.52873469312E+03  0.00000000000E+00 0.  1.
          6    1    1    2  502    0  0.14566160559E+03 -0.26640759097E+03 -0.26792850609E+03  0.44034644570E+03  0.17300000000E+03 0.  1.
         -6    1    1    2    0  501 -0.14566160559E+03  0.26640759097E+03  0.26139423065E+00  0.34945582868E+03  0.17300000000E+03 0. -1.
<mgrwt>
<rscale>  2 0.34945573E+03</rscale>
<asrwt>0</asrwt>
<pdfrwt beam="2">  1        1 0.81343799E-01 0.34945573E+03</pdfrwt>
<pdfrwt beam="1">  1       -1 0.40164243E-01 0.34945573E+03</pdfrwt>
<totfact> 0.25697639E+02</totfact>
</mgrwt>
</event>
<event>
 4    1  0.8249026E-001  0.2263909E+03  0.7546771E-02  0.1129206E+00
          1   -1    0    0  502    0  0.00000000000E+00  0.00000000000E+00  0.31498706110E+03  0.31498706110E+03  0.00000000000E+00 0.  1.
         -1   -1    0    0    0  501 -0.00000000000E+00 -0.00000000000E+00 -0.16300448284E+03  0.16300448284E+03  0.00000000000E+00 0. -1.
          6    1    1    2  502    0 -0.69048431063E+02 -0.12867066856E+03  0.65903449133E+02  0.23578823420E+03  0.17300000000E+03 0. -1.
         -6    1    1    2    0  501  0.69048431063E+02  0.12867066856E+03  0.86079129128E+02  0.24220330974E+03  0.17300000000E+03 0.  1.
<mgrwt>
<rscale>  2 0.22639087E+03</rscale>
<asrwt>0</asrwt>
<pdfrwt beam="1">  1        1 0.48459548E-01 0.22639087E+03</pdfrwt>
<pdfrwt beam="2">  1       -1 0.25077613E-01 0.22639087E+03</pdfrwt>
<totfact> 0.11391543E+03</totfact>
</mgrwt>
</event>
<event>
 4    1  0.8249026E-001  0.2505778E+03  0.7546771E-02  0.1112940E+00
          1   -1    0    0  502    0  0.00000000000E+00  0.00000000000E+00  0.89233292122E+03  0.89233292122E+03  0.00000000000E+00 0. -1.
         -1   -1    0    0    0  501 -0.00000000000E+00 -0.00000000000E+00 -0.76576848588E+02  0.76576848588E+02  0.00000000000E+00 0.  1.
          6    1    1    2  502    0  0.17533453098E+03 -0.46022371845E+02  0.54585456461E+03  0.60062172968E+03  0.17300000000E+03 0. -1.
         -6    1    1    2    0  501 -0.17533453098E+03  0.46022371845E+02  0.26990150802E+03  0.36828804012E+03  0.17300000000E+03 0.  1.
<mgrwt>
<rscale>  2 0.25057785E+03</rscale>
<asrwt>0</asrwt>
<pdfrwt beam="1">  1        1 0.13728198E+00 0.25057785E+03</pdfrwt>
<pdfrwt beam="2">  1       -1 0.11781054E-01 0.25057785E+03</pdfrwt>
<totfact> 0.91577457E+02</totfact>
</mgrwt>
</event>
<event>
 4    1  0.8249026E-001  0.1792489E+03  0.7546771E-02  0.1168532E+00
         -1   -1    0    0    0  501 -0.00000000000E+00  0.00000000000E+00  0.19500291617E+03  0.19500291617E+03  0.00000000000E+00 0.  1.
          1   -1    0    0  502    0  0.00000000000E+00 -0.00000000000E+00 -0.16483351103E+03  0.16483351103E+03  0.00000000000E+00 0. -1.
          6    1    1    2  502    0  0.44185752142E+02  0.15772989539E+02  0.18681700262E+02  0.18021979308E+03  0.17300000000E+03 0.  1.
         -6    1    1    2    0  501 -0.44185752142E+02 -0.15772989539E+02  0.11487704871E+02  0.17961663413E+03  0.17300000000E+03 0.  1.
<mgrwt>
<rscale>  2 0.17924890E+03</rscale>
<asrwt>0</asrwt>
<pdfrwt beam="2">  1        1 0.25359002E-01 0.17924890E+03</pdfrwt>
<pdfrwt beam="1">  1       -1 0.30000449E-01 0.17924890E+03</pdfrwt>
<totfact> 0.18921024E+03</totfact>
</mgrwt>
</event>
<event>
 4    1  0.8249026E-001  0.2165294E+03  0.7546771E-02  0.1136497E+00
          2   -1    0    0  502    0  0.00000000000E+00  0.00000000000E+00  0.34666017921E+04  0.34666017921E+04  0.00000000000E+00 0.  1.
         -2   -1    0    0    0  501 -0.00000000000E+00 -0.00000000000E+00 -0.15666188832E+02  0.15666188832E+02  0.00000000000E+00 0. -1.
          6    1    1    2  502    0 -0.62033543430E+02 -0.11448934221E+03  0.23691951582E+04  0.23790692860E+04  0.17300000000E+03 0.  1.
         -6    1    1    2    0  501  0.62033543430E+02  0.11448934221E+03  0.10817404451E+04  0.11031986950E+04  0.17300000000E+03 0. -1.
<mgrwt>
<rscale>  2 0.21652937E+03</rscale>
<asrwt>0</asrwt>
<pdfrwt beam="1">  1        2 0.53332274E+00 0.21652937E+03</pdfrwt>
<pdfrwt beam="2">  1       -2 0.24101857E-02 0.21652937E+03</pdfrwt>
<totfact> 0.63540501E+02</totfact>
</mgrwt>
</event>
<event>
 4    1  0.8249026E-001  0.2605878E+03  0.7546771E-02  0.1106791E+00
         -2   -1    0    0    0  501 -0.00000000000E+00  0.00000000000E+00  0.61760474414E+02  0.61760474414E+02  0.00000000000E+00 0.  1.
          2   -1    0    0  502    0  0.00000000000E+00 -0.00000000000E+00 -0.13343856621E+04  0.13343856621E+04  0.00000000000E+00 0. -1.
          6    1    1    2  502    0 -0.79742914295E+02 -0.17781472225E+03 -0.92918804574E+03  0.96503701078E+03  0.17300000000E+03 0. -1.
         -6    1    1    2    0  501  0.79742914295E+02  0.17781472225E+03 -0.34343714197E+03  0.43110912576E+03  0.17300000000E+03 0.  1.
<mgrwt>
<rscale>  2 0.26058781E+03</rscale>
<asrwt>0</asrwt>
<pdfrwt beam="2">  1        2 0.20529008E+00 0.26058781E+03</pdfrwt>
<pdfrwt beam="1">  1       -2 0.95016126E-02 0.26058781E+03</pdfrwt>
<totfact> 0.12113103E+03</totfact>
</mgrwt>
</event>
<event>
 4    1  0.8249026E-001  0.2094942E+03  0.7546771E-02  0.1141967E+00
          1   -1    0    0  502    0  0.00000000000E+00  0.00000000000E+00  0.11850088361E+04  0.11850088361E+04  0.00000000000E+00 0.  1.
         -1   -1    0    0    0  501 -0.00000000000E+00 -0.00000000000E+00 -0.41617955846E+02  0.41617955846E+02  0.00000000000E+00 0. -1.
          6    1    1    2  502    0  0.11202691828E+03  0.37533583982E+02  0.36819047819E+03  0.42361778595E+03  0.17300000000E+03 0.  1.
         -6    1    1    2    0  501 -0.11202691828E+03 -0.37533583982E+02  0.77520040207E+03  0.80300900600E+03  0.17300000000E+03 0.  1.
<mgrwt>
<rscale>  2 0.20949415E+03</rscale>
<asrwt>0</asrwt>
<pdfrwt beam="1">  1        1 0.18230903E+00 0.20949415E+03</pdfrwt>
<pdfrwt beam="2">  1       -1 0.64027633E-02 0.20949415E+03</pdfrwt>
<totfact> 0.14219267E+03</totfact>
</mgrwt>
</event>
<event>
 4    1  0.8249026E-001  0.1913366E+03  0.7546771E-02  0.1157261E+00
          1   -1    0    0  502    0  0.00000000000E+00  0.00000000000E+00  0.44610108871E+02  0.44610108871E+02  0.00000000000E+00 0.  1.
         -1   -1    0    0    0  501 -0.00000000000E+00 -0.00000000000E+00 -0.87884232889E+03  0.87884232889E+03  0.00000000000E+00 0. -1.
          6    1    1    2  502    0  0.70173684966E+02  0.41908881383E+02 -0.53591906498E+03  0.56905091565E+03  0.17300000000E+03 0.  1.
         -6    1    1    2    0  501 -0.70173684966E+02 -0.41908881383E+02 -0.29831315504E+03  0.35440152211E+03  0.17300000000E+03 0. -1.
<mgrwt>
<rscale>  2 0.19133662E+03</rscale>
<asrwt>0</asrwt>
<pdfrwt beam="1">  1        1 0.68630938E-02 0.19133662E+03</pdfrwt>
<pdfrwt beam="2">  1       -1 0.13520651E+00 0.19133662E+03</pdfrwt>
<totfact> 0.52900905E+02</totfact>
</mgrwt>
</event>
<event>
 4    1  0.8249026E-001  0.1925455E+03  0.7546771E-02  0.1156185E+00
         -1   -1    0    0    0  501 -0.00000000000E+00  0.00000000000E+00  0.25911784227E+03  0.25911784227E+03  0.00000000000E+00 0.  1.
          1   -1    0    0  502    0  0.00000000000E+00 -0.00000000000E+00 -0.18371477775E+03  0.18371477775E+03  0.00000000000E+00 0. -1.
          6    1    1    2  502    0 -0.63499669362E+02  0.55790386426E+02 -0.66435002445E+02  0.20368452267E+03  0.17300000000E+03 0. -1.
         -6    1    1    2    0  501  0.63499669362E+02 -0.55790386426E+02  0.14183806697E+03  0.23914809735E+03  0.17300000000E+03 0. -1.
<mgrwt>
<rscale>  2 0.19254551E+03</rscale>
<asrwt>0</asrwt>
<pdfrwt beam="2">  1        1 0.28263812E-01 0.19254551E+03</pdfrwt>
<pdfrwt beam="1">  1       -1 0.39864283E-01 0.19254551E+03</pdfrwt>
<totfact> 0.10116484E+03</totfact>
</mgrwt>
</event>
<event>
 4    1  0.8249026E-001  0.2491550E+03  0.7546771E-02  0.1113840E+00
          2   -1    0    0  502    0  0.00000000000E+00  0.00000000000E+00  0.13052451055E+03  0.13052451055E+03  0.00000000000E+00 0.  1.
         -2   -1    0    0    0  501 -0.00000000000E+00 -0.00000000000E+00 -0.66709882254E+03  0.66709882254E+03  0.00000000000E+00 0. -1.
          6    1    1    2  502    0  0.17928884727E+03 -0.21733743183E+01 -0.54614354611E+02  0.25507046486E+03  0.17300000000E+03 0.  1.
         -6    1    1    2    0  501 -0.17928884727E+03  0.21733743183E+01 -0.48195995738E+03  0.54255286824E+03  0.17300000000E+03 0. -1.
<mgrwt>
<rscale>  2 0.24915500E+03</rscale>
<asrwt>0</asrwt>
<pdfrwt beam="1">  1        2 0.20080693E-01 0.24915500E+03</pdfrwt>
<pdfrwt beam="2">  1       -2 0.10263059E+00 0.24915500E+03</pdfrwt>
<totfact> 0.22396884E+02</totfact>
</mgrwt>
</event>
<event>
 4    1  0.8249026E-001  0.1793372E+03  0.7546771E-02  0.1168446E+00
          1   -1    0    0  502    0  0.00000000000E+00  0.00000000000E+00  0.49387205346E+03  0.49387205346E+03  0.00000000000E+00 0. -1.
         -1   -1    0    0    0  501 -0.00000000000E+00 -0.00000000000E+00 -0.82396357618E+02  0.82396357618E+02  0.00000000000E+00 0.  1.
          6    1    1    2  502    0 -0.42217493789E+02  0.21225633661E+02  0.73807686213E+02  0.19393147978E+03  0.17300000000E+03 0. -1.
         -6    1    1    2    0  501  0.42217493789E+02 -0.21225633661E+02  0.33766800963E+03  0.38233693130E+03  0.17300000000E+03 0. -1.
<mgrwt>
<rscale>  2 0.17933724E+03</rscale>
<asrwt>0</asrwt>
<pdfrwt beam="1">  1        1 0.75980314E-01 0.17933724E+03</pdfrwt>
<pdfrwt beam="2">  1       -1 0.12676363E-01 0.17933724E+03</pdfrwt>
<totfact> 0.19097418E+03</totfact>
</mgrwt>
</event>
<event>
 4    1  0.8249026E-001  0.2164454E+03  0.7546771E-02  0.1136561E+00
         -2   -1    0    0    0  501 -0.00000000000E+00  0.00000000000E+00  0.29555655890E+02  0.29555655890E+02  0.00000000000E+00 0. -1.
          2   -1    0    0  502    0  0.00000000000E+00 -0.00000000000E+00 -0.17456188775E+04  0.17456188775E+04  0.00000000000E+00 0.  1.
          6    1    1    2  502    0 -0.78341427842E+02 -0.10383754428E+03 -0.11271862894E+04  0.11477793978E+04  0.17300000000E+03 0. -1.
         -6    1    1    2    0  501  0.78341427842E+02  0.10383754428E+03 -0.58887693222E+03  0.62739513564E+03  0.17300000000E+03 0. -1.
<mgrwt>
<rscale>  2 0.21644541E+03</rscale>
<asrwt>0</asrwt>
<pdfrwt beam="2">  1        2 0.26855683E+00 0.21644541E+03</pdfrwt>
<pdfrwt beam="1">  1       -2 0.45470226E-02 0.21644541E+03</pdfrwt>
<totfact> 0.22909291E+03</totfact>
</mgrwt>
</event>
<event>
 4    1  0.8249026E-001  0.2142871E+03  0.7546771E-02  0.1138215E+00
          2   -1    0    0  502    0  0.00000000000E+00  0.00000000000E+00  0.25609112918E+04  0.25609112918E+04  0.00000000000E+00 0.  1.
         -2   -1    0    0    0  501 -0.00000000000E+00 -0.00000000000E+00 -0.21758822633E+02  0.21758822633E+02  0.00000000000E+00 0. -1.
          6    1    1    2  502    0  0.12645129084E+03  0.22644525065E+00  0.18112191913E+04  0.18238514027E+04  0.17300000000E+03 0. -1.
         -6    1    1    2    0  501 -0.12645129084E+03 -0.22644525065E+00  0.72793327783E+03  0.75881871169E+03  0.17300000000E+03 0.  1.
<mgrwt>
<rscale>  2 0.21428714E+03</rscale>
<asrwt>0</asrwt>
<pdfrwt beam="1">  1        2 0.39398611E+00 0.21428714E+03</pdfrwt>
<pdfrwt beam="2">  1       -2 0.33475132E-02 0.21428714E+03</pdfrwt>
<totfact> 0.13449872E+03</totfact>
</mgrwt>
</event>
<event>
 4    1  0.8249026E-001  0.1810994E+03  0.7546771E-02  0.1166743E+00
         -2   -1    0    0    0  501 -0.00000000000E+00  0.00000000000E+00  0.39235744975E+02  0.39235744975E+02  0.00000000000E+00 0. -1.
          2   -1    0    0  502    0  0.00000000000E+00 -0.00000000000E+00 -0.94085020764E+03  0.94085020764E+03  0.00000000000E+00 0.  1.
          6    1    1    2  502    0 -0.42174809787E+02  0.33004236338E+02 -0.61447919006E+03  0.64061038800E+03  0.17300000000E+03 0.  1.
         -6    1    1    2    0  501  0.42174809787E+02 -0.33004236338E+02 -0.28713527260E+03  0.33947556461E+03  0.17300000000E+03 0.  1.
<mgrwt>
<rscale>  2 0.18109940E+03</rscale>
<asrwt>0</asrwt>
<pdfrwt beam="2">  1        2 0.14474618E+00 0.18109940E+03</pdfrwt>
<pdfrwt beam="1">  1       -2 0.60362685E-02 0.18109940E+03</pdfrwt>
<totfact> 0.41394377E+03</totfact>
</mgrwt>
</event>
<event>
 4    1  0.8249026E-001  0.1853989E+03  0.7546771E-02  0.1162678E+00
          1   -1    0    0  502    0  0.00000000000E+00  0.00000000000E+00  0.42763359336E+03  0.42763359336E+03  0.00000000000E+00 0. -1.
         -1   -1    0    0    0  501 -0.00000000000E+00 -0.00000000000E+00 -0.93581988251E+02  0.93581988251E+02  0.00000000000E+00 0.  1.
          6    1    1    2  502    0  0.32537363895E+02 -0.58181428217E+02  0.69138253516E+02  0.19787080820E+03  0.17300000000E+03 0.  1.
         -6    1    1    2    0  501 -0.32537363895E+02  0.58181428217E+02  0.26491335159E+03  0.32334477341E+03  0.17300000000E+03 0. -1.
<mgrwt>
<rscale>  2 0.18539892E+03</rscale>
<asrwt>0</asrwt>
<pdfrwt beam="1">  1        1 0.65789783E-01 0.18539892E+03</pdfrwt>
<pdfrwt beam="2">  1       -1 0.14397229E-01 0.18539892E+03</pdfrwt>
<totfact> 0.18875161E+03</totfact>
</mgrwt>
</event>
<event>
 4    1  0.8249026E-001  0.2106227E+03  0.7546771E-02  0.1141074E+00
          2   -1    0    0  502    0  0.00000000000E+00  0.00000000000E+00  0.22409579759E+04  0.22409579759E+04  0.00000000000E+00 0.  1.
         -2   -1    0    0    0  501 -0.00000000000E+00 -0.00000000000E+00 -0.25472113188E+02  0.25472113188E+02  0.00000000000E+00 0. -1.
          6    1    1    2  502    0  0.10541424793E+03 -0.57625994842E+02  0.16426850836E+04  0.16561329061E+04  0.17300000000E+03 0.  1.
         -6    1    1    2    0  501 -0.10541424793E+03  0.57625994842E+02  0.57280077908E+03  0.61029718291E+03  0.17300000000E+03 0.  1.
<mgrwt>
<rscale>  2 0.21062269E+03</rscale>
<asrwt>0</asrwt>
<pdfrwt beam="1">  1        2 0.34476261E+00 0.21062269E+03</pdfrwt>
<pdfrwt beam="2">  1       -2 0.39187884E-02 0.21062269E+03</pdfrwt>
<totfact> 0.15794950E+03</totfact>
</mgrwt>
</event>
<event>
 4    1  0.8249026E-001  0.2059472E+03  0.7546771E-02  0.1144816E+00
          2   -1    0    0  502    0  0.00000000000E+00  0.00000000000E+00  0.36196172755E+04  0.36196172755E+04  0.00000000000E+00 0.  1.
         -2   -1    0    0    0  501 -0.00000000000E+00 -0.00000000000E+00 -0.14616841684E+02  0.14616841684E+02  0.00000000000E+00 0. -1.
          6    1    1    2  502    0 -0.80804532620E+02 -0.77174436435E+02  0.99326113445E+03  0.10143874740E+04  0.17300000000E+03 0.  1.
         -6    1    1    2    0  501  0.80804532620E+02  0.77174436435E+02  0.26117392994E+04  0.26198466432E+04  0.17300000000E+03 0. -1.
<mgrwt>
<rscale>  2 0.20594724E+03</rscale>
<asrwt>0</asrwt>
<pdfrwt beam="1">  1        2 0.55686349E+00 0.20594724E+03</pdfrwt>
<pdfrwt beam="2">  1       -2 0.22487477E-02 0.20594724E+03</pdfrwt>
<totfact> 0.55876984E+02</totfact>
</mgrwt>
</event>
<event>
 4    1  0.8249026E-001  0.1850980E+03  0.7546771E-02  0.1162958E+00
          2   -1    0    0  502    0  0.00000000000E+00  0.00000000000E+00  0.17092198455E+04  0.17092198455E+04  0.00000000000E+00 0.  1.
         -2   -1    0    0    0  501 -0.00000000000E+00 -0.00000000000E+00 -0.28722359409E+02  0.28722359409E+02  0.00000000000E+00 0. -1.
          6    1    1    2  502    0 -0.48676279382E+02  0.44304471118E+02  0.36262078898E+03  0.40713032672E+03  0.17300000000E+03 0. -1.
         -6    1    1    2    0  501  0.48676279382E+02 -0.44304471118E+02  0.13178766972E+04  0.13308118782E+04  0.17300000000E+03 0.  1.
<mgrwt>
<rscale>  2 0.18509799E+03</rscale>
<asrwt>0</asrwt>
<pdfrwt beam="1">  1        2 0.26295682E+00 0.18509799E+03</pdfrwt>
<pdfrwt beam="2">  1       -2 0.44188259E-02 0.18509799E+03</pdfrwt>
<totfact> 0.25001486E+03</totfact>
</mgrwt>
</event>
<event>
 4    1  0.8249026E-001  0.2530974E+03  0.7546771E-02  0.1111363E+00
         -2   -1    0    0    0  501 -0.00000000000E+00  0.00000000000E+00  0.17784446600E+03  0.17784446600E+03  0.00000000000E+00 0.  1.
          2   -1    0    0  502    0  0.00000000000E+00 -0.00000000000E+00 -0.36506267280E+03  0.36506267280E+03  0.00000000000E+00 0. -1.
          6    1    1    2  502    0 -0.52229197080E+02  0.17720439024E+03 -0.12496169640E+03  0.28226531937E+03  0.17300000000E+03 0.  1.
         -6    1    1    2    0  501  0.52229197080E+02 -0.17720439024E+03 -0.62256510405E+02  0.26064181943E+03  0.17300000000E+03 0. -1.
<mgrwt>
<rscale>  2 0.25309738E+03</rscale>
<asrwt>0</asrwt>
<pdfrwt beam="2">  1        2 0.56163488E-01 0.25309738E+03</pdfrwt>
<pdfrwt beam="1">  1       -2 0.27360687E-01 0.25309738E+03</pdfrwt>
<totfact> 0.10674660E+03</totfact>
</mgrwt>
</event>
<event>
 4    1  0.8249026E-001  0.2073986E+03  0.7546771E-02  0.1143643E+00
          1   -1    0    0  502    0  0.00000000000E+00  0.00000000000E+00  0.11160437567E+04  0.11160437567E+04  0.00000000000E+00 0. -1.
         -1   -1    0    0    0  501 -0.00000000000E+00 -0.00000000000E+00 -0.47470161537E+02  0.47470161537E+02  0.00000000000E+00 0.  1.
          6    1    1    2  502    0 -0.10983111959E+03  0.31973710372E+02  0.28198507437E+03  0.35004253335E+03  0.17300000000E+03 0. -1.
         -6    1    1    2    0  501  0.10983111959E+03 -0.31973710372E+02  0.78658852075E+03  0.81347138485E+03  0.17300000000E+03 0.  1.
<mgrwt>
<rscale>  2 0.20739863E+03</rscale>
<asrwt>0</asrwt>
<pdfrwt beam="1">  1        1 0.17169902E+00 0.20739863E+03</pdfrwt>
<pdfrwt beam="2">  1       -1 0.73031026E-02 0.20739863E+03</pdfrwt>
<totfact> 0.13031337E+03</totfact>
</mgrwt>
</event>
<event>
 4    1  0.8249026E-001  0.2104838E+03  0.7546771E-02  0.1141183E+00
         -1   -1    0    0    0  501 -0.00000000000E+00  0.00000000000E+00  0.70820982081E+02  0.70820982081E+02  0.00000000000E+00 0. -1.
          1   -1    0    0  502    0  0.00000000000E+00 -0.00000000000E+00 -0.80050282850E+03  0.80050282850E+03  0.00000000000E+00 0.  1.
          6    1    1    2  502    0 -0.11226602461E+03 -0.42080431307E+02 -0.16118134475E+03  0.26510912635E+03  0.17300000000E+03 0. -1.
         -6    1    1    2    0  501  0.11226602461E+03  0.42080431307E+02 -0.56850050167E+03  0.60621468423E+03  0.17300000000E+03 0.  1.
<mgrwt>
<rscale>  2 0.21048378E+03</rscale>
<asrwt>0</asrwt>
<pdfrwt beam="2">  1        1 0.12315427E+00 0.21048378E+03</pdfrwt>
<pdfrwt beam="1">  1       -1 0.10895537E-01 0.21048378E+03</pdfrwt>
<totfact> 0.12278874E+03</totfact>
</mgrwt>
</event>
<event>
 4    1  0.8249026E-001  0.1909016E+03  0.7546771E-02  0.1157651E+00
          2   -1    0    0  502    0  0.00000000000E+00  0.00000000000E+00  0.73323706772E+02  0.73323706772E+02  0.00000000000E+00 0. -1.
         -2   -1    0    0    0  501 -0.00000000000E+00 -0.00000000000E+00 -0.51692336424E+03  0.51692336424E+03  0.00000000000E+00 0.  1.
          6    1    1    2  502    0 -0.52485039157E+02 -0.61316744807E+02 -0.27970842396E+03  0.33864468837E+03  0.17300000000E+03 0. -1.
         -6    1    1    2    0  501  0.52485039157E+02  0.61316744807E+02 -0.16389123351E+03  0.25160238264E+03  0.17300000000E+03 0. -1.
<mgrwt>
<rscale>  2 0.19090160E+03</rscale>
<asrwt>0</asrwt>
<pdfrwt beam="1">  1        2 0.11280570E-01 0.19090160E+03</pdfrwt>
<pdfrwt beam="2">  1       -2 0.79526671E-01 0.19090160E+03</pdfrwt>
<totfact> 0.78881013E+02</totfact>
</mgrwt>
</event>
<event>
 4    1  0.8249026E-001  0.2428740E+03  0.7546771E-02  0.1117893E+00
         -2   -1    0    0    0  501 -0.00000000000E+00  0.00000000000E+00  0.16744879325E+03  0.16744879325E+03  0.00000000000E+00 0. -1.
          2   -1    0    0  502    0  0.00000000000E+00 -0.00000000000E+00 -0.35559731035E+03  0.35559731035E+03  0.00000000000E+00 0.  1.
          6    1    1    2  502    0  0.14792166227E+03  0.84722799544E+02 -0.68790044391E+02  0.25242789295E+03  0.17300000000E+03 0. -1.
         -6    1    1    2    0  501 -0.14792166227E+03 -0.84722799544E+02 -0.11935847270E+03  0.27061821065E+03  0.17300000000E+03 0.  1.
<mgrwt>
<rscale>  2 0.24287398E+03</rscale>
<asrwt>0</asrwt>
<pdfrwt beam="2">  1        2 0.54707279E-01 0.24287398E+03</pdfrwt>
<pdfrwt beam="1">  1       -2 0.25761353E-01 0.24287398E+03</pdfrwt>
<totfact> 0.12223389E+03</totfact>
</mgrwt>
</event>
<event>
 4    1  0.8249026E-001  0.2021055E+03  0.7546771E-02  0.1147975E+00
         -1   -1    0    0    0  501 -0.00000000000E+00  0.00000000000E+00  0.13268021103E+03  0.13268021103E+03  0.00000000000E+00 0. -1.
          1   -1    0    0  502    0  0.00000000000E+00 -0.00000000000E+00 -0.37321781193E+03  0.37321781193E+03  0.00000000000E+00 0.  1.
          6    1    1    2  502    0  0.63323978379E+02  0.83112524324E+02 -0.22612306664E+03  0.30327917700E+03  0.17300000000E+03 0.  1.
         -6    1    1    2    0  501 -0.63323978379E+02 -0.83112524324E+02 -0.14414534265E+02  0.20261884595E+03  0.17300000000E+03 0. -1.
<mgrwt>
<rscale>  2 0.20210546E+03</rscale>
<asrwt>0</asrwt>
<pdfrwt beam="2">  1        1 0.57418126E-01 0.20210546E+03</pdfrwt>
<pdfrwt beam="1">  1       -1 0.20412340E-01 0.20210546E+03</pdfrwt>
<totfact> 0.12874097E+03</totfact>
</mgrwt>
</event>
<event>
 4    1  0.8249026E-001  0.1810473E+03  0.7546771E-02  0.1166793E+00
         -1   -1    0    0    0  501 -0.00000000000E+00  0.00000000000E+00  0.37443089386E+03  0.37443089386E+03  0.00000000000E+00 0. -1.
          1   -1    0    0  502    0  0.00000000000E+00 -0.00000000000E+00 -0.16962439528E+03  0.16962439528E+03  0.00000000000E+00 0.  1.
          6    1    1    2  502    0  0.25010832043E+02  0.47154872282E+02  0.29163589210E+03  0.34326318949E+03  0.17300000000E+03 0. -1.
         -6    1    1    2    0  501 -0.25010832043E+02 -0.47154872282E+02 -0.86829393527E+02  0.20079209964E+03  0.17300000000E+03 0.  1.
<mgrwt>
<rscale>  2 0.18104730E+03</rscale>
<asrwt>0</asrwt>
<pdfrwt beam="2">  1        1 0.26096061E-01 0.18104730E+03</pdfrwt>
<pdfrwt beam="1">  1       -1 0.57604752E-01 0.18104730E+03</pdfrwt>
<totfact> 0.57078280E+02</totfact>
</mgrwt>
</event>
<event>
 4    1  0.8249026E-001  0.1890955E+03  0.7546771E-02  0.1159280E+00
         -2   -1    0    0    0  501 -0.00000000000E+00  0.00000000000E+00  0.95786079347E+02  0.95786079347E+02  0.00000000000E+00 0.  1.
          2   -1    0    0  502    0  0.00000000000E+00 -0.00000000000E+00 -0.37344072245E+03  0.37344072245E+03  0.00000000000E+00 0. -1.
          6    1    1    2  502    0 -0.63174879303E+02 -0.42860625612E+02 -0.14335535082E+03  0.23729276266E+03  0.17300000000E+03 0.  1.
         -6    1    1    2    0  501  0.63174879303E+02  0.42860625612E+02 -0.13429929229E+03  0.23193403914E+03  0.17300000000E+03 0.  1.
<mgrwt>
<rscale>  2 0.18909547E+03</rscale>
<asrwt>0</asrwt>
<pdfrwt beam="2">  1        2 0.57452418E-01 0.18909547E+03</pdfrwt>
<pdfrwt beam="1">  1       -2 0.14736320E-01 0.18909547E+03</pdfrwt>
<totfact> 0.29861777E+03</totfact>
</mgrwt>
</event>
<event>
 4    1  0.8249026E-001  0.1969896E+03  0.7546771E-02  0.1152304E+00
         -2   -1    0    0    0  501 -0.00000000000E+00  0.00000000000E+00  0.16754880008E+02  0.16754880008E+02  0.00000000000E+00 0.  1.
          2   -1    0    0  502    0  0.00000000000E+00 -0.00000000000E+00 -0.34520379099E+04  0.34520379099E+04  0.00000000000E+00 0. -1.
          6    1    1    2  502    0  0.57462860532E+02 -0.74658814708E+02 -0.27125885419E+04  0.27197318832E+04  0.17300000000E+03 0. -1.
         -6    1    1    2    0  501 -0.57462860532E+02  0.74658814708E+02 -0.72269448796E+03  0.74906090665E+03  0.17300000000E+03 0.  1.
<mgrwt>
<rscale>  2 0.19698964E+03</rscale>
<asrwt>0</asrwt>
<pdfrwt beam="2">  1        2 0.53108304E+00 0.19698964E+03</pdfrwt>
<pdfrwt beam="1">  1       -2 0.25776725E-02 0.19698964E+03</pdfrwt>
<totfact> 0.59177032E+02</totfact>
</mgrwt>
</event>
<event>
 4    1  0.8249026E-001  0.2161574E+03  0.7546771E-02  0.1136781E+00
         -1   -1    0    0    0  501 -0.00000000000E+00  0.00000000000E+00  0.55763281126E+02  0.55763281126E+02  0.00000000000E+00 0.  1.
          1   -1    0    0  502    0  0.00000000000E+00 -0.00000000000E+00 -0.88598992382E+03  0.88598992382E+03  0.00000000000E+00 0. -1.
          6    1    1    2  502    0  0.12880132372E+03 -0.14326201256E+02 -0.52481729872E+03  0.56758895168E+03  0.17300000000E+03 0. -1.
         -6    1    1    2    0  501 -0.12880132372E+03  0.14326201256E+02 -0.30540934397E+03  0.37416425326E+03  0.17300000000E+03 0.  1.
<mgrwt>
<rscale>  2 0.21615740E+03</rscale>
<asrwt>0</asrwt>
<pdfrwt beam="2">  1        1 0.13630613E+00 0.21615740E+03</pdfrwt>
<pdfrwt beam="1">  1       -1 0.85789669E-02 0.21615740E+03</pdfrwt>
<totfact> 0.15135962E+03</totfact>
</mgrwt>
</event>
<event>
 4    1  0.8249026E-001  0.1886415E+03  0.7546771E-02  0.1159692E+00
         -4   -1    0    0    0  501 -0.00000000000E+00  0.00000000000E+00  0.41443551217E+02  0.41443551217E+02  0.00000000000E+00 0. -1.
          4   -1    0    0  502    0  0.00000000000E+00 -0.00000000000E+00 -0.89268761588E+03  0.89268761588E+03  0.00000000000E+00 0.  1.
          6    1    1    2  502    0 -0.60256024370E+02  0.45009342826E+02 -0.51682071488E+03  0.55017204649E+03  0.17300000000E+03 0. -1.
         -6    1    1    2    0  501  0.60256024370E+02 -0.45009342826E+02 -0.33442334979E+03  0.38395912061E+03  0.17300000000E+03 0. -1.
<mgrwt>
<rscale>  2 0.18864154E+03</rscale>
<asrwt>0</asrwt>
<pdfrwt beam="2">  1        4 0.13733655E+00 0.18864154E+03</pdfrwt>
<pdfrwt beam="1">  1       -4 0.63759313E-02 0.18864154E+03</pdfrwt>
<totfact> 0.11276085E+02</totfact>
</mgrwt>
</event>
<event>
 4    1  0.8249026E-001  0.1757454E+03  0.7546771E-02  0.1171985E+00
         -1   -1    0    0    0  501 -0.00000000000E+00  0.00000000000E+00  0.27281160778E+03  0.27281160778E+03  0.00000000000E+00 0.  1.
          1   -1    0    0  502    0  0.00000000000E+00 -0.00000000000E+00 -0.11328053443E+03  0.11328053443E+03  0.00000000000E+00 0. -1.
          6    1    1    2  502    0  0.22452087959E+02  0.21292265401E+02  0.75134114597E+02  0.19113239389E+03  0.17300000000E+03 0. -1.
         -6    1    1    2    0  501 -0.22452087959E+02 -0.21292265401E+02  0.84396958753E+02  0.19495974832E+03  0.17300000000E+03 0. -1.
<mgrwt>
<rscale>  2 0.17574543E+03</rscale>
<asrwt>0</asrwt>
<pdfrwt beam="2">  1        1 0.17427775E-01 0.17574543E+03</pdfrwt>
<pdfrwt beam="1">  1       -1 0.41971016E-01 0.17574543E+03</pdfrwt>
<totfact> 0.17066422E+03</totfact>
</mgrwt>
</event>
<event>
 4    1  0.8249026E-001  0.2008397E+03  0.7546771E-02  0.1149033E+00
         -2   -1    0    0    0  501 -0.00000000000E+00  0.00000000000E+00  0.26674642102E+02  0.26674642102E+02  0.00000000000E+00 0. -1.
          2   -1    0    0  502    0  0.00000000000E+00 -0.00000000000E+00 -0.15143388193E+04  0.15143388193E+04  0.00000000000E+00 0.  1.
          6    1    1    2  502    0  0.72872858328E+02  0.71394090267E+02 -0.77299738827E+03  0.79866233909E+03  0.17300000000E+03 0.  1.
         -6    1    1    2    0  501 -0.72872858328E+02 -0.71394090267E+02 -0.71466678896E+03  0.74235112234E+03  0.17300000000E+03 0.  1.
<mgrwt>
<rscale>  2 0.20083966E+03</rscale>
<asrwt>0</asrwt>
<pdfrwt beam="2">  1        2 0.23297515E+00 0.20083966E+03</pdfrwt>
<pdfrwt beam="1">  1       -2 0.41037920E-02 0.20083966E+03</pdfrwt>
<totfact> 0.35348487E+03</totfact>
</mgrwt>
</event>
<event>
 4    1  0.8249026E-001  0.1816888E+03  0.7546771E-02  0.1166179E+00
         -1   -1    0    0    0  501 -0.00000000000E+00  0.00000000000E+00  0.24068278204E+03  0.24068278204E+03  0.00000000000E+00 0.  1.
          1   -1    0    0  502    0  0.00000000000E+00 -0.00000000000E+00 -0.13717134555E+03  0.13717134555E+03  0.00000000000E+00 0. -1.
          6    1    1    2  502    0 -0.51897007431E+02  0.19710506514E+02  0.53829444249E+02  0.18949515169E+03  0.17300000000E+03 0. -1.
         -6    1    1    2    0  501  0.51897007431E+02 -0.19710506514E+02  0.49681992241E+02  0.18835897590E+03  0.17300000000E+03 0. -1.
<mgrwt>
<rscale>  2 0.18168875E+03</rscale>
<asrwt>0</asrwt>
<pdfrwt beam="2">  1        1 0.21103284E-01 0.18168875E+03</pdfrwt>
<pdfrwt beam="1">  1       -1 0.37028120E-01 0.18168875E+03</pdfrwt>
<totfact> 0.16658262E+03</totfact>
</mgrwt>
</event>
<event>
 4    1  0.8249026E-001  0.2941222E+03  0.7546771E-02  0.1088216E+00
          1   -1    0    0  502    0  0.00000000000E+00  0.00000000000E+00  0.15627784783E+04  0.15627784783E+04  0.00000000000E+00 0.  1.
         -1   -1    0    0    0  501 -0.00000000000E+00 -0.00000000000E+00 -0.94183719909E+02  0.94183719909E+02  0.00000000000E+00 0. -1.
          6    1    1    2  502    0 -0.16976757863E+03 -0.16660688639E+03  0.12662466405E+04  0.12999570915E+04  0.17300000000E+03 0.  1.
         -6    1    1    2    0  501  0.16976757863E+03  0.16660688639E+03  0.20234811787E+03  0.35700510662E+03  0.17300000000E+03 0. -1.
<mgrwt>
<rscale>  2 0.29412223E+03</rscale>
<asrwt>0</asrwt>
<pdfrwt beam="1">  1        1 0.24042744E+00 0.29412223E+03</pdfrwt>
<pdfrwt beam="2">  1       -1 0.14489804E-01 0.29412223E+03</pdfrwt>
<totfact> 0.22111208E+02</totfact>
</mgrwt>
</event>
<event>
 4    1  0.8249026E-001  0.2522860E+03  0.7546771E-02  0.1111869E+00
         -1   -1    0    0    0  501 -0.00000000000E+00  0.00000000000E+00  0.98817345505E+02  0.98817345505E+02  0.00000000000E+00 0. -1.
          1   -1    0    0  502    0  0.00000000000E+00 -0.00000000000E+00 -0.67883148456E+03  0.67883148456E+03  0.00000000000E+00 0.  1.
          6    1    1    2  502    0  0.15903916640E+03 -0.91792125654E+02 -0.20205738121E+03  0.32322660175E+03  0.17300000000E+03 0.  1.
         -6    1    1    2    0  501 -0.15903916640E+03  0.91792125654E+02 -0.37795675785E+03  0.45442222832E+03  0.17300000000E+03 0.  1.
<mgrwt>
<rscale>  2 0.25228605E+03</rscale>
<asrwt>0</asrwt>
<pdfrwt beam="2">  1        1 0.10443562E+00 0.25228605E+03</pdfrwt>
<pdfrwt beam="1">  1       -1 0.15202668E-01 0.25228605E+03</pdfrwt>
<totfact> 0.92973812E+02</totfact>
</mgrwt>
</event>
<event>
 4    1  0.8249026E-001  0.2442478E+03  0.7546771E-02  0.1116995E+00
          1   -1    0    0  502    0  0.00000000000E+00  0.00000000000E+00  0.10424544741E+04  0.10424544741E+04  0.00000000000E+00 0.  1.
         -1   -1    0    0    0  501 -0.00000000000E+00 -0.00000000000E+00 -0.57275576181E+02  0.57275576181E+02  0.00000000000E+00 0. -1.
          6    1    1    2  502    0  0.33439151593E+02  0.16914439634E+03  0.50852969677E+03  0.56414488934E+03  0.17300000000E+03 0. -1.
         -6    1    1    2    0  501 -0.33439151593E+02 -0.16914439634E+03  0.47664920119E+03  0.53558516099E+03  0.17300000000E+03 0.  1.
<mgrwt>
<rscale>  2 0.24424783E+03</rscale>
<asrwt>0</asrwt>
<pdfrwt beam="1">  1        1 0.16037760E+00 0.24424783E+03</pdfrwt>
<pdfrwt beam="2">  1       -1 0.88116279E-02 0.24424783E+03</pdfrwt>
<totfact> 0.11048235E+03</totfact>
</mgrwt>
</event>
<event>
 4    1  0.8249026E-001  0.2122835E+03  0.7546771E-02  0.1139770E+00
          2   -1    0    0  502    0  0.00000000000E+00  0.00000000000E+00  0.59976372850E+03  0.59976372850E+03  0.00000000000E+00 0. -1.
         -2   -1    0    0    0  501 -0.00000000000E+00 -0.00000000000E+00 -0.94541688665E+02  0.94541688665E+02  0.00000000000E+00 0.  1.
          6    1    1    2  502    0 -0.12110515571E+03 -0.21652665363E+02  0.40988795242E+03  0.46159769301E+03  0.17300000000E+03 0.  1.
         -6    1    1    2    0  501  0.12110515571E+03  0.21652665363E+02  0.95334087413E+02  0.23270772415E+03  0.17300000000E+03 0.  1.
<mgrwt>
<rscale>  2 0.21228353E+03</rscale>
<asrwt>0</asrwt>
<pdfrwt beam="1">  1        2 0.92271341E-01 0.21228353E+03</pdfrwt>
<pdfrwt beam="2">  1       -2 0.14544876E-01 0.21228353E+03</pdfrwt>
<totfact> 0.18102679E+03</totfact>
</mgrwt>
</event>
<event>
 4    1  0.8249026E-001  0.2586294E+03  0.7546771E-02  0.1107970E+00
         -2   -1    0    0    0  501 -0.00000000000E+00  0.00000000000E+00  0.14735830944E+03  0.14735830944E+03  0.00000000000E+00 0. -1.
          2   -1    0    0  502    0  0.00000000000E+00 -0.00000000000E+00 -0.59888081312E+03  0.59888081312E+03  0.00000000000E+00 0.  1.
          6    1    1    2  502    0  0.11256870480E+03 -0.15584746032E+03 -0.42191770935E+02  0.26204825838E+03  0.17300000000E+03 0. -1.
         -6    1    1    2    0  501 -0.11256870480E+03  0.15584746032E+03 -0.40933073274E+03  0.48419086418E+03  0.17300000000E+03 0.  1.
<mgrwt>
<rscale>  2 0.25862936E+03</rscale>
<asrwt>0</asrwt>
<pdfrwt beam="2">  1        2 0.92135509E-01 0.25862936E+03</pdfrwt>
<pdfrwt beam="1">  1       -2 0.22670509E-01 0.25862936E+03</pdfrwt>
<totfact> 0.85690135E+02</totfact>
</mgrwt>
</event>
<event>
 4    1  0.8249026E-001  0.1924050E+03  0.7546771E-02  0.1156310E+00
          2   -1    0    0  502    0  0.00000000000E+00  0.00000000000E+00  0.40040315373E+03  0.40040315373E+03  0.00000000000E+00 0.  1.
         -2   -1    0    0    0  501 -0.00000000000E+00 -0.00000000000E+00 -0.92760460703E+02  0.92760460703E+02  0.00000000000E+00 0. -1.
          6    1    1    2  502    0  0.23816495300E+02  0.80767873186E+02  0.13969454738E+03  0.23776930280E+03  0.17300000000E+03 0. -1.
         -6    1    1    2    0  501 -0.23816495300E+02 -0.80767873186E+02  0.16794814565E+03  0.25539431163E+03  0.17300000000E+03 0. -1.
<mgrwt>
<rscale>  2 0.19240498E+03</rscale>
<asrwt>0</asrwt>
<pdfrwt beam="1">  1        2 0.61600484E-01 0.19240498E+03</pdfrwt>
<pdfrwt beam="2">  1       -2 0.14270840E-01 0.19240498E+03</pdfrwt>
<totfact> 0.29215142E+03</totfact>
</mgrwt>
</event>
<event>
 4    1  0.8249026E-001  0.2667296E+03  0.7546771E-02  0.1103166E+00
          2   -1    0    0  502    0  0.00000000000E+00  0.00000000000E+00  0.15591342306E+04  0.15591342306E+04  0.00000000000E+00 0. -1.
         -2   -1    0    0    0  501 -0.00000000000E+00 -0.00000000000E+00 -0.46903821327E+02  0.46903821327E+02  0.00000000000E+00 0.  1.
          6    1    1    2  502    0 -0.17266581496E+03  0.10678117380E+03  0.62382673174E+03  0.67845743711E+03  0.17300000000E+03 0. -1.
         -6    1    1    2    0  501  0.17266581496E+03 -0.10678117380E+03  0.88840367751E+03  0.92758061479E+03  0.17300000000E+03 0.  1.
<mgrwt>
<rscale>  2 0.26672964E+03</rscale>
<asrwt>0</asrwt>
<pdfrwt beam="1">  1        2 0.23986677E+00 0.26672964E+03</pdfrwt>
<pdfrwt beam="2">  1       -2 0.72159737E-02 0.26672964E+03</pdfrwt>
<totfact> 0.14112494E+03</totfact>
</mgrwt>
</event>
<event>
 4    1  0.8249026E-001  0.2040033E+03  0.7546771E-02  0.1146405E+00
         -2   -1    0    0    0  501 -0.00000000000E+00  0.00000000000E+00  0.30702469441E+02  0.30702469441E+02  0.00000000000E+00 0. -1.
          2   -1    0    0  502    0  0.00000000000E+00 -0.00000000000E+00 -0.15827936588E+04  0.15827936588E+04  0.00000000000E+00 0.  1.
          6    1    1    2  502    0 -0.54917958801E+02 -0.93125600243E+02 -0.10817589354E+04  0.11008268501E+04  0.17300000000E+03 0.  1.
         -6    1    1    2    0  501  0.54917958801E+02  0.93125600243E+02 -0.47033225397E+03  0.51266927814E+03  0.17300000000E+03 0. -1.
<mgrwt>
<rscale>  2 0.20400333E+03</rscale>
<asrwt>0</asrwt>
<pdfrwt beam="2">  1        2 0.24350672E+00 0.20400333E+03</pdfrwt>
<pdfrwt beam="1">  1       -2 0.47234568E-02 0.20400333E+03</pdfrwt>
<totfact> 0.26319531E+03</totfact>
</mgrwt>
</event>
<event>
 4    1  0.8249026E-001  0.1813262E+03  0.7546771E-02  0.1166526E+00
          1   -1    0    0  502    0  0.00000000000E+00  0.00000000000E+00  0.95348176775E+02  0.95348176775E+02  0.00000000000E+00 0. -1.
         -1   -1    0    0    0  501 -0.00000000000E+00 -0.00000000000E+00 -0.49449580862E+03  0.49449580862E+03  0.00000000000E+00 0.  1.
          6    1    1    2  502    0 -0.41715634153E+02 -0.34784782817E+02 -0.37324400192E+02  0.18512775615E+03  0.17300000000E+03 0. -1.
         -6    1    1    2    0  501  0.41715634153E+02  0.34784782817E+02 -0.36182323165E+03  0.40471622924E+03  0.17300000000E+03 0.  1.
<mgrwt>
<rscale>  2 0.18132616E+03</rscale>
<asrwt>0</asrwt>
<pdfrwt beam="1">  1        1 0.14668950E-01 0.18132616E+03</pdfrwt>
<pdfrwt beam="2">  1       -1 0.76076279E-01 0.18132616E+03</pdfrwt>
<totfact> 0.69325586E+02</totfact>
</mgrwt>
</event>
<event>
 4    1  0.8249026E-001  0.1948167E+03  0.7546771E-02  0.1154187E+00
         -2   -1    0    0    0  501 -0.00000000000E+00  0.00000000000E+00  0.18559087250E+02  0.18559087250E+02  0.00000000000E+00 0. -1.
          2   -1    0    0  502    0  0.00000000000E+00 -0.00000000000E+00 -0.20455218810E+04  0.20455218810E+04  0.00000000000E+00 0.  1.
          6    1    1    2  502    0 -0.73262517062E+02  0.51547443865E+02 -0.10297933104E+04  0.10480590621E+04  0.17300000000E+03 0.  1.
         -6    1    1    2    0  501  0.73262517062E+02 -0.51547443865E+02 -0.99716948327E+03  0.10160219061E+04  0.17300000000E+03 0. -1.
<mgrwt>
<rscale>  2 0.19481667E+03</rscale>
<asrwt>0</asrwt>
<pdfrwt beam="2">  1        2 0.31469581E+00 0.19481667E+03</pdfrwt>
<pdfrwt beam="1">  1       -2 0.28552430E-02 0.19481667E+03</pdfrwt>
<totfact> 0.32091341E+03</totfact>
</mgrwt>
</event>
<event>
 4    1  0.8249026E-001  0.1802714E+03  0.7546771E-02  0.1167541E+00
          2   -1    0    0  502    0  0.00000000000E+00  0.00000000000E+00  0.20260566591E+04  0.20260566591E+04  0.00000000000E+00 0. -1.
         -2   -1    0    0    0  501 -0.00000000000E+00 -0.00000000000E+00 -0.18275134705E+02  0.18275134705E+02  0.00000000000E+00 0.  1.
          6    1    1    2  502    0 -0.24085522672E+02 -0.44594641035E+02  0.64641191536E+03  0.67107835513E+03  0.17300000000E+03 0.  1.
         -6    1    1    2    0  501  0.24085522672E+02  0.44594641035E+02  0.13613696090E+04  0.13732534386E+04  0.17300000000E+03 0. -1.
<mgrwt>
<rscale>  2 0.18027145E+03</rscale>
<asrwt>0</asrwt>
<pdfrwt beam="1">  1        2 0.31170085E+00 0.18027145E+03</pdfrwt>
<pdfrwt beam="2">  1       -2 0.28115608E-02 0.18027145E+03</pdfrwt>
<totfact> 0.33611721E+03</totfact>
</mgrwt>
</event>
<event>
 4    1  0.8249026E-001  0.1874857E+03  0.7546771E-02  0.1160749E+00
          2   -1    0    0  502    0  0.00000000000E+00  0.00000000000E+00  0.26018878743E+03  0.26018878743E+03  0.00000000000E+00 0. -1.
         -2   -1    0    0    0  501 -0.00000000000E+00 -0.00000000000E+00 -0.13647735352E+03  0.13647735352E+03  0.00000000000E+00 0.  1.
          6    1    1    2  502    0  0.70923970405E+02 -0.13844894344E+02  0.81797297502E+02  0.20455241029E+03  0.17300000000E+03 0.  1.
         -6    1    1    2    0  501 -0.70923970405E+02  0.13844894344E+02  0.41914136401E+02  0.19211373066E+03  0.17300000000E+03 0.  1.
<mgrwt>
<rscale>  2 0.18748571E+03</rscale>
<asrwt>0</asrwt>
<pdfrwt beam="1">  1        2 0.40029044E-01 0.18748571E+03</pdfrwt>
<pdfrwt beam="2">  1       -2 0.20996516E-01 0.18748571E+03</pdfrwt>
<totfact> 0.24284135E+03</totfact>
</mgrwt>
</event>
<event>
 4    1  0.8249026E-001  0.1928172E+03  0.7546771E-02  0.1155945E+00
          2   -1    0    0  502    0  0.00000000000E+00  0.00000000000E+00  0.99696177517E+02  0.99696177517E+02  0.00000000000E+00 0.  1.
         -2   -1    0    0    0  501 -0.00000000000E+00 -0.00000000000E+00 -0.53954182791E+03  0.53954182791E+03  0.00000000000E+00 0. -1.
          6    1    1    2  502    0  0.34065241521E+02 -0.78032202448E+02 -0.42303985567E+02  0.19740337508E+03  0.17300000000E+03 0.  1.
         -6    1    1    2    0  501 -0.34065241521E+02  0.78032202448E+02 -0.39754166483E+03  0.44183463034E+03  0.17300000000E+03 0. -1.
<mgrwt>
<rscale>  2 0.19281718E+03</rscale>
<asrwt>0</asrwt>
<pdfrwt beam="1">  1        2 0.15337874E-01 0.19281718E+03</pdfrwt>
<pdfrwt beam="2">  1       -2 0.83006433E-01 0.19281718E+03</pdfrwt>
<totfact> 0.49632965E+02</totfact>
</mgrwt>
</event>
<event>
 4    1  0.8249026E-001  0.1742686E+03  0.7546771E-02  0.1173468E+00
         -2   -1    0    0    0  501 -0.00000000000E+00  0.00000000000E+00  0.27141651501E+02  0.27141651501E+02  0.00000000000E+00 0. -1.
          2   -1    0    0  502    0  0.00000000000E+00 -0.00000000000E+00 -0.17977811572E+04  0.17977811572E+04  0.00000000000E+00 0.  1.
          6    1    1    2  502    0 -0.98075047777E+01  0.18556639867E+02 -0.32461501956E+03  0.36843513263E+03  0.17300000000E+03 0. -1.
         -6    1    1    2    0  501  0.98075047777E+01 -0.18556639867E+02 -0.14460244862E+04  0.14564876761E+04  0.17300000000E+03 0.  1.
<mgrwt>
<rscale>  2 0.17426857E+03</rscale>
<asrwt>0</asrwt>
<pdfrwt beam="2">  1        2 0.27658170E+00 0.17426857E+03</pdfrwt>
<pdfrwt beam="1">  1       -2 0.41756390E-02 0.17426857E+03</pdfrwt>
<totfact> 0.24496427E+03</totfact>
</mgrwt>
</event>
<event>
 4    1  0.8249026E-001  0.1930628E+03  0.7546771E-02  0.1155728E+00
         -1   -1    0    0    0  501 -0.00000000000E+00  0.00000000000E+00  0.47472544646E+02  0.47472544646E+02  0.00000000000E+00 0.  1.
          1   -1    0    0  502    0  0.00000000000E+00 -0.00000000000E+00 -0.78950179504E+03  0.78950179504E+03  0.00000000000E+00 0. -1.
          6    1    1    2  502    0 -0.71144411126E+02 -0.47777718551E+02 -0.33995745450E+03  0.39095307710E+03  0.17300000000E+03 0.  1.
         -6    1    1    2    0  501  0.71144411126E+02  0.47777718551E+02 -0.40207179589E+03  0.44602126258E+03  0.17300000000E+03 0.  1.
<mgrwt>
<rscale>  2 0.19306278E+03</rscale>
<asrwt>0</asrwt>
<pdfrwt beam="2">  1        1 0.12146182E+00 0.19306278E+03</pdfrwt>
<pdfrwt beam="1">  1       -1 0.73034680E-02 0.19306278E+03</pdfrwt>
<totfact> 0.23125711E+03</totfact>
</mgrwt>
</event>
<event>
 4    1  0.8249026E-001  0.1854622E+03  0.7546771E-02  0.1162619E+00
         -2   -1    0    0    0  501 -0.00000000000E+00  0.00000000000E+00  0.55656856066E+02  0.55656856066E+02  0.00000000000E+00 0.  1.
          2   -1    0    0  502    0  0.00000000000E+00 -0.00000000000E+00 -0.64246695231E+03  0.64246695231E+03  0.00000000000E+00 0. -1.
          6    1    1    2  502    0  0.40257302397E+02 -0.53353286110E+02 -0.22529341298E+03  0.29181046155E+03  0.17300000000E+03 0.  1.
         -6    1    1    2    0  501 -0.40257302397E+02  0.53353286110E+02 -0.36151668326E+03  0.40631334683E+03  0.17300000000E+03 0.  1.
<mgrwt>
<rscale>  2 0.18546219E+03</rscale>
<asrwt>0</asrwt>
<pdfrwt beam="2">  1        2 0.98841065E-01 0.18546219E+03</pdfrwt>
<pdfrwt beam="1">  1       -2 0.85625937E-02 0.18546219E+03</pdfrwt>
<totfact> 0.38903185E+03</totfact>
</mgrwt>
</event>
<event>
 4    1  0.8249026E-001  0.2127050E+03  0.7546771E-02  0.1139442E+00
          4   -1    0    0  502    0  0.00000000000E+00  0.00000000000E+00  0.28614836997E+03  0.28614836997E+03  0.00000000000E+00 0.  1.
         -4   -1    0    0    0  501 -0.00000000000E+00 -0.00000000000E+00 -0.18592442202E+03  0.18592442202E+03  0.00000000000E+00 0. -1.
          6    1    1    2  502    0 -0.12375144914E+03  0.12741263070E+00  0.14140374339E+03  0.25541819834E+03  0.17300000000E+03 0. -1.
         -6    1    1    2    0  501  0.12375144914E+03 -0.12741263070E+00 -0.41179795445E+02  0.21665459365E+03  0.17300000000E+03 0. -1.
<mgrwt>
<rscale>  2 0.21270505E+03</rscale>
<asrwt>0</asrwt>
<pdfrwt beam="1">  1        4 0.44022826E-01 0.21270505E+03</pdfrwt>
<pdfrwt beam="2">  1       -4 0.28603757E-01 0.21270505E+03</pdfrwt>
<totfact> 0.10474200E+02</totfact>
</mgrwt>
</event>
<event>
 4    1  0.8249026E-001  0.1783074E+03  0.7546771E-02  0.1169451E+00
          2   -1    0    0  502    0  0.00000000000E+00  0.00000000000E+00  0.27456559995E+03  0.27456559995E+03  0.00000000000E+00 0. -1.
         -2   -1    0    0    0  501 -0.00000000000E+00 -0.00000000000E+00 -0.18669774562E+03  0.18669774562E+03  0.00000000000E+00 0.  1.
          6    1    1    2  502    0  0.21167511783E+02  0.37635991224E+02  0.18606159222E+03  0.25770612621E+03  0.17300000000E+03 0. -1.
         -6    1    1    2    0  501 -0.21167511783E+02 -0.37635991224E+02 -0.98193737885E+02  0.20355721935E+03  0.17300000000E+03 0.  1.
<mgrwt>
<rscale>  2 0.17830741E+03</rscale>
<asrwt>0</asrwt>
<pdfrwt beam="1">  1        2 0.42240862E-01 0.17830741E+03</pdfrwt>
<pdfrwt beam="2">  1       -2 0.28722730E-01 0.17830741E+03</pdfrwt>
<totfact> 0.13212689E+03</totfact>
</mgrwt>
</event>
<event>
 4    1  0.8249026E-001  0.4653193E+03  0.7546771E-02  0.1023250E+00
         -1   -1    0    0    0  501 -0.00000000000E+00  0.00000000000E+00  0.78986095477E+02  0.78986095477E+02  0.00000000000E+00 0.  1.
          1   -1    0    0  502    0  0.00000000000E+00 -0.00000000000E+00 -0.30838472912E+04  0.30838472912E+04  0.00000000000E+00 0. -1.
          6    1    1    2  502    0  0.78562671315E+01 -0.43189274266E+03 -0.20295152748E+04  0.20821753799E+04  0.17300000000E+03 0. -1.
         -6    1    1    2    0  501 -0.78562671315E+01  0.43189274266E+03 -0.97534592088E+03  0.10806580067E+04  0.17300000000E+03 0.  1.
<mgrwt>
<rscale>  2 0.46531931E+03</rscale>
<asrwt>0</asrwt>
<pdfrwt beam="2">  1        1 0.47443792E+00 0.46531931E+03</pdfrwt>
<pdfrwt beam="1">  1       -1 0.12151710E-01 0.46531931E+03</pdfrwt>
<totfact> 0.26804099E+01</totfact>
</mgrwt>
</event>
<event>
 4    1  0.8249026E-001  0.1758792E+03  0.7546771E-02  0.1171852E+00
         -1   -1    0    0    0  501 -0.00000000000E+00  0.00000000000E+00  0.21064526611E+03  0.21064526611E+03  0.00000000000E+00 0. -1.
          1   -1    0    0  502    0  0.00000000000E+00 -0.00000000000E+00 -0.21552171108E+03  0.21552171108E+03  0.00000000000E+00 0.  1.
          6    1    1    2  502    0  0.31629491683E+02 -0.20211546463E+01 -0.12271711744E+03  0.21445978813E+03  0.17300000000E+03 0.  1.
         -6    1    1    2    0  501 -0.31629491683E+02  0.20211546463E+01  0.11784067248E+03  0.21170718906E+03  0.17300000000E+03 0. -1.
<mgrwt>
<rscale>  2 0.17587925E+03</rscale>
<asrwt>0</asrwt>
<pdfrwt beam="2">  1        1 0.33157186E-01 0.17587925E+03</pdfrwt>
<pdfrwt beam="1">  1       -1 0.32406964E-01 0.17587925E+03</pdfrwt>
<totfact> 0.11844813E+03</totfact>
</mgrwt>
</event>
<event>
 4    1  0.8249026E-001  0.1834681E+03  0.7546771E-02  0.1164488E+00
         -2   -1    0    0    0  501 -0.00000000000E+00  0.00000000000E+00  0.40439325940E+03  0.40439325940E+03  0.00000000000E+00 0. -1.
          2   -1    0    0  502    0  0.00000000000E+00 -0.00000000000E+00 -0.26705819163E+03  0.26705819163E+03  0.00000000000E+00 0.  1.
          6    1    1    2  502    0 -0.61036458193E+02  0.24663082956E+01  0.34720223617E+03  0.39269571516E+03  0.17300000000E+03 0. -1.
         -6    1    1    2    0  501  0.61036458193E+02 -0.24663082956E+01 -0.20986716840E+03  0.27875573587E+03  0.17300000000E+03 0.  1.
<mgrwt>
<rscale>  2 0.18346807E+03</rscale>
<asrwt>0</asrwt>
<pdfrwt beam="2">  1        2 0.41085875E-01 0.18346807E+03</pdfrwt>
<pdfrwt beam="1">  1       -2 0.62214348E-01 0.18346807E+03</pdfrwt>
<totfact> 0.30671510E+02</totfact>
</mgrwt>
</event>
<event>
 4    1  0.8249026E-001  0.1837329E+03  0.7546771E-02  0.1164238E+00
          2   -1    0    0  502    0  0.00000000000E+00  0.00000000000E+00  0.61995102434E+03  0.61995102434E+03  0.00000000000E+00 0.  1.
         -2   -1    0    0    0  501 -0.00000000000E+00 -0.00000000000E+00 -0.72267432687E+02  0.72267432687E+02  0.00000000000E+00 0. -1.
          6    1    1    2  502    0 -0.33957550101E+01 -0.61783785809E+02  0.44568653286E+03  0.48207287096E+03  0.17300000000E+03 0. -1.
         -6    1    1    2    0  501  0.33957550101E+01  0.61783785809E+02  0.10199705879E+03  0.21014558606E+03  0.17300000000E+03 0. -1.
<mgrwt>
<rscale>  2 0.18373287E+03</rscale>
<asrwt>0</asrwt>
<pdfrwt beam="1">  1        2 0.95377077E-01 0.18373287E+03</pdfrwt>
<pdfrwt beam="2">  1       -2 0.11118067E-01 0.18373287E+03</pdfrwt>
<totfact> 0.26837316E+03</totfact>
</mgrwt>
</event>
<event>
 4    1  0.8249026E-001  0.2101693E+03  0.7546771E-02  0.1141432E+00
          2   -1    0    0  502    0  0.00000000000E+00  0.00000000000E+00  0.10127924986E+03  0.10127924986E+03  0.00000000000E+00 0. -1.
         -2   -1    0    0    0  501 -0.00000000000E+00 -0.00000000000E+00 -0.43710973266E+03  0.43710973266E+03  0.00000000000E+00 0.  1.
          6    1    1    2  502    0  0.10094646851E+03 -0.63654854614E+02 -0.18064625430E+03  0.27713570541E+03  0.17300000000E+03 0.  1.
         -6    1    1    2    0  501 -0.10094646851E+03  0.63654854614E+02 -0.15518422850E+03  0.26125327710E+03  0.17300000000E+03 0. -1.
<mgrwt>
<rscale>  2 0.21016929E+03</rscale>
<asrwt>0</asrwt>
<pdfrwt beam="1">  1        2 0.15581423E-01 0.21016929E+03</pdfrwt>
<pdfrwt beam="2">  1       -2 0.67247651E-01 0.21016929E+03</pdfrwt>
<totfact> 0.77052817E+02</totfact>
</mgrwt>
</event>
<event>
 4    1  0.8249026E-001  0.2604504E+03  0.7546771E-02  0.1106873E+00
         -1   -1    0    0    0  501 -0.00000000000E+00  0.00000000000E+00  0.11629022093E+03  0.11629022093E+03  0.00000000000E+00 0.  1.
          1   -1    0    0  502    0  0.00000000000E+00 -0.00000000000E+00 -0.58863219355E+03  0.58863219355E+03  0.00000000000E+00 0. -1.
          6    1    1    2  502    0  0.19349403165E+03  0.21574722096E+02 -0.20268776499E+03  0.33002536113E+03  0.17300000000E+03 0. -1.
         -6    1    1    2    0  501 -0.19349403165E+03 -0.21574722096E+02 -0.26965420764E+03  0.37489705335E+03  0.17300000000E+03 0. -1.
<mgrwt>
<rscale>  2 0.26045040E+03</rscale>
<asrwt>0</asrwt>
<pdfrwt beam="2">  1        1 0.90558799E-01 0.26045040E+03</pdfrwt>
<pdfrwt beam="1">  1       -1 0.17890803E-01 0.26045040E+03</pdfrwt>
<totfact> 0.87608964E+02</totfact>
</mgrwt>
</event>
<event>
 4    1  0.8249026E-001  0.2669076E+03  0.7546771E-02  0.1103063E+00
          2   -1    0    0  502    0  0.00000000000E+00  0.00000000000E+00  0.32234596432E+04  0.32234596432E+04  0.00000000000E+00 0.  1.
         -2   -1    0    0    0  501 -0.00000000000E+00 -0.00000000000E+00 -0.32461787281E+02  0.32461787281E+02  0.00000000000E+00 0. -1.
          6    1    1    2  502    0  0.20159550106E+03 -0.25882513918E+02  0.67575423543E+03  0.72655587347E+03  0.17300000000E+03 0. -1.
         -6    1    1    2    0  501 -0.20159550106E+03  0.25882513918E+02  0.25152436205E+04  0.25293655570E+04  0.17300000000E+03 0.  1.
<mgrwt>
<rscale>  2 0.26690757E+03</rscale>
<asrwt>0</asrwt>
<pdfrwt beam="1">  1        2 0.49591662E+00 0.26690757E+03</pdfrwt>
<pdfrwt beam="2">  1       -2 0.49941237E-02 0.26690757E+03</pdfrwt>
<totfact> 0.29965696E+02</totfact>
</mgrwt>
</event>
<event>
 4    1  0.8249026E-001  0.1984370E+03  0.7546771E-02  0.1151064E+00
          2   -1    0    0  502    0  0.00000000000E+00  0.00000000000E+00  0.33170732244E+03  0.33170732244E+03  0.00000000000E+00 0. -1.
         -2   -1    0    0    0  501 -0.00000000000E+00 -0.00000000000E+00 -0.24235681227E+03  0.24235681227E+03  0.00000000000E+00 0.  1.
          6    1    1    2  502    0 -0.39602633408E+01  0.97121459696E+02  0.24969361479E+03  0.31894225635E+03  0.17300000000E+03 0. -1.
         -6    1    1    2    0  501  0.39602633408E+01 -0.97121459696E+02 -0.16034310462E+03  0.25512187836E+03  0.17300000000E+03 0.  1.
<mgrwt>
<rscale>  2 0.19843705E+03</rscale>
<asrwt>0</asrwt>
<pdfrwt beam="1">  1        2 0.51031896E-01 0.19843705E+03</pdfrwt>
<pdfrwt beam="2">  1       -2 0.37285663E-01 0.19843705E+03</pdfrwt>
<totfact> 0.66916153E+02</totfact>
</mgrwt>
</event>
<event>
 4    1  0.8249026E-001  0.1955144E+03  0.7546771E-02  0.1153580E+00
          1   -1    0    0  502    0  0.00000000000E+00  0.00000000000E+00  0.14922722534E+04  0.14922722534E+04  0.00000000000E+00 0.  1.
         -1   -1    0    0    0  501 -0.00000000000E+00 -0.00000000000E+00 -0.26014418221E+02  0.26014418221E+02  0.00000000000E+00 0. -1.
          6    1    1    2  502    0 -0.53473822337E+02  0.73738935100E+02  0.82708975396E+03  0.84988431056E+03  0.17300000000E+03 0.  1.
         -6    1    1    2    0  501  0.53473822337E+02 -0.73738935100E+02  0.63916808119E+03  0.66840236103E+03  0.17300000000E+03 0. -1.
<mgrwt>
<rscale>  2 0.19551440E+03</rscale>
<asrwt>0</asrwt>
<pdfrwt beam="1">  1        1 0.22958028E+00 0.19551440E+03</pdfrwt>
<pdfrwt beam="2">  1       -1 0.40022193E-02 0.19551440E+03</pdfrwt>
<totfact> 0.17812665E+03</totfact>
</mgrwt>
</event>
<event>
 4    1  0.8249026E-001  0.2385068E+03  0.7546771E-02  0.1120792E+00
          1   -1    0    0  502    0  0.00000000000E+00  0.00000000000E+00  0.78962391138E+03  0.78962391138E+03  0.00000000000E+00 0.  1.
         -1   -1    0    0    0  501 -0.00000000000E+00 -0.00000000000E+00 -0.13326897757E+03  0.13326897757E+03  0.00000000000E+00 0. -1.
          6    1    1    2  502    0 -0.37828932958E+02 -0.15976694013E+03  0.15403356172E+02  0.23900369601E+03  0.17300000000E+03 0. -1.
         -6    1    1    2    0  501  0.37828932958E+02  0.15976694013E+03  0.64095157764E+03  0.68388919293E+03  0.17300000000E+03 0.  1.
<mgrwt>
<rscale>  2 0.23850682E+03</rscale>
<asrwt>0</asrwt>
<pdfrwt beam="1">  1        1 0.12148060E+00 0.23850682E+03</pdfrwt>
<pdfrwt beam="2">  1       -1 0.20502920E-01 0.23850682E+03</pdfrwt>
<totfact> 0.45906343E+02</totfact>
</mgrwt>
</event>
<event>
 4    1  0.8249026E-001  0.2108824E+03  0.7546771E-02  0.1140869E+00
         -2   -1    0    0    0  501 -0.00000000000E+00  0.00000000000E+00  0.26164576834E+03  0.26164576834E+03  0.00000000000E+00 0. -1.
          2   -1    0    0  502    0  0.00000000000E+00 -0.00000000000E+00 -0.23444520435E+03  0.23444520435E+03  0.00000000000E+00 0.  1.
          6    1    1    2  502    0  0.11785243573E+03  0.25557345333E+02  0.14368137629E+03  0.25517780547E+03  0.17300000000E+03 0. -1.
         -6    1    1    2    0  501 -0.11785243573E+03 -0.25557345333E+02 -0.11648081230E+03  0.24091316723E+03  0.17300000000E+03 0.  1.
<mgrwt>
<rscale>  2 0.21088237E+03</rscale>
<asrwt>0</asrwt>
<pdfrwt beam="2">  1        2 0.36068493E-01 0.21088237E+03</pdfrwt>
<pdfrwt beam="1">  1       -2 0.40253195E-01 0.21088237E+03</pdfrwt>
<totfact> 0.84110055E+02</totfact>
</mgrwt>
</event>
<event>
 4    1  0.8249026E-001  0.1848434E+03  0.7546771E-02  0.1163196E+00
         -2   -1    0    0    0  501 -0.00000000000E+00  0.00000000000E+00  0.46724331995E+02  0.46724331995E+02  0.00000000000E+00 0.  1.
          2   -1    0    0  502    0  0.00000000000E+00 -0.00000000000E+00 -0.73125119203E+03  0.73125119203E+03  0.00000000000E+00 0. -1.
          6    1    1    2  502    0 -0.64744044440E+02 -0.68046679846E+01 -0.34150855968E+03  0.38832356500E+03  0.17300000000E+03 0.  1.
         -6    1    1    2    0  501  0.64744044440E+02  0.68046679846E+01 -0.34301830036E+03  0.38965195903E+03  0.17300000000E+03 0.  1.
<mgrwt>
<rscale>  2 0.18484343E+03</rscale>
<asrwt>0</asrwt>
<pdfrwt beam="2">  1        2 0.11250018E+00 0.18484343E+03</pdfrwt>
<pdfrwt beam="1">  1       -2 0.71883588E-02 0.18484343E+03</pdfrwt>
<totfact> 0.43733773E+03</totfact>
</mgrwt>
</event>
<event>
 4    1  0.8249026E-001  0.2335453E+03  0.7546771E-02  0.1124169E+00
         -2   -1    0    0    0  501 -0.00000000000E+00  0.00000000000E+00  0.32899497727E+03  0.32899497727E+03  0.00000000000E+00 0.  1.
          2   -1    0    0  502    0  0.00000000000E+00 -0.00000000000E+00 -0.23022143031E+03  0.23022143031E+03  0.00000000000E+00 0. -1.
          6    1    1    2  502    0 -0.14793763622E+03  0.52238306287E+02  0.19730885687E+03  0.30573545731E+03  0.17300000000E+03 0.  1.
         -6    1    1    2    0  501  0.14793763622E+03 -0.52238306287E+02 -0.98535309915E+02  0.25348095028E+03  0.17300000000E+03 0. -1.
<mgrwt>
<rscale>  2 0.23354525E+03</rscale>
<asrwt>0</asrwt>
<pdfrwt beam="2">  1        2 0.35418681E-01 0.23354525E+03</pdfrwt>
<pdfrwt beam="1">  1       -2 0.50614612E-01 0.23354525E+03</pdfrwt>
<totfact> 0.54867758E+02</totfact>
</mgrwt>
</event>
<event>
 4    1  0.8249026E-001  0.2274814E+03  0.7546771E-02  0.1128425E+00
          2   -1    0    0  502    0  0.00000000000E+00  0.00000000000E+00  0.26610177334E+02  0.26610177334E+02  0.00000000000E+00 0.  1.
         -2   -1    0    0    0  501 -0.00000000000E+00 -0.00000000000E+00 -0.20173467588E+04  0.20173467588E+04  0.00000000000E+00 0. -1.
          6    1    1    2  502    0  0.90625567841E+02 -0.11664383279E+03 -0.80137988581E+03  0.83304111462E+03  0.17300000000E+03 0.  1.
         -6    1    1    2    0  501 -0.90625567841E+02  0.11664383279E+03 -0.11893566956E+04  0.12109158215E+04  0.17300000000E+03 0. -1.
<mgrwt>
<rscale>  2 0.22748138E+03</rscale>
<asrwt>0</asrwt>
<pdfrwt beam="1">  1        2 0.40938741E-02 0.22748138E+03</pdfrwt>
<pdfrwt beam="2">  1       -2 0.31036099E+00 0.22748138E+03</pdfrwt>
<totfact> 0.65586870E+01</totfact>
</mgrwt>
</event>
<event>
 4    1  0.8249026E-001  0.7064283E+03  0.7546771E-02  0.9706302E-01
          1   -1    0    0  502    0  0.00000000000E+00  0.00000000000E+00  0.10320075725E+04  0.10320075725E+04  0.00000000000E+00 0.  1.
         -1   -1    0    0    0  501 -0.00000000000E+00 -0.00000000000E+00 -0.10559005849E+04  0.10559005849E+04  0.00000000000E+00 0. -1.
          6    1    1    2  502    0  0.58343186533E+03 -0.35877453807E+03  0.75664561436E+03  0.10351586817E+04  0.17300000000E+03 0.  1.
         -6    1    1    2    0  501 -0.58343186533E+03  0.35877453807E+03 -0.78053862681E+03  0.10527494757E+04  0.17300000000E+03 0. -1.
<mgrwt>
<rscale>  2 0.70642828E+03</rscale>
<asrwt>0</asrwt>
<pdfrwt beam="1">  1        1 0.15877040E+00 0.70642828E+03</pdfrwt>
<pdfrwt beam="2">  1       -1 0.16244624E+00 0.70642828E+03</pdfrwt>
<totfact> 0.41840327E+00</totfact>
</mgrwt>
</event>
<event>
 4    1  0.8249026E-001  0.1973654E+03  0.7546771E-02  0.1151981E+00
          1   -1    0    0  502    0  0.00000000000E+00  0.00000000000E+00  0.54429811390E+02  0.54429811390E+02  0.00000000000E+00 0. -1.
         -1   -1    0    0    0  501 -0.00000000000E+00 -0.00000000000E+00 -0.84761219829E+03  0.84761219829E+03  0.00000000000E+00 0.  1.
          6    1    1    2  502    0  0.92889406530E+02 -0.19890914925E+02 -0.57454651234E+03  0.60750044048E+03  0.17300000000E+03 0.  1.
         -6    1    1    2    0  501 -0.92889406530E+02  0.19890914925E+02 -0.21863587456E+03  0.29454156920E+03  0.17300000000E+03 0. -1.
<mgrwt>
<rscale>  2 0.19736537E+03</rscale>
<asrwt>0</asrwt>
<pdfrwt beam="1">  1        1 0.83738171E-02 0.19736537E+03</pdfrwt>
<pdfrwt beam="2">  1       -1 0.13040188E+00 0.19736537E+03</pdfrwt>
<totfact> 0.44155493E+02</totfact>
</mgrwt>
</event>
<event>
 4    1  0.8249026E-001  0.1827208E+03  0.7546771E-02  0.1165196E+00
         -2   -1    0    0    0  501 -0.00000000000E+00  0.00000000000E+00  0.40299680922E+02  0.40299680922E+02  0.00000000000E+00 0. -1.
          2   -1    0    0  502    0  0.00000000000E+00 -0.00000000000E+00 -0.89956782579E+03  0.89956782579E+03  0.00000000000E+00 0.  1.
          6    1    1    2  502    0  0.42060777362E+02  0.41094787190E+02 -0.56175205953E+03  0.59072181855E+03  0.17300000000E+03 0.  1.
         -6    1    1    2    0  501 -0.42060777362E+02 -0.41094787190E+02 -0.29751608534E+03  0.34914568817E+03  0.17300000000E+03 0. -1.
<mgrwt>
<rscale>  2 0.18272080E+03</rscale>
<asrwt>0</asrwt>
<pdfrwt beam="2">  1        2 0.13839504E+00 0.18272080E+03</pdfrwt>
<pdfrwt beam="1">  1       -2 0.61999512E-02 0.18272080E+03</pdfrwt>
<totfact> 0.42202816E+03</totfact>
</mgrwt>
</event>
<event>
 4    1  0.8249026E-001  0.1813029E+03  0.7546771E-02  0.1166548E+00
          1   -1    0    0  502    0  0.00000000000E+00  0.00000000000E+00  0.75541911912E+02  0.75541911912E+02  0.00000000000E+00 0. -1.
         -1   -1    0    0    0  501 -0.00000000000E+00 -0.00000000000E+00 -0.46822556859E+03  0.46822556859E+03  0.00000000000E+00 0.  1.
          6    1    1    2  502    0 -0.39699363233E+02  0.36955458402E+02 -0.12406088468E+03  0.21968579484E+03  0.17300000000E+03 0. -1.
         -6    1    1    2    0  501  0.39699363233E+02 -0.36955458402E+02 -0.26862277200E+03  0.32408168566E+03  0.17300000000E+03 0.  1.
<mgrwt>
<rscale>  2 0.18130291E+03</rscale>
<asrwt>0</asrwt>
<pdfrwt beam="1">  1        1 0.11621833E-01 0.18130291E+03</pdfrwt>
<pdfrwt beam="2">  1       -1 0.72034702E-01 0.18130291E+03</pdfrwt>
<totfact> 0.10514475E+03</totfact>
</mgrwt>
</event>
<event>
 4    1  0.8249026E-001  0.1986598E+03  0.7546771E-02  0.1150875E+00
          1   -1    0    0  502    0  0.00000000000E+00  0.00000000000E+00  0.50958808856E+03  0.50958808856E+03  0.00000000000E+00 0.  1.
         -1   -1    0    0    0  501 -0.00000000000E+00 -0.00000000000E+00 -0.84276286747E+02  0.84276286747E+02  0.00000000000E+00 0. -1.
          6    1    1    2  502    0  0.30764793075E+02  0.92683605675E+02  0.12812532863E+03  0.23639336516E+03  0.17300000000E+03 0. -1.
         -6    1    1    2    0  501 -0.30764793075E+02 -0.92683605675E+02  0.29718647319E+03  0.35747101015E+03  0.17300000000E+03 0. -1.
<mgrwt>
<rscale>  2 0.19865982E+03</rscale>
<asrwt>0</asrwt>
<pdfrwt beam="1">  1        1 0.78398166E-01 0.19865982E+03</pdfrwt>
<pdfrwt beam="2">  1       -1 0.12965583E-01 0.19865982E+03</pdfrwt>
<totfact> 0.17727794E+03</totfact>
</mgrwt>
</event>
<event>
 4    1  0.8249026E-001  0.2186432E+03  0.7546771E-02  0.1134899E+00
         -2   -1    0    0    0  501 -0.00000000000E+00  0.00000000000E+00  0.15413782056E+02  0.15413782056E+02  0.00000000000E+00 0.  1.
          2   -1    0    0  502    0  0.00000000000E+00 -0.00000000000E+00 -0.33064683432E+04  0.33064683432E+04  0.00000000000E+00 0. -1.
          6    1    1    2  502    0 -0.33189826269E+02  0.12951552256E+03 -0.12319231818E+04  0.12511752719E+04  0.17300000000E+03 0.  1.
         -6    1    1    2    0  501  0.33189826269E+02 -0.12951552256E+03 -0.20591313793E+04  0.20707068534E+04  0.17300000000E+03 0.  1.
<mgrwt>
<rscale>  2 0.21864317E+03</rscale>
<asrwt>0</asrwt>
<pdfrwt beam="2">  1        2 0.50868800E+00 0.21864317E+03</pdfrwt>
<pdfrwt beam="1">  1       -2 0.23713484E-02 0.21864317E+03</pdfrwt>
<totfact> 0.82338474E+02</totfact>
</mgrwt>
</event>
<event>
 4    1  0.8249026E-001  0.5821357E+03  0.7546771E-02  0.9943178E-01
         -2   -1    0    0    0  501 -0.00000000000E+00  0.00000000000E+00  0.26377296905E+03  0.26377296905E+03  0.00000000000E+00 0. -1.
          2   -1    0    0  502    0  0.00000000000E+00 -0.00000000000E+00 -0.13987528708E+04  0.13987528708E+04  0.00000000000E+00 0.  1.
          6    1    1    2  502    0  0.23137364345E+03  0.50539021326E+03 -0.33017346353E+03  0.66925073520E+03  0.17300000000E+03 0. -1.
         -6    1    1    2    0  501 -0.23137364345E+03 -0.50539021326E+03 -0.80480643820E+03  0.99327510465E+03  0.17300000000E+03 0.  1.
<mgrwt>
<rscale>  2 0.58213575E+03</rscale>
<asrwt>0</asrwt>
<pdfrwt beam="2">  1        2 0.21519275E+00 0.58213575E+03</pdfrwt>
<pdfrwt beam="1">  1       -2 0.40580457E-01 0.58213575E+03</pdfrwt>
<totfact> 0.86302788E+01</totfact>
</mgrwt>
</event>
<event>
 4    1  0.8249026E-001  0.2606831E+03  0.7546771E-02  0.1106734E+00
          2   -1    0    0  502    0  0.00000000000E+00  0.00000000000E+00  0.38433375430E+04  0.38433375430E+04  0.00000000000E+00 0.  1.
         -2   -1    0    0    0  501 -0.00000000000E+00 -0.00000000000E+00 -0.17771970835E+02  0.17771970835E+02  0.00000000000E+00 0. -1.
          6    1    1    2  502    0 -0.45380712646E+02 -0.18965034590E+03  0.20505868831E+04  0.20670902806E+04  0.17300000000E+03 0.  1.
         -6    1    1    2    0  501  0.45380712646E+02  0.18965034590E+03  0.17749786890E+04  0.17940192333E+04  0.17300000000E+03 0. -1.
<mgrwt>
<rscale>  2 0.26068307E+03</rscale>
<asrwt>0</asrwt>
<pdfrwt beam="1">  1        2 0.59128204E+00 0.26068307E+03</pdfrwt>
<pdfrwt beam="2">  1       -2 0.27341524E-02 0.26068307E+03</pdfrwt>
<totfact> 0.28594714E+02</totfact>
</mgrwt>
</event>
<event>
 4    1  0.8249026E-001  0.2417097E+03  0.7546771E-02  0.1118659E+00
          2   -1    0    0  502    0  0.00000000000E+00  0.00000000000E+00  0.47002109289E+03  0.47002109289E+03  0.00000000000E+00 0.  1.
         -2   -1    0    0    0  501 -0.00000000000E+00 -0.00000000000E+00 -0.12914730068E+03  0.12914730068E+03  0.00000000000E+00 0. -1.
          6    1    1    2  502    0  0.13618414306E+03 -0.99742032949E+02  0.11239669996E+03  0.26656446147E+03  0.17300000000E+03 0. -1.
         -6    1    1    2    0  501 -0.13618414306E+03  0.99742032949E+02  0.22847709225E+03  0.33260393209E+03  0.17300000000E+03 0.  1.
<mgrwt>
<rscale>  2 0.24170973E+03</rscale>
<asrwt>0</asrwt>
<pdfrwt beam="1">  1        2 0.72310936E-01 0.24170973E+03</pdfrwt>
<pdfrwt beam="2">  1       -2 0.19868816E-01 0.24170973E+03</pdfrwt>
<totfact> 0.14165679E+03</totfact>
</mgrwt>
</event>
<event>
 4    1  0.8249026E-001  0.1782899E+03  0.7546771E-02  0.1169468E+00
          2   -1    0    0  502    0  0.00000000000E+00  0.00000000000E+00  0.37057132622E+03  0.37057132622E+03  0.00000000000E+00 0.  1.
         -2   -1    0    0    0  501 -0.00000000000E+00 -0.00000000000E+00 -0.18552105052E+03  0.18552105052E+03  0.00000000000E+00 0. -1.
          6    1    1    2  502    0  0.23336352313E+02  0.36245256537E+02  0.29639785254E+03  0.34588869735E+03  0.17300000000E+03 0.  1.
         -6    1    1    2    0  501 -0.23336352313E+02 -0.36245256537E+02 -0.11134757685E+03  0.21020367939E+03  0.17300000000E+03 0. -1.
<mgrwt>
<rscale>  2 0.17828994E+03</rscale>
<asrwt>0</asrwt>
<pdfrwt beam="1">  1        2 0.57010973E-01 0.17828994E+03</pdfrwt>
<pdfrwt beam="2">  1       -2 0.28541700E-01 0.17828994E+03</pdfrwt>
<totfact> 0.96945993E+02</totfact>
</mgrwt>
</event>
<event>
 4    1  0.8249026E-001  0.1841967E+03  0.7546771E-02  0.1163802E+00
          2   -1    0    0  502    0  0.00000000000E+00  0.00000000000E+00  0.38170493336E+03  0.38170493336E+03  0.00000000000E+00 0. -1.
         -2   -1    0    0    0  501 -0.00000000000E+00 -0.00000000000E+00 -0.94814890352E+02  0.94814890352E+02  0.00000000000E+00 0.  1.
          6    1    1    2  502    0 -0.55506700472E+02  0.30305646122E+02  0.20302222290E+03  0.27412852638E+03  0.17300000000E+03 0. -1.
         -6    1    1    2    0  501  0.55506700472E+02 -0.30305646122E+02  0.83867820099E+02  0.20239129732E+03  0.17300000000E+03 0.  1.
<mgrwt>
<rscale>  2 0.18419670E+03</rscale>
<asrwt>0</asrwt>
<pdfrwt beam="1">  1        2 0.58723835E-01 0.18419670E+03</pdfrwt>
<pdfrwt beam="2">  1       -2 0.14586906E-01 0.18419670E+03</pdfrwt>
<totfact> 0.29629501E+03</totfact>
</mgrwt>
</event>
<event>
 4    1  0.8249026E-001  0.1916728E+03  0.7546771E-02  0.1156961E+00
          1   -1    0    0  502    0  0.00000000000E+00  0.00000000000E+00  0.26511716577E+04  0.26511716577E+04  0.00000000000E+00 0.  1.
         -1   -1    0    0    0  501 -0.00000000000E+00 -0.00000000000E+00 -0.24723959647E+02  0.24723959647E+02  0.00000000000E+00 0. -1.
          6    1    1    2  502    0  0.77897081267E+02  0.27230535040E+02  0.22002273942E+04  0.22085604007E+04  0.17300000000E+03 0.  1.
         -6    1    1    2    0  501 -0.77897081267E+02 -0.27230535040E+02  0.42622030383E+03  0.46733521663E+03  0.17300000000E+03 0. -1.
<mgrwt>
<rscale>  2 0.19167279E+03</rscale>
<asrwt>0</asrwt>
<pdfrwt beam="1">  1        1 0.40787234E+00 0.19167279E+03</pdfrwt>
<pdfrwt beam="2">  1       -1 0.38036882E-02 0.19167279E+03</pdfrwt>
<totfact> 0.33916264E+02</totfact>
</mgrwt>
</event>
<event>
 4    1  0.8249026E-001  0.2759224E+03  0.7546771E-02  0.1097937E+00
          2   -1    0    0  502    0  0.00000000000E+00  0.00000000000E+00  0.91180272727E+03  0.91180272727E+03  0.00000000000E+00 0. -1.
         -2   -1    0    0    0  501 -0.00000000000E+00 -0.00000000000E+00 -0.88849285267E+02  0.88849285267E+02  0.00000000000E+00 0.  1.
          6    1    1    2  502    0 -0.19499243712E+03 -0.90454960158E+02  0.28868196988E+03  0.39933748896E+03  0.17300000000E+03 0. -1.
         -6    1    1    2    0  501  0.19499243712E+03  0.90454960158E+02  0.53427147212E+03  0.60131452358E+03  0.17300000000E+03 0.  1.
<mgrwt>
<rscale>  2 0.27592236E+03</rscale>
<asrwt>0</asrwt>
<pdfrwt beam="1">  1        2 0.14027734E+00 0.27592236E+03</pdfrwt>
<pdfrwt beam="2">  1       -2 0.13669121E-01 0.27592236E+03</pdfrwt>
<totfact> 0.11932471E+03</totfact>
</mgrwt>
</event>
<event>
 4    1  0.8249026E-001  0.2025472E+03  0.7546771E-02  0.1147608E+00
         -2   -1    0    0    0  501 -0.00000000000E+00  0.00000000000E+00  0.11928541216E+03  0.11928541216E+03  0.00000000000E+00 0. -1.
          2   -1    0    0  502    0  0.00000000000E+00 -0.00000000000E+00 -0.35011882049E+03  0.35011882049E+03  0.00000000000E+00 0.  1.
          6    1    1    2  502    0 -0.92897282287E+02  0.49663683772E+02 -0.14663032506E+03  0.25005167220E+03  0.17300000000E+03 0.  1.
         -6    1    1    2    0  501  0.92897282287E+02 -0.49663683772E+02 -0.84203083275E+02  0.21935256045E+03  0.17300000000E+03 0. -1.
<mgrwt>
<rscale>  2 0.20254725E+03</rscale>
<asrwt>0</asrwt>
<pdfrwt beam="2">  1        2 0.53864434E-01 0.20254725E+03</pdfrwt>
<pdfrwt beam="1">  1       -2 0.18351602E-01 0.20254725E+03</pdfrwt>
<totfact> 0.22264832E+03</totfact>
</mgrwt>
</event>
<event>
 4    1  0.8249026E-001  0.2032396E+03  0.7546771E-02  0.1147034E+00
          2   -1    0    0  502    0  0.00000000000E+00  0.00000000000E+00  0.23826845105E+03  0.23826845105E+03  0.00000000000E+00 0. -1.
         -2   -1    0    0    0  501 -0.00000000000E+00 -0.00000000000E+00 -0.23906479853E+03  0.23906479853E+03  0.00000000000E+00 0.  1.
          6    1    1    2  502    0 -0.38781865440E+02  0.99364588342E+02 -0.12551926835E+03  0.23887536757E+03  0.17300000000E+03 0.  1.
         -6    1    1    2    0  501  0.38781865440E+02 -0.99364588342E+02  0.12472292088E+03  0.23845788202E+03  0.17300000000E+03 0. -1.
<mgrwt>
<rscale>  2 0.20323965E+03</rscale>
<asrwt>0</asrwt>
<pdfrwt beam="1">  1        2 0.36656685E-01 0.20323965E+03</pdfrwt>
<pdfrwt beam="2">  1       -2 0.36779200E-01 0.20323965E+03</pdfrwt>
<totfact> 0.98004939E+02</totfact>
</mgrwt>
</event>
<event>
 4    1  0.8249026E-001  0.2097394E+03  0.7546771E-02  0.1141773E+00
         -2   -1    0    0    0  501 -0.00000000000E+00  0.00000000000E+00  0.51081661166E+02  0.51081661166E+02  0.00000000000E+00 0.  1.
          2   -1    0    0  502    0  0.00000000000E+00 -0.00000000000E+00 -0.86119402569E+03  0.86119402569E+03  0.00000000000E+00 0. -1.
          6    1    1    2  502    0  0.11712208142E+03  0.18547929225E+02 -0.40335237463E+03  0.45462484067E+03  0.17300000000E+03 0.  1.
         -6    1    1    2    0  501 -0.11712208142E+03 -0.18547929225E+02 -0.40675998989E+03  0.45765084618E+03  0.17300000000E+03 0.  1.
<mgrwt>
<rscale>  2 0.20973938E+03</rscale>
<asrwt>0</asrwt>
<pdfrwt beam="2">  1        2 0.13249139E+00 0.20973938E+03</pdfrwt>
<pdfrwt beam="1">  1       -2 0.78587168E-02 0.20973938E+03</pdfrwt>
<totfact> 0.31103345E+03</totfact>
</mgrwt>
</event>
<event>
 4    1  0.8249026E-001  0.1897038E+03  0.7546771E-02  0.1158729E+00
         -2   -1    0    0    0  501 -0.00000000000E+00  0.00000000000E+00  0.40707287604E+02  0.40707287604E+02  0.00000000000E+00 0.  1.
          2   -1    0    0  502    0  0.00000000000E+00 -0.00000000000E+00 -0.12387344468E+04  0.12387344468E+04  0.00000000000E+00 0. -1.
          6    1    1    2  502    0  0.16966166063E+02  0.75965063423E+02 -0.94132273201E+03  0.96024789895E+03  0.17300000000E+03 0. -1.
         -6    1    1    2    0  501 -0.16966166063E+02 -0.75965063423E+02 -0.25670442719E+03  0.31919383545E+03  0.17300000000E+03 0.  1.
<mgrwt>
<rscale>  2 0.18970383E+03</rscale>
<asrwt>0</asrwt>
<pdfrwt beam="2">  1        2 0.19057450E+00 0.18970383E+03</pdfrwt>
<pdfrwt beam="1">  1       -2 0.62626607E-02 0.18970383E+03</pdfrwt>
<totfact> 0.26222186E+03</totfact>
</mgrwt>
</event>
<event>
 4    1  0.8249026E-001  0.3742064E+03  0.7546771E-02  0.1053096E+00
         -2   -1    0    0    0  501 -0.00000000000E+00  0.00000000000E+00  0.84446050334E+02  0.84446050334E+02  0.00000000000E+00 0. -1.
          2   -1    0    0  502    0  0.00000000000E+00 -0.00000000000E+00 -0.25098664372E+04  0.25098664372E+04  0.00000000000E+00 0.  1.
          6    1    1    2  502    0 -0.20303463622E+03  0.26244695402E+03 -0.45710378509E+03  0.59074049931E+03  0.17300000000E+03 0. -1.
         -6    1    1    2    0  501  0.20303463622E+03 -0.26244695402E+03 -0.19683166017E+04  0.20035719882E+04  0.17300000000E+03 0.  1.
<mgrwt>
<rscale>  2 0.37420645E+03</rscale>
<asrwt>0</asrwt>
<pdfrwt beam="2">  1        2 0.38613331E+00 0.37420645E+03</pdfrwt>
<pdfrwt beam="1">  1       -2 0.12991700E-01 0.37420645E+03</pdfrwt>
<totfact> 0.16821560E+02</totfact>
</mgrwt>
</event>
<event>
 4    1  0.8249026E-001  0.2007838E+03  0.7546771E-02  0.1149079E+00
          1   -1    0    0  502    0  0.00000000000E+00  0.00000000000E+00  0.11533692468E+03  0.11533692468E+03  0.00000000000E+00 0.  1.
         -1   -1    0    0    0  501 -0.00000000000E+00 -0.00000000000E+00 -0.40831655741E+03  0.40831655741E+03  0.00000000000E+00 0. -1.
          6    1    1    2  502    0  0.10168690183E+03  0.67005454841E+01 -0.24583377246E+03  0.31740883257E+03  0.17300000000E+03 0. -1.
         -6    1    1    2    0  501 -0.10168690183E+03 -0.67005454841E+01 -0.47145860270E+02  0.20624464952E+03  0.17300000000E+03 0.  1.
<mgrwt>
<rscale>  2 0.20078377E+03</rscale>
<asrwt>0</asrwt>
<pdfrwt beam="1">  1        1 0.17744143E-01 0.20078377E+03</pdfrwt>
<pdfrwt beam="2">  1       -1 0.62817931E-01 0.20078377E+03</pdfrwt>
<totfact> 0.79212157E+02</totfact>
</mgrwt>
</event>
<event>
 4    1  0.8249026E-001  0.2145355E+03  0.7546771E-02  0.1138024E+00
          2   -1    0    0  502    0  0.00000000000E+00  0.00000000000E+00  0.42302759418E+02  0.42302759418E+02  0.00000000000E+00 0.  1.
         -2   -1    0    0    0  501 -0.00000000000E+00 -0.00000000000E+00 -0.11273128752E+04  0.11273128752E+04  0.00000000000E+00 0. -1.
          6    1    1    2  502    0  0.11743230447E+03 -0.48022127269E+02 -0.65171178275E+03  0.68611494563E+03  0.17300000000E+03 0.  1.
         -6    1    1    2    0  501 -0.11743230447E+03  0.48022127269E+02 -0.43329833300E+03  0.48350068896E+03  0.17300000000E+03 0.  1.
<mgrwt>
<rscale>  2 0.21453548E+03</rscale>
<asrwt>0</asrwt>
<pdfrwt beam="1">  1        2 0.65081171E-02 0.21453548E+03</pdfrwt>
<pdfrwt beam="2">  1       -2 0.17343274E+00 0.21453548E+03</pdfrwt>
<totfact> 0.23891851E+02</totfact>
</mgrwt>
</event>
<event>
 4    1  0.8249026E-001  0.2565325E+03  0.7546771E-02  0.1109245E+00
          2   -1    0    0  502    0  0.00000000000E+00  0.00000000000E+00  0.28635226604E+03  0.28635226604E+03  0.00000000000E+00 0.  1.
         -2   -1    0    0    0  501 -0.00000000000E+00 -0.00000000000E+00 -0.23455285076E+03  0.23455285076E+03  0.00000000000E+00 0. -1.
          6    1    1    2  502    0 -0.92510957154E+02 -0.16529254074E+03 -0.11105430999E+02  0.25677272405E+03  0.17300000000E+03 0.  1.
         -6    1    1    2    0  501  0.92510957154E+02  0.16529254074E+03  0.62904846284E+02  0.26413239276E+03  0.17300000000E+03 0. -1.
<mgrwt>
<rscale>  2 0.25653246E+03</rscale>
<asrwt>0</asrwt>
<pdfrwt beam="1">  1        2 0.44054195E-01 0.25653246E+03</pdfrwt>
<pdfrwt beam="2">  1       -2 0.36085054E-01 0.25653246E+03</pdfrwt>
<totfact> 0.83536629E+02</totfact>
</mgrwt>
</event>
<event>
 4    1  0.8249026E-001  0.1769009E+03  0.7546771E-02  0.1170836E+00
         -1   -1    0    0    0  501 -0.00000000000E+00  0.00000000000E+00  0.28893912418E+02  0.28893912418E+02  0.00000000000E+00 0. -1.
          1   -1    0    0  502    0  0.00000000000E+00 -0.00000000000E+00 -0.11505394963E+04  0.11505394963E+04  0.00000000000E+00 0.  1.
          6    1    1    2  502    0  0.34627585548E+02  0.12879264076E+02 -0.41801004949E+03  0.45390125204E+03  0.17300000000E+03 0. -1.
         -6    1    1    2    0  501 -0.34627585548E+02 -0.12879264076E+02 -0.70363553441E+03  0.72553215670E+03  0.17300000000E+03 0.  1.
<mgrwt>
<rscale>  2 0.17690095E+03</rscale>
<asrwt>0</asrwt>
<pdfrwt beam="2">  1        1 0.17700609E+00 0.17690095E+03</pdfrwt>
<pdfrwt beam="1">  1       -1 0.44452169E-02 0.17690095E+03</pdfrwt>
<totfact> 0.25916870E+03</totfact>
</mgrwt>
</event>
<event>
 4    1  0.8249026E-001  0.2693408E+03  0.7546771E-02  0.1101657E+00
         -1   -1    0    0    0  501 -0.00000000000E+00  0.00000000000E+00  0.35868404685E+03  0.35868404685E+03  0.00000000000E+00 0. -1.
          1   -1    0    0  502    0  0.00000000000E+00 -0.00000000000E+00 -0.26306514496E+03  0.26306514496E+03  0.00000000000E+00 0.  1.
          6    1    1    2  502    0  0.50664206623E+02 -0.20012146569E+03 -0.10166030861E+03  0.28788761906E+03  0.17300000000E+03 0.  1.
         -6    1    1    2    0  501 -0.50664206623E+02  0.20012146569E+03  0.19727921049E+03  0.33386157274E+03  0.17300000000E+03 0. -1.
<mgrwt>
<rscale>  2 0.26934079E+03</rscale>
<asrwt>0</asrwt>
<pdfrwt beam="2">  1        1 0.40471561E-01 0.26934079E+03</pdfrwt>
<pdfrwt beam="1">  1       -1 0.55182161E-01 0.26934079E+03</pdfrwt>
<totfact> 0.35538801E+02</totfact>
</mgrwt>
</event>
<event>
 4    1  0.8249026E-001  0.1840169E+03  0.7546771E-02  0.1163971E+00
         -2   -1    0    0    0  501 -0.00000000000E+00  0.00000000000E+00  0.15280236793E+04  0.15280236793E+04  0.00000000000E+00 0. -1.
          2   -1    0    0  502    0  0.00000000000E+00 -0.00000000000E+00 -0.13472640537E+03  0.13472640537E+03  0.00000000000E+00 0.  1.
          6    1    1    2  502    0  0.19234419615E+02  0.59693168854E+02  0.14565784180E+04  0.14681563013E+04  0.17300000000E+03 0. -1.
         -6    1    1    2    0  501 -0.19234419615E+02 -0.59693168854E+02 -0.63281144105E+02  0.19459378332E+03  0.17300000000E+03 0.  1.
<mgrwt>
<rscale>  2 0.18401695E+03</rscale>
<asrwt>0</asrwt>
<pdfrwt beam="2">  1        2 0.20727140E-01 0.18401695E+03</pdfrwt>
<pdfrwt beam="1">  1       -2 0.23508055E+00 0.18401695E+03</pdfrwt>
<totfact> 0.24006035E+01</totfact>
</mgrwt>
</event>
<event>
 4    1  0.8249026E-001  0.2012529E+03  0.7546771E-02  0.1148686E+00
         -2   -1    0    0    0  501 -0.00000000000E+00  0.00000000000E+00  0.26369015602E+03  0.26369015602E+03  0.00000000000E+00 0. -1.
          2   -1    0    0  502    0  0.00000000000E+00 -0.00000000000E+00 -0.16909545736E+03  0.16909545736E+03  0.00000000000E+00 0.  1.
          6    1    1    2  502    0 -0.33246397933E+02 -0.97305690621E+02 -0.18209046108E+02  0.20207496075E+03  0.17300000000E+03 0.  1.
         -6    1    1    2    0  501  0.33246397933E+02  0.97305690621E+02  0.11280374477E+03  0.23071065263E+03  0.17300000000E+03 0. -1.
<mgrwt>
<rscale>  2 0.20125288E+03</rscale>
<asrwt>0</asrwt>
<pdfrwt beam="2">  1        2 0.26014686E-01 0.20125288E+03</pdfrwt>
<pdfrwt beam="1">  1       -2 0.40567716E-01 0.20125288E+03</pdfrwt>
<totfact> 0.11843006E+03</totfact>
</mgrwt>
</event>
<event>
 4    1  0.8249026E-001  0.2025767E+03  0.7546771E-02  0.1147583E+00
         -2   -1    0    0    0  501 -0.00000000000E+00  0.00000000000E+00  0.17145476688E+03  0.17145476688E+03  0.00000000000E+00 0. -1.
          2   -1    0    0  502    0  0.00000000000E+00 -0.00000000000E+00 -0.24759031159E+03  0.24759031159E+03  0.00000000000E+00 0.  1.
          6    1    1    2  502    0 -0.20440330510E+02 -0.10339493126E+03  0.16132704818E+00  0.20257676310E+03  0.17300000000E+03 0. -1.
         -6    1    1    2    0  501  0.20440330510E+02  0.10339493126E+03 -0.76296871754E+02  0.21646831537E+03  0.17300000000E+03 0.  1.
<mgrwt>
<rscale>  2 0.20257670E+03</rscale>
<asrwt>0</asrwt>
<pdfrwt beam="2">  1        2 0.38090817E-01 0.20257670E+03</pdfrwt>
<pdfrwt beam="1">  1       -2 0.26377657E-01 0.20257670E+03</pdfrwt>
<totfact> 0.17247117E+03</totfact>
</mgrwt>
</event>
<event>
 4    1  0.8249026E-001  0.1737337E+03  0.7546771E-02  0.1174009E+00
          2   -1    0    0  502    0  0.00000000000E+00  0.00000000000E+00  0.17144765285E+04  0.17144765285E+04  0.00000000000E+00 0.  1.
         -2   -1    0    0    0  501 -0.00000000000E+00 -0.00000000000E+00 -0.20526096802E+02  0.20526096802E+02  0.00000000000E+00 0. -1.
          6    1    1    2  502    0 -0.10693417817E+02  0.11834325762E+02  0.51971881937E+03  0.54798818569E+03  0.17300000000E+03 0. -1.
         -6    1    1    2    0  501  0.10693417817E+02 -0.11834325762E+02  0.11742316123E+04  0.11870144396E+04  0.17300000000E+03 0.  1.
<mgrwt>
<rscale>  2 0.17373371E+03</rscale>
<asrwt>0</asrwt>
<pdfrwt beam="1">  1        2 0.26376551E+00 0.17373371E+03</pdfrwt>
<pdfrwt beam="2">  1       -2 0.31578624E-02 0.17373371E+03</pdfrwt>
<totfact> 0.41007438E+03</totfact>
</mgrwt>
</event>
<event>
 4    1  0.8249026E-001  0.1999325E+03  0.7546771E-02  0.1149796E+00
         -1   -1    0    0    0  501 -0.00000000000E+00  0.00000000000E+00  0.11264989678E+03  0.11264989678E+03  0.00000000000E+00 0. -1.
          1   -1    0    0  502    0  0.00000000000E+00 -0.00000000000E+00 -0.72824658923E+03  0.72824658923E+03  0.00000000000E+00 0.  1.
          6    1    1    2  502    0  0.25082735525E+02 -0.97030243482E+02 -0.67317055682E+01  0.20004581383E+03  0.17300000000E+03 0. -1.
         -6    1    1    2    0  501 -0.25082735525E+02  0.97030243482E+02 -0.60886498688E+03  0.64085067217E+03  0.17300000000E+03 0.  1.
<mgrwt>
<rscale>  2 0.19993252E+03</rscale>
<asrwt>0</asrwt>
<pdfrwt beam="2">  1        1 0.11203793E+00 0.19993252E+03</pdfrwt>
<pdfrwt beam="1">  1       -1 0.17330754E-01 0.19993252E+03</pdfrwt>
<totfact> 0.68181518E+02</totfact>
</mgrwt>
</event>
<event>
 4    1  0.8249026E-001  0.1779931E+03  0.7546771E-02  0.1169760E+00
         -1   -1    0    0    0  501 -0.00000000000E+00  0.00000000000E+00  0.28804698409E+02  0.28804698409E+02  0.00000000000E+00 0. -1.
          1   -1    0    0  502    0  0.00000000000E+00 -0.00000000000E+00 -0.11067805840E+04  0.11067805840E+04  0.00000000000E+00 0.  1.
          6    1    1    2  502    0 -0.15871154135E+02 -0.38738422882E+02 -0.49413729482E+03  0.52521731223E+03  0.17300000000E+03 0. -1.
         -6    1    1    2    0  501  0.15871154135E+02  0.38738422882E+02 -0.58383859080E+03  0.61036797020E+03  0.17300000000E+03 0.  1.
<mgrwt>
<rscale>  2 0.17799314E+03</rscale>
<asrwt>0</asrwt>
<pdfrwt beam="2">  1        1 0.17027388E+00 0.17799314E+03</pdfrwt>
<pdfrwt beam="1">  1       -1 0.44314936E-02 0.17799314E+03</pdfrwt>
<totfact> 0.27956209E+03</totfact>
</mgrwt>
</event>
<event>
 4    1  0.8249026E-001  0.1931615E+03  0.7546771E-02  0.1155640E+00
          1   -1    0    0  502    0  0.00000000000E+00  0.00000000000E+00  0.80278224792E+03  0.80278224792E+03  0.00000000000E+00 0. -1.
         -1   -1    0    0    0  501 -0.00000000000E+00 -0.00000000000E+00 -0.50365688174E+02  0.50365688174E+02  0.00000000000E+00 0.  1.
          6    1    1    2  502    0 -0.41446294024E+02  0.75263280553E+02  0.25768668517E+03  0.32204624575E+03  0.17300000000E+03 0.  1.
         -6    1    1    2    0  501  0.41446294024E+02 -0.75263280553E+02  0.49472987458E+03  0.53110169035E+03  0.17300000000E+03 0. -1.
<mgrwt>
<rscale>  2 0.19316148E+03</rscale>
<asrwt>0</asrwt>
<pdfrwt beam="1">  1        1 0.12350495E+00 0.19316148E+03</pdfrwt>
<pdfrwt beam="2">  1       -1 0.77485680E-02 0.19316148E+03</pdfrwt>
<totfact> 0.20609736E+03</totfact>
</mgrwt>
</event>
<event>
 4    1  0.8249026E-001  0.1834144E+03  0.7546771E-02  0.1164539E+00
          2   -1    0    0  502    0  0.00000000000E+00  0.00000000000E+00  0.36668719455E+03  0.36668719455E+03  0.00000000000E+00 0.  1.
         -2   -1    0    0    0  501 -0.00000000000E+00 -0.00000000000E+00 -0.92503849536E+02  0.92503849536E+02  0.00000000000E+00 0. -1.
          6    1    1    2  502    0  0.20382558071E+02 -0.57414280833E+02  0.11626413491E+03  0.21715938244E+03  0.17300000000E+03 0.  1.
         -6    1    1    2    0  501 -0.20382558071E+02  0.57414280833E+02  0.15791921010E+03  0.24203166164E+03  0.17300000000E+03 0.  1.
<mgrwt>
<rscale>  2 0.18341442E+03</rscale>
<asrwt>0</asrwt>
<pdfrwt beam="1">  1        2 0.56413414E-01 0.18341442E+03</pdfrwt>
<pdfrwt beam="2">  1       -2 0.14231362E-01 0.18341442E+03</pdfrwt>
<totfact> 0.32207767E+03</totfact>
</mgrwt>
</event>
<event>
 4    1  0.8249026E-001  0.1812816E+03  0.7546771E-02  0.1166568E+00
         -1   -1    0    0    0  501 -0.00000000000E+00  0.00000000000E+00  0.37127613523E+02  0.37127613523E+02  0.00000000000E+00 0. -1.
          1   -1    0    0  502    0  0.00000000000E+00 -0.00000000000E+00 -0.99693511231E+03  0.99693511231E+03  0.00000000000E+00 0.  1.
          6    1    1    2  502    0 -0.25787347256E+02  0.47634447469E+02 -0.30676251931E+03  0.35632326772E+03  0.17300000000E+03 0. -1.
         -6    1    1    2    0  501  0.25787347256E+02 -0.47634447469E+02 -0.65304497948E+03  0.67773945811E+03  0.17300000000E+03 0.  1.
<mgrwt>
<rscale>  2 0.18128163E+03</rscale>
<asrwt>0</asrwt>
<pdfrwt beam="2">  1        1 0.15337462E+00 0.18128163E+03</pdfrwt>
<pdfrwt beam="1">  1       -1 0.57119409E-02 0.18128163E+03</pdfrwt>
<totfact> 0.23012064E+03</totfact>
</mgrwt>
</event>
<event>
 4    1  0.8249026E-001  0.1764650E+03  0.7546771E-02  0.1171269E+00
         -1   -1    0    0    0  501 -0.00000000000E+00  0.00000000000E+00  0.51239153179E+02  0.51239153179E+02  0.00000000000E+00 0.  1.
          1   -1    0    0  502    0  0.00000000000E+00 -0.00000000000E+00 -0.62746870933E+03  0.62746870933E+03  0.00000000000E+00 0. -1.
          6    1    1    2  502    0  0.22870261351E+02 -0.26226748958E+02 -0.34829411087E+03  0.39044676831E+03  0.17300000000E+03 0.  1.
         -6    1    1    2    0  501 -0.22870261351E+02  0.26226748958E+02 -0.22793544528E+03  0.28826109420E+03  0.17300000000E+03 0.  1.
<mgrwt>
<rscale>  2 0.17646499E+03</rscale>
<asrwt>0</asrwt>
<pdfrwt beam="2">  1        1 0.96533648E-01 0.17646499E+03</pdfrwt>
<pdfrwt beam="1">  1       -1 0.78829466E-02 0.17646499E+03</pdfrwt>
<totfact> 0.28678885E+03</totfact>
</mgrwt>
</event>
<event>
 4    1  0.8249026E-001  0.4604798E+03  0.7546771E-02  0.1024642E+00
         -1   -1    0    0    0  501 -0.00000000000E+00  0.00000000000E+00  0.11112834611E+03  0.11112834611E+03  0.00000000000E+00 0. -1.
          1   -1    0    0  502    0  0.00000000000E+00 -0.00000000000E+00 -0.19269295940E+04  0.19269295940E+04  0.00000000000E+00 0.  1.
          6    1    1    2  502    0 -0.30414789877E+03 -0.29934377438E+03 -0.10086908937E+04  0.11088277408E+04  0.17300000000E+03 0.  1.
         -6    1    1    2    0  501  0.30414789877E+03  0.29934377438E+03 -0.80711035417E+03  0.92923019936E+03  0.17300000000E+03 0. -1.
<mgrwt>
<rscale>  2 0.46047979E+03</rscale>
<asrwt>0</asrwt>
<pdfrwt beam="2">  1        1 0.29645071E+00 0.46047979E+03</pdfrwt>
<pdfrwt beam="1">  1       -1 0.17096668E-01 0.46047979E+03</pdfrwt>
<totfact> 0.94688399E+01</totfact>
</mgrwt>
</event>
<event>
 4    1  0.8249026E-001  0.2652489E+03  0.7546771E-02  0.1104030E+00
          2   -1    0    0  502    0  0.00000000000E+00  0.00000000000E+00  0.13157130737E+04  0.13157130737E+04  0.00000000000E+00 0.  1.
         -2   -1    0    0    0  501 -0.00000000000E+00 -0.00000000000E+00 -0.58483216939E+02  0.58483216939E+02  0.00000000000E+00 0. -1.
          6    1    1    2  502    0 -0.14635900073E+03 -0.13786600669E+03  0.82969539402E+03  0.87106339594E+03  0.17300000000E+03 0.  1.
         -6    1    1    2    0  501  0.14635900073E+03  0.13786600669E+03  0.42753446274E+03  0.50313289470E+03  0.17300000000E+03 0. -1.
<mgrwt>
<rscale>  2 0.26524893E+03</rscale>
<asrwt>0</asrwt>
<pdfrwt beam="1">  1        2 0.20241737E+00 0.26524893E+03</pdfrwt>
<pdfrwt beam="2">  1       -2 0.89974190E-02 0.26524893E+03</pdfrwt>
<totfact> 0.13520849E+03</totfact>
</mgrwt>
</event>
<event>
 4    1  0.8249026E-001  0.1780026E+03  0.7546771E-02  0.1169750E+00
          2   -1    0    0  502    0  0.00000000000E+00  0.00000000000E+00  0.17083903859E+04  0.17083903859E+04  0.00000000000E+00 0. -1.
         -2   -1    0    0    0  501 -0.00000000000E+00 -0.00000000000E+00 -0.18973260118E+02  0.18973260118E+02  0.00000000000E+00 0.  1.
          6    1    1    2  502    0  0.27234991919E+01 -0.41815193927E+02  0.71520086251E+03  0.73701913247E+03  0.17300000000E+03 0.  1.
         -6    1    1    2    0  501 -0.27234991919E+01  0.41815193927E+02  0.97421626331E+03  0.99034451358E+03  0.17300000000E+03 0. -1.
<mgrwt>
<rscale>  2 0.17800261E+03</rscale>
<asrwt>0</asrwt>
<pdfrwt beam="1">  1        2 0.26282917E+00 0.17800261E+03</pdfrwt>
<pdfrwt beam="2">  1       -2 0.29189644E-02 0.17800261E+03</pdfrwt>
<totfact> 0.46419944E+03</totfact>
</mgrwt>
</event>
<event>
 4    1  0.8249026E-001  0.1837906E+03  0.7546771E-02  0.1164184E+00
          2   -1    0    0  502    0  0.00000000000E+00  0.00000000000E+00  0.15702673142E+04  0.15702673142E+04  0.00000000000E+00 0. -1.
         -2   -1    0    0    0  501 -0.00000000000E+00 -0.00000000000E+00 -0.30572619208E+02  0.30572619208E+02  0.00000000000E+00 0.  1.
          6    1    1    2  502    0  0.22783732750E+02  0.57713748095E+02  0.33409481510E+03  0.38131131727E+03  0.17300000000E+03 0.  1.
         -6    1    1    2    0  501 -0.22783732750E+02 -0.57713748095E+02  0.12055998799E+04  0.12195286161E+04  0.17300000000E+03 0. -1.
<mgrwt>
<rscale>  2 0.18379057E+03</rscale>
<asrwt>0</asrwt>
<pdfrwt beam="1">  1        2 0.24157952E+00 0.18379057E+03</pdfrwt>
<pdfrwt beam="2">  1       -2 0.47034811E-02 0.18379057E+03</pdfrwt>
<totfact> 0.26886732E+03</totfact>
</mgrwt>
</event>
<event>
 4    1  0.8249026E-001  0.1826037E+03  0.7546771E-02  0.1165307E+00
         -2   -1    0    0    0  501 -0.00000000000E+00  0.00000000000E+00  0.30153752068E+03  0.30153752068E+03  0.00000000000E+00 0.  1.
          2   -1    0    0  502    0  0.00000000000E+00 -0.00000000000E+00 -0.25332951699E+03  0.25332951699E+03  0.00000000000E+00 0. -1.
          6    1    1    2  502    0 -0.58181381828E+02  0.54802890016E+01  0.23236258716E+03  0.29552745841E+03  0.17300000000E+03 0.  1.
         -6    1    1    2    0  501  0.58181381828E+02 -0.54802890016E+01 -0.18415458347E+03  0.25933957926E+03  0.17300000000E+03 0. -1.
<mgrwt>
<rscale>  2 0.18260369E+03</rscale>
<asrwt>0</asrwt>
<pdfrwt beam="2">  1        2 0.38973772E-01 0.18260369E+03</pdfrwt>
<pdfrwt beam="1">  1       -2 0.46390388E-01 0.18260369E+03</pdfrwt>
<totfact> 0.58697958E+02</totfact>
</mgrwt>
</event>
<event>
 4    1  0.8249026E-001  0.4089322E+03  0.7546771E-02  0.1040730E+00
          1   -1    0    0  502    0  0.00000000000E+00  0.00000000000E+00  0.78466614533E+03  0.78466614533E+03  0.00000000000E+00 0.  1.
         -1   -1    0    0    0  501 -0.00000000000E+00 -0.00000000000E+00 -0.28372224276E+03  0.28372224276E+03  0.00000000000E+00 0. -1.
          6    1    1    2  502    0  0.18910115002E+03  0.31864919951E+03 -0.16012261938E+02  0.40924558619E+03  0.17300000000E+03 0. -1.
         -6    1    1    2    0  501 -0.18910115002E+03 -0.31864919951E+03  0.51695616451E+03  0.65914280191E+03  0.17300000000E+03 0.  1.
<mgrwt>
<rscale>  2 0.40893222E+03</rscale>
<asrwt>0</asrwt>
<pdfrwt beam="1">  1        1 0.12071787E+00 0.40893222E+03</pdfrwt>
<pdfrwt beam="2">  1       -1 0.43649576E-01 0.40893222E+03</pdfrwt>
<totfact> 0.12412476E+02</totfact>
</mgrwt>
</event>
<event>
 4    1  0.8249026E-001  0.2547953E+03  0.7546771E-02  0.1110311E+00
          2   -1    0    0  502    0  0.00000000000E+00  0.00000000000E+00  0.84090253084E+03  0.84090253084E+03  0.00000000000E+00 0.  1.
         -2   -1    0    0    0  501 -0.00000000000E+00 -0.00000000000E+00 -0.95212037828E+02  0.95212037828E+02  0.00000000000E+00 0. -1.
          6    1    1    2  502    0  0.97031505515E+02 -0.15992672205E+03  0.16928565348E+03  0.30590570763E+03  0.17300000000E+03 0. -1.
         -6    1    1    2    0  501 -0.97031505515E+02  0.15992672205E+03  0.57640483953E+03  0.63020886103E+03  0.17300000000E+03 0.  1.
<mgrwt>
<rscale>  2 0.25479535E+03</rscale>
<asrwt>0</asrwt>
<pdfrwt beam="1">  1        2 0.12936962E+00 0.25479535E+03</pdfrwt>
<pdfrwt beam="2">  1       -2 0.14648006E-01 0.25479535E+03</pdfrwt>
<totfact> 0.11856347E+03</totfact>
</mgrwt>
</event>
<event>
 4    1  0.8249026E-001  0.1901349E+03  0.7546771E-02  0.1158340E+00
          1   -1    0    0  502    0  0.00000000000E+00  0.00000000000E+00  0.23610191456E+03  0.23610191456E+03  0.00000000000E+00 0. -1.
         -1   -1    0    0    0  501 -0.00000000000E+00 -0.00000000000E+00 -0.20158293191E+03  0.20158293191E+03  0.00000000000E+00 0.  1.
          6    1    1    2  502    0 -0.72015055448E+02  0.32188684793E+02  0.12456492862E+03  0.22730530368E+03  0.17300000000E+03 0. -1.
         -6    1    1    2    0  501  0.72015055448E+02 -0.32188684793E+02 -0.90045945969E+02  0.21037954279E+03  0.17300000000E+03 0.  1.
<mgrwt>
<rscale>  2 0.19013490E+03</rscale>
<asrwt>0</asrwt>
<pdfrwt beam="1">  1        1 0.36323371E-01 0.19013490E+03</pdfrwt>
<pdfrwt beam="2">  1       -1 0.31012759E-01 0.19013490E+03</pdfrwt>
<totfact> 0.11407864E+03</totfact>
</mgrwt>
</event>
<event>
 4    1  0.8249026E-001  0.1812811E+03  0.7546771E-02  0.1166569E+00
          2   -1    0    0  502    0  0.00000000000E+00  0.00000000000E+00  0.42235835978E+03  0.42235835978E+03  0.00000000000E+00 0. -1.
         -2   -1    0    0    0  501 -0.00000000000E+00 -0.00000000000E+00 -0.25547652280E+03  0.25547652280E+03  0.00000000000E+00 0.  1.
          6    1    1    2  502    0  0.15952803564E+02 -0.51762338364E+02 -0.19919265298E+03  0.26933351929E+03  0.17300000000E+03 0.  1.
         -6    1    1    2    0  501 -0.15952803564E+02  0.51762338364E+02  0.36607448995E+03  0.40850136329E+03  0.17300000000E+03 0. -1.
<mgrwt>
<rscale>  2 0.18128108E+03</rscale>
<asrwt>0</asrwt>
<pdfrwt beam="1">  1        2 0.64978209E-01 0.18128108E+03</pdfrwt>
<pdfrwt beam="2">  1       -2 0.39304080E-01 0.18128108E+03</pdfrwt>
<totfact> 0.46678198E+02</totfact>
</mgrwt>
</event>
<event>
 4    1  0.8249026E-001  0.1879706E+03  0.7546771E-02  0.1160305E+00
          1   -1    0    0  502    0  0.00000000000E+00  0.00000000000E+00  0.25729614239E+03  0.25729614239E+03  0.00000000000E+00 0.  1.
         -1   -1    0    0    0  501 -0.00000000000E+00 -0.00000000000E+00 -0.13748457414E+03  0.13748457414E+03  0.00000000000E+00 0. -1.
          6    1    1    2  502    0 -0.35168896340E+02 -0.64552927989E+02  0.66651935271E+02  0.19943774030E+03  0.17300000000E+03 0. -1.
         -6    1    1    2    0  501  0.35168896340E+02  0.64552927989E+02  0.53159632982E+02  0.19534297623E+03  0.17300000000E+03 0. -1.
<mgrwt>
<rscale>  2 0.18797056E+03</rscale>
<asrwt>0</asrwt>
<pdfrwt beam="1">  1        1 0.39584022E-01 0.18797056E+03</pdfrwt>
<pdfrwt beam="2">  1       -1 0.21151473E-01 0.18797056E+03</pdfrwt>
<totfact> 0.19349232E+03</totfact>
</mgrwt>
</event>
<event>
 4    1  0.8249026E-001  0.2102935E+03  0.7546771E-02  0.1141334E+00
          1   -1    0    0  502    0  0.00000000000E+00  0.00000000000E+00  0.13438520725E+04  0.13438520725E+04  0.00000000000E+00 0. -1.
         -1   -1    0    0    0  501 -0.00000000000E+00 -0.00000000000E+00 -0.90439217444E+02  0.90439217444E+02  0.00000000000E+00 0.  1.
          6    1    1    2  502    0  0.11863044667E+03  0.14871395985E+02  0.11986868320E+04  0.12169936165E+04  0.17300000000E+03 0. -1.
         -6    1    1    2    0  501 -0.11863044667E+03 -0.14871395985E+02  0.54726023036E+02  0.21729767346E+03  0.17300000000E+03 0.  1.
<mgrwt>
<rscale>  2 0.21029346E+03</rscale>
<asrwt>0</asrwt>
<pdfrwt beam="1">  1        1 0.20674646E+00 0.21029346E+03</pdfrwt>
<pdfrwt beam="2">  1       -1 0.13913727E-01 0.21029346E+03</pdfrwt>
<totfact> 0.33512871E+02</totfact>
</mgrwt>
</event>
<event>
 4    1  0.8249026E-001  0.3321962E+03  0.7546771E-02  0.1070169E+00
          2   -1    0    0  502    0  0.00000000000E+00  0.00000000000E+00  0.14052901075E+04  0.14052901075E+04  0.00000000000E+00 0.  1.
         -2   -1    0    0    0  501 -0.00000000000E+00 -0.00000000000E+00 -0.78664635842E+02  0.78664635842E+02  0.00000000000E+00 0. -1.
          6    1    1    2  502    0  0.10784373392E+03  0.26228808982E+03  0.63236478665E+03  0.71431053219E+03  0.17300000000E+03 0. -1.
         -6    1    1    2    0  501 -0.10784373392E+03 -0.26228808982E+03  0.69426068503E+03  0.76964421117E+03  0.17300000000E+03 0.  1.
<mgrwt>
<rscale>  2 0.33219620E+03</rscale>
<asrwt>0</asrwt>
<pdfrwt beam="1">  1        2 0.21619846E+00 0.33219620E+03</pdfrwt>
<pdfrwt beam="2">  1       -2 0.12102253E-01 0.33219620E+03</pdfrwt>
<totfact> 0.74666410E+02</totfact>
</mgrwt>
</event>
<event>
 4    1  0.8249026E-001  0.1978600E+03  0.7546771E-02  0.1151557E+00
         -2   -1    0    0    0  501 -0.00000000000E+00  0.00000000000E+00  0.13613878196E+03  0.13613878196E+03  0.00000000000E+00 0. -1.
          2   -1    0    0  502    0  0.00000000000E+00 -0.00000000000E+00 -0.33957897788E+03  0.33957897788E+03  0.00000000000E+00 0.  1.
          6    1    1    2  502    0 -0.85719427648E+02 -0.43263659004E+02 -0.86276053340E+01  0.19804797409E+03  0.17300000000E+03 0. -1.
         -6    1    1    2    0  501  0.85719427648E+02  0.43263659004E+02 -0.19481259059E+03  0.27766978575E+03  0.17300000000E+03 0. -1.
<mgrwt>
<rscale>  2 0.19785996E+03</rscale>
<asrwt>0</asrwt>
<pdfrwt beam="2">  1        2 0.52242920E-01 0.19785996E+03</pdfrwt>
<pdfrwt beam="1">  1       -2 0.20944428E-01 0.19785996E+03</pdfrwt>
<totfact> 0.18361627E+03</totfact>
</mgrwt>
</event>
<event>
 4    1  0.8249026E-001  0.2697533E+03  0.7546771E-02  0.1101421E+00
         -2   -1    0    0    0  501 -0.00000000000E+00  0.00000000000E+00  0.20433378503E+03  0.20433378503E+03  0.00000000000E+00 0. -1.
          2   -1    0    0  502    0  0.00000000000E+00 -0.00000000000E+00 -0.42015823929E+03  0.42015823929E+03  0.00000000000E+00 0.  1.
          6    1    1    2  502    0 -0.17132392409E+03  0.11612900865E+03 -0.22981642966E+03  0.35437610664E+03  0.17300000000E+03 0.  1.
         -6    1    1    2    0  501  0.17132392409E+03 -0.11612900865E+03  0.13991975397E+02  0.27011591769E+03  0.17300000000E+03 0. -1.
<mgrwt>
<rscale>  2 0.26975328E+03</rscale>
<asrwt>0</asrwt>
<pdfrwt beam="2">  1        2 0.64639728E-01 0.26975328E+03</pdfrwt>
<pdfrwt beam="1">  1       -2 0.31435967E-01 0.26975328E+03</pdfrwt>
<totfact> 0.71190740E+02</totfact>
</mgrwt>
</event>
<event>
 4    1  0.8249026E-001  0.2191971E+03  0.7546771E-02  0.1134483E+00
          1   -1    0    0  502    0  0.00000000000E+00  0.00000000000E+00  0.21351970933E+03  0.21351970933E+03  0.00000000000E+00 0.  1.
         -1   -1    0    0    0  501 -0.00000000000E+00 -0.00000000000E+00 -0.45506725600E+03  0.45506725600E+03  0.00000000000E+00 0. -1.
          6    1    1    2  502    0  0.47615711312E+02 -0.12590125872E+03  0.11690666372E+03  0.24842413517E+03  0.17300000000E+03 0.  1.
         -6    1    1    2    0  501 -0.47615711312E+02  0.12590125872E+03 -0.35845421039E+03  0.42016283017E+03  0.17300000000E+03 0. -1.
<mgrwt>
<rscale>  2 0.21919713E+03</rscale>
<asrwt>0</asrwt>
<pdfrwt beam="1">  1        1 0.32849187E-01 0.21919713E+03</pdfrwt>
<pdfrwt beam="2">  1       -1 0.70010346E-01 0.21919713E+03</pdfrwt>
<totfact> 0.29199033E+02</totfact>
</mgrwt>
</event>
<event>
 4    1  0.8249026E-001  0.1898209E+03  0.7546771E-02  0.1158623E+00
          2   -1    0    0  502    0  0.00000000000E+00  0.00000000000E+00  0.47710208368E+02  0.47710208368E+02  0.00000000000E+00 0.  1.
         -2   -1    0    0    0  501 -0.00000000000E+00 -0.00000000000E+00 -0.79917413978E+03  0.79917413978E+03  0.00000000000E+00 0. -1.
          6    1    1    2  502    0  0.74494115617E+02  0.23528800182E+02 -0.27643295905E+03  0.33533141599E+03  0.17300000000E+03 0. -1.
         -6    1    1    2    0  501 -0.74494115617E+02 -0.23528800182E+02 -0.47503097236E+03  0.51155293216E+03  0.17300000000E+03 0. -1.
<mgrwt>
<rscale>  2 0.18982091E+03</rscale>
<asrwt>0</asrwt>
<pdfrwt beam="1">  1        2 0.73400325E-02 0.18982091E+03</pdfrwt>
<pdfrwt beam="2">  1       -2 0.12294986E+00 0.18982091E+03</pdfrwt>
<totfact> 0.49322372E+02</totfact>
</mgrwt>
</event>
<event>
 4    1  0.8249026E-001  0.2325775E+03  0.7546771E-02  0.1124839E+00
          2   -1    0    0  502    0  0.00000000000E+00  0.00000000000E+00  0.12930674932E+04  0.12930674932E+04  0.00000000000E+00 0. -1.
         -2   -1    0    0    0  501 -0.00000000000E+00 -0.00000000000E+00 -0.50242239236E+02  0.50242239236E+02  0.00000000000E+00 0.  1.
          6    1    1    2  502    0  0.15108041373E+03  0.36578558088E+02  0.89620344044E+03  0.92589032233E+03  0.17300000000E+03 0.  1.
         -6    1    1    2    0  501 -0.15108041373E+03 -0.36578558088E+02  0.34662181351E+03  0.41741941009E+03  0.17300000000E+03 0.  1.
<mgrwt>
<rscale>  2 0.23257748E+03</rscale>
<asrwt>0</asrwt>
<pdfrwt beam="1">  1        2 0.19893344E+00 0.23257748E+03</pdfrwt>
<pdfrwt beam="2">  1       -2 0.77295762E-02 0.23257748E+03</pdfrwt>
<totfact> 0.17682816E+03</totfact>
</mgrwt>
</event>
<event>
 4    1  0.8249026E-001  0.1858353E+03  0.7546771E-02  0.1162272E+00
          2   -1    0    0  502    0  0.00000000000E+00  0.00000000000E+00  0.24159819570E+03  0.24159819570E+03  0.00000000000E+00 0.  1.
         -2   -1    0    0    0  501 -0.00000000000E+00 -0.00000000000E+00 -0.14866365615E+03  0.14866365615E+03  0.00000000000E+00 0. -1.
          6    1    1    2  502    0 -0.65998803034E+02  0.15808985391E+02  0.84745106667E+02  0.20424617285E+03  0.17300000000E+03 0. -1.
         -6    1    1    2    0  501  0.65998803034E+02 -0.15808985391E+02  0.81894328890E+01  0.18601567900E+03  0.17300000000E+03 0.  1.
<mgrwt>
<rscale>  2 0.18583532E+03</rscale>
<asrwt>0</asrwt>
<pdfrwt beam="1">  1        2 0.37168953E-01 0.18583532E+03</pdfrwt>
<pdfrwt beam="2">  1       -2 0.22871332E-01 0.18583532E+03</pdfrwt>
<totfact> 0.22684663E+03</totfact>
</mgrwt>
</event>
<event>
 4    1  0.8249026E-001  0.1798890E+03  0.7546771E-02  0.1167911E+00
          4   -1    0    0  502    0  0.00000000000E+00  0.00000000000E+00  0.65567636270E+03  0.65567636270E+03  0.00000000000E+00 0.  1.
         -4   -1    0    0    0  501 -0.00000000000E+00 -0.00000000000E+00 -0.54556325211E+02  0.54556325211E+02  0.00000000000E+00 0. -1.
          6    1    1    2  502    0  0.48488553326E+02 -0.89392632852E+01  0.41022289904E+03  0.44793177731E+03  0.17300000000E+03 0.  1.
         -6    1    1    2    0  501 -0.48488553326E+02  0.89392632852E+01  0.19089713845E+03  0.26230091060E+03  0.17300000000E+03 0. -1.
<mgrwt>
<rscale>  2 0.17988899E+03</rscale>
<asrwt>0</asrwt>
<pdfrwt beam="1">  1        4 0.10087328E+00 0.17988899E+03</pdfrwt>
<pdfrwt beam="2">  1       -4 0.83932813E-02 0.17988899E+03</pdfrwt>
<totfact> 0.14957094E+02</totfact>
</mgrwt>
</event>
<event>
 4    1  0.8249026E-001  0.1991315E+03  0.7546771E-02  0.1150474E+00
          1   -1    0    0  502    0  0.00000000000E+00  0.00000000000E+00  0.16098824233E+03  0.16098824233E+03  0.00000000000E+00 0.  1.
         -1   -1    0    0    0  501 -0.00000000000E+00 -0.00000000000E+00 -0.24790968584E+03  0.24790968584E+03  0.00000000000E+00 0. -1.
          6    1    1    2  502    0 -0.33545316366E+02 -0.92731205396E+02 -0.59872648796E+02  0.20793772813E+03  0.17300000000E+03 0.  1.
         -6    1    1    2    0  501  0.33545316366E+02  0.92731205396E+02 -0.27048794716E+02  0.20096020004E+03  0.17300000000E+03 0. -1.
<mgrwt>
<rscale>  2 0.19913153E+03</rscale>
<asrwt>0</asrwt>
<pdfrwt beam="1">  1        1 0.24767422E-01 0.19913153E+03</pdfrwt>
<pdfrwt beam="2">  1       -1 0.38139952E-01 0.19913153E+03</pdfrwt>
<totfact> 0.12930608E+03</totfact>
</mgrwt>
</event>
<event>
 4    1  0.8249026E-001  0.2128540E+03  0.7546771E-02  0.1139326E+00
         -1   -1    0    0    0  501 -0.00000000000E+00  0.00000000000E+00  0.17305172302E+03  0.17305172302E+03  0.00000000000E+00 0.  1.
          1   -1    0    0  502    0  0.00000000000E+00 -0.00000000000E+00 -0.29345867549E+03  0.29345867549E+03  0.00000000000E+00 0. -1.
          6    1    1    2  502    0  0.11806236428E+03  0.37935608384E+02 -0.13680356218E+03  0.25302578301E+03  0.17300000000E+03 0. -1.
         -6    1    1    2    0  501 -0.11806236428E+03 -0.37935608384E+02  0.16396609718E+02  0.21348461549E+03  0.17300000000E+03 0.  1.
<mgrwt>
<rscale>  2 0.21285402E+03</rscale>
<asrwt>0</asrwt>
<pdfrwt beam="2">  1        1 0.45147488E-01 0.21285402E+03</pdfrwt>
<pdfrwt beam="1">  1       -1 0.26623342E-01 0.21285402E+03</pdfrwt>
<totfact> 0.11260295E+03</totfact>
</mgrwt>
</event>
<event>
 4    1  0.8249026E-001  0.2435187E+03  0.7546771E-02  0.1117471E+00
         -2   -1    0    0    0  501 -0.00000000000E+00  0.00000000000E+00  0.15030732738E+03  0.15030732738E+03  0.00000000000E+00 0.  1.
          2   -1    0    0  502    0  0.00000000000E+00 -0.00000000000E+00 -0.39627260375E+03  0.39627260375E+03  0.00000000000E+00 0. -1.
          6    1    1    2  502    0  0.18978208787E+02 -0.17032964417E+03 -0.10488093267E+03  0.26514405543E+03  0.17300000000E+03 0. -1.
         -6    1    1    2    0  501 -0.18978208787E+02  0.17032964417E+03 -0.14108434369E+03  0.28143587569E+03  0.17300000000E+03 0. -1.
<mgrwt>
<rscale>  2 0.24351871E+03</rscale>
<asrwt>0</asrwt>
<pdfrwt beam="2">  1        2 0.60965014E-01 0.24351871E+03</pdfrwt>
<pdfrwt beam="1">  1       -2 0.23124205E-01 0.24351871E+03</pdfrwt>
<totfact> 0.13144735E+03</totfact>
</mgrwt>
</event>
<event>
 4    1  0.8249026E-001  0.2987628E+03  0.7546771E-02  0.1085861E+00
          2   -1    0    0  502    0  0.00000000000E+00  0.00000000000E+00  0.10362722552E+04  0.10362722552E+04  0.00000000000E+00 0. -1.
         -2   -1    0    0    0  501 -0.00000000000E+00 -0.00000000000E+00 -0.86182295299E+02  0.86182295299E+02  0.00000000000E+00 0.  1.
          6    1    1    2  502    0 -0.24227119438E+03  0.25196379295E+02  0.46188132173E+03  0.55008503390E+03  0.17300000000E+03 0. -1.
         -6    1    1    2    0  501  0.24227119438E+03 -0.25196379295E+02  0.48820863822E+03  0.57236951665E+03  0.17300000000E+03 0.  1.
<mgrwt>
<rscale>  2 0.29876276E+03</rscale>
<asrwt>0</asrwt>
<pdfrwt beam="1">  1        2 0.15942649E+00 0.29876276E+03</pdfrwt>
<pdfrwt beam="2">  1       -2 0.13258815E-01 0.29876276E+03</pdfrwt>
<totfact> 0.10482175E+03</totfact>
</mgrwt>
</event>
<event>
 4    1  0.8249026E-001  0.1780476E+03  0.7546771E-02  0.1169706E+00
         -1   -1    0    0    0  501 -0.00000000000E+00  0.00000000000E+00  0.13394728772E+03  0.13394728772E+03  0.00000000000E+00 0.  1.
          1   -1    0    0  502    0  0.00000000000E+00 -0.00000000000E+00 -0.24609614269E+03  0.24609614269E+03  0.00000000000E+00 0. -1.
          6    1    1    2  502    0  0.39015739232E+02  0.15802302362E+02 -0.93269072149E+02  0.20099766289E+03  0.17300000000E+03 0. -1.
         -6    1    1    2    0  501 -0.39015739232E+02 -0.15802302362E+02 -0.18879782818E+02  0.17904576752E+03  0.17300000000E+03 0.  1.
<mgrwt>
<rscale>  2 0.17804758E+03</rscale>
<asrwt>0</asrwt>
<pdfrwt beam="2">  1        1 0.37860945E-01 0.17804758E+03</pdfrwt>
<pdfrwt beam="1">  1       -1 0.20607275E-01 0.17804758E+03</pdfrwt>
<totfact> 0.21302949E+03</totfact>
</mgrwt>
</event>
<event>
 4    1  0.8249026E-001  0.2640831E+03  0.7546771E-02  0.1104715E+00
         -2   -1    0    0    0  501 -0.00000000000E+00  0.00000000000E+00  0.78910557466E+02  0.78910557466E+02  0.00000000000E+00 0.  1.
          2   -1    0    0  502    0  0.00000000000E+00 -0.00000000000E+00 -0.88378450037E+03  0.88378450037E+03  0.00000000000E+00 0. -1.
          6    1    1    2  502    0 -0.11125344848E+03  0.16563080671E+03 -0.40210249121E+03  0.48106788229E+03  0.17300000000E+03 0.  1.
         -6    1    1    2    0  501  0.11125344848E+03 -0.16563080671E+03 -0.40277145168E+03  0.48162717554E+03  0.17300000000E+03 0. -1.
<mgrwt>
<rscale>  2 0.26408312E+03</rscale>
<asrwt>0</asrwt>
<pdfrwt beam="2">  1        2 0.13596684E+00 0.26408312E+03</pdfrwt>
<pdfrwt beam="1">  1       -2 0.12140086E-01 0.26408312E+03</pdfrwt>
<totfact> 0.15103160E+03</totfact>
</mgrwt>
</event>
<event>
 4    1  0.8249026E-001  0.2117561E+03  0.7546771E-02  0.1140183E+00
         -1   -1    0    0    0  501 -0.00000000000E+00  0.00000000000E+00  0.39641869636E+03  0.39641869636E+03  0.00000000000E+00 0. -1.
          1   -1    0    0  502    0  0.00000000000E+00 -0.00000000000E+00 -0.13919906770E+03  0.13919906770E+03  0.00000000000E+00 0.  1.
          6    1    1    2  502    0  0.12210785283E+03  0.11457653562E+01  0.24454090982E+03  0.32348245250E+03  0.17300000000E+03 0. -1.
         -6    1    1    2    0  501 -0.12210785283E+03 -0.11457653562E+01  0.12678718839E+02  0.21213531157E+03  0.17300000000E+03 0.  1.
<mgrwt>
<rscale>  2 0.21175609E+03</rscale>
<asrwt>0</asrwt>
<pdfrwt beam="2">  1        1 0.21415241E-01 0.21175609E+03</pdfrwt>
<pdfrwt beam="1">  1       -1 0.60987491E-01 0.21175609E+03</pdfrwt>
<totfact> 0.65854513E+02</totfact>
</mgrwt>
</event>
<event>
 4    1  0.8249026E-001  0.1832166E+03  0.7546771E-02  0.1164726E+00
          2   -1    0    0  502    0  0.00000000000E+00  0.00000000000E+00  0.25175428953E+03  0.25175428953E+03  0.00000000000E+00 0.  1.
         -2   -1    0    0    0  501 -0.00000000000E+00 -0.00000000000E+00 -0.21811015710E+03  0.21811015710E+03  0.00000000000E+00 0. -1.
          6    1    1    2  502    0  0.42035005963E+02 -0.43270970620E+02 -0.12964238392E+03  0.22444479573E+03  0.17300000000E+03 0. -1.
         -6    1    1    2    0  501 -0.42035005963E+02  0.43270970620E+02  0.16328651635E+03  0.24541965090E+03  0.17300000000E+03 0.  1.
<mgrwt>
<rscale>  2 0.18321659E+03</rscale>
<asrwt>0</asrwt>
<pdfrwt beam="1">  1        2 0.38731429E-01 0.18321659E+03</pdfrwt>
<pdfrwt beam="2">  1       -2 0.33555409E-01 0.18321659E+03</pdfrwt>
<totfact> 0.10933328E+03</totfact>
</mgrwt>
</event>
<event>
 4    1  0.8249026E-001  0.2370500E+03  0.7546771E-02  0.1121774E+00
          2   -1    0    0  502    0  0.00000000000E+00  0.00000000000E+00  0.17855012734E+04  0.17855012734E+04  0.00000000000E+00 0.  1.
         -2   -1    0    0    0  501 -0.00000000000E+00 -0.00000000000E+00 -0.40251298393E+02  0.40251298393E+02  0.00000000000E+00 0. -1.
          6    1    1    2  502    0 -0.47207436639E+02  0.15503281345E+03  0.44628121045E+03  0.50533121230E+03  0.17300000000E+03 0. -1.
         -6    1    1    2    0  501  0.47207436639E+02 -0.15503281345E+03  0.12989687645E+04  0.13204213595E+04  0.17300000000E+03 0. -1.
<mgrwt>
<rscale>  2 0.23705003E+03</rscale>
<asrwt>0</asrwt>
<pdfrwt beam="1">  1        2 0.27469244E+00 0.23705003E+03</pdfrwt>
<pdfrwt beam="2">  1       -2 0.61925088E-02 0.23705003E+03</pdfrwt>
<totfact> 0.13617532E+03</totfact>
</mgrwt>
</event>
<event>
 4    1  0.8249026E-001  0.1852705E+03  0.7546771E-02  0.1162798E+00
          2   -1    0    0  502    0  0.00000000000E+00  0.00000000000E+00  0.30470411877E+02  0.30470411877E+02  0.00000000000E+00 0.  1.
         -2   -1    0    0    0  501 -0.00000000000E+00 -0.00000000000E+00 -0.11772798022E+04  0.11772798022E+04  0.00000000000E+00 0. -1.
          6    1    1    2  502    0  0.59244846599E+02  0.29769073754E+02 -0.44799808887E+03  0.48479628426E+03  0.17300000000E+03 0.  1.
         -6    1    1    2    0  501 -0.59244846599E+02 -0.29769073754E+02 -0.69881130144E+03  0.72295392981E+03  0.17300000000E+03 0. -1.
<mgrwt>
<rscale>  2 0.18527048E+03</rscale>
<asrwt>0</asrwt>
<pdfrwt beam="1">  1        2 0.46877552E-02 0.18527048E+03</pdfrwt>
<pdfrwt beam="2">  1       -2 0.18111999E+00 0.18527048E+03</pdfrwt>
<totfact> 0.32539474E+02</totfact>
</mgrwt>
</event>
<event>
 4    1  0.8249026E-001  0.1777790E+03  0.7546771E-02  0.1169970E+00
         -1   -1    0    0    0  501 -0.00000000000E+00  0.00000000000E+00  0.27887276641E+03  0.27887276641E+03  0.00000000000E+00 0.  1.
          1   -1    0    0  502    0  0.00000000000E+00 -0.00000000000E+00 -0.14529797155E+03  0.14529797155E+03  0.00000000000E+00 0. -1.
          6    1    1    2  502    0  0.38136601724E+02 -0.14898316508E+02  0.16626405591E+03  0.24341137302E+03  0.17300000000E+03 0.  1.
         -6    1    1    2    0  501 -0.38136601724E+02  0.14898316508E+02 -0.32689261058E+02  0.18075936494E+03  0.17300000000E+03 0. -1.
<mgrwt>
<rscale>  2 0.17777896E+03</rscale>
<asrwt>0</asrwt>
<pdfrwt beam="2">  1        1 0.22353534E-01 0.17777896E+03</pdfrwt>
<pdfrwt beam="1">  1       -1 0.42903502E-01 0.17777896E+03</pdfrwt>
<totfact> 0.11931251E+03</totfact>
</mgrwt>
</event>
<event>
 4    1  0.8249026E-001  0.2064869E+03  0.7546771E-02  0.1144379E+00
          2   -1    0    0  502    0  0.00000000000E+00  0.00000000000E+00  0.52231216238E+02  0.52231216238E+02  0.00000000000E+00 0. -1.
         -2   -1    0    0    0  501 -0.00000000000E+00 -0.00000000000E+00 -0.81639372449E+03  0.81639372449E+03  0.00000000000E+00 0.  1.
          6    1    1    2  502    0 -0.59716931840E+02  0.95612414792E+02 -0.37767381480E+03  0.43043507780E+03  0.17300000000E+03 0.  1.
         -6    1    1    2    0  501  0.59716931840E+02 -0.95612414792E+02 -0.38648869345E+03  0.43818986293E+03  0.17300000000E+03 0. -1.
<mgrwt>
<rscale>  2 0.20648691E+03</rscale>
<asrwt>0</asrwt>
<pdfrwt beam="1">  1        2 0.80355718E-02 0.20648691E+03</pdfrwt>
<pdfrwt beam="2">  1       -2 0.12559903E+00 0.20648691E+03</pdfrwt>
<totfact> 0.41792417E+02</totfact>
</mgrwt>
</event>
<event>
 4    1  0.8249026E-001  0.3559201E+03  0.7546771E-02  0.1060211E+00
          2   -1    0    0  502    0  0.00000000000E+00  0.00000000000E+00  0.33232804955E+03  0.33232804955E+03  0.00000000000E+00 0. -1.
         -2   -1    0    0    0  501 -0.00000000000E+00 -0.00000000000E+00 -0.45692323255E+03  0.45692323255E+03  0.00000000000E+00 0.  1.
          6    1    1    2  502    0  0.30228716054E+03  0.73297999505E+02 -0.22296049027E+03  0.41998869554E+03  0.17300000000E+03 0.  1.
         -6    1    1    2    0  501 -0.30228716054E+03 -0.73297999505E+02  0.98365307276E+02  0.36926258656E+03  0.17300000000E+03 0. -1.
<mgrwt>
<rscale>  2 0.35592011E+03</rscale>
<asrwt>0</asrwt>
<pdfrwt beam="1">  1        2 0.51127392E-01 0.35592011E+03</pdfrwt>
<pdfrwt beam="2">  1       -2 0.70295882E-01 0.35592011E+03</pdfrwt>
<totfact> 0.18528567E+02</totfact>
</mgrwt>
</event>
<event>
 4    1  0.8249026E-001  0.1881864E+03  0.7546771E-02  0.1160107E+00
          2   -1    0    0  502    0  0.00000000000E+00  0.00000000000E+00  0.60166532544E+03  0.60166532544E+03  0.00000000000E+00 0. -1.
         -2   -1    0    0    0  501 -0.00000000000E+00 -0.00000000000E+00 -0.59716681201E+02  0.59716681201E+02  0.00000000000E+00 0.  1.
          6    1    1    2  502    0  0.66122950780E+02 -0.33359759534E+02  0.31057870465E+03  0.36314356659E+03  0.17300000000E+03 0.  1.
         -6    1    1    2    0  501 -0.66122950780E+02  0.33359759534E+02  0.23136993959E+03  0.29823844005E+03  0.17300000000E+03 0.  1.
<mgrwt>
<rscale>  2 0.18818639E+03</rscale>
<asrwt>0</asrwt>
<pdfrwt beam="1">  1        2 0.92563892E-01 0.18818639E+03</pdfrwt>
<pdfrwt beam="2">  1       -2 0.91871821E-02 0.18818639E+03</pdfrwt>
<totfact> 0.37617991E+03</totfact>
</mgrwt>
</event>
<event>
 4    1  0.8249026E-001  0.2368790E+03  0.7546771E-02  0.1121890E+00
         -1   -1    0    0    0  501 -0.00000000000E+00  0.00000000000E+00  0.11687643451E+03  0.11687643451E+03  0.00000000000E+00 0. -1.
          1   -1    0    0  502    0  0.00000000000E+00 -0.00000000000E+00 -0.12596712452E+04  0.12596712452E+04  0.00000000000E+00 0.  1.
          6    1    1    2  502    0  0.12872848796E+03  0.98038868001E+02 -0.11128523297E+04  0.11377837892E+04  0.17300000000E+03 0.  1.
         -6    1    1    2    0  501 -0.12872848796E+03 -0.98038868001E+02 -0.29942481004E+02  0.23876389053E+03  0.17300000000E+03 0. -1.
<mgrwt>
<rscale>  2 0.23687896E+03</rscale>
<asrwt>0</asrwt>
<pdfrwt beam="2">  1        1 0.19379558E+00 0.23687896E+03</pdfrwt>
<pdfrwt beam="1">  1       -1 0.17980990E-01 0.23687896E+03</pdfrwt>
<totfact> 0.25288136E+02</totfact>
</mgrwt>
</event>
<event>
 4    1  0.8249026E-001  0.1955319E+03  0.7546771E-02  0.1153564E+00
          2   -1    0    0  502    0  0.00000000000E+00  0.00000000000E+00  0.12064927088E+04  0.12064927088E+04  0.00000000000E+00 0.  1.
         -2   -1    0    0    0  501 -0.00000000000E+00 -0.00000000000E+00 -0.58487912826E+02  0.58487912826E+02  0.00000000000E+00 0. -1.
          6    1    1    2  502    0  0.11919156045E+02 -0.90341837247E+02  0.14586981047E+03  0.24394818189E+03  0.17300000000E+03 0. -1.
         -6    1    1    2    0  501 -0.11919156045E+02  0.90341837247E+02  0.10021349855E+04  0.10210324398E+04  0.17300000000E+03 0.  1.
<mgrwt>
<rscale>  2 0.19553187E+03</rscale>
<asrwt>0</asrwt>
<pdfrwt beam="1">  1        2 0.18561424E+00 0.19553187E+03</pdfrwt>
<pdfrwt beam="2">  1       -2 0.89981413E-02 0.19553187E+03</pdfrwt>
<totfact> 0.15581404E+03</totfact>
</mgrwt>
</event>
<event>
 4    1  0.8249026E-001  0.2722577E+03  0.7546771E-02  0.1099994E+00
          2   -1    0    0  502    0  0.00000000000E+00  0.00000000000E+00  0.16017672818E+04  0.16017672818E+04  0.00000000000E+00 0. -1.
         -2   -1    0    0    0  501 -0.00000000000E+00 -0.00000000000E+00 -0.59183897035E+02  0.59183897035E+02  0.00000000000E+00 0.  1.
          6    1    1    2  502    0  0.14200823759E+02  0.20974654012E+03  0.38345984178E+03  0.47028260094E+03  0.17300000000E+03 0.  1.
         -6    1    1    2    0  501 -0.14200823759E+02 -0.20974654012E+03  0.11591235430E+04  0.11906685779E+04  0.17300000000E+03 0. -1.
<mgrwt>
<rscale>  2 0.27225774E+03</rscale>
<asrwt>0</asrwt>
<pdfrwt beam="1">  1        2 0.24642570E+00 0.27225774E+03</pdfrwt>
<pdfrwt beam="2">  1       -2 0.91052161E-02 0.27225774E+03</pdfrwt>
<totfact> 0.92921016E+02</totfact>
</mgrwt>
</event>
<event>
 4    1  0.8249026E-001  0.1839954E+03  0.7546771E-02  0.1163991E+00
          1   -1    0    0  502    0  0.00000000000E+00  0.00000000000E+00  0.67968613106E+03  0.67968613106E+03  0.00000000000E+00 0.  1.
         -1   -1    0    0    0  501 -0.00000000000E+00 -0.00000000000E+00 -0.55946769451E+02  0.55946769451E+02  0.00000000000E+00 0. -1.
          6    1    1    2  502    0  0.59375662322E+02 -0.19995966447E+02  0.19003856518E+03  0.26451647246E+03  0.17300000000E+03 0.  1.
         -6    1    1    2    0  501 -0.59375662322E+02  0.19995966447E+02  0.43370079643E+03  0.47111642805E+03  0.17300000000E+03 0.  1.
<mgrwt>
<rscale>  2 0.18399540E+03</rscale>
<asrwt>0</asrwt>
<pdfrwt beam="1">  1        1 0.10456709E+00 0.18399540E+03</pdfrwt>
<pdfrwt beam="2">  1       -1 0.86071958E-02 0.18399540E+03</pdfrwt>
<totfact> 0.22437016E+03</totfact>
</mgrwt>
</event>
<event>
 4    1  0.8249026E-001  0.1995578E+03  0.7546771E-02  0.1150113E+00
          2   -1    0    0  502    0  0.00000000000E+00  0.00000000000E+00  0.12694774054E+04  0.12694774054E+04  0.00000000000E+00 0.  1.
         -2   -1    0    0    0  501 -0.00000000000E+00 -0.00000000000E+00 -0.34571184037E+02  0.34571184037E+02  0.00000000000E+00 0. -1.
          6    1    1    2  502    0 -0.62980802711E+02 -0.76991655733E+02  0.41903871701E+03  0.46413009267E+03  0.17300000000E+03 0. -1.
         -6    1    1    2    0  501  0.62980802711E+02  0.76991655733E+02  0.81586750434E+03  0.83991849676E+03  0.17300000000E+03 0. -1.
<mgrwt>
<rscale>  2 0.19955775E+03</rscale>
<asrwt>0</asrwt>
<pdfrwt beam="1">  1        2 0.19530418E+00 0.19955775E+03</pdfrwt>
<pdfrwt beam="2">  1       -2 0.53186447E-02 0.19955775E+03</pdfrwt>
<totfact> 0.32373566E+03</totfact>
</mgrwt>
</event>
<event>
 4    1  0.8249026E-001  0.2379052E+03  0.7546771E-02  0.1121196E+00
         -2   -1    0    0    0  501 -0.00000000000E+00  0.00000000000E+00  0.36030790266E+02  0.36030790266E+02  0.00000000000E+00 0.  1.
          2   -1    0    0  502    0  0.00000000000E+00 -0.00000000000E+00 -0.16827568243E+04  0.16827568243E+04  0.00000000000E+00 0. -1.
          6    1    1    2  502    0 -0.15147135930E+03 -0.61043372820E+02 -0.10449862346E+04  0.10717252897E+04  0.17300000000E+03 0.  1.
         -6    1    1    2    0  501  0.15147135930E+03  0.61043372820E+02 -0.60173979942E+03  0.64706232487E+03  0.17300000000E+03 0. -1.
<mgrwt>
<rscale>  2 0.23790516E+03</rscale>
<asrwt>0</asrwt>
<pdfrwt beam="2">  1        2 0.25888564E+00 0.23790516E+03</pdfrwt>
<pdfrwt beam="1">  1       -2 0.55431991E-02 0.23790516E+03</pdfrwt>
<totfact> 0.18269214E+03</totfact>
</mgrwt>
</event>
<event>
 4    1  0.8249026E-001  0.2006648E+03  0.7546771E-02  0.1149179E+00
         -2   -1    0    0    0  501 -0.00000000000E+00  0.00000000000E+00  0.11776188347E+03  0.11776188347E+03  0.00000000000E+00 0. -1.
          2   -1    0    0  502    0  0.00000000000E+00 -0.00000000000E+00 -0.41310676536E+03  0.41310676536E+03  0.00000000000E+00 0.  1.
          6    1    1    2  502    0 -0.46244034535E+01 -0.10156767693E+03 -0.37494774844E+02  0.20413778740E+03  0.17300000000E+03 0. -1.
         -6    1    1    2    0  501  0.46244034535E+01  0.10156767693E+03 -0.25785010705E+03  0.32673086143E+03  0.17300000000E+03 0.  1.
<mgrwt>
<rscale>  2 0.20066484E+03</rscale>
<asrwt>0</asrwt>
<pdfrwt beam="2">  1        2 0.63554887E-01 0.20066484E+03</pdfrwt>
<pdfrwt beam="1">  1       -2 0.18117213E-01 0.20066484E+03</pdfrwt>
<totfact> 0.19023793E+03</totfact>
</mgrwt>
</event>
<event>
 4    1  0.8249026E-001  0.1940059E+03  0.7546771E-02  0.1154897E+00
         -3   -1    0    0    0  501 -0.00000000000E+00  0.00000000000E+00  0.39069287901E+02  0.39069287901E+02  0.00000000000E+00 0.  1.
          3   -1    0    0  502    0  0.00000000000E+00 -0.00000000000E+00 -0.97305466461E+03  0.97305466461E+03  0.00000000000E+00 0. -1.
          6    1    1    2  502    0  0.54876727025E+02  0.68540839342E+02 -0.41651407842E+03  0.45948044501E+03  0.17300000000E+03 0.  1.
         -6    1    1    2    0  501 -0.54876727025E+02 -0.68540839342E+02 -0.51747129829E+03  0.55264350750E+03  0.17300000000E+03 0. -1.
<mgrwt>
<rscale>  2 0.19400593E+03</rscale>
<asrwt>0</asrwt>
<pdfrwt beam="2">  1        3 0.14970071E+00 0.19400593E+03</pdfrwt>
<pdfrwt beam="1">  1       -3 0.60106601E-02 0.19400593E+03</pdfrwt>
<totfact> 0.14293535E+02</totfact>
</mgrwt>
</event>
<event>
 4    1  0.8249026E-001  0.2461985E+03  0.7546771E-02  0.1115731E+00
         -2   -1    0    0    0  501 -0.00000000000E+00  0.00000000000E+00  0.88554397714E+02  0.88554397714E+02  0.00000000000E+00 0. -1.
          2   -1    0    0  502    0  0.00000000000E+00 -0.00000000000E+00 -0.78766298124E+03  0.78766298124E+03  0.00000000000E+00 0.  1.
          6    1    1    2  502    0  0.59523566586E+02 -0.16474725336E+03 -0.19098622719E+03  0.31159180260E+03  0.17300000000E+03 0.  1.
         -6    1    1    2    0  501 -0.59523566586E+02  0.16474725336E+03 -0.50812235634E+03  0.56462557636E+03  0.17300000000E+03 0.  1.
<mgrwt>
<rscale>  2 0.24619852E+03</rscale>
<asrwt>0</asrwt>
<pdfrwt beam="2">  1        2 0.12117892E+00 0.24619852E+03</pdfrwt>
<pdfrwt beam="1">  1       -2 0.13623753E-01 0.24619852E+03</pdfrwt>
<totfact> 0.14528221E+03</totfact>
</mgrwt>
</event>
<event>
 4    1  0.8249026E-001  0.1974811E+03  0.7546771E-02  0.1151882E+00
          1   -1    0    0  502    0  0.00000000000E+00  0.00000000000E+00  0.72500821843E+03  0.72500821843E+03  0.00000000000E+00 0.  1.
         -1   -1    0    0    0  501 -0.00000000000E+00 -0.00000000000E+00 -0.55641894028E+02  0.55641894028E+02  0.00000000000E+00 0. -1.
          6    1    1    2  502    0  0.76736584912E+02  0.56402707585E+02  0.26348968020E+03  0.32928039793E+03  0.17300000000E+03 0. -1.
         -6    1    1    2    0  501 -0.76736584912E+02 -0.56402707585E+02  0.40587664419E+03  0.45136971452E+03  0.17300000000E+03 0.  1.
<mgrwt>
<rscale>  2 0.19748106E+03</rscale>
<asrwt>0</asrwt>
<pdfrwt beam="1">  1        1 0.11153972E+00 0.19748106E+03</pdfrwt>
<pdfrwt beam="2">  1       -1 0.85602919E-02 0.19748106E+03</pdfrwt>
<totfact> 0.20633531E+03</totfact>
</mgrwt>
</event>
<event>
 4    1  0.8249026E-001  0.1978291E+03  0.7546771E-02  0.1151584E+00
          1   -1    0    0  502    0  0.00000000000E+00  0.00000000000E+00  0.79847827452E+03  0.79847827452E+03  0.00000000000E+00 0. -1.
         -1   -1    0    0    0  501 -0.00000000000E+00 -0.00000000000E+00 -0.59594704971E+02  0.59594704971E+02  0.00000000000E+00 0.  1.
          6    1    1    2  502    0 -0.55172727768E+02  0.78506912994E+02  0.55022332932E+03  0.58470683030E+03  0.17300000000E+03 0. -1.
         -6    1    1    2    0  501  0.55172727768E+02 -0.78506912994E+02  0.18866024023E+03  0.27336614919E+03  0.17300000000E+03 0.  1.
<mgrwt>
<rscale>  2 0.19782913E+03</rscale>
<asrwt>0</asrwt>
<pdfrwt beam="1">  1        1 0.12284280E+00 0.19782913E+03</pdfrwt>
<pdfrwt beam="2">  1       -1 0.91684168E-02 0.19782913E+03</pdfrwt>
<totfact> 0.16078383E+03</totfact>
</mgrwt>
</event>
<event>
 4    1  0.8249026E-001  0.2770925E+03  0.7546771E-02  0.1097288E+00
         -1   -1    0    0    0  501 -0.00000000000E+00  0.00000000000E+00  0.56656731604E+02  0.56656731604E+02  0.00000000000E+00 0. -1.
          1   -1    0    0  502    0  0.00000000000E+00 -0.00000000000E+00 -0.13591445872E+04  0.13591445872E+04  0.00000000000E+00 0.  1.
          6    1    1    2  502    0  0.14558657047E+03  0.16017422888E+03 -0.61302484205E+03  0.67274043291E+03  0.17300000000E+03 0. -1.
         -6    1    1    2    0  501 -0.14558657047E+03 -0.16017422888E+03 -0.68946301357E+03  0.74306088592E+03  0.17300000000E+03 0.  1.
<mgrwt>
<rscale>  2 0.27709246E+03</rscale>
<asrwt>0</asrwt>
<pdfrwt beam="2">  1        1 0.20909918E+00 0.27709246E+03</pdfrwt>
<pdfrwt beam="1">  1       -1 0.87164196E-02 0.27709246E+03</pdfrwt>
<totfact> 0.67181857E+02</totfact>
</mgrwt>
</event>
<event>
 4    1  0.8249026E-001  0.1930533E+03  0.7546771E-02  0.1155736E+00
         -2   -1    0    0    0  501 -0.00000000000E+00  0.00000000000E+00  0.80984155164E+02  0.80984155164E+02  0.00000000000E+00 0.  1.
          2   -1    0    0  502    0  0.00000000000E+00 -0.00000000000E+00 -0.48830620092E+03  0.48830620092E+03  0.00000000000E+00 0. -1.
          6    1    1    2  502    0  0.71174649309E+02 -0.47694381135E+02 -0.27194113687E+03  0.33349897544E+03  0.17300000000E+03 0. -1.
         -6    1    1    2    0  501 -0.71174649309E+02  0.47694381135E+02 -0.13538090889E+03  0.23579138065E+03  0.17300000000E+03 0.  1.
<mgrwt>
<rscale>  2 0.19305332E+03</rscale>
<asrwt>0</asrwt>
<pdfrwt beam="2">  1        2 0.75124029E-01 0.19305332E+03</pdfrwt>
<pdfrwt beam="1">  1       -2 0.12459101E-01 0.19305332E+03</pdfrwt>
<totfact> 0.29330176E+03</totfact>
</mgrwt>
</event>
<event>
 4    1  0.8249026E-001  0.1741619E+03  0.7546771E-02  0.1173576E+00
         -1   -1    0    0    0  501 -0.00000000000E+00  0.00000000000E+00  0.14646611694E+03  0.14646611694E+03  0.00000000000E+00 0.  1.
          1   -1    0    0  502    0  0.00000000000E+00 -0.00000000000E+00 -0.30003654661E+03  0.30003654661E+03  0.00000000000E+00 0. -1.
          6    1    1    2  502    0 -0.34222312641E+01  0.19790733504E+02  0.47469299754E+02  0.18051514955E+03  0.17300000000E+03 0.  1.
         -6    1    1    2    0  501  0.34222312641E+01 -0.19790733504E+02 -0.20103972942E+03  0.26598751400E+03  0.17300000000E+03 0.  1.
<mgrwt>
<rscale>  2 0.17416195E+03</rscale>
<asrwt>0</asrwt>
<pdfrwt beam="2">  1        1 0.46159468E-01 0.17416195E+03</pdfrwt>
<pdfrwt beam="1">  1       -1 0.22533249E-01 0.17416195E+03</pdfrwt>
<totfact> 0.14380186E+03</totfact>
</mgrwt>
</event>
<event>
 4    1  0.8249026E-001  0.2712256E+03  0.7546771E-02  0.1100580E+00
          1   -1    0    0  502    0  0.00000000000E+00  0.00000000000E+00  0.27486377578E+03  0.27486377578E+03  0.00000000000E+00 0.  1.
         -1   -1    0    0    0  501 -0.00000000000E+00 -0.00000000000E+00 -0.27177711044E+03  0.27177711044E+03  0.00000000000E+00 0. -1.
          6    1    1    2  502    0  0.20741073063E+03 -0.24801125352E+02  0.35283694891E+02  0.27351096162E+03  0.17300000000E+03 0. -1.
         -6    1    1    2    0  501 -0.20741073063E+03  0.24801125352E+02 -0.32197029548E+02  0.27312992460E+03  0.17300000000E+03 0. -1.
<mgrwt>
<rscale>  2 0.27122556E+03</rscale>
<asrwt>0</asrwt>
<pdfrwt beam="1">  1        1 0.42286735E-01 0.27122556E+03</pdfrwt>
<pdfrwt beam="2">  1       -1 0.41811863E-01 0.27122556E+03</pdfrwt>
<totfact> 0.56054210E+02</totfact>
</mgrwt>
</event>
<event>
 4    1  0.8249026E-001  0.1969205E+03  0.7546771E-02  0.1152364E+00
         -2   -1    0    0    0  501 -0.00000000000E+00  0.00000000000E+00  0.40482232249E+02  0.40482232249E+02  0.00000000000E+00 0. -1.
          2   -1    0    0  502    0  0.00000000000E+00 -0.00000000000E+00 -0.98897427604E+03  0.98897427604E+03  0.00000000000E+00 0.  1.
          6    1    1    2  502    0  0.91053809809E+02  0.23619388575E+02 -0.56549555118E+03  0.59880121092E+03  0.17300000000E+03 0. -1.
         -6    1    1    2    0  501 -0.91053809809E+02 -0.23619388575E+02 -0.38299649261E+03  0.43065529737E+03  0.17300000000E+03 0. -1.
<mgrwt>
<rscale>  2 0.19692047E+03</rscale>
<asrwt>0</asrwt>
<pdfrwt beam="2">  1        2 0.15214988E+00 0.19692047E+03</pdfrwt>
<pdfrwt beam="1">  1       -2 0.62280361E-02 0.19692047E+03</pdfrwt>
<totfact> 0.36935631E+03</totfact>
</mgrwt>
</event>
<event>
 4    1  0.8249026E-001  0.1828783E+03  0.7546771E-02  0.1165046E+00
         -2   -1    0    0    0  501 -0.00000000000E+00  0.00000000000E+00  0.60730861701E+02  0.60730861701E+02  0.00000000000E+00 0. -1.
          2   -1    0    0  502    0  0.00000000000E+00 -0.00000000000E+00 -0.74939295543E+03  0.74939295543E+03  0.00000000000E+00 0.  1.
          6    1    1    2  502    0  0.17475562576E+02  0.56657642024E+02 -0.13575815162E+03  0.22776031133E+03  0.17300000000E+03 0. -1.
         -6    1    1    2    0  501 -0.17475562576E+02 -0.56657642024E+02 -0.55290394211E+03  0.58236350580E+03  0.17300000000E+03 0.  1.
<mgrwt>
<rscale>  2 0.18287833E+03</rscale>
<asrwt>0</asrwt>
<pdfrwt beam="2">  1        2 0.11529123E+00 0.18287833E+03</pdfrwt>
<pdfrwt beam="1">  1       -2 0.93432088E-02 0.18287833E+03</pdfrwt>
<totfact> 0.28195191E+03</totfact>
</mgrwt>
</event>
<event>
 4    1  0.8249026E-001  0.1814623E+03  0.7546771E-02  0.1166395E+00
         -2   -1    0    0    0  501 -0.00000000000E+00  0.00000000000E+00  0.21884596554E+02  0.21884596554E+02  0.00000000000E+00 0. -1.
          2   -1    0    0  502    0  0.00000000000E+00 -0.00000000000E+00 -0.16577740764E+04  0.16577740764E+04  0.00000000000E+00 0.  1.
          6    1    1    2  502    0 -0.25454460534E+02  0.48493622894E+02 -0.56270023125E+03  0.59123608760E+03  0.17300000000E+03 0. -1.
         -6    1    1    2    0  501  0.25454460534E+02 -0.48493622894E+02 -0.10731892485E+04  0.10884225853E+04  0.17300000000E+03 0.  1.
<mgrwt>
<rscale>  2 0.18146229E+03</rscale>
<asrwt>0</asrwt>
<pdfrwt beam="2">  1        2 0.25504221E+00 0.18146229E+03</pdfrwt>
<pdfrwt beam="1">  1       -2 0.33668604E-02 0.18146229E+03</pdfrwt>
<totfact> 0.39918742E+03</totfact>
</mgrwt>
</event>
<event>
 4    1  0.8249026E-001  0.1852693E+03  0.7546771E-02  0.1162799E+00
          2   -1    0    0  502    0  0.00000000000E+00  0.00000000000E+00  0.13281771230E+03  0.13281771230E+03  0.00000000000E+00 0.  1.
         -2   -1    0    0    0  501 -0.00000000000E+00 -0.00000000000E+00 -0.32322708710E+03  0.32322708710E+03  0.00000000000E+00 0. -1.
          6    1    1    2  502    0  0.65936274637E+02  0.69358904853E+01  0.68859224525E+01  0.18539718126E+03  0.17300000000E+03 0.  1.
         -6    1    1    2    0  501 -0.65936274637E+02 -0.69358904853E+01 -0.19729529725E+03  0.27064761814E+03  0.17300000000E+03 0. -1.
<mgrwt>
<rscale>  2 0.18526926E+03</rscale>
<asrwt>0</asrwt>
<pdfrwt beam="1">  1        2 0.20433494E-01 0.18526926E+03</pdfrwt>
<pdfrwt beam="2">  1       -2 0.49727244E-01 0.18526926E+03</pdfrwt>
<totfact> 0.10426800E+03</totfact>
</mgrwt>
</event>
<event>
 4    1  0.8249026E-001  0.2589862E+03  0.7546771E-02  0.1107754E+00
          1   -1    0    0  502    0  0.00000000000E+00  0.00000000000E+00  0.75979238738E+03  0.75979238738E+03  0.00000000000E+00 0.  1.
         -1   -1    0    0    0  501 -0.00000000000E+00 -0.00000000000E+00 -0.95846191709E+02  0.95846191709E+02  0.00000000000E+00 0. -1.
          6    1    1    2  502    0  0.79161342564E+02 -0.17572225387E+03  0.45218179763E+03  0.52109711837E+03  0.17300000000E+03 0.  1.
         -6    1    1    2    0  501 -0.79161342564E+02  0.17572225387E+03  0.21176439804E+03  0.33454146072E+03  0.17300000000E+03 0.  1.
<mgrwt>
<rscale>  2 0.25898616E+03</rscale>
<asrwt>0</asrwt>
<pdfrwt beam="1">  1        1 0.11689113E+00 0.25898616E+03</pdfrwt>
<pdfrwt beam="2">  1       -1 0.14745568E-01 0.25898616E+03</pdfrwt>
<totfact> 0.82632215E+02</totfact>
</mgrwt>
</event>
<event>
 4    1  0.8249026E-001  0.1739880E+03  0.7546771E-02  0.1173752E+00
         -2   -1    0    0    0  501 -0.00000000000E+00  0.00000000000E+00  0.20859757582E+02  0.20859757582E+02  0.00000000000E+00 0.  1.
          2   -1    0    0  502    0  0.00000000000E+00 -0.00000000000E+00 -0.15267778621E+04  0.15267778621E+04  0.00000000000E+00 0. -1.
          6    1    1    2  502    0  0.17619471574E+02  0.56897067864E+01 -0.92511800071E+03  0.94133688645E+03  0.17300000000E+03 0. -1.
         -6    1    1    2    0  501 -0.17619471574E+02 -0.56897067864E+01 -0.58080010382E+03  0.60630073325E+03  0.17300000000E+03 0.  1.
<mgrwt>
<rscale>  2 0.17398798E+03</rscale>
<asrwt>0</asrwt>
<pdfrwt beam="2">  1        2 0.23488892E+00 0.17398798E+03</pdfrwt>
<pdfrwt beam="1">  1       -2 0.32091932E-02 0.17398798E+03</pdfrwt>
<totfact> 0.50143820E+03</totfact>
</mgrwt>
</event>
<event>
 4    1  0.8249026E-001  0.2504337E+03  0.7546771E-02  0.1113031E+00
         -2   -1    0    0    0  501 -0.00000000000E+00  0.00000000000E+00  0.11570154538E+03  0.11570154538E+03  0.00000000000E+00 0. -1.
          2   -1    0    0  502    0  0.00000000000E+00 -0.00000000000E+00 -0.62115831194E+03  0.62115831194E+03  0.00000000000E+00 0.  1.
          6    1    1    2  502    0  0.17519665922E+03  0.45762008665E+02 -0.12125407614E+03  0.27824374534E+03  0.17300000000E+03 0.  1.
         -6    1    1    2    0  501 -0.17519665922E+03 -0.45762008665E+02 -0.38420269042E+03  0.45861611198E+03  0.17300000000E+03 0. -1.
<mgrwt>
<rscale>  2 0.25043369E+03</rscale>
<asrwt>0</asrwt>
<pdfrwt beam="2">  1        2 0.95562818E-01 0.25043369E+03</pdfrwt>
<pdfrwt beam="1">  1       -2 0.17800238E-01 0.25043369E+03</pdfrwt>
<totfact> 0.12434749E+03</totfact>
</mgrwt>
</event>
<event>
 4    1  0.8249026E-001  0.1921829E+03  0.7546771E-02  0.1156507E+00
          2   -1    0    0  502    0  0.00000000000E+00  0.00000000000E+00  0.16686097009E+04  0.16686097009E+04  0.00000000000E+00 0.  1.
         -2   -1    0    0    0  501 -0.00000000000E+00 -0.00000000000E+00 -0.31975548031E+02  0.31975548031E+02  0.00000000000E+00 0. -1.
          6    1    1    2  502    0  0.77819169704E+02 -0.30812754799E+02  0.12900266594E+04  0.13042634055E+04  0.17300000000E+03 0.  1.
         -6    1    1    2    0  501 -0.77819169704E+02  0.30812754799E+02  0.34660749348E+03  0.39632184341E+03  0.17300000000E+03 0. -1.
<mgrwt>
<rscale>  2 0.19218285E+03</rscale>
<asrwt>0</asrwt>
<pdfrwt beam="1">  1        2 0.25670912E+00 0.19218285E+03</pdfrwt>
<pdfrwt beam="2">  1       -2 0.49193164E-02 0.19218285E+03</pdfrwt>
<totfact> 0.22322150E+03</totfact>
</mgrwt>
</event>
<event>
 4    1  0.8249026E-001  0.2577555E+03  0.7546771E-02  0.1108499E+00
         -1   -1    0    0    0  501 -0.00000000000E+00  0.00000000000E+00  0.59600044477E+02  0.59600044477E+02  0.00000000000E+00 0. -1.
          1   -1    0    0  502    0  0.00000000000E+00 -0.00000000000E+00 -0.13346754241E+04  0.13346754241E+04  0.00000000000E+00 0.  1.
          6    1    1    2  502    0  0.18706791548E+03 -0.38916369212E+02 -0.35453578171E+03  0.43833036549E+03  0.17300000000E+03 0. -1.
         -6    1    1    2    0  501 -0.18706791548E+03  0.38916369212E+02 -0.92053959791E+03  0.95594510309E+03  0.17300000000E+03 0.  1.
<mgrwt>
<rscale>  2 0.25775548E+03</rscale>
<asrwt>0</asrwt>
<pdfrwt beam="2">  1        1 0.20533468E+00 0.25775548E+03</pdfrwt>
<pdfrwt beam="1">  1       -1 0.91692375E-02 0.25775548E+03</pdfrwt>
<totfact> 0.64675325E+02</totfact>
</mgrwt>
</event>
<event>
 4    1  0.8249026E-001  0.2026164E+03  0.7546771E-02  0.1147550E+00
         -2   -1    0    0    0  501 -0.00000000000E+00  0.00000000000E+00  0.38785761546E+02  0.38785761546E+02  0.00000000000E+00 0. -1.
          2   -1    0    0  502    0  0.00000000000E+00 -0.00000000000E+00 -0.12072143995E+04  0.12072143995E+04  0.00000000000E+00 0.  1.
          6    1    1    2  502    0  0.75042009136E+02  0.74115579497E+02 -0.80290062265E+03  0.82807175541E+03  0.17300000000E+03 0.  1.
         -6    1    1    2    0  501 -0.75042009136E+02 -0.74115579497E+02 -0.36552801527E+03  0.41792840559E+03  0.17300000000E+03 0. -1.
<mgrwt>
<rscale>  2 0.20261644E+03</rscale>
<asrwt>0</asrwt>
<pdfrwt beam="2">  1        2 0.18572527E+00 0.20261644E+03</pdfrwt>
<pdfrwt beam="1">  1       -2 0.59670410E-02 0.20261644E+03</pdfrwt>
<totfact> 0.29427811E+03</totfact>
</mgrwt>
</event>
<event>
 4    1  0.8249026E-001  0.2247133E+03  0.7546771E-02  0.1130417E+00
         -1   -1    0    0    0  501 -0.00000000000E+00  0.00000000000E+00  0.72061643174E+03  0.72061643174E+03  0.00000000000E+00 0.  1.
          1   -1    0    0  502    0  0.00000000000E+00 -0.00000000000E+00 -0.72485743661E+02  0.72485743661E+02  0.00000000000E+00 0. -1.
          6    1    1    2  502    0  0.12552215864E+03 -0.69363104449E+02  0.25172321300E+03  0.33743240587E+03  0.17300000000E+03 0. -1.
         -6    1    1    2    0  501 -0.12552215864E+03  0.69363104449E+02  0.39640747508E+03  0.45566976953E+03  0.17300000000E+03 0.  1.
<mgrwt>
<rscale>  2 0.22471327E+03</rscale>
<asrwt>0</asrwt>
<pdfrwt beam="2">  1        1 0.11151653E-01 0.22471327E+03</pdfrwt>
<pdfrwt beam="1">  1       -1 0.11086406E+00 0.22471327E+03</pdfrwt>
<totfact> 0.44188657E+02</totfact>
</mgrwt>
</event>
<event>
 4    1  0.8249026E-001  0.1809922E+03  0.7546771E-02  0.1166846E+00
         -2   -1    0    0    0  501 -0.00000000000E+00  0.00000000000E+00  0.12891331565E+03  0.12891331565E+03  0.00000000000E+00 0.  1.
          2   -1    0    0  502    0  0.00000000000E+00 -0.00000000000E+00 -0.30533836945E+03  0.30533836945E+03  0.00000000000E+00 0. -1.
          6    1    1    2  502    0  0.33205160375E+02 -0.41552273191E+02  0.72308877547E+00  0.18099363784E+03  0.17300000000E+03 0.  1.
         -6    1    1    2    0  501 -0.33205160375E+02  0.41552273191E+02 -0.17714814258E+03  0.25325804726E+03  0.17300000000E+03 0. -1.
<mgrwt>
<rscale>  2 0.18099219E+03</rscale>
<asrwt>0</asrwt>
<pdfrwt beam="2">  1        2 0.46975134E-01 0.18099219E+03</pdfrwt>
<pdfrwt beam="1">  1       -2 0.19832818E-01 0.18099219E+03</pdfrwt>
<totfact> 0.22526085E+03</totfact>
</mgrwt>
</event>
<event>
 4    1  0.8249026E-001  0.2088662E+03  0.7546771E-02  0.1142467E+00
         -1   -1    0    0    0  501 -0.00000000000E+00  0.00000000000E+00  0.50864973082E+02  0.50864973082E+02  0.00000000000E+00 0.  1.
          1   -1    0    0  502    0  0.00000000000E+00 -0.00000000000E+00 -0.13825487107E+04  0.13825487107E+04  0.00000000000E+00 0. -1.
          6    1    1    2  502    0  0.32626133591E+02 -0.11239045374E+03 -0.11074459807E+04  0.11269701322E+04  0.17300000000E+03 0. -1.
         -6    1    1    2    0  501 -0.32626133591E+02  0.11239045374E+03 -0.22423775693E+03  0.30644355160E+03  0.17300000000E+03 0.  1.
<mgrwt>
<rscale>  2 0.20886617E+03</rscale>
<asrwt>0</asrwt>
<pdfrwt beam="2">  1        1 0.21269981E+00 0.20886617E+03</pdfrwt>
<pdfrwt beam="1">  1       -1 0.78253801E-02 0.20886617E+03</pdfrwt>
<totfact> 0.76921323E+02</totfact>
</mgrwt>
</event>
<event>
 4    1  0.8249026E-001  0.1853897E+03  0.7546771E-02  0.1162686E+00
         -3   -1    0    0    0  501 -0.00000000000E+00  0.00000000000E+00  0.27997434433E+03  0.27997434433E+03  0.00000000000E+00 0. -1.
          3   -1    0    0  502    0  0.00000000000E+00 -0.00000000000E+00 -0.17282015434E+03  0.17282015434E+03  0.00000000000E+00 0.  1.
          6    1    1    2  502    0 -0.27030135316E+02 -0.60907397667E+02  0.17542690752E+03  0.25523310754E+03  0.17300000000E+03 0. -1.
         -6    1    1    2    0  501  0.27030135316E+02  0.60907397667E+02 -0.68272717525E+02  0.19756139113E+03  0.17300000000E+03 0.  1.
<mgrwt>
<rscale>  2 0.18538970E+03</rscale>
<asrwt>0</asrwt>
<pdfrwt beam="2">  1        3 0.26587716E-01 0.18538970E+03</pdfrwt>
<pdfrwt beam="1">  1       -3 0.43072976E-01 0.18538970E+03</pdfrwt>
<totfact> 0.17482449E+02</totfact>
</mgrwt>
</event>
<event>
 4    1  0.8249026E-001  0.1791065E+03  0.7546771E-02  0.1168671E+00
         -2   -1    0    0    0  501 -0.00000000000E+00  0.00000000000E+00  0.55763825477E+02  0.55763825477E+02  0.00000000000E+00 0.  1.
          2   -1    0    0  502    0  0.00000000000E+00 -0.00000000000E+00 -0.63200544873E+03  0.63200544873E+03  0.00000000000E+00 0. -1.
          6    1    1    2  502    0  0.23987741748E+02  0.39682981331E+02 -0.18508532537E+03  0.25755723330E+03  0.17300000000E+03 0.  1.
         -6    1    1    2    0  501 -0.23987741748E+02 -0.39682981331E+02 -0.39115629789E+03  0.43021204091E+03  0.17300000000E+03 0. -1.
<mgrwt>
<rscale>  2 0.17910653E+03</rscale>
<asrwt>0</asrwt>
<pdfrwt beam="2">  1        2 0.97231613E-01 0.17910653E+03</pdfrwt>
<pdfrwt beam="1">  1       -2 0.85790496E-02 0.17910653E+03</pdfrwt>
<totfact> 0.39488104E+03</totfact>
</mgrwt>
</event>
<event>
 4    1  0.8249026E-001  0.2092561E+03  0.7546771E-02  0.1142156E+00
         -4   -1    0    0    0  501 -0.00000000000E+00  0.00000000000E+00  0.63578728210E+03  0.63578728210E+03  0.00000000000E+00 0.  1.
          4   -1    0    0  502    0  0.00000000000E+00 -0.00000000000E+00 -0.20498136145E+03  0.20498136145E+03  0.00000000000E+00 0. -1.
          6    1    1    2  502    0  0.86156534816E+02  0.80225745954E+02  0.55795998498E+03  0.59590893906E+03  0.17300000000E+03 0.  1.
         -6    1    1    2    0  501 -0.86156534816E+02 -0.80225745954E+02 -0.12715406433E+03  0.24485970449E+03  0.17300000000E+03 0. -1.
<mgrwt>
<rscale>  2 0.20925611E+03</rscale>
<asrwt>0</asrwt>
<pdfrwt beam="2">  1        4 0.31535594E-01 0.20925611E+03</pdfrwt>
<pdfrwt beam="1">  1       -4 0.97813427E-01 0.20925611E+03</pdfrwt>
<totfact> 0.15503661E+01</totfact>
</mgrwt>
</event>
<event>
 4    1  0.8249026E-001  0.1993450E+03  0.7546771E-02  0.1150293E+00
         -2   -1    0    0    0  501 -0.00000000000E+00  0.00000000000E+00  0.26635173464E+03  0.26635173464E+03  0.00000000000E+00 0.  1.
          2   -1    0    0  502    0  0.00000000000E+00 -0.00000000000E+00 -0.15370884288E+03  0.15370884288E+03  0.00000000000E+00 0. -1.
          6    1    1    2  502    0 -0.58118268658E+02 -0.80197763960E+02  0.92312414893E+02  0.21968157965E+03  0.17300000000E+03 0. -1.
         -6    1    1    2    0  501  0.58118268658E+02  0.80197763960E+02  0.20330476874E+02  0.20037899787E+03  0.17300000000E+03 0. -1.
<mgrwt>
<rscale>  2 0.19934496E+03</rscale>
<asrwt>0</asrwt>
<pdfrwt beam="2">  1        2 0.23647514E-01 0.19934496E+03</pdfrwt>
<pdfrwt beam="1">  1       -2 0.40977190E-01 0.19934496E+03</pdfrwt>
<totfact> 0.12920247E+03</totfact>
</mgrwt>
</event>
<event>
 4    1  0.8249026E-001  0.2077207E+03  0.7546771E-02  0.1143384E+00
         -1   -1    0    0    0  501 -0.00000000000E+00  0.00000000000E+00  0.14053079432E+03  0.14053079432E+03  0.00000000000E+00 0. -1.
          1   -1    0    0  502    0  0.00000000000E+00 -0.00000000000E+00 -0.30937274966E+03  0.30937274966E+03  0.00000000000E+00 0.  1.
          6    1    1    2  502    0 -0.11104313435E+03 -0.29804838900E+02 -0.64867449455E+02  0.21761363034E+03  0.17300000000E+03 0. -1.
         -6    1    1    2    0  501  0.11104313435E+03  0.29804838900E+02 -0.10397450588E+03  0.23228991365E+03  0.17300000000E+03 0. -1.
<mgrwt>
<rscale>  2 0.20772074E+03</rscale>
<asrwt>0</asrwt>
<pdfrwt beam="2">  1        1 0.47595807E-01 0.20772074E+03</pdfrwt>
<pdfrwt beam="1">  1       -1 0.21620122E-01 0.20772074E+03</pdfrwt>
<totfact> 0.14860934E+03</totfact>
</mgrwt>
</event>
<event>
 4    1  0.8249026E-001  0.2005701E+03  0.7546771E-02  0.1149259E+00
          2   -1    0    0  502    0  0.00000000000E+00  0.00000000000E+00  0.13855149820E+04  0.13855149820E+04  0.00000000000E+00 0.  1.
         -2   -1    0    0    0  501 -0.00000000000E+00 -0.00000000000E+00 -0.29665970299E+02  0.29665970299E+02  0.00000000000E+00 0. -1.
          6    1    1    2  502    0  0.36604724744E+02 -0.94654495021E+02  0.78112199511E+03  0.80646137573E+03  0.17300000000E+03 0. -1.
         -6    1    1    2    0  501 -0.36604724744E+02  0.94654495021E+02  0.57472701664E+03  0.60871957661E+03  0.17300000000E+03 0.  1.
<mgrwt>
<rscale>  2 0.20057014E+03</rscale>
<asrwt>0</asrwt>
<pdfrwt beam="1">  1        2 0.21315610E+00 0.20057014E+03</pdfrwt>
<pdfrwt beam="2">  1       -2 0.45639965E-02 0.20057014E+03</pdfrwt>
<totfact> 0.35286232E+03</totfact>
</mgrwt>
</event>
<event>
 4    1  0.8249026E-001  0.1968970E+03  0.7546771E-02  0.1152384E+00
          2   -1    0    0  502    0  0.00000000000E+00  0.00000000000E+00  0.66767010131E+03  0.66767010131E+03  0.00000000000E+00 0.  1.
         -2   -1    0    0    0  501 -0.00000000000E+00 -0.00000000000E+00 -0.58217945055E+02  0.58217945055E+02  0.00000000000E+00 0. -1.
          6    1    1    2  502    0  0.69285924153E+02 -0.63552341603E+02  0.32331295980E+03  0.37854948076E+03  0.17300000000E+03 0. -1.
         -6    1    1    2    0  501 -0.69285924153E+02  0.63552341603E+02  0.28613919645E+03  0.34733856560E+03  0.17300000000E+03 0. -1.
<mgrwt>
<rscale>  2 0.19689703E+03</rscale>
<asrwt>0</asrwt>
<pdfrwt beam="1">  1        2 0.10271847E+00 0.19689703E+03</pdfrwt>
<pdfrwt beam="2">  1       -2 0.89566074E-02 0.19689703E+03</pdfrwt>
<totfact> 0.34714362E+03</totfact>
</mgrwt>
</event>
<event>
 4    1  0.8249026E-001  0.1797639E+03  0.7546771E-02  0.1168032E+00
          1   -1    0    0  502    0  0.00000000000E+00  0.00000000000E+00  0.26170152609E+03  0.26170152609E+03  0.00000000000E+00 0.  1.
         -1   -1    0    0    0  501 -0.00000000000E+00 -0.00000000000E+00 -0.18957813935E+03  0.18957813935E+03  0.00000000000E+00 0. -1.
          6    1    1    2  502    0 -0.95558394542E+01  0.47903447420E+02 -0.97172094828E+02  0.20434644689E+03  0.17300000000E+03 0. -1.
         -6    1    1    2    0  501  0.95558394542E+01 -0.47903447420E+02  0.16929548157E+03  0.24693321855E+03  0.17300000000E+03 0. -1.
<mgrwt>
<rscale>  2 0.17976388E+03</rscale>
<asrwt>0</asrwt>
<pdfrwt beam="1">  1        1 0.40261773E-01 0.17976388E+03</pdfrwt>
<pdfrwt beam="2">  1       -1 0.29165868E-01 0.17976388E+03</pdfrwt>
<totfact> 0.11120837E+03</totfact>
</mgrwt>
</event>
<event>
 4    1  0.8249026E-001  0.1965205E+03  0.7546771E-02  0.1152708E+00
          1   -1    0    0  502    0  0.00000000000E+00  0.00000000000E+00  0.46053552945E+03  0.46053552945E+03  0.00000000000E+00 0. -1.
         -1   -1    0    0    0  501 -0.00000000000E+00 -0.00000000000E+00 -0.10672738741E+03  0.10672738741E+03  0.00000000000E+00 0.  1.
          6    1    1    2  502    0 -0.65592480438E+01 -0.92996210498E+02  0.30819316872E+03  0.36551791768E+03  0.17300000000E+03 0.  1.
         -6    1    1    2    0  501  0.65592480438E+01  0.92996210498E+02  0.45614973324E+02  0.20174499918E+03  0.17300000000E+03 0.  1.
<mgrwt>
<rscale>  2 0.19652053E+03</rscale>
<asrwt>0</asrwt>
<pdfrwt beam="1">  1        1 0.70851619E-01 0.19652053E+03</pdfrwt>
<pdfrwt beam="2">  1       -1 0.16419598E-01 0.19652053E+03</pdfrwt>
<totfact> 0.13944100E+03</totfact>
</mgrwt>
</event>
<event>
 4    1  0.8249026E-001  0.1826691E+03  0.7546771E-02  0.1165245E+00
          2   -1    0    0  502    0  0.00000000000E+00  0.00000000000E+00  0.78061690294E+03  0.78061690294E+03  0.00000000000E+00 0.  1.
         -2   -1    0    0    0  501 -0.00000000000E+00 -0.00000000000E+00 -0.56878392418E+02  0.56878392418E+02  0.00000000000E+00 0. -1.
          6    1    1    2  502    0  0.33643411620E+02 -0.48032410104E+02  0.57060251588E+03  0.59912871964E+03  0.17300000000E+03 0.  1.
         -6    1    1    2    0  501 -0.33643411620E+02  0.48032410104E+02  0.15313599464E+03  0.23836657572E+03  0.17300000000E+03 0. -1.
<mgrwt>
<rscale>  2 0.18266908E+03</rscale>
<asrwt>0</asrwt>
<pdfrwt beam="1">  1        2 0.12009490E+00 0.18266908E+03</pdfrwt>
<pdfrwt beam="2">  1       -2 0.87505225E-02 0.18266908E+03</pdfrwt>
<totfact> 0.29709098E+03</totfact>
</mgrwt>
</event>
<event>
 4    1  0.8249026E-001  0.2602020E+03  0.7546771E-02  0.1107022E+00
          3   -1    0    0  502    0  0.00000000000E+00  0.00000000000E+00  0.63901353307E+03  0.63901353307E+03  0.00000000000E+00 0. -1.
         -3   -1    0    0    0  501 -0.00000000000E+00 -0.00000000000E+00 -0.14172233832E+03  0.14172233832E+03  0.00000000000E+00 0.  1.
          6    1    1    2  502    0 -0.77958326739E+02  0.17804089208E+03  0.52529304480E+02  0.26545129080E+03  0.17300000000E+03 0.  1.
         -6    1    1    2    0  501  0.77958326739E+02 -0.17804089208E+03  0.44476189027E+03  0.51528458059E+03  0.17300000000E+03 0. -1.
<mgrwt>
<rscale>  2 0.26020196E+03</rscale>
<asrwt>0</asrwt>
<pdfrwt beam="1">  1        3 0.98309773E-01 0.26020196E+03</pdfrwt>
<pdfrwt beam="2">  1       -3 0.21803437E-01 0.26020196E+03</pdfrwt>
<totfact> 0.45087527E+01</totfact>
</mgrwt>
</event>
<event>
 4    1  0.8249026E-001  0.2179137E+03  0.7546771E-02  0.1135448E+00
          1   -1    0    0  502    0  0.00000000000E+00  0.00000000000E+00  0.74289092777E+03  0.74289092777E+03  0.00000000000E+00 0. -1.
         -1   -1    0    0    0  501 -0.00000000000E+00 -0.00000000000E+00 -0.71728445940E+02  0.71728445940E+02  0.00000000000E+00 0.  1.
          6    1    1    2  502    0  0.13216187030E+03  0.95185999195E+01  0.46996051670E+03  0.51802437295E+03  0.17300000000E+03 0. -1.
         -6    1    1    2    0  501 -0.13216187030E+03 -0.95185999195E+01  0.20120196512E+03  0.29659500076E+03  0.17300000000E+03 0.  1.
<mgrwt>
<rscale>  2 0.21791366E+03</rscale>
<asrwt>0</asrwt>
<pdfrwt beam="1">  1        1 0.11429091E+00 0.21791366E+03</pdfrwt>
<pdfrwt beam="2">  1       -1 0.11035146E-01 0.21791366E+03</pdfrwt>
<totfact> 0.13476682E+03</totfact>
</mgrwt>
</event>
<event>
 4    1  0.8249026E-001  0.1819919E+03  0.7546771E-02  0.1165889E+00
          2   -1    0    0  502    0  0.00000000000E+00  0.00000000000E+00  0.18832558517E+03  0.18832558517E+03  0.00000000000E+00 0.  1.
         -2   -1    0    0    0  501 -0.00000000000E+00 -0.00000000000E+00 -0.20051089436E+03  0.20051089436E+03  0.00000000000E+00 0. -1.
          6    1    1    2  502    0 -0.50595600184E+02 -0.25142600292E+02 -0.74245628971E+02  0.19655400919E+03  0.17300000000E+03 0. -1.
         -6    1    1    2    0  501  0.50595600184E+02  0.25142600292E+02  0.62060319787E+02  0.19228247034E+03  0.17300000000E+03 0. -1.
<mgrwt>
<rscale>  2 0.18199194E+03</rscale>
<asrwt>0</asrwt>
<pdfrwt beam="1">  1        2 0.28973167E-01 0.18199194E+03</pdfrwt>
<pdfrwt beam="2">  1       -2 0.30847830E-01 0.18199194E+03</pdfrwt>
<totfact> 0.17468929E+03</totfact>
</mgrwt>
</event>
<event>
 4    1  0.8249026E-001  0.4830206E+03  0.7546771E-02  0.1018308E+00
         -1   -1    0    0    0  501 -0.00000000000E+00  0.00000000000E+00  0.15209552590E+03  0.15209552590E+03  0.00000000000E+00 0.  1.
          1   -1    0    0  502    0  0.00000000000E+00 -0.00000000000E+00 -0.15887176493E+04  0.15887176493E+04  0.00000000000E+00 0. -1.
          6    1    1    2  502    0 -0.44184011160E+03  0.90317140584E+02 -0.87989951716E+03  0.10037589503E+04  0.17300000000E+03 0.  1.
         -6    1    1    2    0  501  0.44184011160E+03 -0.90317140584E+02 -0.55672260628E+03  0.73705422490E+03  0.17300000000E+03 0. -1.
<mgrwt>
<rscale>  2 0.48302057E+03</rscale>
<asrwt>0</asrwt>
<pdfrwt beam="2">  1        1 0.24441810E+00 0.48302057E+03</pdfrwt>
<pdfrwt beam="1">  1       -1 0.23399311E-01 0.48302057E+03</pdfrwt>
<totfact> 0.94169086E+01</totfact>
</mgrwt>
</event>
<event>
 4    1  0.8249026E-001  0.2215318E+03  0.7546771E-02  0.1132746E+00
          2   -1    0    0  502    0  0.00000000000E+00  0.00000000000E+00  0.52940716417E+02  0.52940716417E+02  0.00000000000E+00 0.  1.
         -2   -1    0    0    0  501 -0.00000000000E+00 -0.00000000000E+00 -0.16037742110E+04  0.16037742110E+04  0.00000000000E+00 0. -1.
          6    1    1    2  502    0 -0.13381104874E+03 -0.35241078553E+02 -0.23731259597E+03  0.32464380263E+03  0.17300000000E+03 0.  1.
         -6    1    1    2    0  501  0.13381104874E+03  0.35241078553E+02 -0.13135208986E+04  0.13320711248E+04  0.17300000000E+03 0. -1.
<mgrwt>
<rscale>  2 0.22153178E+03</rscale>
<asrwt>0</asrwt>
<pdfrwt beam="1">  1        2 0.81447267E-02 0.22153178E+03</pdfrwt>
<pdfrwt beam="2">  1       -2 0.24673446E+00 0.22153178E+03</pdfrwt>
<totfact> 0.62619661E+01</totfact>
</mgrwt>
</event>
<event>
 4    1  0.8249026E-001  0.1885021E+03  0.7546771E-02  0.1159819E+00
         -3   -1    0    0    0  501 -0.00000000000E+00  0.00000000000E+00  0.24727773893E+03  0.24727773893E+03  0.00000000000E+00 0. -1.
          3   -1    0    0  502    0  0.00000000000E+00 -0.00000000000E+00 -0.14536609318E+03  0.14536609318E+03  0.00000000000E+00 0.  1.
          6    1    1    2  502    0 -0.50575136932E+02  0.55192480857E+02  0.71992896159E+02  0.20178213874E+03  0.17300000000E+03 0. -1.
         -6    1    1    2    0  501  0.50575136932E+02 -0.55192480857E+02  0.29918749596E+02  0.19086169337E+03  0.17300000000E+03 0.  1.
<mgrwt>
<rscale>  2 0.18850213E+03</rscale>
<asrwt>0</asrwt>
<pdfrwt beam="2">  1        3 0.22364014E-01 0.18850213E+03</pdfrwt>
<pdfrwt beam="1">  1       -3 0.38042729E-01 0.18850213E+03</pdfrwt>
<totfact> 0.30510969E+02</totfact>
</mgrwt>
</event>
<event>
 4    1  0.8249026E-001  0.1867454E+03  0.7546771E-02  0.1161430E+00
         -2   -1    0    0    0  501 -0.00000000000E+00  0.00000000000E+00  0.16137657866E+02  0.16137657866E+02  0.00000000000E+00 0. -1.
          2   -1    0    0  502    0  0.00000000000E+00 -0.00000000000E+00 -0.22685804729E+04  0.22685804729E+04  0.00000000000E+00 0.  1.
          6    1    1    2  502    0  0.60344059889E+02 -0.36103177781E+02 -0.87748094715E+03  0.89713246381E+03  0.17300000000E+03 0. -1.
         -6    1    1    2    0  501 -0.60344059889E+02  0.36103177781E+02 -0.13749618678E+04  0.13875856669E+04  0.17300000000E+03 0.  1.
<mgrwt>
<rscale>  2 0.18674540E+03</rscale>
<asrwt>0</asrwt>
<pdfrwt beam="2">  1        2 0.34901232E+00 0.18674540E+03</pdfrwt>
<pdfrwt beam="1">  1       -2 0.24827171E-02 0.18674540E+03</pdfrwt>
<totfact> 0.30152894E+03</totfact>
</mgrwt>
</event>
<event>
 4    1  0.8249026E-001  0.1974044E+03  0.7546771E-02  0.1151948E+00
          1   -1    0    0  502    0  0.00000000000E+00  0.00000000000E+00  0.13615694550E+04  0.13615694550E+04  0.00000000000E+00 0. -1.
         -1   -1    0    0    0  501 -0.00000000000E+00 -0.00000000000E+00 -0.28998857580E+02  0.28998857580E+02  0.00000000000E+00 0.  1.
          6    1    1    2  502    0  0.41714635588E+02 -0.85436508453E+02  0.74572647099E+03  0.77141200233E+03  0.17300000000E+03 0. -1.
         -6    1    1    2    0  501 -0.41714635588E+02  0.85436508453E+02  0.58684412640E+03  0.61915631023E+03  0.17300000000E+03 0.  1.
<mgrwt>
<rscale>  2 0.19740443E+03</rscale>
<asrwt>0</asrwt>
<pdfrwt beam="1">  1        1 0.20947217E+00 0.19740443E+03</pdfrwt>
<pdfrwt beam="2">  1       -1 0.44613638E-02 0.19740443E+03</pdfrwt>
<totfact> 0.18509376E+03</totfact>
</mgrwt>
</event>
<event>
 4    1  0.8249026E-001  0.1851385E+03  0.7546771E-02  0.1162921E+00
          2   -1    0    0  502    0  0.00000000000E+00  0.00000000000E+00  0.18486842028E+03  0.18486842028E+03  0.00000000000E+00 0. -1.
         -2   -1    0    0    0  501 -0.00000000000E+00 -0.00000000000E+00 -0.22528588291E+03  0.22528588291E+03  0.00000000000E+00 0.  1.
          6    1    1    2  502    0  0.27422245132E+02  0.59960766767E+02 -0.10648885660E+03  0.21357937555E+03  0.17300000000E+03 0.  1.
         -6    1    1    2    0  501 -0.27422245132E+02 -0.59960766767E+02  0.66071393970E+02  0.19657492765E+03  0.17300000000E+03 0. -1.
<mgrwt>
<rscale>  2 0.18513852E+03</rscale>
<asrwt>0</asrwt>
<pdfrwt beam="1">  1        2 0.28441296E-01 0.18513852E+03</pdfrwt>
<pdfrwt beam="2">  1       -2 0.34659366E-01 0.18513852E+03</pdfrwt>
<totfact> 0.14402351E+03</totfact>
</mgrwt>
</event>
<event>
 4    1  0.8249026E-001  0.1850726E+03  0.7546771E-02  0.1162982E+00
          3   -1    0    0  502    0  0.00000000000E+00  0.00000000000E+00  0.47231574224E+02  0.47231574224E+02  0.00000000000E+00 0.  1.
         -3   -1    0    0    0  501 -0.00000000000E+00 -0.00000000000E+00 -0.72894575724E+03  0.72894575724E+03  0.00000000000E+00 0. -1.
          6    1    1    2  502    0  0.11197095381E+02 -0.64788164155E+02 -0.31300147928E+03  0.36362316647E+03  0.17300000000E+03 0.  1.
         -6    1    1    2    0  501 -0.11197095381E+02  0.64788164155E+02 -0.36871270373E+03  0.41255416499E+03  0.17300000000E+03 0. -1.
<mgrwt>
<rscale>  2 0.18507264E+03</rscale>
<asrwt>0</asrwt>
<pdfrwt beam="1">  1        3 0.72663959E-02 0.18507264E+03</pdfrwt>
<pdfrwt beam="2">  1       -3 0.11214550E+00 0.18507264E+03</pdfrwt>
<totfact> 0.20978794E+02</totfact>
</mgrwt>
</event>
<event>
 4    1  0.8249026E-001  0.1808653E+03  0.7546771E-02  0.1166968E+00
          2   -1    0    0  502    0  0.00000000000E+00  0.00000000000E+00  0.16457303926E+03  0.16457303926E+03  0.00000000000E+00 0. -1.
         -2   -1    0    0    0  501 -0.00000000000E+00 -0.00000000000E+00 -0.31696650661E+03  0.31696650661E+03  0.00000000000E+00 0.  1.
          6    1    1    2  502    0 -0.10036920583E+02  0.51792863428E+02 -0.22322368615E+03  0.28729959021E+03  0.17300000000E+03 0.  1.
         -6    1    1    2    0  501  0.10036920583E+02 -0.51792863428E+02  0.70830218809E+02  0.19423995566E+03  0.17300000000E+03 0. -1.
<mgrwt>
<rscale>  2 0.18086526E+03</rscale>
<asrwt>0</asrwt>
<pdfrwt beam="1">  1        2 0.25318929E-01 0.18086526E+03</pdfrwt>
<pdfrwt beam="2">  1       -2 0.48764078E-01 0.18086526E+03</pdfrwt>
<totfact> 0.85132271E+02</totfact>
</mgrwt>
</event>
<event>
 4    1  0.8249026E-001  0.2124144E+03  0.7546771E-02  0.1139668E+00
          2   -1    0    0  502    0  0.00000000000E+00  0.00000000000E+00  0.27183883772E+03  0.27183883772E+03  0.00000000000E+00 0. -1.
         -2   -1    0    0    0  501 -0.00000000000E+00 -0.00000000000E+00 -0.16634410907E+03  0.16634410907E+03  0.00000000000E+00 0.  1.
          6    1    1    2  502    0  0.70523928355E+02  0.10108040641E+03  0.62994436965E+02  0.22155850721E+03  0.17300000000E+03 0. -1.
         -6    1    1    2    0  501 -0.70523928355E+02 -0.10108040641E+03  0.42500291689E+02  0.21662443958E+03  0.17300000000E+03 0. -1.
<mgrwt>
<rscale>  2 0.21241439E+03</rscale>
<asrwt>0</asrwt>
<pdfrwt beam="1">  1        2 0.41821360E-01 0.21241439E+03</pdfrwt>
<pdfrwt beam="2">  1       -2 0.25591401E-01 0.21241439E+03</pdfrwt>
<totfact> 0.16475680E+03</totfact>
</mgrwt>
</event>
<event>
 4    1  0.8249026E-001  0.2041607E+03  0.7546771E-02  0.1146275E+00
          1   -1    0    0  502    0  0.00000000000E+00  0.00000000000E+00  0.87411953897E+02  0.87411953897E+02  0.00000000000E+00 0. -1.
         -1   -1    0    0    0  501 -0.00000000000E+00 -0.00000000000E+00 -0.76538736596E+03  0.76538736596E+03  0.00000000000E+00 0.  1.
          6    1    1    2  502    0  0.10836188803E+03 -0.32057899600E+01 -0.77178901531E+02  0.21826167485E+03  0.17300000000E+03 0. -1.
         -6    1    1    2    0  501 -0.10836188803E+03  0.32057899600E+01 -0.60079651053E+03  0.63453764501E+03  0.17300000000E+03 0.  1.
<mgrwt>
<rscale>  2 0.20416066E+03</rscale>
<asrwt>0</asrwt>
<pdfrwt beam="1">  1        1 0.13447993E-01 0.20416066E+03</pdfrwt>
<pdfrwt beam="2">  1       -1 0.11775190E+00 0.20416066E+03</pdfrwt>
<totfact> 0.29971454E+02</totfact>
</mgrwt>
</event>
<event>
 4    1  0.8249026E-001  0.1777675E+03  0.7546771E-02  0.1169981E+00
          1   -1    0    0  502    0  0.00000000000E+00  0.00000000000E+00  0.11648632836E+04  0.11648632836E+04  0.00000000000E+00 0.  1.
         -1   -1    0    0    0  501 -0.00000000000E+00 -0.00000000000E+00 -0.27238693749E+02  0.27238693749E+02  0.00000000000E+00 0. -1.
          6    1    1    2  502    0  0.19820916661E+02 -0.35768750203E+02  0.60668243151E+03  0.63219051316E+03  0.17300000000E+03 0. -1.
         -6    1    1    2    0  501 -0.19820916661E+02  0.35768750203E+02  0.53094215839E+03  0.55991146423E+03  0.17300000000E+03 0. -1.
<mgrwt>
<rscale>  2 0.17776747E+03</rscale>
<asrwt>0</asrwt>
<pdfrwt beam="1">  1        1 0.17920970E+00 0.17776747E+03</pdfrwt>
<pdfrwt beam="2">  1       -1 0.41905692E-02 0.17776747E+03</pdfrwt>
<totfact> 0.27642062E+03</totfact>
</mgrwt>
</event>
<event>
 4    1  0.8249026E-001  0.2101428E+03  0.7546771E-02  0.1141453E+00
         -2   -1    0    0    0  501 -0.00000000000E+00  0.00000000000E+00  0.56700048734E+02  0.56700048734E+02  0.00000000000E+00 0.  1.
          2   -1    0    0  502    0  0.00000000000E+00 -0.00000000000E+00 -0.15509818760E+04  0.15509818760E+04  0.00000000000E+00 0. -1.
          6    1    1    2  502    0  0.11443272379E+03  0.33707078574E+02 -0.13143152449E+04  0.13310088574E+04  0.17300000000E+03 0. -1.
         -6    1    1    2    0  501 -0.11443272379E+03 -0.33707078574E+02 -0.17996658229E+03  0.27667306729E+03  0.17300000000E+03 0.  1.
<mgrwt>
<rscale>  2 0.21014285E+03</rscale>
<asrwt>0</asrwt>
<pdfrwt beam="2">  1        2 0.23861256E+00 0.21014285E+03</pdfrwt>
<pdfrwt beam="1">  1       -2 0.87230856E-02 0.21014285E+03</pdfrwt>
<totfact> 0.10639594E+03</totfact>
</mgrwt>
</event>
<event>
 4    1  0.8249026E-001  0.1883109E+03  0.7546771E-02  0.1159994E+00
         -2   -1    0    0    0  501 -0.00000000000E+00  0.00000000000E+00  0.13144434688E+03  0.13144434688E+03  0.00000000000E+00 0.  1.
          2   -1    0    0  502    0  0.00000000000E+00 -0.00000000000E+00 -0.30333137685E+03  0.30333137685E+03  0.00000000000E+00 0. -1.
          6    1    1    2  502    0 -0.66863306770E+02  0.32577588206E+02 -0.13644147582E+02  0.18880456512E+03  0.17300000000E+03 0.  1.
         -6    1    1    2    0  501  0.66863306770E+02 -0.32577588206E+02 -0.15824288239E+03  0.24597115862E+03  0.17300000000E+03 0. -1.
<mgrwt>
<rscale>  2 0.18831092E+03</rscale>
<asrwt>0</asrwt>
<pdfrwt beam="2">  1        2 0.46666366E-01 0.18831092E+03</pdfrwt>
<pdfrwt beam="1">  1       -2 0.20222207E-01 0.18831092E+03</pdfrwt>
<totfact> 0.21975466E+03</totfact>
</mgrwt>
</event>
<event>
 4    1  0.8249026E-001  0.2403520E+03  0.7546771E-02  0.1119559E+00
         -1   -1    0    0    0  501 -0.00000000000E+00  0.00000000000E+00  0.27583475233E+02  0.27583475233E+02  0.00000000000E+00 0.  1.
          1   -1    0    0  502    0  0.00000000000E+00 -0.00000000000E+00 -0.22703170442E+04  0.22703170442E+04  0.00000000000E+00 0. -1.
          6    1    1    2  502    0 -0.60868093264E+02  0.15535498182E+03 -0.80148495045E+03  0.83674800325E+03  0.17300000000E+03 0.  1.
         -6    1    1    2    0  501  0.60868093264E+02 -0.15535498182E+03 -0.14412486185E+04  0.14611525162E+04  0.17300000000E+03 0. -1.
<mgrwt>
<rscale>  2 0.24035202E+03</rscale>
<asrwt>0</asrwt>
<pdfrwt beam="2">  1        1 0.34927951E+00 0.24035202E+03</pdfrwt>
<pdfrwt beam="1">  1       -1 0.42436120E-02 0.24035202E+03</pdfrwt>
<totfact> 0.50850633E+02</totfact>
</mgrwt>
</event>
<event>
 4    1  0.8249026E-001  0.2287738E+03  0.7546771E-02  0.1127506E+00
          1   -1    0    0  502    0  0.00000000000E+00  0.00000000000E+00  0.34681039589E+03  0.34681039589E+03  0.00000000000E+00 0. -1.
         -1   -1    0    0    0  501 -0.00000000000E+00 -0.00000000000E+00 -0.15939777842E+03  0.15939777842E+03  0.00000000000E+00 0.  1.
          6    1    1    2  502    0  0.96715566901E+02  0.11425648455E+03  0.35303494544E+02  0.23148170958E+03  0.17300000000E+03 0. -1.
         -6    1    1    2    0  501 -0.96715566901E+02 -0.11425648455E+03  0.15210912293E+03  0.27472646473E+03  0.17300000000E+03 0. -1.
<mgrwt>
<rscale>  2 0.22877379E+03</rscale>
<asrwt>0</asrwt>
<pdfrwt beam="1">  1        1 0.53355445E-01 0.22877379E+03</pdfrwt>
<pdfrwt beam="2">  1       -1 0.24522735E-01 0.22877379E+03</pdfrwt>
<totfact> 0.10470697E+03</totfact>
</mgrwt>
</event>
<event>
 4    1  0.8249026E-001  0.2815866E+03  0.7546771E-02  0.1094826E+00
          1   -1    0    0  502    0  0.00000000000E+00  0.00000000000E+00  0.40037778510E+03  0.40037778510E+03  0.00000000000E+00 0.  1.
         -1   -1    0    0    0  501 -0.00000000000E+00 -0.00000000000E+00 -0.83809760402E+03  0.83809760402E+03  0.00000000000E+00 0. -1.
          6    1    1    2  502    0 -0.12542620573E+03  0.18338564078E+03  0.32229230319E+03  0.42797588136E+03  0.17300000000E+03 0.  1.
         -6    1    1    2    0  501  0.12542620573E+03 -0.18338564078E+03 -0.76001212211E+03  0.81049950776E+03  0.17300000000E+03 0. -1.
<mgrwt>
<rscale>  2 0.28158662E+03</rscale>
<asrwt>0</asrwt>
<pdfrwt beam="1">  1        1 0.61596583E-01 0.28158662E+03</pdfrwt>
<pdfrwt beam="2">  1       -1 0.12893809E+00 0.28158662E+03</pdfrwt>
<totfact> 0.33979411E+01</totfact>
</mgrwt>
</event>
<event>
 4    1  0.8249026E-001  0.1929564E+03  0.7546771E-02  0.1155822E+00
         -2   -1    0    0    0  501 -0.00000000000E+00  0.00000000000E+00  0.53890598702E+02  0.53890598702E+02  0.00000000000E+00 0.  1.
          2   -1    0    0  502    0  0.00000000000E+00 -0.00000000000E+00 -0.74677709272E+03  0.74677709272E+03  0.00000000000E+00 0. -1.
          6    1    1    2  502    0  0.49811542628E+02  0.69440420923E+02 -0.23692027898E+03  0.30555421848E+03  0.17300000000E+03 0.  1.
         -6    1    1    2    0  501 -0.49811542628E+02 -0.69440420923E+02 -0.45596621503E+03  0.49511347294E+03  0.17300000000E+03 0. -1.
<mgrwt>
<rscale>  2 0.19295637E+03</rscale>
<asrwt>0</asrwt>
<pdfrwt beam="2">  1        2 0.11488878E+00 0.19295637E+03</pdfrwt>
<pdfrwt beam="1">  1       -2 0.82908617E-02 0.19295637E+03</pdfrwt>
<totfact> 0.34200158E+03</totfact>
</mgrwt>
</event>
<event>
 4    1  0.8249026E-001  0.2900149E+03  0.7546771E-02  0.1090341E+00
          2   -1    0    0  502    0  0.00000000000E+00  0.00000000000E+00  0.33157940990E+04  0.33157940990E+04  0.00000000000E+00 0.  1.
         -2   -1    0    0    0  501 -0.00000000000E+00 -0.00000000000E+00 -0.25369712684E+02  0.25369712684E+02  0.00000000000E+00 0. -1.
          6    1    1    2  502    0  0.39211261794E+02 -0.22943867590E+03  0.16251642385E+04  0.16508384025E+04  0.17300000000E+03 0.  1.
         -6    1    1    2    0  501 -0.39211261794E+02  0.22943867590E+03  0.16652601478E+04  0.16903254092E+04  0.17300000000E+03 0. -1.
<mgrwt>
<rscale>  2 0.29001488E+03</rscale>
<asrwt>0</asrwt>
<pdfrwt beam="1">  1        2 0.51012183E+00 0.29001488E+03</pdfrwt>
<pdfrwt beam="2">  1       -2 0.39030354E-02 0.29001488E+03</pdfrwt>
<totfact> 0.37879081E+02</totfact>
</mgrwt>
</event>
<event>
 4    1  0.8249026E-001  0.2412726E+03  0.7546771E-02  0.1118948E+00
         -1   -1    0    0    0  501 -0.00000000000E+00  0.00000000000E+00  0.24878409103E+03  0.24878409103E+03  0.00000000000E+00 0. -1.
          1   -1    0    0  502    0  0.00000000000E+00 -0.00000000000E+00 -0.23455437638E+03  0.23455437638E+03  0.00000000000E+00 0.  1.
          6    1    1    2  502    0  0.64277244506E+02 -0.15540890358E+03 -0.47606673576E+01  0.24131961260E+03  0.17300000000E+03 0.  1.
         -6    1    1    2    0  501 -0.64277244506E+02  0.15540890358E+03  0.18990382003E+02  0.24201885481E+03  0.17300000000E+03 0. -1.
<mgrwt>
<rscale>  2 0.24127265E+03</rscale>
<asrwt>0</asrwt>
<pdfrwt beam="2">  1        1 0.36085288E-01 0.24127265E+03</pdfrwt>
<pdfrwt beam="1">  1       -1 0.38274476E-01 0.24127265E+03</pdfrwt>
<totfact> 0.80109360E+02</totfact>
</mgrwt>
</event>
<event>
 4    1  0.8249026E-001  0.2613024E+03  0.7546771E-02  0.1106363E+00
          1   -1    0    0  502    0  0.00000000000E+00  0.00000000000E+00  0.84649213165E+03  0.84649213165E+03  0.00000000000E+00 0. -1.
         -1   -1    0    0    0  501 -0.00000000000E+00 -0.00000000000E+00 -0.85873560227E+02  0.85873560227E+02  0.00000000000E+00 0.  1.
          6    1    1    2  502    0  0.95483465363E+02 -0.17097617848E+03  0.49516429345E+03  0.55988090097E+03  0.17300000000E+03 0. -1.
         -6    1    1    2    0  501 -0.95483465363E+02  0.17097617848E+03  0.26545427798E+03  0.37248479091E+03  0.17300000000E+03 0.  1.
<mgrwt>
<rscale>  2 0.26130240E+03</rscale>
<asrwt>0</asrwt>
<pdfrwt beam="1">  1        1 0.13022955E+00 0.26130240E+03</pdfrwt>
<pdfrwt beam="2">  1       -1 0.13211318E-01 0.26130240E+03</pdfrwt>
<totfact> 0.83206546E+02</totfact>
</mgrwt>
</event>
<event>
 4    1  0.8249026E-001  0.2434583E+03  0.7546771E-02  0.1117510E+00
          2   -1    0    0  502    0  0.00000000000E+00  0.00000000000E+00  0.29340334368E+04  0.29340334368E+04  0.00000000000E+00 0. -1.
         -2   -1    0    0    0  501 -0.00000000000E+00 -0.00000000000E+00 -0.25822460971E+02  0.25822460971E+02  0.00000000000E+00 0.  1.
          6    1    1    2  502    0 -0.39179242487E+02  0.16675704188E+03  0.21445780345E+04  0.21583528141E+04  0.17300000000E+03 0. -1.
         -6    1    1    2    0  501  0.39179242487E+02 -0.16675704188E+03  0.76363294136E+03  0.80150308370E+03  0.17300000000E+03 0.  1.
<mgrwt>
<rscale>  2 0.24345826E+03</rscale>
<asrwt>0</asrwt>
<pdfrwt beam="1">  1        2 0.45138950E+00 0.24345826E+03</pdfrwt>
<pdfrwt beam="2">  1       -2 0.39726886E-02 0.24345826E+03</pdfrwt>
<totfact> 0.63678875E+02</totfact>
</mgrwt>
</event>
<event>
 4    1  0.8249026E-001  0.1829077E+03  0.7546771E-02  0.1165018E+00
          2   -1    0    0  502    0  0.00000000000E+00  0.00000000000E+00  0.17911543677E+03  0.17911543677E+03  0.00000000000E+00 0. -1.
         -2   -1    0    0    0  501 -0.00000000000E+00 -0.00000000000E+00 -0.24271938419E+03  0.24271938419E+03  0.00000000000E+00 0.  1.
          6    1    1    2  502    0  0.55868550098E+02 -0.20122673675E+02  0.69453443818E+02  0.19565019229E+03  0.17300000000E+03 0. -1.
         -6    1    1    2    0  501 -0.55868550098E+02  0.20122673675E+02 -0.13305739123E+03  0.22618462867E+03  0.17300000000E+03 0.  1.
<mgrwt>
<rscale>  2 0.18290767E+03</rscale>
<asrwt>0</asrwt>
<pdfrwt beam="1">  1        2 0.27556221E-01 0.18290767E+03</pdfrwt>
<pdfrwt beam="2">  1       -2 0.37341444E-01 0.18290767E+03</pdfrwt>
<totfact> 0.12970130E+03</totfact>
</mgrwt>
</event>
<event>
 4    1  0.8249026E-001  0.2026326E+03  0.7546771E-02  0.1147537E+00
          2   -1    0    0  502    0  0.00000000000E+00  0.00000000000E+00  0.13596601439E+04  0.13596601439E+04  0.00000000000E+00 0.  1.
         -2   -1    0    0    0  501 -0.00000000000E+00 -0.00000000000E+00 -0.36048987040E+02  0.36048987040E+02  0.00000000000E+00 0. -1.
          6    1    1    2  502    0 -0.83149035985E+02 -0.64939936639E+02  0.94293563847E+03  0.96446232475E+03  0.17300000000E+03 0.  1.
         -6    1    1    2    0  501  0.83149035985E+02  0.64939936639E+02  0.38067551843E+03  0.43124680623E+03  0.17300000000E+03 0. -1.
<mgrwt>
<rscale>  2 0.20263257E+03</rscale>
<asrwt>0</asrwt>
<pdfrwt beam="1">  1        2 0.20917844E+00 0.20263257E+03</pdfrwt>
<pdfrwt beam="2">  1       -2 0.55459991E-02 0.20263257E+03</pdfrwt>
<totfact> 0.27118565E+03</totfact>
</mgrwt>
</event>
<event>
 4    1  0.8249026E-001  0.3378069E+03  0.7546771E-02  0.1067734E+00
         -2   -1    0    0    0  501 -0.00000000000E+00  0.00000000000E+00  0.11055096273E+03  0.11055096273E+03  0.00000000000E+00 0.  1.
          2   -1    0    0  502    0  0.00000000000E+00 -0.00000000000E+00 -0.12233475701E+04  0.12233475701E+04  0.00000000000E+00 0. -1.
          6    1    1    2  502    0  0.40019210088E+02 -0.28737255936E+03 -0.29278139416E+03  0.44702848882E+03  0.17300000000E+03 0. -1.
         -6    1    1    2    0  501 -0.40019210088E+02  0.28737255936E+03 -0.82001521321E+03  0.88687004400E+03  0.17300000000E+03 0.  1.
<mgrwt>
<rscale>  2 0.33780693E+03</rscale>
<asrwt>0</asrwt>
<pdfrwt beam="2">  1        2 0.18820732E+00 0.33780693E+03</pdfrwt>
<pdfrwt beam="1">  1       -2 0.17007841E-01 0.33780693E+03</pdfrwt>
<totfact> 0.53628463E+02</totfact>
</mgrwt>
</event>
<event>
 4    1  0.8249026E-001  0.2568664E+03  0.7546771E-02  0.1109041E+00
         -2   -1    0    0    0  501 -0.00000000000E+00  0.00000000000E+00  0.13420760615E+03  0.13420760615E+03  0.00000000000E+00 0.  1.
          2   -1    0    0  502    0  0.00000000000E+00 -0.00000000000E+00 -0.50747818533E+03  0.50747818533E+03  0.00000000000E+00 0. -1.
          6    1    1    2  502    0 -0.18830023366E+03  0.24379563256E+02 -0.24333596617E+03  0.35382585199E+03  0.17300000000E+03 0. -1.
         -6    1    1    2    0  501  0.18830023366E+03 -0.24379563256E+02 -0.12993461301E+03  0.28785993949E+03  0.17300000000E+03 0. -1.
<mgrwt>
<rscale>  2 0.25686639E+03</rscale>
<asrwt>0</asrwt>
<pdfrwt beam="2">  1        2 0.78073569E-01 0.25686639E+03</pdfrwt>
<pdfrwt beam="1">  1       -2 0.20647324E-01 0.25686639E+03</pdfrwt>
<totfact> 0.12179501E+03</totfact>
</mgrwt>
</event>
<event>
 4    1  0.8249026E-001  0.2445610E+03  0.7546771E-02  0.1116791E+00
         -1   -1    0    0    0  501 -0.00000000000E+00  0.00000000000E+00  0.21814382281E+03  0.21814382281E+03  0.00000000000E+00 0. -1.
          1   -1    0    0  502    0  0.00000000000E+00 -0.00000000000E+00 -0.43353450115E+03  0.43353450115E+03  0.00000000000E+00 0.  1.
          6    1    1    2  502    0  0.12037739085E+03 -0.12405792877E+03  0.89854774832E+02  0.26054551710E+03  0.17300000000E+03 0. -1.
         -6    1    1    2    0  501 -0.12037739085E+03  0.12405792877E+03 -0.30524545318E+03  0.39113280686E+03  0.17300000000E+03 0.  1.
<mgrwt>
<rscale>  2 0.24456101E+03</rscale>
<asrwt>0</asrwt>
<pdfrwt beam="2">  1        1 0.66697614E-01 0.24456101E+03</pdfrwt>
<pdfrwt beam="1">  1       -1 0.33560589E-01 0.24456101E+03</pdfrwt>
<totfact> 0.46240444E+02</totfact>
</mgrwt>
</event>
<event>
 4    1  0.8249026E-001  0.1771842E+03  0.7546771E-02  0.1170556E+00
          2   -1    0    0  502    0  0.00000000000E+00  0.00000000000E+00  0.34333831652E+03  0.34333831652E+03  0.00000000000E+00 0.  1.
         -2   -1    0    0    0  501 -0.00000000000E+00 -0.00000000000E+00 -0.98384589392E+02  0.98384589392E+02  0.00000000000E+00 0. -1.
          6    1    1    2  502    0  0.27424881936E+02 -0.26704304615E+02  0.63790747574E+02  0.18831756028E+03  0.17300000000E+03 0. -1.
         -6    1    1    2    0  501 -0.27424881936E+02  0.26704304615E+02  0.18116297956E+03  0.25340534563E+03  0.17300000000E+03 0. -1.
<mgrwt>
<rscale>  2 0.17718421E+03</rscale>
<asrwt>0</asrwt>
<pdfrwt beam="1">  1        2 0.52821279E-01 0.17718421E+03</pdfrwt>
<pdfrwt beam="2">  1       -2 0.15136091E-01 0.17718421E+03</pdfrwt>
<totfact> 0.31196891E+03</totfact>
</mgrwt>
</event>
<event>
 4    1  0.8249026E-001  0.2004686E+03  0.7546771E-02  0.1149344E+00
         -2   -1    0    0    0  501 -0.00000000000E+00  0.00000000000E+00  0.35858439949E+02  0.35858439949E+02  0.00000000000E+00 0. -1.
          2   -1    0    0  502    0  0.00000000000E+00 -0.00000000000E+00 -0.12478162270E+04  0.12478162270E+04  0.00000000000E+00 0.  1.
          6    1    1    2  502    0 -0.89682186240E+02  0.47071811765E+02 -0.81081094869E+03  0.83522574464E+03  0.17300000000E+03 0.  1.
         -6    1    1    2    0  501  0.89682186240E+02 -0.47071811765E+02 -0.40114683833E+03  0.44844892228E+03  0.17300000000E+03 0. -1.
<mgrwt>
<rscale>  2 0.20046858E+03</rscale>
<asrwt>0</asrwt>
<pdfrwt beam="2">  1        2 0.19197173E+00 0.20046858E+03</pdfrwt>
<pdfrwt beam="1">  1       -2 0.55166829E-02 0.20046858E+03</pdfrwt>
<totfact> 0.31481171E+03</totfact>
</mgrwt>
</event>
<event>
 4    1  0.8249026E-001  0.1977816E+03  0.7546771E-02  0.1151624E+00
          1   -1    0    0  502    0  0.00000000000E+00  0.00000000000E+00  0.20152357281E+03  0.20152357281E+03  0.00000000000E+00 0. -1.
         -1   -1    0    0    0  501 -0.00000000000E+00 -0.00000000000E+00 -0.19475100617E+03  0.19475100617E+03  0.00000000000E+00 0.  1.
          6    1    1    2  502    0 -0.15158069871E+02 -0.94650973883E+02  0.14760922855E+02  0.19833168880E+03  0.17300000000E+03 0.  1.
         -6    1    1    2    0  501  0.15158069871E+02  0.94650973883E+02 -0.79883562190E+01  0.19794289018E+03  0.17300000000E+03 0. -1.
<mgrwt>
<rscale>  2 0.19778163E+03</rscale>
<asrwt>0</asrwt>
<pdfrwt beam="1">  1        1 0.31003626E-01 0.19778163E+03</pdfrwt>
<pdfrwt beam="2">  1       -1 0.29961693E-01 0.19778163E+03</pdfrwt>
<totfact> 0.14761339E+03</totfact>
</mgrwt>
</event>
<event>
 4    1  0.8249026E-001  0.1802459E+03  0.7546771E-02  0.1167565E+00
          1   -1    0    0  502    0  0.00000000000E+00  0.00000000000E+00  0.48919601621E+03  0.48919601621E+03  0.00000000000E+00 0.  1.
         -1   -1    0    0    0  501 -0.00000000000E+00 -0.00000000000E+00 -0.14552828474E+03  0.14552828474E+03  0.00000000000E+00 0. -1.
          6    1    1    2  502    0 -0.43975475316E+02 -0.25014626694E+02  0.40583279644E+03  0.44405949223E+03  0.17300000000E+03 0.  1.
         -6    1    1    2    0  501  0.43975475316E+02  0.25014626694E+02 -0.62165064971E+02  0.19066480871E+03  0.17300000000E+03 0. -1.
<mgrwt>
<rscale>  2 0.18024587E+03</rscale>
<asrwt>0</asrwt>
<pdfrwt beam="1">  1        1 0.75260925E-01 0.18024587E+03</pdfrwt>
<pdfrwt beam="2">  1       -1 0.22388967E-01 0.18024587E+03</pdfrwt>
<totfact> 0.78096769E+02</totfact>
</mgrwt>
</event>
<event>
 4    1  0.8249026E-001  0.1920533E+03  0.7546771E-02  0.1156622E+00
          2   -1    0    0  502    0  0.00000000000E+00  0.00000000000E+00  0.13998757931E+04  0.13998757931E+04  0.00000000000E+00 0.  1.
         -2   -1    0    0    0  501 -0.00000000000E+00 -0.00000000000E+00 -0.27319268224E+02  0.27319268224E+02  0.00000000000E+00 0. -1.
          6    1    1    2  502    0  0.82048827476E+02  0.14948868800E+02  0.55175409232E+03  0.58422346509E+03  0.17300000000E+03 0. -1.
         -6    1    1    2    0  501 -0.82048827476E+02 -0.14948868800E+02  0.82080243253E+03  0.84297159621E+03  0.17300000000E+03 0.  1.
<mgrwt>
<rscale>  2 0.19205332E+03</rscale>
<asrwt>0</asrwt>
<pdfrwt beam="1">  1        2 0.21536545E+00 0.19205332E+03</pdfrwt>
<pdfrwt beam="2">  1       -2 0.42029654E-02 0.19205332E+03</pdfrwt>
<totfact> 0.39219968E+03</totfact>
</mgrwt>
</event>
<event>
 4    1  0.8249026E-001  0.1865081E+03  0.7546771E-02  0.1161649E+00
          2   -1    0    0  502    0  0.00000000000E+00  0.00000000000E+00  0.36913649521E+03  0.36913649521E+03  0.00000000000E+00 0. -1.
         -2   -1    0    0    0  501 -0.00000000000E+00 -0.00000000000E+00 -0.94691544445E+02  0.94691544445E+02  0.00000000000E+00 0.  1.
          6    1    1    2  502    0 -0.67255961331E+02  0.18245768573E+02  0.12110467191E+03  0.22237718850E+03  0.17300000000E+03 0.  1.
         -6    1    1    2    0  501  0.67255961331E+02 -0.18245768573E+02  0.15334027885E+03  0.24145085116E+03  0.17300000000E+03 0.  1.
<mgrwt>
<rscale>  2 0.18650810E+03</rscale>
<asrwt>0</asrwt>
<pdfrwt beam="1">  1        2 0.56790230E-01 0.18650810E+03</pdfrwt>
<pdfrwt beam="2">  1       -2 0.14567930E-01 0.18650810E+03</pdfrwt>
<totfact> 0.30796570E+03</totfact>
</mgrwt>
</event>
<event>
 4    1  0.8249026E-001  0.2487473E+03  0.7546771E-02  0.1114099E+00
          1   -1    0    0  502    0  0.00000000000E+00  0.00000000000E+00  0.48203605036E+03  0.48203605036E+03  0.00000000000E+00 0.  1.
         -1   -1    0    0    0  501 -0.00000000000E+00 -0.00000000000E+00 -0.12884791935E+03  0.12884791935E+03  0.00000000000E+00 0. -1.
          6    1    1    2  502    0  0.67014850338E+01 -0.17860944041E+03  0.19534621290E+03  0.31628370966E+03  0.17300000000E+03 0.  1.
         -6    1    1    2    0  501 -0.67014850338E+01  0.17860944041E+03  0.15784191811E+03  0.29460026005E+03  0.17300000000E+03 0.  1.
<mgrwt>
<rscale>  2 0.24874735E+03</rscale>
<asrwt>0</asrwt>
<pdfrwt beam="1">  1        1 0.74159392E-01 0.24874735E+03</pdfrwt>
<pdfrwt beam="2">  1       -1 0.19822757E-01 0.24874735E+03</pdfrwt>
<totfact> 0.97187845E+02</totfact>
</mgrwt>
</event>
<event>
 4    1  0.8249026E-001  0.2093168E+03  0.7546771E-02  0.1142108E+00
         -1   -1    0    0    0  501 -0.00000000000E+00  0.00000000000E+00  0.26086109962E+03  0.26086109962E+03  0.00000000000E+00 0.  1.
          1   -1    0    0  502    0  0.00000000000E+00 -0.00000000000E+00 -0.46681959272E+03  0.46681959272E+03  0.00000000000E+00 0. -1.
          6    1    1    2  502    0  0.11741678010E+01 -0.11782668735E+03 -0.39409917342E+03  0.44623722997E+03  0.17300000000E+03 0. -1.
         -6    1    1    2    0  501 -0.11741678010E+01  0.11782668735E+03  0.18814068031E+03  0.28144346237E+03  0.17300000000E+03 0.  1.
<mgrwt>
<rscale>  2 0.20931676E+03</rscale>
<asrwt>0</asrwt>
<pdfrwt beam="2">  1        1 0.71818398E-01 0.20931676E+03</pdfrwt>
<pdfrwt beam="1">  1       -1 0.40132477E-01 0.20931676E+03</pdfrwt>
<totfact> 0.30789445E+02</totfact>
</mgrwt>
</event>
<event>
 4    1  0.8249026E-001  0.1837182E+03  0.7546771E-02  0.1164252E+00
         -2   -1    0    0    0  501 -0.00000000000E+00  0.00000000000E+00  0.35305308022E+02  0.35305308022E+02  0.00000000000E+00 0.  1.
          2   -1    0    0  502    0  0.00000000000E+00 -0.00000000000E+00 -0.97371954917E+03  0.97371954917E+03  0.00000000000E+00 0. -1.
          6    1    1    2  502    0 -0.57073563648E+02 -0.23790545262E+02 -0.53723784896E+03  0.56778243022E+03  0.17300000000E+03 0. -1.
         -6    1    1    2    0  501  0.57073563648E+02  0.23790545262E+02 -0.40117639219E+03  0.44124242697E+03  0.17300000000E+03 0. -1.
<mgrwt>
<rscale>  2 0.18371821E+03</rscale>
<asrwt>0</asrwt>
<pdfrwt beam="2">  1        2 0.14980303E+00 0.18371821E+03</pdfrwt>
<pdfrwt beam="1">  1       -2 0.54315849E-02 0.18371821E+03</pdfrwt>
<totfact> 0.46412148E+03</totfact>
</mgrwt>
</event>
<event>
 4    1  0.8249026E-001  0.2029186E+03  0.7546771E-02  0.1147300E+00
          2   -1    0    0  502    0  0.00000000000E+00  0.00000000000E+00  0.31125193184E+03  0.31125193184E+03  0.00000000000E+00 0. -1.
         -2   -1    0    0    0  501 -0.00000000000E+00 -0.00000000000E+00 -0.25961950587E+03  0.25961950587E+03  0.00000000000E+00 0.  1.
          6    1    1    2  502    0 -0.40661923919E+02  0.97946837390E+02  0.22571109855E+03  0.30351519735E+03  0.17300000000E+03 0. -1.
         -6    1    1    2    0  501  0.40661923919E+02 -0.97946837390E+02 -0.17407867259E+03  0.26735624036E+03  0.17300000000E+03 0.  1.
<mgrwt>
<rscale>  2 0.20291864E+03</rscale>
<asrwt>0</asrwt>
<pdfrwt beam="1">  1        2 0.47884912E-01 0.20291864E+03</pdfrwt>
<pdfrwt beam="2">  1       -2 0.39941463E-01 0.20291864E+03</pdfrwt>
<totfact> 0.62901026E+02</totfact>
</mgrwt>
</event>
<event>
 4    1  0.8249026E-001  0.2739670E+03  0.7546771E-02  0.1099030E+00
          2   -1    0    0  502    0  0.00000000000E+00  0.00000000000E+00  0.24350702923E+04  0.24350702923E+04  0.00000000000E+00 0. -1.
         -2   -1    0    0    0  501 -0.00000000000E+00 -0.00000000000E+00 -0.31383189703E+02  0.31383189703E+02  0.00000000000E+00 0.  1.
          6    1    1    2  502    0 -0.18431056969E+03 -0.10563401416E+03  0.10371859840E+04  0.10727593842E+04  0.17300000000E+03 0. -1.
         -6    1    1    2    0  501  0.18431056969E+03  0.10563401416E+03  0.13665011186E+04  0.13936940978E+04  0.17300000000E+03 0.  1.
<mgrwt>
<rscale>  2 0.27396703E+03</rscale>
<asrwt>0</asrwt>
<pdfrwt beam="1">  1        2 0.37462605E+00 0.27396703E+03</pdfrwt>
<pdfrwt beam="2">  1       -2 0.48281849E-02 0.27396703E+03</pdfrwt>
<totfact> 0.89838163E+02</totfact>
</mgrwt>
</event>
<event>
 4    1  0.8249026E-001  0.1934407E+03  0.7546771E-02  0.1155394E+00
         -1   -1    0    0    0  501 -0.00000000000E+00  0.00000000000E+00  0.83993877758E+02  0.83993877758E+02  0.00000000000E+00 0.  1.
          1   -1    0    0  502    0  0.00000000000E+00 -0.00000000000E+00 -0.46115988502E+03  0.46115988502E+03  0.00000000000E+00 0. -1.
          6    1    1    2  502    0  0.77386081355E+02  0.38751919740E+02 -0.23881150530E+03  0.30732759709E+03  0.17300000000E+03 0. -1.
         -6    1    1    2    0  501 -0.77386081355E+02 -0.38751919740E+02 -0.13835450196E+03  0.23782616568E+03  0.17300000000E+03 0.  1.
<mgrwt>
<rscale>  2 0.19344073E+03</rscale>
<asrwt>0</asrwt>
<pdfrwt beam="2">  1        1 0.70947674E-01 0.19344073E+03</pdfrwt>
<pdfrwt beam="1">  1       -1 0.12922135E-01 0.19344073E+03</pdfrwt>
<totfact> 0.20307180E+03</totfact>
</mgrwt>
</event>
<event>
 4    1  0.8249026E-001  0.2312220E+03  0.7546771E-02  0.1125783E+00
         -2   -1    0    0    0  501 -0.00000000000E+00  0.00000000000E+00  0.49614448316E+02  0.49614448316E+02  0.00000000000E+00 0.  1.
          2   -1    0    0  502    0  0.00000000000E+00 -0.00000000000E+00 -0.20747702486E+04  0.20747702486E+04  0.00000000000E+00 0. -1.
          6    1    1    2  502    0 -0.92819748389E+02 -0.12214374879E+03 -0.17489662245E+04  0.17641843599E+04  0.17300000000E+03 0. -1.
         -6    1    1    2    0  501  0.92819748389E+02  0.12214374879E+03 -0.27618957579E+03  0.36020033709E+03  0.17300000000E+03 0.  1.
<mgrwt>
<rscale>  2 0.23122197E+03</rscale>
<asrwt>0</asrwt>
<pdfrwt beam="2">  1        2 0.31919542E+00 0.23122197E+03</pdfrwt>
<pdfrwt beam="1">  1       -2 0.76329920E-02 0.23122197E+03</pdfrwt>
<totfact> 0.69572030E+02</totfact>
</mgrwt>
</event>
<event>
 4    1  0.8249026E-001  0.1979810E+03  0.7546771E-02  0.1151454E+00
          2   -1    0    0  502    0  0.00000000000E+00  0.00000000000E+00  0.25147345212E+03  0.25147345212E+03  0.00000000000E+00 0.  1.
         -2   -1    0    0    0  501 -0.00000000000E+00 -0.00000000000E+00 -0.16564202802E+03  0.16564202802E+03  0.00000000000E+00 0. -1.
          6    1    1    2  502    0 -0.95918132684E+02  0.81966385407E+01 -0.77477313212E+01  0.19813253242E+03  0.17300000000E+03 0. -1.
         -6    1    1    2    0  501  0.95918132684E+02 -0.81966385407E+01  0.93579155424E+02  0.21898294772E+03  0.17300000000E+03 0.  1.
<mgrwt>
<rscale>  2 0.19798099E+03</rscale>
<asrwt>0</asrwt>
<pdfrwt beam="1">  1        2 0.38688223E-01 0.19798099E+03</pdfrwt>
<pdfrwt beam="2">  1       -2 0.25483389E-01 0.19798099E+03</pdfrwt>
<totfact> 0.18016419E+03</totfact>
</mgrwt>
</event>
<event>
 4    1  0.8249026E-001  0.2273333E+03  0.7546771E-02  0.1128531E+00
          1   -1    0    0  502    0  0.00000000000E+00  0.00000000000E+00  0.19927374914E+03  0.19927374914E+03  0.00000000000E+00 0.  1.
         -1   -1    0    0    0  501 -0.00000000000E+00 -0.00000000000E+00 -0.26289130942E+03  0.26289130942E+03  0.00000000000E+00 0. -1.
          6    1    1    2  502    0  0.13924761521E+03 -0.48595373731E+02 -0.58652431550E+02  0.23477758926E+03  0.17300000000E+03 0. -1.
         -6    1    1    2    0  501 -0.13924761521E+03  0.48595373731E+02 -0.49651287321E+01  0.22738746930E+03  0.17300000000E+03 0.  1.
<mgrwt>
<rscale>  2 0.22733325E+03</rscale>
<asrwt>0</asrwt>
<pdfrwt beam="1">  1        1 0.30657500E-01 0.22733325E+03</pdfrwt>
<pdfrwt beam="2">  1       -1 0.40444817E-01 0.22733325E+03</pdfrwt>
<totfact> 0.89178169E+02</totfact>
</mgrwt>
</event>
<event>
 4    1  0.8249026E-001  0.2406660E+03  0.7546771E-02  0.1119350E+00
         -2   -1    0    0    0  501 -0.00000000000E+00  0.00000000000E+00  0.39823261946E+02  0.39823261946E+02  0.00000000000E+00 0. -1.
          2   -1    0    0  502    0  0.00000000000E+00 -0.00000000000E+00 -0.20334998795E+04  0.20334998795E+04  0.00000000000E+00 0.  1.
          6    1    1    2  502    0  0.15065888298E+03 -0.72753139137E+02 -0.15500364103E+04  0.15686086164E+04  0.17300000000E+03 0.  1.
         -6    1    1    2    0  501 -0.15065888298E+03  0.72753139137E+02 -0.44364020727E+03  0.50471452503E+03  0.17300000000E+03 0. -1.
<mgrwt>
<rscale>  2 0.24066599E+03</rscale>
<asrwt>0</asrwt>
<pdfrwt beam="2">  1        2 0.31284626E+00 0.24066599E+03</pdfrwt>
<pdfrwt beam="1">  1       -2 0.61266533E-02 0.24066599E+03</pdfrwt>
<totfact> 0.10263957E+03</totfact>
</mgrwt>
</event>
<event>
 4    1  0.8249026E-001  0.2290278E+03  0.7546771E-02  0.1127326E+00
         -1   -1    0    0    0  501 -0.00000000000E+00  0.00000000000E+00  0.66124087612E+02  0.66124087612E+02  0.00000000000E+00 0. -1.
          1   -1    0    0  502    0  0.00000000000E+00 -0.00000000000E+00 -0.84785965014E+03  0.84785965014E+03  0.00000000000E+00 0.  1.
          6    1    1    2  502    0 -0.19921428580E+02 -0.14875445078E+03 -0.27490142174E+03  0.35780517271E+03  0.17300000000E+03 0. -1.
         -6    1    1    2    0  501  0.19921428580E+02  0.14875445078E+03 -0.50683414079E+03  0.55617856504E+03  0.17300000000E+03 0.  1.
<mgrwt>
<rscale>  2 0.22902784E+03</rscale>
<asrwt>0</asrwt>
<pdfrwt beam="2">  1        1 0.13043993E+00 0.22902784E+03</pdfrwt>
<pdfrwt beam="1">  1       -1 0.10172938E-01 0.22902784E+03</pdfrwt>
<totfact> 0.12490828E+03</totfact>
</mgrwt>
</event>
<event>
 4    1  0.8249026E-001  0.1980008E+03  0.7546771E-02  0.1151437E+00
         -3   -1    0    0    0  501 -0.00000000000E+00  0.00000000000E+00  0.34343112220E+03  0.34343112220E+03  0.00000000000E+00 0. -1.
          3   -1    0    0  502    0  0.00000000000E+00 -0.00000000000E+00 -0.15640733002E+03  0.15640733002E+03  0.00000000000E+00 0.  1.
          6    1    1    2  502    0  0.85846653320E+02 -0.43654066301E+02 -0.36384547677E+02  0.20131607164E+03  0.17300000000E+03 0.  1.
         -6    1    1    2    0  501 -0.85846653320E+02  0.43654066301E+02  0.22340833986E+03  0.29852238058E+03  0.17300000000E+03 0. -1.
<mgrwt>
<rscale>  2 0.19800082E+03</rscale>
<asrwt>0</asrwt>
<pdfrwt beam="2">  1        3 0.24062666E-01 0.19800082E+03</pdfrwt>
<pdfrwt beam="1">  1       -3 0.52835557E-01 0.19800082E+03</pdfrwt>
<totfact> 0.14042171E+02</totfact>
</mgrwt>
</event>
<event>
 4    1  0.8249026E-001  0.1818890E+03  0.7546771E-02  0.1165987E+00
          1   -1    0    0  502    0  0.00000000000E+00  0.00000000000E+00  0.15931034028E+03  0.15931034028E+03  0.00000000000E+00 0.  1.
         -1   -1    0    0    0  501 -0.00000000000E+00 -0.00000000000E+00 -0.22061856796E+03  0.22061856796E+03  0.00000000000E+00 0. -1.
          6    1    1    2  502    0  0.13789153662E+02 -0.54446773735E+02 -0.76680074142E+02  0.19739155428E+03  0.17300000000E+03 0. -1.
         -6    1    1    2    0  501 -0.13789153662E+02  0.54446773735E+02  0.15371846453E+02  0.18253735396E+03  0.17300000000E+03 0. -1.
<mgrwt>
<rscale>  2 0.18188895E+03</rscale>
<asrwt>0</asrwt>
<pdfrwt beam="1">  1        1 0.24509283E-01 0.18188895E+03</pdfrwt>
<pdfrwt beam="2">  1       -1 0.33941318E-01 0.18188895E+03</pdfrwt>
<totfact> 0.16011706E+03</totfact>
</mgrwt>
</event>
<event>
 4    1  0.8249026E-001  0.1957031E+03  0.7546771E-02  0.1153416E+00
          1   -1    0    0  502    0  0.00000000000E+00  0.00000000000E+00  0.12014845099E+03  0.12014845099E+03  0.00000000000E+00 0. -1.
         -1   -1    0    0    0  501 -0.00000000000E+00 -0.00000000000E+00 -0.34891191886E+03  0.34891191886E+03  0.00000000000E+00 0.  1.
          6    1    1    2  502    0  0.90835523607E+02  0.10936218631E+02 -0.18331486417E+03  0.26814927308E+03  0.17300000000E+03 0.  1.
         -6    1    1    2    0  501 -0.90835523607E+02 -0.10936218631E+02 -0.45448603701E+02  0.20091109677E+03  0.17300000000E+03 0. -1.
<mgrwt>
<rscale>  2 0.19570307E+03</rscale>
<asrwt>0</asrwt>
<pdfrwt beam="1">  1        1 0.18484377E-01 0.19570307E+03</pdfrwt>
<pdfrwt beam="2">  1       -1 0.53678756E-01 0.19570307E+03</pdfrwt>
<totfact> 0.10130011E+03</totfact>
</mgrwt>
</event>
<event>
 4    1  0.8249026E-001  0.1800513E+03  0.7546771E-02  0.1167753E+00
         -2   -1    0    0    0  501 -0.00000000000E+00  0.00000000000E+00  0.19659200446E+03  0.19659200446E+03  0.00000000000E+00 0.  1.
          2   -1    0    0  502    0  0.00000000000E+00 -0.00000000000E+00 -0.19362931256E+03  0.19362931256E+03  0.00000000000E+00 0. -1.
          6    1    1    2  502    0  0.42033930101E+02  0.26881659407E+02  0.76633360875E+02  0.19568123796E+03  0.17300000000E+03 0.  1.
         -6    1    1    2    0  501 -0.42033930101E+02 -0.26881659407E+02 -0.73670668981E+02  0.19454007906E+03  0.17300000000E+03 0. -1.
<mgrwt>
<rscale>  2 0.18005131E+03</rscale>
<asrwt>0</asrwt>
<pdfrwt beam="2">  1        2 0.29789125E-01 0.18005131E+03</pdfrwt>
<pdfrwt beam="1">  1       -2 0.30244924E-01 0.18005131E+03</pdfrwt>
<totfact> 0.17557652E+03</totfact>
</mgrwt>
</event>
<event>
 4    1  0.8249026E-001  0.2164528E+03  0.7546771E-02  0.1136556E+00
          1   -1    0    0  502    0  0.00000000000E+00  0.00000000000E+00  0.10827536765E+04  0.10827536765E+04  0.00000000000E+00 0. -1.
         -1   -1    0    0    0  501 -0.00000000000E+00 -0.00000000000E+00 -0.60125369377E+02  0.60125369377E+02  0.00000000000E+00 0.  1.
          6    1    1    2  502    0 -0.12390430845E+03 -0.39630086283E+02  0.20876370326E+03  0.30072263830E+03  0.17300000000E+03 0.  1.
         -6    1    1    2    0  501  0.12390430845E+03  0.39630086283E+02  0.81386460382E+03  0.84215640753E+03  0.17300000000E+03 0. -1.
<mgrwt>
<rscale>  2 0.21645282E+03</rscale>
<asrwt>0</asrwt>
<pdfrwt beam="1">  1        1 0.16657747E+00 0.21645282E+03</pdfrwt>
<pdfrwt beam="2">  1       -1 0.92500576E-02 0.21645282E+03</pdfrwt>
<totfact> 0.95933062E+02</totfact>
</mgrwt>
</event>
<event>
 4    1  0.8249026E-001  0.1843445E+03  0.7546771E-02  0.1163663E+00
         -3   -1    0    0    0  501 -0.00000000000E+00  0.00000000000E+00  0.10763940962E+03  0.10763940962E+03  0.00000000000E+00 0. -1.
          3   -1    0    0  502    0  0.00000000000E+00 -0.00000000000E+00 -0.35713775326E+03  0.35713775326E+03  0.00000000000E+00 0.  1.
          6    1    1    2  502    0 -0.53455100617E+02 -0.34589954182E+02 -0.20389699167E+03  0.27487614652E+03  0.17300000000E+03 0.  1.
         -6    1    1    2    0  501  0.53455100617E+02  0.34589954182E+02 -0.45601351972E+02  0.18990101636E+03  0.17300000000E+03 0. -1.
<mgrwt>
<rscale>  2 0.18434455E+03</rscale>
<asrwt>0</asrwt>
<pdfrwt beam="2">  1        3 0.54944270E-01 0.18434455E+03</pdfrwt>
<pdfrwt beam="1">  1       -3 0.16559909E-01 0.18434455E+03</pdfrwt>
<totfact> 0.24989478E+02</totfact>
</mgrwt>
</event>
<event>
 4    1  0.8249026E-001  0.2090119E+03  0.7546771E-02  0.1142351E+00
          1   -1    0    0  502    0  0.00000000000E+00  0.00000000000E+00  0.28474735025E+03  0.28474735025E+03  0.00000000000E+00 0. -1.
         -1   -1    0    0    0  501 -0.00000000000E+00 -0.00000000000E+00 -0.15405014225E+03  0.15405014225E+03  0.00000000000E+00 0.  1.
          6    1    1    2  502    0  0.51603237103E+02  0.10532849694E+03  0.51318385110E+02  0.21521980159E+03  0.17300000000E+03 0.  1.
         -6    1    1    2    0  501 -0.51603237103E+02 -0.10532849694E+03  0.79378822892E+02  0.22357769090E+03  0.17300000000E+03 0. -1.
<mgrwt>
<rscale>  2 0.20901193E+03</rscale>
<asrwt>0</asrwt>
<pdfrwt beam="1">  1        1 0.43807285E-01 0.20901193E+03</pdfrwt>
<pdfrwt beam="2">  1       -1 0.23700022E-01 0.20901193E+03</pdfrwt>
<totfact> 0.14182489E+03</totfact>
</mgrwt>
</event>
<event>
 4    1  0.8249026E-001  0.1790214E+03  0.7546771E-02  0.1168753E+00
          1   -1    0    0  502    0  0.00000000000E+00  0.00000000000E+00  0.10458764741E+04  0.10458764741E+04  0.00000000000E+00 0.  1.
         -1   -1    0    0    0  501 -0.00000000000E+00 -0.00000000000E+00 -0.33277136807E+02  0.33277136807E+02  0.00000000000E+00 0. -1.
          6    1    1    2  502    0  0.42827034376E+02  0.16897103476E+02  0.35448652396E+03  0.39712638120E+03  0.17300000000E+03 0. -1.
         -6    1    1    2    0  501 -0.42827034376E+02 -0.16897103476E+02  0.65811281329E+03  0.68202722966E+03  0.17300000000E+03 0.  1.
<mgrwt>
<rscale>  2 0.17902141E+03</rscale>
<asrwt>0</asrwt>
<pdfrwt beam="1">  1        1 0.16090405E+00 0.17902141E+03</pdfrwt>
<pdfrwt beam="2">  1       -1 0.51195603E-02 0.17902141E+03</pdfrwt>
<totfact> 0.24947604E+03</totfact>
</mgrwt>
</event>
<event>
 4    1  0.8249026E-001  0.1866415E+03  0.7546771E-02  0.1161526E+00
         -2   -1    0    0    0  501 -0.00000000000E+00  0.00000000000E+00  0.15158049232E+03  0.15158049232E+03  0.00000000000E+00 0.  1.
          2   -1    0    0  502    0  0.00000000000E+00 -0.00000000000E+00 -0.32452348122E+03  0.32452348122E+03  0.00000000000E+00 0. -1.
          6    1    1    2  502    0  0.69510085499E+02  0.86246181481E+01 -0.21507409784E+03  0.28476640178E+03  0.17300000000E+03 0. -1.
         -6    1    1    2    0  501 -0.69510085499E+02 -0.86246181481E+01  0.42131108940E+02  0.19133757175E+03  0.17300000000E+03 0.  1.
<mgrwt>
<rscale>  2 0.18664146E+03</rscale>
<asrwt>0</asrwt>
<pdfrwt beam="2">  1        2 0.49926689E-01 0.18664146E+03</pdfrwt>
<pdfrwt beam="1">  1       -2 0.23320076E-01 0.18664146E+03</pdfrwt>
<totfact> 0.15985667E+03</totfact>
</mgrwt>
</event>
<event>
 4    1  0.8249026E-001  0.2078363E+03  0.7546771E-02  0.1143291E+00
         -2   -1    0    0    0  501 -0.00000000000E+00  0.00000000000E+00  0.58613633489E+02  0.58613633489E+02  0.00000000000E+00 0. -1.
          2   -1    0    0  502    0  0.00000000000E+00 -0.00000000000E+00 -0.74500336975E+03  0.74500336975E+03  0.00000000000E+00 0.  1.
          6    1    1    2  502    0 -0.11380741673E+03 -0.17742429065E+02 -0.30144544562E+03  0.36614925724E+03  0.17300000000E+03 0.  1.
         -6    1    1    2    0  501  0.11380741673E+03  0.17742429065E+02 -0.38494429065E+03  0.43746774600E+03  0.17300000000E+03 0.  1.
<mgrwt>
<rscale>  2 0.20783629E+03</rscale>
<asrwt>0</asrwt>
<pdfrwt beam="2">  1        2 0.11461590E+00 0.20783629E+03</pdfrwt>
<pdfrwt beam="1">  1       -2 0.90174825E-02 0.20783629E+03</pdfrwt>
<totfact> 0.30126497E+03</totfact>
</mgrwt>
</event>
<event>
 4    1  0.8249026E-001  0.1739272E+03  0.7546771E-02  0.1173813E+00
          1   -1    0    0  502    0  0.00000000000E+00  0.00000000000E+00  0.96726132482E+03  0.96726132482E+03  0.00000000000E+00 0.  1.
         -1   -1    0    0    0  501 -0.00000000000E+00 -0.00000000000E+00 -0.31461190843E+02  0.31461190843E+02  0.00000000000E+00 0. -1.
          6    1    1    2  502    0 -0.17818204987E+02 -0.20444574920E+01  0.50636136279E+03  0.53539938174E+03  0.17300000000E+03 0.  1.
         -6    1    1    2    0  501  0.17818204987E+02  0.20444574920E+01  0.42943877119E+03  0.46332313393E+03  0.17300000000E+03 0. -1.
<mgrwt>
<rscale>  2 0.17392719E+03</rscale>
<asrwt>0</asrwt>
<pdfrwt beam="1">  1        1 0.14880941E+00 0.17392719E+03</pdfrwt>
<pdfrwt beam="2">  1       -1 0.48401840E-02 0.17392719E+03</pdfrwt>
<totfact> 0.30976621E+03</totfact>
</mgrwt>
</event>
<event>
 4    1  0.8249026E-001  0.3146236E+03  0.7546771E-02  0.1078151E+00
         -1   -1    0    0    0  501 -0.00000000000E+00  0.00000000000E+00  0.76577309741E+03  0.76577309741E+03  0.00000000000E+00 0. -1.
          1   -1    0    0  502    0  0.00000000000E+00 -0.00000000000E+00 -0.13237920293E+03  0.13237920293E+03  0.00000000000E+00 0.  1.
          6    1    1    2  502    0  0.18719556495E+03  0.18443652827E+03  0.24782356455E+03  0.40050534534E+03  0.17300000000E+03 0.  1.
         -6    1    1    2    0  501 -0.18719556495E+03 -0.18443652827E+03  0.38557032993E+03  0.49764695500E+03  0.17300000000E+03 0. -1.
<mgrwt>
<rscale>  2 0.31462360E+03</rscale>
<asrwt>0</asrwt>
<pdfrwt beam="2">  1        1 0.20366032E-01 0.31462360E+03</pdfrwt>
<pdfrwt beam="1">  1       -1 0.11781124E+00 0.31462360E+03</pdfrwt>
<totfact> 0.17249393E+02</totfact>
</mgrwt>
</event>
<event>
 4    1  0.8249026E-001  0.1991461E+03  0.7546771E-02  0.1150461E+00
         -1   -1    0    0    0  501 -0.00000000000E+00  0.00000000000E+00  0.51134521880E+02  0.51134521880E+02  0.00000000000E+00 0.  1.
          1   -1    0    0  502    0  0.00000000000E+00 -0.00000000000E+00 -0.13689460620E+04  0.13689460620E+04  0.00000000000E+00 0. -1.
          6    1    1    2  502    0  0.24454981754E+02  0.95562081437E+02 -0.11263711179E+04  0.11438404840E+04  0.17300000000E+03 0. -1.
         -6    1    1    2    0  501 -0.24454981754E+02 -0.95562081437E+02 -0.19144042225E+03  0.27624009994E+03  0.17300000000E+03 0.  1.
<mgrwt>
<rscale>  2 0.19914607E+03</rscale>
<asrwt>0</asrwt>
<pdfrwt beam="2">  1        1 0.21060709E+00 0.19914607E+03</pdfrwt>
<pdfrwt beam="1">  1       -1 0.78668493E-02 0.19914607E+03</pdfrwt>
<totfact> 0.77994283E+02</totfact>
</mgrwt>
</event>
<event>
 4    1  0.8249026E-001  0.1766205E+03  0.7546771E-02  0.1171114E+00
          2   -1    0    0  502    0  0.00000000000E+00  0.00000000000E+00  0.13251771607E+04  0.13251771607E+04  0.00000000000E+00 0. -1.
         -2   -1    0    0    0  501 -0.00000000000E+00 -0.00000000000E+00 -0.23711057814E+02  0.23711057814E+02  0.00000000000E+00 0.  1.
          6    1    1    2  502    0  0.29795957265E+02 -0.19442091955E+02  0.59346353938E+03  0.61918798970E+03  0.17300000000E+03 0.  1.
         -6    1    1    2    0  501 -0.29795957265E+02  0.19442091955E+02  0.70800256354E+03  0.72970022885E+03  0.17300000000E+03 0.  1.
<mgrwt>
<rscale>  2 0.17662048E+03</rscale>
<asrwt>0</asrwt>
<pdfrwt beam="1">  1        2 0.20387335E+00 0.17662048E+03</pdfrwt>
<pdfrwt beam="2">  1       -2 0.36478561E-02 0.17662048E+03</pdfrwt>
<totfact> 0.53096815E+03</totfact>
</mgrwt>
</event>
<event>
 4    1  0.8249026E-001  0.2260066E+03  0.7546771E-02  0.1129482E+00
         -2   -1    0    0    0  501 -0.00000000000E+00  0.00000000000E+00  0.11432889542E+04  0.11432889542E+04  0.00000000000E+00 0.  1.
          2   -1    0    0  502    0  0.00000000000E+00 -0.00000000000E+00 -0.45324300258E+02  0.45324300258E+02  0.00000000000E+00 0. -1.
          6    1    1    2  502    0  0.10076657798E+03  0.10486216135E+03  0.47797176938E+03  0.52871163071E+03  0.17300000000E+03 0. -1.
         -6    1    1    2    0  501 -0.10076657798E+03 -0.10486216135E+03  0.61999288457E+03  0.65990162376E+03  0.17300000000E+03 0.  1.
<mgrwt>
<rscale>  2 0.22600658E+03</rscale>
<asrwt>0</asrwt>
<pdfrwt beam="2">  1        2 0.69729701E-02 0.22600658E+03</pdfrwt>
<pdfrwt beam="1">  1       -2 0.17589059E+00 0.22600658E+03</pdfrwt>
<totfact> 0.21035488E+02</totfact>
</mgrwt>
</event>
<event>
 4    1  0.8249026E-001  0.1828663E+03  0.7546771E-02  0.1165058E+00
          1   -1    0    0  502    0  0.00000000000E+00  0.00000000000E+00  0.25120596823E+03  0.25120596823E+03  0.00000000000E+00 0.  1.
         -1   -1    0    0    0  501 -0.00000000000E+00 -0.00000000000E+00 -0.13407475699E+03  0.13407475699E+03  0.00000000000E+00 0. -1.
          6    1    1    2  502    0 -0.14676835213E+02  0.57407930883E+02  0.42293831932E+02  0.18769349546E+03  0.17300000000E+03 0. -1.
         -6    1    1    2    0  501  0.14676835213E+02 -0.57407930883E+02  0.74837379309E+02  0.19758722975E+03  0.17300000000E+03 0. -1.
<mgrwt>
<rscale>  2 0.18286629E+03</rscale>
<asrwt>0</asrwt>
<pdfrwt beam="1">  1        1 0.38647072E-01 0.18286629E+03</pdfrwt>
<pdfrwt beam="2">  1       -1 0.20626886E-01 0.18286629E+03</pdfrwt>
<totfact> 0.20749401E+03</totfact>
</mgrwt>
</event>
<event>
 4    1  0.8249026E-001  0.1793196E+03  0.7546771E-02  0.1168463E+00
          1   -1    0    0  502    0  0.00000000000E+00  0.00000000000E+00  0.47553010483E+02  0.47553010483E+02  0.00000000000E+00 0. -1.
         -1   -1    0    0    0  501 -0.00000000000E+00 -0.00000000000E+00 -0.98853043199E+03  0.98853043199E+03  0.00000000000E+00 0.  1.
          6    1    1    2  502    0 -0.31632468876E+02  0.35012776061E+02 -0.17930002256E+03  0.25358234494E+03  0.17300000000E+03 0. -1.
         -6    1    1    2    0  501  0.31632468876E+02 -0.35012776061E+02 -0.76167739895E+03  0.78250109754E+03  0.17300000000E+03 0.  1.
<mgrwt>
<rscale>  2 0.17931957E+03</rscale>
<asrwt>0</asrwt>
<pdfrwt beam="1">  1        1 0.73158477E-02 0.17931957E+03</pdfrwt>
<pdfrwt beam="2">  1       -1 0.15208161E+00 0.17931957E+03</pdfrwt>
<totfact> 0.35902216E+02</totfact>
</mgrwt>
</event>
<event>
 4    1  0.8249026E-001  0.2611442E+03  0.7546771E-02  0.1106458E+00
          2   -1    0    0  502    0  0.00000000000E+00  0.00000000000E+00  0.18801675462E+04  0.18801675462E+04  0.00000000000E+00 0.  1.
         -2   -1    0    0    0  501 -0.00000000000E+00 -0.00000000000E+00 -0.48345891251E+02  0.48345891251E+02  0.00000000000E+00 0. -1.
          6    1    1    2  502    0 -0.11986579630E+03 -0.15459466223E+03  0.13978000542E+04  0.14219849895E+04  0.17300000000E+03 0.  1.
         -6    1    1    2    0  501  0.11986579630E+03  0.15459466223E+03  0.43402160075E+03  0.50652844800E+03  0.17300000000E+03 0. -1.
<mgrwt>
<rscale>  2 0.26114425E+03</rscale>
<asrwt>0</asrwt>
<pdfrwt beam="1">  1        2 0.28925649E+00 0.26114425E+03</pdfrwt>
<pdfrwt beam="2">  1       -2 0.74378309E-02 0.26114425E+03</pdfrwt>
<totfact> 0.91222427E+02</totfact>
</mgrwt>
</event>
<event>
 4    1  0.8249026E-001  0.2110319E+03  0.7546771E-02  0.1140751E+00
         -2   -1    0    0    0  501 -0.00000000000E+00  0.00000000000E+00  0.18402343252E+02  0.18402343252E+02  0.00000000000E+00 0. -1.
          2   -1    0    0  502    0  0.00000000000E+00 -0.00000000000E+00 -0.24209173795E+04  0.24209173795E+04  0.00000000000E+00 0.  1.
          6    1    1    2  502    0  0.29557041735E+02 -0.11718286394E+03 -0.11780641516E+04  0.11968164386E+04  0.17300000000E+03 0. -1.
         -6    1    1    2    0  501 -0.29557041735E+02  0.11718286394E+03 -0.12244508847E+04  0.12425032842E+04  0.17300000000E+03 0.  1.
<mgrwt>
<rscale>  2 0.21103185E+03</rscale>
<asrwt>0</asrwt>
<pdfrwt beam="2">  1        2 0.37244852E+00 0.21103185E+03</pdfrwt>
<pdfrwt beam="1">  1       -2 0.28311321E-02 0.21103185E+03</pdfrwt>
<totfact> 0.20564223E+03</totfact>
</mgrwt>
</event>
<event>
 4    1  0.8249026E-001  0.2171064E+03  0.7546771E-02  0.1136059E+00
          2   -1    0    0  502    0  0.00000000000E+00  0.00000000000E+00  0.79019384742E+03  0.79019384742E+03  0.00000000000E+00 0.  1.
         -2   -1    0    0    0  501 -0.00000000000E+00 -0.00000000000E+00 -0.97520454291E+02  0.97520454291E+02  0.00000000000E+00 0. -1.
          6    1    1    2  502    0 -0.12987353533E+03 -0.18412961177E+02  0.62293201646E+03  0.65968133932E+03  0.17300000000E+03 0.  1.
         -6    1    1    2    0  501  0.12987353533E+03  0.18412961177E+02  0.69741376674E+02  0.22803296239E+03  0.17300000000E+03 0. -1.
<mgrwt>
<rscale>  2 0.21710636E+03</rscale>
<asrwt>0</asrwt>
<pdfrwt beam="1">  1        2 0.12156828E+00 0.21710636E+03</pdfrwt>
<pdfrwt beam="2">  1       -2 0.15003147E-01 0.21710636E+03</pdfrwt>
<totfact> 0.12340144E+03</totfact>
</mgrwt>
</event>
<event>
 4    1  0.8249026E-001  0.2148969E+03  0.7546771E-02  0.1137746E+00
         -2   -1    0    0    0  501 -0.00000000000E+00  0.00000000000E+00  0.21814431769E+03  0.21814431769E+03  0.00000000000E+00 0. -1.
          2   -1    0    0  502    0  0.00000000000E+00 -0.00000000000E+00 -0.24199671968E+03  0.24199671968E+03  0.00000000000E+00 0.  1.
          6    1    1    2  502    0 -0.11662053892E+03 -0.51490950051E+02  0.69482333872E+02  0.22585053189E+03  0.17300000000E+03 0. -1.
         -6    1    1    2    0  501  0.11662053892E+03  0.51490950051E+02 -0.93334735864E+02  0.23429050547E+03  0.17300000000E+03 0.  1.
<mgrwt>
<rscale>  2 0.21489688E+03</rscale>
<asrwt>0</asrwt>
<pdfrwt beam="2">  1        2 0.37230265E-01 0.21489688E+03</pdfrwt>
<pdfrwt beam="1">  1       -2 0.33560664E-01 0.21489688E+03</pdfrwt>
<totfact> 0.11442273E+03</totfact>
</mgrwt>
</event>
<event>
 4    1  0.8249026E-001  0.1846629E+03  0.7546771E-02  0.1163365E+00
         -1   -1    0    0    0  501 -0.00000000000E+00  0.00000000000E+00  0.16362297431E+03  0.16362297431E+03  0.00000000000E+00 0.  1.
          1   -1    0    0  502    0  0.00000000000E+00 -0.00000000000E+00 -0.21983982275E+03  0.21983982275E+03  0.00000000000E+00 0. -1.
          6    1    1    2  502    0 -0.44334562978E+02  0.46966349664E+02  0.15612713508E+02  0.18532174265E+03  0.17300000000E+03 0.  1.
         -6    1    1    2    0  501  0.44334562978E+02 -0.46966349664E+02 -0.71829561939E+02  0.19814105441E+03  0.17300000000E+03 0. -1.
<mgrwt>
<rscale>  2 0.18466291E+03</rscale>
<asrwt>0</asrwt>
<pdfrwt beam="2">  1        1 0.33821511E-01 0.18466291E+03</pdfrwt>
<pdfrwt beam="1">  1       -1 0.25172765E-01 0.18466291E+03</pdfrwt>
<totfact> 0.17689983E+03</totfact>
</mgrwt>
</event>
<event>
 4    1  0.8249026E-001  0.1772249E+03  0.7546771E-02  0.1170516E+00
          2   -1    0    0  502    0  0.00000000000E+00  0.00000000000E+00  0.60625611866E+03  0.60625611866E+03  0.00000000000E+00 0.  1.
         -2   -1    0    0    0  501 -0.00000000000E+00 -0.00000000000E+00 -0.59773257462E+02  0.59773257462E+02  0.00000000000E+00 0. -1.
          6    1    1    2  502    0  0.36658844672E+02  0.11653064225E+02  0.39480996371E+03  0.43276272049E+03  0.17300000000E+03 0.  1.
         -6    1    1    2    0  501 -0.36658844672E+02 -0.11653064225E+02  0.15167289749E+03  0.23326665563E+03  0.17300000000E+03 0. -1.
<mgrwt>
<rscale>  2 0.17722490E+03</rscale>
<asrwt>0</asrwt>
<pdfrwt beam="1">  1        2 0.93270168E-01 0.17722490E+03</pdfrwt>
<pdfrwt beam="2">  1       -2 0.91958862E-02 0.17722490E+03</pdfrwt>
<totfact> 0.37153529E+03</totfact>
</mgrwt>
</event>
<event>
 4    1  0.8249026E-001  0.1746770E+03  0.7546771E-02  0.1173056E+00
          2   -1    0    0  502    0  0.00000000000E+00  0.00000000000E+00  0.10136384839E+04  0.10136384839E+04  0.00000000000E+00 0. -1.
         -2   -1    0    0    0  501 -0.00000000000E+00 -0.00000000000E+00 -0.31435624399E+02  0.31435624399E+02  0.00000000000E+00 0.  1.
          6    1    1    2  502    0  0.82328151214E+01  0.22699635807E+02  0.38345441746E+03  0.42136604394E+03  0.17300000000E+03 0.  1.
         -6    1    1    2    0  501 -0.82328151214E+01 -0.22699635807E+02  0.59874844208E+03  0.62370806441E+03  0.17300000000E+03 0. -1.
<mgrwt>
<rscale>  2 0.17467700E+03</rscale>
<asrwt>0</asrwt>
<pdfrwt beam="1">  1        2 0.15594436E+00 0.17467700E+03</pdfrwt>
<pdfrwt beam="2">  1       -2 0.48362507E-02 0.17467700E+03</pdfrwt>
<totfact> 0.52243378E+03</totfact>
</mgrwt>
</event>
<event>
 4    1  0.8249026E-001  0.1867746E+03  0.7546771E-02  0.1161403E+00
         -2   -1    0    0    0  501 -0.00000000000E+00  0.00000000000E+00  0.62229790366E+02  0.62229790366E+02  0.00000000000E+00 0.  1.
          2   -1    0    0  502    0  0.00000000000E+00 -0.00000000000E+00 -0.56644391843E+03  0.56644391843E+03  0.00000000000E+00 0. -1.
          6    1    1    2  502    0  0.69621659780E+02  0.10419215748E+02 -0.22012291551E+03  0.28868466100E+03  0.17300000000E+03 0.  1.
         -6    1    1    2    0  501 -0.69621659780E+02 -0.10419215748E+02 -0.28409121255E+03  0.33998904779E+03  0.17300000000E+03 0. -1.
<mgrwt>
<rscale>  2 0.18677456E+03</rscale>
<asrwt>0</asrwt>
<pdfrwt beam="2">  1        2 0.87145217E-01 0.18677456E+03</pdfrwt>
<pdfrwt beam="1">  1       -2 0.95738140E-02 0.18677456E+03</pdfrwt>
<totfact> 0.37763215E+03</totfact>
</mgrwt>
</event>
<event>
 4    1  0.8249026E-001  0.1753151E+03  0.7546771E-02  0.1172416E+00
         -2   -1    0    0    0  501 -0.00000000000E+00  0.00000000000E+00  0.47825539113E+02  0.47825539113E+02  0.00000000000E+00 0.  1.
          2   -1    0    0  502    0  0.00000000000E+00 -0.00000000000E+00 -0.64390137579E+03  0.64390137579E+03  0.00000000000E+00 0. -1.
          6    1    1    2  502    0  0.27412837242E+02 -0.74116592470E+01 -0.28283076446E+03  0.33275912859E+03  0.17300000000E+03 0. -1.
         -6    1    1    2    0  501 -0.27412837242E+02  0.74116592470E+01 -0.31324507222E+03  0.35896778631E+03  0.17300000000E+03 0.  1.
<mgrwt>
<rscale>  2 0.17531513E+03</rscale>
<asrwt>0</asrwt>
<pdfrwt beam="2">  1        2 0.99061748E-01 0.17531513E+03</pdfrwt>
<pdfrwt beam="1">  1       -2 0.73577754E-02 0.17531513E+03</pdfrwt>
<totfact> 0.49006654E+03</totfact>
</mgrwt>
</event>
<event>
 4    1  0.8249026E-001  0.1798531E+03  0.7546771E-02  0.1167945E+00
         -1   -1    0    0    0  501 -0.00000000000E+00  0.00000000000E+00  0.42591602327E+02  0.42591602327E+02  0.00000000000E+00 0. -1.
          1   -1    0    0  502    0  0.00000000000E+00 -0.00000000000E+00 -0.83333869628E+03  0.83333869628E+03  0.00000000000E+00 0.  1.
          6    1    1    2  502    0  0.49059780369E+02  0.33580443911E+01 -0.26498108428E+03  0.32025320223E+03  0.17300000000E+03 0. -1.
         -6    1    1    2    0  501 -0.49059780369E+02 -0.33580443911E+01 -0.52576600968E+03  0.55567709638E+03  0.17300000000E+03 0.  1.
<mgrwt>
<rscale>  2 0.17985310E+03</rscale>
<asrwt>0</asrwt>
<pdfrwt beam="2">  1        1 0.12820595E+00 0.17985310E+03</pdfrwt>
<pdfrwt beam="1">  1       -1 0.65525545E-02 0.17985310E+03</pdfrwt>
<totfact> 0.25039654E+03</totfact>
</mgrwt>
</event>
<event>
 4    1  0.8249026E-001  0.2250753E+03  0.7546771E-02  0.1130155E+00
         -1   -1    0    0    0  501 -0.00000000000E+00  0.00000000000E+00  0.12861597684E+03  0.12861597684E+03  0.00000000000E+00 0.  1.
          1   -1    0    0  502    0  0.00000000000E+00 -0.00000000000E+00 -0.42484349919E+03  0.42484349919E+03  0.00000000000E+00 0. -1.
          6    1    1    2  502    0  0.72447418157E+02 -0.12442369632E+03 -0.73402360120E+02  0.23674203487E+03  0.17300000000E+03 0.  1.
         -6    1    1    2    0  501 -0.72447418157E+02  0.12442369632E+03 -0.22282516223E+03  0.31671744115E+03  0.17300000000E+03 0. -1.
<mgrwt>
<rscale>  2 0.22507529E+03</rscale>
<asrwt>0</asrwt>
<pdfrwt beam="2">  1        1 0.65360538E-01 0.22507529E+03</pdfrwt>
<pdfrwt beam="1">  1       -1 0.19787073E-01 0.22507529E+03</pdfrwt>
<totfact> 0.11488134E+03</totfact>
</mgrwt>
</event>
<event>
 4    1  0.8249026E-001  0.2398608E+03  0.7546771E-02  0.1119886E+00
         -2   -1    0    0    0  501 -0.00000000000E+00  0.00000000000E+00  0.24201295455E+03  0.24201295455E+03  0.00000000000E+00 0.  1.
          2   -1    0    0  502    0  0.00000000000E+00 -0.00000000000E+00 -0.32574961648E+03  0.32574961648E+03  0.00000000000E+00 0. -1.
          6    1    1    2  502    0  0.55536146217E+01  0.16605226872E+03  0.10569894432E+03  0.26211727416E+03  0.17300000000E+03 0.  1.
         -6    1    1    2    0  501 -0.55536146217E+01 -0.16605226872E+03 -0.18943560625E+03  0.30564529687E+03  0.17300000000E+03 0. -1.
<mgrwt>
<rscale>  2 0.23986079E+03</rscale>
<asrwt>0</asrwt>
<pdfrwt beam="2">  1        2 0.50115325E-01 0.23986079E+03</pdfrwt>
<pdfrwt beam="1">  1       -2 0.37232762E-01 0.23986079E+03</pdfrwt>
<totfact> 0.68488254E+02</totfact>
</mgrwt>
</event>
<event>
 4    1  0.8249026E-001  0.2847484E+03  0.7546771E-02  0.1093123E+00
         -3   -1    0    0    0  501 -0.00000000000E+00  0.00000000000E+00  0.10699107177E+04  0.10699107177E+04  0.00000000000E+00 0. -1.
          3   -1    0    0  502    0  0.00000000000E+00 -0.00000000000E+00 -0.12984946377E+03  0.12984946377E+03  0.00000000000E+00 0.  1.
          6    1    1    2  502    0  0.17119239925E+03  0.14780323270E+03  0.82945808099E+02  0.29658327707E+03  0.17300000000E+03 0.  1.
         -6    1    1    2    0  501 -0.17119239925E+03 -0.14780323270E+03  0.85711544582E+03  0.90317690439E+03  0.17300000000E+03 0. -1.
<mgrwt>
<rscale>  2 0.28474837E+03</rscale>
<asrwt>0</asrwt>
<pdfrwt beam="2">  1        3 0.19976841E-01 0.28474837E+03</pdfrwt>
<pdfrwt beam="1">  1       -3 0.16460164E+00 0.28474837E+03</pdfrwt>
<totfact> 0.15045272E+01</totfact>
</mgrwt>
</event>
<event>
 4    1  0.8249026E-001  0.6440801E+03  0.7546771E-02  0.9817951E-01
          1   -1    0    0  502    0  0.00000000000E+00  0.00000000000E+00  0.20354175156E+04  0.20354175156E+04  0.00000000000E+00 0. -1.
         -1   -1    0    0    0  501 -0.00000000000E+00 -0.00000000000E+00 -0.25621423865E+03  0.25621423865E+03  0.00000000000E+00 0.  1.
          6    1    1    2  502    0 -0.32602907706E+03 -0.52784011121E+03  0.14077987545E+04  0.15481396821E+04  0.17300000000E+03 0. -1.
         -6    1    1    2    0  501  0.32602907706E+03  0.52784011121E+03  0.37140452247E+03  0.74349207218E+03  0.17300000000E+03 0.  1.
<mgrwt>
<rscale>  2 0.64408007E+03</rscale>
<asrwt>0</asrwt>
<pdfrwt beam="1">  1        1 0.31314115E+00 0.64408007E+03</pdfrwt>
<pdfrwt beam="2">  1       -1 0.39417577E-01 0.64408007E+03</pdfrwt>
<totfact> 0.18684748E+01</totfact>
</mgrwt>
</event>
<event>
 4    1  0.8249026E-001  0.3115934E+03  0.7546771E-02  0.1079585E+00
          2   -1    0    0  502    0  0.00000000000E+00  0.00000000000E+00  0.92595581806E+03  0.92595581806E+03  0.00000000000E+00 0.  1.
         -2   -1    0    0    0  501 -0.00000000000E+00 -0.00000000000E+00 -0.16029124492E+03  0.16029124492E+03  0.00000000000E+00 0. -1.
          6    1    1    2  502    0  0.79423267018E+02 -0.24668486147E+03  0.70223841769E+03  0.76826380333E+03  0.17300000000E+03 0.  1.
         -6    1    1    2    0  501 -0.79423267018E+02  0.24668486147E+03  0.63426155455E+02  0.31798325965E+03  0.17300000000E+03 0. -1.
<mgrwt>
<rscale>  2 0.31159345E+03</rscale>
<asrwt>0</asrwt>
<pdfrwt beam="1">  1        2 0.14245474E+00 0.31159345E+03</pdfrwt>
<pdfrwt beam="2">  1       -2 0.24660192E-01 0.31159345E+03</pdfrwt>
<totfact> 0.42683729E+02</totfact>
</mgrwt>
</event>
<event>
 4    1  0.8249026E-001  0.1773156E+03  0.7546771E-02  0.1170427E+00
         -1   -1    0    0    0  501 -0.00000000000E+00  0.00000000000E+00  0.91194525268E+02  0.91194525268E+02  0.00000000000E+00 0.  1.
          1   -1    0    0  502    0  0.00000000000E+00 -0.00000000000E+00 -0.36538616371E+03  0.36538616371E+03  0.00000000000E+00 0. -1.
          6    1    1    2  502    0  0.26532285073E+02 -0.28422665885E+02 -0.82864132006E+02  0.19572244240E+03  0.17300000000E+03 0. -1.
         -6    1    1    2    0  501 -0.26532285073E+02  0.28422665885E+02 -0.19132750644E+03  0.26085824657E+03  0.17300000000E+03 0.  1.
<mgrwt>
<rscale>  2 0.17731557E+03</rscale>
<asrwt>0</asrwt>
<pdfrwt beam="2">  1        1 0.56213255E-01 0.17731557E+03</pdfrwt>
<pdfrwt beam="1">  1       -1 0.14029927E-01 0.17731557E+03</pdfrwt>
<totfact> 0.23982083E+03</totfact>
</mgrwt>
</event>
<event>
 4    1  0.8249026E-001  0.2082008E+03  0.7546771E-02  0.1142999E+00
         -2   -1    0    0    0  501 -0.00000000000E+00  0.00000000000E+00  0.37483260165E+02  0.37483260165E+02  0.00000000000E+00 0.  1.
          2   -1    0    0  502    0  0.00000000000E+00 -0.00000000000E+00 -0.14341707005E+04  0.14341707005E+04  0.00000000000E+00 0. -1.
          6    1    1    2  502    0  0.48485113239E+02  0.10520338778E+03 -0.10221449683E+04  0.10431336900E+04  0.17300000000E+03 0. -1.
         -6    1    1    2    0  501 -0.48485113239E+02 -0.10520338778E+03 -0.37454247205E+03  0.42852027067E+03  0.17300000000E+03 0.  1.
<mgrwt>
<rscale>  2 0.20820077E+03</rscale>
<asrwt>0</asrwt>
<pdfrwt beam="2">  1        2 0.22064162E+00 0.20820077E+03</pdfrwt>
<pdfrwt beam="1">  1       -2 0.57666560E-02 0.20820077E+03</pdfrwt>
<totfact> 0.23298421E+03</totfact>
</mgrwt>
</event>
<event>
 4    1  0.8249026E-001  0.2387204E+03  0.7546771E-02  0.1120648E+00
         -1   -1    0    0    0  501 -0.00000000000E+00  0.00000000000E+00  0.69314828502E+03  0.69314828502E+03  0.00000000000E+00 0.  1.
          1   -1    0    0  502    0  0.00000000000E+00 -0.00000000000E+00 -0.83447197087E+02  0.83447197087E+02  0.00000000000E+00 0. -1.
          6    1    1    2  502    0 -0.72167252855E+02 -0.14781851299E+03  0.25767267441E+03  0.35125864019E+03  0.17300000000E+03 0.  1.
         -6    1    1    2    0  501  0.72167252855E+02  0.14781851299E+03  0.35202841352E+03  0.42533684192E+03  0.17300000000E+03 0. -1.
<mgrwt>
<rscale>  2 0.23872039E+03</rscale>
<asrwt>0</asrwt>
<pdfrwt beam="2">  1        1 0.12838031E-01 0.23872039E+03</pdfrwt>
<pdfrwt beam="1">  1       -1 0.10663819E+00 0.23872039E+03</pdfrwt>
<totfact> 0.40038757E+02</totfact>
</mgrwt>
</event>
<event>
 4    1  0.8249026E-001  0.1766125E+03  0.7546771E-02  0.1171122E+00
          1   -1    0    0  502    0  0.00000000000E+00  0.00000000000E+00  0.17857210675E+04  0.17857210675E+04  0.00000000000E+00 0.  1.
         -1   -1    0    0    0  501 -0.00000000000E+00 -0.00000000000E+00 -0.17508033357E+02  0.17508033357E+02  0.00000000000E+00 0. -1.
          6    1    1    2  502    0  0.31550916922E+02 -0.16356216389E+02  0.84069569134E+03  0.85904669932E+03  0.17300000000E+03 0. -1.
         -6    1    1    2    0  501 -0.31550916922E+02  0.16356216389E+02  0.92751734277E+03  0.94418240150E+03  0.17300000000E+03 0.  1.
<mgrwt>
<rscale>  2 0.17661253E+03</rscale>
<asrwt>0</asrwt>
<pdfrwt beam="1">  1        1 0.27472617E+00 0.17661253E+03</pdfrwt>
<pdfrwt beam="2">  1       -1 0.26935450E-02 0.17661253E+03</pdfrwt>
<totfact> 0.20587902E+03</totfact>
</mgrwt>
</event>
<event>
 4    1  0.8249026E-001  0.2546935E+03  0.7546771E-02  0.1110374E+00
         -4   -1    0    0    0  501 -0.00000000000E+00  0.00000000000E+00  0.94981373169E+03  0.94981373169E+03  0.00000000000E+00 0. -1.
          4   -1    0    0  502    0  0.00000000000E+00 -0.00000000000E+00 -0.69690902766E+02  0.69690902766E+02  0.00000000000E+00 0.  1.
          6    1    1    2  502    0 -0.76209749109E+02 -0.17068062415E+03  0.51217054103E+03  0.57200302833E+03  0.17300000000E+03 0. -1.
         -6    1    1    2    0  501  0.76209749109E+02  0.17068062415E+03  0.36795228789E+03  0.44750160612E+03  0.17300000000E+03 0.  1.
<mgrwt>
<rscale>  2 0.25469354E+03</rscale>
<asrwt>0</asrwt>
<pdfrwt beam="2">  1        4 0.10721678E-01 0.25469354E+03</pdfrwt>
<pdfrwt beam="1">  1       -4 0.14612518E+00 0.25469354E+03</pdfrwt>
<totfact> 0.41690164E+01</totfact>
</mgrwt>
</event>
<event>
 4    1  0.8249026E-001  0.2343183E+03  0.7546771E-02  0.1123637E+00
         -2   -1    0    0    0  501 -0.00000000000E+00  0.00000000000E+00  0.16273218151E+03  0.16273218151E+03  0.00000000000E+00 0.  1.
          2   -1    0    0  502    0  0.00000000000E+00 -0.00000000000E+00 -0.35190878739E+03  0.35190878739E+03  0.00000000000E+00 0. -1.
          6    1    1    2  502    0  0.15317458394E+03  0.38904920326E+02 -0.14684569066E+03  0.27652975040E+03  0.17300000000E+03 0. -1.
         -6    1    1    2    0  501 -0.15317458394E+03 -0.38904920326E+02 -0.42330915224E+02  0.23811121850E+03  0.17300000000E+03 0. -1.
<mgrwt>
<rscale>  2 0.23431826E+03</rscale>
<asrwt>0</asrwt>
<pdfrwt beam="2">  1        2 0.54139813E-01 0.23431826E+03</pdfrwt>
<pdfrwt beam="1">  1       -2 0.25035720E-01 0.23431826E+03</pdfrwt>
<totfact> 0.12997054E+03</totfact>
</mgrwt>
</event>
<event>
 4    1  0.8249026E-001  0.1753088E+03  0.7546771E-02  0.1172422E+00
          2   -1    0    0  502    0  0.00000000000E+00  0.00000000000E+00  0.42375363525E+03  0.42375363525E+03  0.00000000000E+00 0. -1.
         -2   -1    0    0    0  501 -0.00000000000E+00 -0.00000000000E+00 -0.20948557722E+03  0.20948557722E+03  0.00000000000E+00 0.  1.
          6    1    1    2  502    0 -0.11722377633E+02  0.25821923040E+02 -0.14887591392E+03  0.22999396425E+03  0.17300000000E+03 0.  1.
         -6    1    1    2    0  501  0.11722377633E+02 -0.25821923040E+02  0.36314397195E+03  0.40324524822E+03  0.17300000000E+03 0. -1.
<mgrwt>
<rscale>  2 0.17530883E+03</rscale>
<asrwt>0</asrwt>
<pdfrwt beam="1">  1        2 0.65192867E-01 0.17530883E+03</pdfrwt>
<pdfrwt beam="2">  1       -2 0.32228550E-01 0.17530883E+03</pdfrwt>
<totfact> 0.67311790E+02</totfact>
</mgrwt>
</event>
