<event>
 4    1  0.1259333E+000  0.2006141E+03  0.7818608E-02  0.1149222E+00
         21   -1    0    0  501  502  0.00000000000E+00  0.00000000000E+00  0.66624636494E+03  0.66624636494E+03  0.00000000000E+00 0. -1.
         21   -1    0    0  502  503 -0.00000000000E+00 -0.00000000000E+00 -0.60431778831E+02  0.60431778831E+02  0.00000000000E+00 0.  1.
          6    1    1    2  501    0 -0.29817846100E+02 -0.98857975896E+02  0.31025141774E+03  0.36946169700E+03  0.17200000000E+03 0.  1.
         -6    1    1    2    0  503  0.29817846100E+02  0.98857975896E+02  0.29556316837E+03  0.35721644677E+03  0.17200000000E+03 0.  1.
</event>
<event>
 4    1  0.1259333E+000  0.2366423E+03  0.7818608E-02  0.1122050E+00
         21   -1    0    0  503  502  0.00000000000E+00  0.00000000000E+00  0.30832067267E+03  0.30832067267E+03  0.00000000000E+00 0.  1.
         21   -1    0    0  501  503 -0.00000000000E+00 -0.00000000000E+00 -0.21321199522E+03  0.21321199522E+03  0.00000000000E+00 0.  1.
          6    1    1    2  501    0  0.99277170236E+02 -0.12868422050E+03 -0.52810378520E+02  0.24246344305E+03  0.17200000000E+03 0.  1.
         -6    1    1    2    0  502 -0.99277170236E+02  0.12868422050E+03  0.14791905597E+03  0.27906922484E+03  0.17200000000E+03 0.  1.
</event>
<event>
 4    1  0.1259333E+000  0.3381483E+03  0.7818608E-02  0.1067587E+00
         21   -1    0    0  503  502  0.00000000000E+00  0.00000000000E+00  0.34873687287E+04  0.34873687287E+04  0.00000000000E+00 0.  1.
         21   -1    0    0  501  503 -0.00000000000E+00 -0.00000000000E+00 -0.45722203038E+02  0.45722203038E+02  0.00000000000E+00 0. -1.
          6    1    1    2  501    0 -0.16762159298E+03 -0.23804046255E+03  0.78125337921E+03  0.85129378170E+03  0.17200000000E+03 0. -1.
         -6    1    1    2    0  502  0.16762159298E+03  0.23804046255E+03  0.26603931464E+04  0.26817971500E+04  0.17200000000E+03 0. -1.
</event>
<event>
 4    1  0.1259333E+000  0.2690909E+03  0.7818608E-02  0.1101801E+00
         21   -1    0    0  501  502  0.00000000000E+00  0.00000000000E+00  0.51194380527E+03  0.51194380527E+03  0.00000000000E+00 0.  1.
         21   -1    0    0  502  503 -0.00000000000E+00 -0.00000000000E+00 -0.83862942112E+03  0.83862942112E+03  0.00000000000E+00 0.  1.
          6    1    1    2  501    0 -0.19330492474E+03  0.73885944108E+02  0.45236991188E+03  0.52635393400E+03  0.17200000000E+03 0.  1.
         -6    1    1    2    0  503  0.19330492474E+03 -0.73885944108E+02 -0.77905552773E+03  0.82421929239E+03  0.17200000000E+03 0.  1.
</event>
<event>
 4    1  0.1259333E+000  0.2859628E+03  0.7818608E-02  0.1092476E+00
         21   -1    0    0  503  502  0.00000000000E+00  0.00000000000E+00  0.59621584112E+03  0.59621584112E+03  0.00000000000E+00 0.  1.
         21   -1    0    0  501  503 -0.00000000000E+00 -0.00000000000E+00 -0.13746777541E+03  0.13746777541E+03  0.00000000000E+00 0. -1.
          6    1    1    2  501    0  0.17014717936E+03 -0.15244882099E+03  0.21190968619E+03  0.35592193071E+03  0.17200000000E+03 0. -1.
         -6    1    1    2    0  502 -0.17014717936E+03  0.15244882099E+03  0.24683837953E+03  0.37776168582E+03  0.17200000000E+03 0.  1.
</event>
<event>
 4    1  0.1259333E+000  0.1828849E+03  0.7818608E-02  0.1165040E+00
         21   -1    0    0  503  502  0.00000000000E+00  0.00000000000E+00  0.61782183248E+02  0.61782183248E+02  0.00000000000E+00 0.  1.
         21   -1    0    0  501  503 -0.00000000000E+00 -0.00000000000E+00 -0.58395789284E+03  0.58395789284E+03  0.00000000000E+00 0.  1.
          6    1    1    2  501    0  0.38229897442E+02  0.49003662920E+02 -0.34828280224E+03  0.39337996184E+03  0.17200000000E+03 0.  1.
         -6    1    1    2    0  502 -0.38229897442E+02 -0.49003662920E+02 -0.17389290735E+03  0.25236011425E+03  0.17200000000E+03 0.  1.
</event>
<event>
 4    1  0.1259333E+000  0.2964542E+03  0.7818608E-02  0.1087027E+00
         21   -1    0    0  501  502  0.00000000000E+00  0.00000000000E+00  0.40543028096E+03  0.40543028096E+03  0.00000000000E+00 0. -1.
         21   -1    0    0  502  503 -0.00000000000E+00 -0.00000000000E+00 -0.31128086075E+03  0.31128086075E+03  0.00000000000E+00 0. -1.
          6    1    1    2  501    0  0.21483911926E+03  0.11020552995E+03  0.24453460470E+03  0.38429452103E+03  0.17200000000E+03 0. -1.
         -6    1    1    2    0  503 -0.21483911926E+03 -0.11020552995E+03 -0.15038518448E+03  0.33241662069E+03  0.17200000000E+03 0. -1.
</event>
<event>
 4    1  0.1259333E+000  0.1793383E+03  0.7818608E-02  0.1168445E+00
         21   -1    0    0  503  502  0.00000000000E+00  0.00000000000E+00  0.21504375373E+03  0.21504375373E+03  0.00000000000E+00 0.  1.
         21   -1    0    0  501  503 -0.00000000000E+00 -0.00000000000E+00 -0.24127363656E+03  0.24127363656E+03  0.00000000000E+00 0.  1.
          6    1    1    2  501    0  0.27101118077E+02  0.42938788697E+02 -0.15378320082E+03  0.23624454074E+03  0.17200000000E+03 0.  1.
         -6    1    1    2    0  502 -0.27101118077E+02 -0.42938788697E+02  0.12755331799E+03  0.22007284954E+03  0.17200000000E+03 0.  1.
</event>
<event>
 4    1  0.1259333E+000  0.2112813E+03  0.7818608E-02  0.1140555E+00
         21   -1    0    0  501  502  0.00000000000E+00  0.00000000000E+00  0.30980792274E+03  0.30980792274E+03  0.00000000000E+00 0.  1.
         21   -1    0    0  502  503 -0.00000000000E+00 -0.00000000000E+00 -0.27016677001E+03  0.27016677001E+03  0.00000000000E+00 0.  1.
          6    1    1    2  501    0  0.46153004933E+02  0.11369111046E+03  0.21791997162E+03  0.30352739990E+03  0.17200000000E+03 0.  1.
         -6    1    1    2    0  503 -0.46153004933E+02 -0.11369111046E+03 -0.17827881889E+03  0.27644729285E+03  0.17200000000E+03 0.  1.
</event>
<event>
 4    1  0.1259333E+000  0.2863191E+03  0.7818608E-02  0.1092287E+00
         21   -1    0    0  503  502  0.00000000000E+00  0.00000000000E+00  0.19939941585E+04  0.19939941585E+04  0.00000000000E+00 0. -1.
         21   -1    0    0  501  503 -0.00000000000E+00 -0.00000000000E+00 -0.98490987781E+02  0.98490987781E+02  0.00000000000E+00 0.  1.
          6    1    1    2  501    0 -0.22460649519E+03  0.44119516747E+02  0.14919132335E+03  0.32285702781E+03  0.17200000000E+03 0.  1.
         -6    1    1    2    0  502  0.22460649519E+03 -0.44119516747E+02  0.17463118474E+04  0.17696281185E+04  0.17200000000E+03 0. -1.
</event>
<event>
 4    1  0.1259333E+000  0.1835132E+03  0.7818608E-02  0.1164446E+00
         21   -1    0    0  501  502  0.00000000000E+00  0.00000000000E+00  0.12813946370E+03  0.12813946370E+03  0.00000000000E+00 0.  1.
         21   -1    0    0  502  503 -0.00000000000E+00 -0.00000000000E+00 -0.38617022378E+03  0.38617022378E+03  0.00000000000E+00 0.  1.
          6    1    1    2  501    0  0.63847918971E+02 -0.40676669936E+01  0.16323667761E+02  0.18423779417E+03  0.17200000000E+03 0.  1.
         -6    1    1    2    0  503 -0.63847918971E+02  0.40676669936E+01 -0.27435442785E+03  0.33007189331E+03  0.17200000000E+03 0.  1.
</event>
<event>
 4    1  0.1259333E+000  0.1823899E+03  0.7818608E-02  0.1165510E+00
         21   -1    0    0  503  502  0.00000000000E+00  0.00000000000E+00  0.70712310207E+02  0.70712310207E+02  0.00000000000E+00 0. -1.
         21   -1    0    0  501  503 -0.00000000000E+00 -0.00000000000E+00 -0.48101967565E+03  0.48101967565E+03  0.00000000000E+00 0. -1.
          6    1    1    2  501    0  0.48509736326E+02 -0.36454045234E+02 -0.24606062116E+03  0.30628731808E+03  0.17200000000E+03 0. -1.
         -6    1    1    2    0  502 -0.48509736326E+02  0.36454045234E+02 -0.16424674429E+03  0.24544466778E+03  0.17200000000E+03 0. -1.
</event>
<event>
 4    1  0.1259333E+000  0.2631333E+03  0.7818608E-02  0.1105275E+00
         21   -1    0    0  501  502  0.00000000000E+00  0.00000000000E+00  0.90181166630E+02  0.90181166630E+02  0.00000000000E+00 0. -1.
         21   -1    0    0  502  503 -0.00000000000E+00 -0.00000000000E+00 -0.10249642519E+04  0.10249642519E+04  0.00000000000E+00 0.  1.
          6    1    1    2  501    0 -0.14086566099E+03 -0.14075503320E+03 -0.18809147409E+03  0.32344631153E+03  0.17200000000E+03 0. -1.
         -6    1    1    2    0  503  0.14086566099E+03  0.14075503320E+03 -0.74669161116E+03  0.79169910698E+03  0.17200000000E+03 0.  1.
</event>
<event>
 4    1  0.1259333E+000  0.1958408E+03  0.7818608E-02  0.1153296E+00
         21   -1    0    0  503  502  0.00000000000E+00  0.00000000000E+00  0.53083754654E+03  0.53083754654E+03  0.00000000000E+00 0.  1.
         21   -1    0    0  501  503 -0.00000000000E+00 -0.00000000000E+00 -0.75624849420E+02  0.75624849420E+02  0.00000000000E+00 0. -1.
          6    1    1    2  501    0 -0.82116867527E+02 -0.45015881213E+02  0.16355969018E+03  0.25515756259E+03  0.17200000000E+03 0.  1.
         -6    1    1    2    0  502  0.82116867527E+02  0.45015881213E+02  0.29165300694E+03  0.35130483337E+03  0.17200000000E+03 0. -1.
</event>
<event>
 4    1  0.1259333E+000  0.2302435E+03  0.7818608E-02  0.1126468E+00
         21   -1    0    0  501  502  0.00000000000E+00  0.00000000000E+00  0.46703847057E+03  0.46703847057E+03  0.00000000000E+00 0.  1.
         21   -1    0    0  502  503 -0.00000000000E+00 -0.00000000000E+00 -0.17191000595E+03  0.17191000595E+03  0.00000000000E+00 0.  1.
          6    1    1    2  501    0  0.71085537978E+02  0.13555416553E+03 -0.38645881391E+02  0.23346432201E+03  0.17200000000E+03 0. -1.
         -6    1    1    2    0  503 -0.71085537978E+02 -0.13555416553E+03  0.33377434602E+03  0.40548415451E+03  0.17200000000E+03 0. -1.
</event>
<event>
 4    1  0.1259333E+000  0.1882473E+03  0.7818608E-02  0.1160052E+00
         21   -1    0    0  501  502  0.00000000000E+00  0.00000000000E+00  0.12762959814E+03  0.12762959814E+03  0.00000000000E+00 0.  1.
         21   -1    0    0  502  503 -0.00000000000E+00 -0.00000000000E+00 -0.28211834455E+03  0.28211834455E+03  0.00000000000E+00 0.  1.
          6    1    1    2  501    0 -0.76467841690E+02 -0.23872353558E+01 -0.10301283577E+03  0.21458954783E+03  0.17200000000E+03 0. -1.
         -6    1    1    2    0  503  0.76467841690E+02  0.23872353558E+01 -0.51475910641E+02  0.19515839485E+03  0.17200000000E+03 0. -1.
</event>
<event>
 4    1  0.1259333E+000  0.2051500E+03  0.7818608E-02  0.1145465E+00
         21   -1    0    0  503  502  0.00000000000E+00  0.00000000000E+00  0.34081028468E+03  0.34081028468E+03  0.00000000000E+00 0. -1.
         21   -1    0    0  501  503 -0.00000000000E+00 -0.00000000000E+00 -0.13358353498E+03  0.13358353498E+03  0.00000000000E+00 0. -1.
          6    1    1    2  501    0 -0.11181383241E+03  0.43905672371E+00  0.38411091873E+02  0.20871496800E+03  0.17200000000E+03 0. -1.
         -6    1    1    2    0  502  0.11181383241E+03 -0.43905672371E+00  0.16881565782E+03  0.26567885165E+03  0.17200000000E+03 0. -1.
</event>
<event>
 4    1  0.1259333E+000  0.3893543E+03  0.7818608E-02  0.1047530E+00
         21   -1    0    0  501  502  0.00000000000E+00  0.00000000000E+00  0.12231111601E+04  0.12231111601E+04  0.00000000000E+00 0.  1.
         21   -1    0    0  502  503 -0.00000000000E+00 -0.00000000000E+00 -0.12535764117E+03  0.12535764117E+03  0.00000000000E+00 0. -1.
          6    1    1    2  501    0  0.31347650176E+03 -0.15409490033E+03  0.62048651116E+03  0.73253004444E+03  0.17200000000E+03 0.  1.
         -6    1    1    2    0  503 -0.31347650176E+03  0.15409490033E+03  0.47726700780E+03  0.61593875686E+03  0.17200000000E+03 0. -1.
</event>
<event>
 4    1  0.1259333E+000  0.1800129E+03  0.7818608E-02  0.1167791E+00
         21   -1    0    0  501  502  0.00000000000E+00  0.00000000000E+00  0.47808998722E+02  0.47808998722E+02  0.00000000000E+00 0.  1.
         21   -1    0    0  502  503 -0.00000000000E+00 -0.00000000000E+00 -0.91898904437E+03  0.91898904437E+03  0.00000000000E+00 0. -1.
          6    1    1    2  501    0 -0.12462999138E+02 -0.51626870267E+02 -0.18794212426E+03  0.26024392818E+03  0.17200000000E+03 0.  1.
         -6    1    1    2    0  503  0.12462999138E+02  0.51626870267E+02 -0.68323792139E+03  0.70655411491E+03  0.17200000000E+03 0. -1.
</event>
<event>
 4    1  0.1259333E+000  0.2008839E+03  0.7818608E-02  0.1148995E+00
         21   -1    0    0  501  502  0.00000000000E+00  0.00000000000E+00  0.44599528450E+03  0.44599528450E+03  0.00000000000E+00 0.  1.
         21   -1    0    0  502  503 -0.00000000000E+00 -0.00000000000E+00 -0.16931365394E+03  0.16931365394E+03  0.00000000000E+00 0. -1.
          6    1    1    2  501    0  0.66139605587E+02  0.79974375795E+02  0.34826804461E+03  0.40205096581E+03  0.17200000000E+03 0.  1.
         -6    1    1    2    0  503 -0.66139605587E+02 -0.79974375795E+02 -0.71586414055E+02  0.21325797263E+03  0.17200000000E+03 0. -1.
</event>
<event>
 4    1  0.1259333E+000  0.2033862E+03  0.7818608E-02  0.1146913E+00
         21   -1    0    0  503  502  0.00000000000E+00  0.00000000000E+00  0.12882001594E+03  0.12882001594E+03  0.00000000000E+00 0. -1.
         21   -1    0    0  501  503 -0.00000000000E+00 -0.00000000000E+00 -0.32803812913E+03  0.32803812913E+03  0.00000000000E+00 0. -1.
          6    1    1    2  501    0  0.10164291786E+03 -0.38087615253E+02 -0.13279562886E+03  0.24290044922E+03  0.17200000000E+03 0.  1.
         -6    1    1    2    0  502 -0.10164291786E+03  0.38087615253E+02 -0.66422484327E+02  0.21395769585E+03  0.17200000000E+03 0.  1.
</event>
<event>
 4    1  0.1259333E+000  0.1952933E+03  0.7818608E-02  0.1153772E+00
         21   -1    0    0  501  502  0.00000000000E+00  0.00000000000E+00  0.84594248303E+03  0.84594248303E+03  0.00000000000E+00 0. -1.
         21   -1    0    0  502  503 -0.00000000000E+00 -0.00000000000E+00 -0.45596920200E+02  0.45596920200E+02  0.00000000000E+00 0. -1.
          6    1    1    2  501    0  0.75982832946E+02  0.52745475638E+02  0.35294864171E+03  0.40337602778E+03  0.17200000000E+03 0.  1.
         -6    1    1    2    0  503 -0.75982832946E+02 -0.52745475638E+02  0.44739692112E+03  0.48816337545E+03  0.17200000000E+03 0.  1.
</event>
<event>
 4    1  0.1259333E+000  0.1872383E+03  0.7818608E-02  0.1160976E+00
         21   -1    0    0  501  502  0.00000000000E+00  0.00000000000E+00  0.60891459876E+02  0.60891459876E+02  0.00000000000E+00 0.  1.
         21   -1    0    0  502  503 -0.00000000000E+00 -0.00000000000E+00 -0.75087933231E+03  0.75087933231E+03  0.00000000000E+00 0.  1.
          6    1    1    2  501    0  0.70579730761E+02 -0.22196082496E+02 -0.14897424483E+03  0.23927283610E+03  0.17200000000E+03 0.  1.
         -6    1    1    2    0  503 -0.70579730761E+02  0.22196082496E+02 -0.54101362760E+03  0.57249795609E+03  0.17200000000E+03 0.  1.
</event>
<event>
 4    1  0.1259333E+000  0.2359207E+03  0.7818608E-02  0.1122541E+00
         21   -1    0    0  501  502  0.00000000000E+00  0.00000000000E+00  0.65587123836E+02  0.65587123836E+02  0.00000000000E+00 0. -1.
         21   -1    0    0  502  503 -0.00000000000E+00 -0.00000000000E+00 -0.92070297656E+03  0.92070297656E+03  0.00000000000E+00 0. -1.
          6    1    1    2  501    0  0.33340393744E+02 -0.15799681777E+03 -0.28957357850E+03  0.37351229384E+03  0.17200000000E+03 0.  1.
         -6    1    1    2    0  503 -0.33340393744E+02  0.15799681777E+03 -0.56554227422E+03  0.61277780656E+03  0.17200000000E+03 0.  1.
</event>
<event>
 4    1  0.1259333E+000  0.1954542E+03  0.7818608E-02  0.1153632E+00
         21   -1    0    0  501  502  0.00000000000E+00  0.00000000000E+00  0.14347095016E+03  0.14347095016E+03  0.00000000000E+00 0. -1.
         21   -1    0    0  502  503 -0.00000000000E+00 -0.00000000000E+00 -0.30314453286E+03  0.30314453286E+03  0.00000000000E+00 0.  1.
          6    1    1    2  501    0  0.91315795746E+02 -0.16726885050E+02 -0.19564817277E+01  0.19546404032E+03  0.17200000000E+03 0.  1.
         -6    1    1    2    0  503 -0.91315795746E+02  0.16726885050E+02 -0.15771710097E+03  0.25115144271E+03  0.17200000000E+03 0.  1.
</event>
<event>
 4    1  0.1259333E+000  0.2096841E+03  0.7818608E-02  0.1141816E+00
         21   -1    0    0  503  502  0.00000000000E+00  0.00000000000E+00  0.34931963786E+02  0.34931963786E+02  0.00000000000E+00 0.  1.
         21   -1    0    0  501  503 -0.00000000000E+00 -0.00000000000E+00 -0.17251739921E+04  0.17251739921E+04  0.00000000000E+00 0.  1.
          6    1    1    2  501    0 -0.11654567496E+03  0.28293395761E+02 -0.13027625505E+04  0.13195293379E+04  0.17200000000E+03 0.  1.
         -6    1    1    2    0  502  0.11654567496E+03 -0.28293395761E+02 -0.38747947789E+03  0.44057661806E+03  0.17200000000E+03 0.  1.
</event>
<event>
 4    1  0.1259333E+000  0.1983015E+03  0.7818608E-02  0.1151180E+00
         21   -1    0    0  503  502  0.00000000000E+00  0.00000000000E+00  0.23472329784E+03  0.23472329784E+03  0.00000000000E+00 0.  1.
         21   -1    0    0  501  503 -0.00000000000E+00 -0.00000000000E+00 -0.38388122002E+03  0.38388122002E+03  0.00000000000E+00 0.  1.
          6    1    1    2  501    0 -0.81990658871E+02 -0.54927438350E+02 -0.30677941298E+03  0.36529043220E+03  0.17200000000E+03 0.  1.
         -6    1    1    2    0  502  0.81990658871E+02  0.54927438350E+02  0.15762149081E+03  0.25331408565E+03  0.17200000000E+03 0.  1.
</event>
<event>
 4    1  0.1259333E+000  0.2789113E+03  0.7818608E-02  0.1096285E+00
         21   -1    0    0  503  502  0.00000000000E+00  0.00000000000E+00  0.50997675112E+03  0.50997675112E+03  0.00000000000E+00 0.  1.
         21   -1    0    0  501  503 -0.00000000000E+00 -0.00000000000E+00 -0.15279279336E+03  0.15279279336E+03  0.00000000000E+00 0. -1.
          6    1    1    2  501    0 -0.11643895621E+03  0.18614365200E+03  0.16509377321E+03  0.32411023380E+03  0.17200000000E+03 0.  1.
         -6    1    1    2    0  502  0.11643895621E+03 -0.18614365200E+03  0.19209018455E+03  0.33865931067E+03  0.17200000000E+03 0.  1.
</event>
<event>
 4    1  0.1259333E+000  0.1729501E+03  0.7818608E-02  0.1174806E+00
         21   -1    0    0  501  502  0.00000000000E+00  0.00000000000E+00  0.58326198503E+02  0.58326198503E+02  0.00000000000E+00 0.  1.
         21   -1    0    0  502  503 -0.00000000000E+00 -0.00000000000E+00 -0.52711171175E+03  0.52711171175E+03  0.00000000000E+00 0.  1.
          6    1    1    2  501    0 -0.12490650282E+02  0.13104104022E+02 -0.18621917385E+03  0.25414427909E+03  0.17200000000E+03 0.  1.
         -6    1    1    2    0  503  0.12490650282E+02 -0.13104104022E+02 -0.28256633939E+03  0.33129363116E+03  0.17200000000E+03 0.  1.
</event>
<event>
 4    1  0.1259333E+000  0.2597867E+03  0.7818608E-02  0.1107271E+00
         21   -1    0    0  503  502  0.00000000000E+00  0.00000000000E+00  0.34823358170E+03  0.34823358170E+03  0.00000000000E+00 0. -1.
         21   -1    0    0  501  503 -0.00000000000E+00 -0.00000000000E+00 -0.60981984104E+03  0.60981984104E+03  0.00000000000E+00 0. -1.
          6    1    1    2  501    0  0.23995841271E+02  0.19320795251E+03 -0.52644553615E+03  0.58705537716E+03  0.17200000000E+03 0. -1.
         -6    1    1    2    0  502 -0.23995841271E+02 -0.19320795251E+03  0.26485927682E+03  0.37099804559E+03  0.17200000000E+03 0. -1.
</event>
<event>
 4    1  0.1259333E+000  0.1831560E+03  0.7818608E-02  0.1164783E+00
         21   -1    0    0  503  502  0.00000000000E+00  0.00000000000E+00  0.41659097154E+02  0.41659097154E+02  0.00000000000E+00 0.  1.
         21   -1    0    0  501  503 -0.00000000000E+00 -0.00000000000E+00 -0.11473063162E+04  0.11473063162E+04  0.00000000000E+00 0.  1.
          6    1    1    2  501    0  0.22702967961E+02  0.58708508125E+02 -0.87742204709E+03  0.89633451478E+03  0.17200000000E+03 0.  1.
         -6    1    1    2    0  502 -0.22702967961E+02 -0.58708508125E+02 -0.22822517195E+03  0.29263089856E+03  0.17200000000E+03 0.  1.
</event>
<event>
 4    1  0.1259333E+000  0.1851822E+03  0.7818608E-02  0.1162880E+00
         21   -1    0    0  503  502  0.00000000000E+00  0.00000000000E+00  0.14047255822E+03  0.14047255822E+03  0.00000000000E+00 0.  1.
         21   -1    0    0  501  503 -0.00000000000E+00 -0.00000000000E+00 -0.31839538380E+03  0.31839538380E+03  0.00000000000E+00 0.  1.
          6    1    1    2  501    0  0.62866070571E+02  0.27500779268E+02 -0.19977450506E+03  0.27240097019E+03  0.17200000000E+03 0.  1.
         -6    1    1    2    0  502 -0.62866070571E+02 -0.27500779268E+02  0.21851679470E+02  0.18646697183E+03  0.17200000000E+03 0.  1.
</event>
<event>
 4    1  0.1259333E+000  0.2567792E+03  0.7818608E-02  0.1109094E+00
         21   -1    0    0  503  502  0.00000000000E+00  0.00000000000E+00  0.20766225297E+04  0.20766225297E+04  0.00000000000E+00 0.  1.
         21   -1    0    0  501  503 -0.00000000000E+00 -0.00000000000E+00 -0.33001414482E+02  0.33001414482E+02  0.00000000000E+00 0.  1.
          6    1    1    2  501    0  0.18438058588E+03 -0.48531770131E+02  0.81651575312E+03  0.85594013123E+03  0.17200000000E+03 0.  1.
         -6    1    1    2    0  502 -0.18438058588E+03  0.48531770131E+02  0.12271053621E+04  0.12536838129E+04  0.17200000000E+03 0.  1.
</event>
<event>
 4    1  0.1259333E+000  0.1858186E+03  0.7818608E-02  0.1162288E+00
         21   -1    0    0  503  502  0.00000000000E+00  0.00000000000E+00  0.14371245565E+03  0.14371245565E+03  0.00000000000E+00 0. -1.
         21   -1    0    0  501  503 -0.00000000000E+00 -0.00000000000E+00 -0.35139063795E+03  0.35139063795E+03  0.00000000000E+00 0.  1.
          6    1    1    2  501    0 -0.65893253488E+02  0.24548545543E+02 -0.24305368719E+03  0.30594713072E+03  0.17200000000E+03 0.  1.
         -6    1    1    2    0  502  0.65893253488E+02 -0.24548545543E+02  0.35375504884E+02  0.18915596287E+03  0.17200000000E+03 0.  1.
</event>
<event>
 4    1  0.1259333E+000  0.1882042E+03  0.7818608E-02  0.1160091E+00
         21   -1    0    0  503  502  0.00000000000E+00  0.00000000000E+00  0.33065619117E+02  0.33065619117E+02  0.00000000000E+00 0. -1.
         21   -1    0    0  501  503 -0.00000000000E+00 -0.00000000000E+00 -0.10753683866E+04  0.10753683866E+04  0.00000000000E+00 0. -1.
          6    1    1    2  501    0  0.38037504180E+02 -0.66256840590E+02 -0.48676267036E+03  0.52187998419E+03  0.17200000000E+03 0. -1.
         -6    1    1    2    0  502 -0.38037504180E+02  0.66256840590E+02 -0.55554009712E+03  0.58655402152E+03  0.17200000000E+03 0. -1.
</event>
<event>
 4    1  0.1259333E+000  0.1821140E+03  0.7818608E-02  0.1165773E+00
         21   -1    0    0  503  502  0.00000000000E+00  0.00000000000E+00  0.64047341402E+02  0.64047341402E+02  0.00000000000E+00 0.  1.
         21   -1    0    0  501  503 -0.00000000000E+00 -0.00000000000E+00 -0.62035136299E+03  0.62035136299E+03  0.00000000000E+00 0.  1.
          6    1    1    2  501    0 -0.55913722308E+01  0.59584088757E+02 -0.13903793953E+03  0.22912240332E+03  0.17200000000E+03 0. -1.
         -6    1    1    2    0  502  0.55913722308E+01 -0.59584088757E+02 -0.41726608205E+03  0.45527630106E+03  0.17200000000E+03 0. -1.
</event>
<event>
 4    1  0.1259333E+000  0.2224607E+03  0.7818608E-02  0.1132062E+00
         21   -1    0    0  503  502  0.00000000000E+00  0.00000000000E+00  0.15751081055E+03  0.15751081055E+03  0.00000000000E+00 0.  1.
         21   -1    0    0  501  503 -0.00000000000E+00 -0.00000000000E+00 -0.31524911880E+03  0.31524911880E+03  0.00000000000E+00 0.  1.
          6    1    1    2  501    0 -0.49232967659E+02 -0.13221525159E+03 -0.92552345926E+02  0.24094541829E+03  0.17200000000E+03 0.  1.
         -6    1    1    2    0  502  0.49232967659E+02  0.13221525159E+03 -0.65185962324E+02  0.23181451107E+03  0.17200000000E+03 0.  1.
</event>
<event>
 4    1  0.1259333E+000  0.1769114E+03  0.7818608E-02  0.1170826E+00
         21   -1    0    0  501  502  0.00000000000E+00  0.00000000000E+00  0.12110585468E+03  0.12110585468E+03  0.00000000000E+00 0. -1.
         21   -1    0    0  502  503 -0.00000000000E+00 -0.00000000000E+00 -0.29604468258E+03  0.29604468258E+03  0.00000000000E+00 0. -1.
          6    1    1    2  501    0  0.31649853027E+02 -0.26682206554E+02 -0.13124692809E+02  0.17739760682E+03  0.17200000000E+03 0. -1.
         -6    1    1    2    0  503 -0.31649853027E+02  0.26682206554E+02 -0.16181413508E+03  0.23975293044E+03  0.17200000000E+03 0. -1.
</event>
<event>
 4    1  0.1259333E+000  0.1942940E+03  0.7818608E-02  0.1154644E+00
         21   -1    0    0  501  502  0.00000000000E+00  0.00000000000E+00  0.63336045169E+03  0.63336045169E+03  0.00000000000E+00 0. -1.
         21   -1    0    0  502  503 -0.00000000000E+00 -0.00000000000E+00 -0.62420453251E+02  0.62420453251E+02  0.00000000000E+00 0. -1.
          6    1    1    2  501    0 -0.80850360233E+02  0.40365730526E+02  0.35938092356E+03  0.40853986484E+03  0.17200000000E+03 0.  1.
         -6    1    1    2    0  503  0.80850360233E+02 -0.40365730526E+02  0.21155907488E+03  0.28724104009E+03  0.17200000000E+03 0.  1.
</event>
<event>
 4    1  0.1259333E+000  0.1958286E+03  0.7818608E-02  0.1153307E+00
         21   -1    0    0  501  502  0.00000000000E+00  0.00000000000E+00  0.20442952173E+03  0.20442952173E+03  0.00000000000E+00 0. -1.
         21   -1    0    0  502  503 -0.00000000000E+00 -0.00000000000E+00 -0.40612597809E+03  0.40612597809E+03  0.00000000000E+00 0. -1.
          6    1    1    2  501    0  0.80772504224E+02  0.47335289692E+02  0.12308923778E+03  0.23130021086E+03  0.17200000000E+03 0. -1.
         -6    1    1    2    0  503 -0.80772504224E+02 -0.47335289692E+02 -0.32478569413E+03  0.37925528896E+03  0.17200000000E+03 0. -1.
</event>
<event>
 4    1  0.1259333E+000  0.1886528E+03  0.7818608E-02  0.1159682E+00
         21   -1    0    0  503  502  0.00000000000E+00  0.00000000000E+00  0.22668481805E+02  0.22668481805E+02  0.00000000000E+00 0.  1.
         21   -1    0    0  501  503 -0.00000000000E+00 -0.00000000000E+00 -0.15700181243E+04  0.15700181243E+04  0.00000000000E+00 0.  1.
          6    1    1    2  501    0 -0.10664034568E+02  0.76760486222E+02 -0.77444632796E+03  0.79709284827E+03  0.17200000000E+03 0. -1.
         -6    1    1    2    0  502  0.10664034568E+02 -0.76760486222E+02 -0.77290331449E+03  0.79559375779E+03  0.17200000000E+03 0. -1.
</event>
<event>
 4    1  0.1259333E+000  0.4601584E+03  0.7818608E-02  0.1024735E+00
         21   -1    0    0  501  502  0.00000000000E+00  0.00000000000E+00  0.69261486616E+03  0.69261486616E+03  0.00000000000E+00 0. -1.
         21   -1    0    0  502  503 -0.00000000000E+00 -0.00000000000E+00 -0.42712603912E+03  0.42712603912E+03  0.00000000000E+00 0.  1.
          6    1    1    2  501    0  0.29605205148E+03  0.30743288314E+03  0.43123508228E+03  0.63064212594E+03  0.17200000000E+03 0. -1.
         -6    1    1    2    0  503 -0.29605205148E+03 -0.30743288314E+03 -0.16574625523E+03  0.48909877934E+03  0.17200000000E+03 0.  1.
</event>
<event>
 4    1  0.1259333E+000  0.5063494E+03  0.7818608E-02  0.1012135E+00
         21   -1    0    0  501  502  0.00000000000E+00  0.00000000000E+00  0.41055945771E+03  0.41055945771E+03  0.00000000000E+00 0. -1.
         21   -1    0    0  502  503 -0.00000000000E+00 -0.00000000000E+00 -0.88727669899E+03  0.88727669899E+03  0.00000000000E+00 0.  1.
          6    1    1    2  501    0 -0.27843675510E+03 -0.38636599622E+03  0.11479459439E+03  0.51919891037E+03  0.17200000000E+03 0. -1.
         -6    1    1    2    0  503  0.27843675510E+03  0.38636599622E+03 -0.59151183568E+03  0.77863724633E+03  0.17200000000E+03 0. -1.
</event>
<event>
 4    1  0.1259333E+000  0.2174543E+03  0.7818608E-02  0.1135795E+00
         21   -1    0    0  501  502  0.00000000000E+00  0.00000000000E+00  0.19373343415E+02  0.19373343415E+02  0.00000000000E+00 0. -1.
         21   -1    0    0  502  503 -0.00000000000E+00 -0.00000000000E+00 -0.28082250826E+04  0.28082250826E+04  0.00000000000E+00 0.  1.
          6    1    1    2  501    0 -0.11260702066E+03 -0.70866444005E+02 -0.88302897201E+03  0.90941000621E+03  0.17200000000E+03 0. -1.
         -6    1    1    2    0  503  0.11260702066E+03  0.70866444005E+02 -0.19058227672E+04  0.19181884198E+04  0.17200000000E+03 0.  1.
</event>
<event>
 4    1  0.1259333E+000  0.1904336E+03  0.7818608E-02  0.1158071E+00
         21   -1    0    0  501  502  0.00000000000E+00  0.00000000000E+00  0.16540404660E+03  0.16540404660E+03  0.00000000000E+00 0.  1.
         21   -1    0    0  502  503 -0.00000000000E+00 -0.00000000000E+00 -0.22413508974E+03  0.22413508974E+03  0.00000000000E+00 0.  1.
          6    1    1    2  501    0 -0.75175749898E+02 -0.32086778109E+02 -0.61333533470E+00  0.19043458426E+03  0.17200000000E+03 0.  1.
         -6    1    1    2    0  503  0.75175749898E+02  0.32086778109E+02 -0.58117707805E+02  0.19910455209E+03  0.17200000000E+03 0.  1.
</event>
<event>
 4    1  0.1259333E+000  0.2191884E+03  0.7818608E-02  0.1134490E+00
         21   -1    0    0  501  502  0.00000000000E+00  0.00000000000E+00  0.83376104266E+02  0.83376104266E+02  0.00000000000E+00 0. -1.
         21   -1    0    0  502  503 -0.00000000000E+00 -0.00000000000E+00 -0.70420683702E+03  0.70420683702E+03  0.00000000000E+00 0. -1.
          6    1    1    2  501    0 -0.11062612861E+03  0.78875952113E+02 -0.47829077812E+03  0.52612320286E+03  0.17200000000E+03 0. -1.
         -6    1    1    2    0  503  0.11062612861E+03 -0.78875952113E+02 -0.14253995464E+03  0.26145973843E+03  0.17200000000E+03 0. -1.
</event>
<event>
 4    1  0.1259333E+000  0.1791104E+03  0.7818608E-02  0.1168667E+00
         21   -1    0    0  503  502  0.00000000000E+00  0.00000000000E+00  0.33912082214E+02  0.33912082214E+02  0.00000000000E+00 0. -1.
         21   -1    0    0  501  503 -0.00000000000E+00 -0.00000000000E+00 -0.13434235403E+04  0.13434235403E+04  0.00000000000E+00 0. -1.
          6    1    1    2  501    0 -0.29779386836E+02 -0.40121251798E+02 -0.10293274478E+04  0.10447944877E+04  0.17200000000E+03 0.  1.
         -6    1    1    2    0  502  0.29779386836E+02  0.40121251798E+02 -0.28018401029E+03  0.33254113482E+03  0.17200000000E+03 0.  1.
</event>
<event>
 4    1  0.1259333E+000  0.2206459E+03  0.7818608E-02  0.1133402E+00
         21   -1    0    0  503  502  0.00000000000E+00  0.00000000000E+00  0.26970720870E+03  0.26970720870E+03  0.00000000000E+00 0.  1.
         21   -1    0    0  501  503 -0.00000000000E+00 -0.00000000000E+00 -0.18309306307E+03  0.18309306307E+03  0.00000000000E+00 0.  1.
          6    1    1    2  501    0 -0.12830271193E+03 -0.51371660380E+02  0.70202299183E+02  0.23154480385E+03  0.17200000000E+03 0. -1.
         -6    1    1    2    0  502  0.12830271193E+03  0.51371660380E+02  0.16411846442E+02  0.22125546792E+03  0.17200000000E+03 0. -1.
</event>
<event>
 4    1  0.1259333E+000  0.1987011E+03  0.7818608E-02  0.1150840E+00
         21   -1    0    0  503  502  0.00000000000E+00  0.00000000000E+00  0.42305656197E+03  0.42305656197E+03  0.00000000000E+00 0. -1.
         21   -1    0    0  501  503 -0.00000000000E+00 -0.00000000000E+00 -0.13538296753E+03  0.13538296753E+03  0.00000000000E+00 0. -1.
          6    1    1    2  501    0  0.63266436837E+02 -0.76782057826E+02  0.29946336274E+03  0.35938897042E+03  0.17200000000E+03 0. -1.
         -6    1    1    2    0  502 -0.63266436837E+02  0.76782057826E+02 -0.11789768309E+02  0.19905055908E+03  0.17200000000E+03 0. -1.
</event>
<event>
 4    1  0.1259333E+000  0.1800000E+03  0.7818608E-02  0.1167803E+00
         21   -1    0    0  501  502  0.00000000000E+00  0.00000000000E+00  0.63813535350E+03  0.63813535350E+03  0.00000000000E+00 0. -1.
         21   -1    0    0  502  503 -0.00000000000E+00 -0.00000000000E+00 -0.94124570149E+02  0.94124570149E+02  0.00000000000E+00 0. -1.
          6    1    1    2  501    0 -0.13330522502E+02  0.51364455617E+02  0.52048254746E+03  0.55072869213E+03  0.17200000000E+03 0. -1.
         -6    1    1    2    0  503  0.13330522502E+02 -0.51364455617E+02  0.23528235894E+02  0.18153123151E+03  0.17200000000E+03 0. -1.
</event>
<event>
 4    1  0.1259333E+000  0.1811258E+03  0.7818608E-02  0.1166718E+00
         21   -1    0    0  503  502  0.00000000000E+00  0.00000000000E+00  0.50207696491E+03  0.50207696491E+03  0.00000000000E+00 0.  1.
         21   -1    0    0  501  503 -0.00000000000E+00 -0.00000000000E+00 -0.66456732115E+02  0.66456732115E+02  0.00000000000E+00 0.  1.
          6    1    1    2  501    0 -0.46074198863E+02  0.33162098305E+02  0.18098851417E+03  0.25605350774E+03  0.17200000000E+03 0. -1.
         -6    1    1    2    0  502  0.46074198863E+02 -0.33162098305E+02  0.25463171863E+03  0.31248018929E+03  0.17200000000E+03 0. -1.
</event>
<event>
 4    1  0.1259333E+000  0.1772781E+03  0.7818608E-02  0.1170464E+00
         21   -1    0    0  501  502  0.00000000000E+00  0.00000000000E+00  0.35923727456E+03  0.35923727456E+03  0.00000000000E+00 0. -1.
         21   -1    0    0  502  503 -0.00000000000E+00 -0.00000000000E+00 -0.90005140685E+02  0.90005140685E+02  0.00000000000E+00 0. -1.
          6    1    1    2  501    0 -0.22303053954E+02  0.36689164788E+02  0.97022469191E+02  0.20209126789E+03  0.17200000000E+03 0. -1.
         -6    1    1    2    0  503  0.22303053954E+02 -0.36689164788E+02  0.17220966468E+03  0.24715114735E+03  0.17200000000E+03 0. -1.
</event>
<event>
 4    1  0.1259333E+000  0.1832852E+03  0.7818608E-02  0.1164661E+00
         21   -1    0    0  501  502  0.00000000000E+00  0.00000000000E+00  0.16510184587E+03  0.16510184587E+03  0.00000000000E+00 0.  1.
         21   -1    0    0  502  503 -0.00000000000E+00 -0.00000000000E+00 -0.23518339491E+03  0.23518339491E+03  0.00000000000E+00 0.  1.
          6    1    1    2  501    0 -0.53159889425E+02  0.34402075953E+02  0.38452763878E+02  0.18727544346E+03  0.17200000000E+03 0.  1.
         -6    1    1    2    0  503  0.53159889425E+02 -0.34402075953E+02 -0.10853431292E+03  0.21300979732E+03  0.17200000000E+03 0.  1.
</event>
<event>
 4    1  0.1259333E+000  0.1823741E+03  0.7818608E-02  0.1165525E+00
         21   -1    0    0  503  502  0.00000000000E+00  0.00000000000E+00  0.16021578911E+04  0.16021578911E+04  0.00000000000E+00 0.  1.
         21   -1    0    0  501  503 -0.00000000000E+00 -0.00000000000E+00 -0.10306071089E+03  0.10306071089E+03  0.00000000000E+00 0.  1.
          6    1    1    2  501    0  0.48237347054E+02  0.36735382377E+02 -0.12365601326E+02  0.18279288297E+03  0.17200000000E+03 0.  1.
         -6    1    1    2    0  502 -0.48237347054E+02 -0.36735382377E+02  0.15114627815E+04  0.15224257190E+04  0.17200000000E+03 0.  1.
</event>
<event>
 4    1  0.1259333E+000  0.2085280E+03  0.7818608E-02  0.1142737E+00
         21   -1    0    0  503  502  0.00000000000E+00  0.00000000000E+00  0.84788773273E+02  0.84788773273E+02  0.00000000000E+00 0.  1.
         21   -1    0    0  501  503 -0.00000000000E+00 -0.00000000000E+00 -0.69570802470E+03  0.69570802470E+03  0.00000000000E+00 0. -1.
          6    1    1    2  501    0 -0.59701631620E+02  0.10166435435E+03 -0.50553083086E+03  0.54685038787E+03  0.17200000000E+03 0. -1.
         -6    1    1    2    0  502  0.59701631620E+02 -0.10166435435E+03 -0.10538842057E+03  0.23364641010E+03  0.17200000000E+03 0.  1.
</event>
<event>
 4    1  0.1259333E+000  0.2519307E+03  0.7818608E-02  0.1112091E+00
         21   -1    0    0  501  502  0.00000000000E+00  0.00000000000E+00  0.18109254231E+03  0.18109254231E+03  0.00000000000E+00 0.  1.
         21   -1    0    0  502  503 -0.00000000000E+00 -0.00000000000E+00 -0.71426120616E+03  0.71426120616E+03  0.00000000000E+00 0.  1.
          6    1    1    2  501    0 -0.18407483846E+03 -0.12399218714E+01  0.52905483688E+02  0.25742586071E+03  0.17200000000E+03 0.  1.
         -6    1    1    2    0  503  0.18407483846E+03  0.12399218714E+01 -0.58607414754E+03  0.63792788776E+03  0.17200000000E+03 0.  1.
</event>
<event>
 4    1  0.1259333E+000  0.1901279E+03  0.7818608E-02  0.1158346E+00
         21   -1    0    0  501  502  0.00000000000E+00  0.00000000000E+00  0.36825358488E+03  0.36825358488E+03  0.00000000000E+00 0. -1.
         21   -1    0    0  502  503 -0.00000000000E+00 -0.00000000000E+00 -0.99778396388E+02  0.99778396388E+02  0.00000000000E+00 0. -1.
          6    1    1    2  501    0 -0.23087839267E+02  0.77663163509E+02  0.10445502138E+03  0.21693194043E+03  0.17200000000E+03 0. -1.
         -6    1    1    2    0  503  0.23087839267E+02 -0.77663163509E+02  0.16402016712E+03  0.25110004084E+03  0.17200000000E+03 0. -1.
</event>
<event>
 4    1  0.1259333E+000  0.2033822E+03  0.7818608E-02  0.1146916E+00
         21   -1    0    0  501  502  0.00000000000E+00  0.00000000000E+00  0.27316307489E+03  0.27316307489E+03  0.00000000000E+00 0. -1.
         21   -1    0    0  502  503 -0.00000000000E+00 -0.00000000000E+00 -0.15243475152E+03  0.15243475152E+03  0.00000000000E+00 0.  1.
          6    1    1    2  501    0  0.80804335985E+02 -0.72463684473E+02  0.43063777355E+02  0.20789135432E+03  0.17200000000E+03 0.  1.
         -6    1    1    2    0  503 -0.80804335985E+02  0.72463684473E+02  0.77664546014E+02  0.21770647209E+03  0.17200000000E+03 0.  1.
</event>
<event>
 4    1  0.1259333E+000  0.1799482E+03  0.7818608E-02  0.1167853E+00
         21   -1    0    0  501  502  0.00000000000E+00  0.00000000000E+00  0.26202049399E+02  0.26202049399E+02  0.00000000000E+00 0. -1.
         21   -1    0    0  502  503 -0.00000000000E+00 -0.00000000000E+00 -0.14045199093E+04  0.14045199093E+04  0.00000000000E+00 0. -1.
          6    1    1    2  501    0  0.45704216610E+02  0.26616997823E+02 -0.44124391024E+03  0.47652652425E+03  0.17200000000E+03 0. -1.
         -6    1    1    2    0  503 -0.45704216610E+02 -0.26616997823E+02 -0.93707394963E+03  0.95419543442E+03  0.17200000000E+03 0. -1.
</event>
<event>
 4    1  0.1259333E+000  0.1747307E+03  0.7818608E-02  0.1173002E+00
         21   -1    0    0  501  502  0.00000000000E+00  0.00000000000E+00  0.10511057947E+03  0.10511057947E+03  0.00000000000E+00 0. -1.
         21   -1    0    0  502  503 -0.00000000000E+00 -0.00000000000E+00 -0.50321942185E+03  0.50321942185E+03  0.00000000000E+00 0. -1.
          6    1    1    2  501    0  0.88325314028E+01  0.29475473322E+02 -0.12795654661E+01  0.17473538401E+03  0.17200000000E+03 0. -1.
         -6    1    1    2    0  503 -0.88325314028E+01 -0.29475473322E+02 -0.39682927692E+03  0.43359461731E+03  0.17200000000E+03 0. -1.
</event>
<event>
 4    1  0.1259333E+000  0.2198555E+03  0.7818608E-02  0.1133991E+00
         21   -1    0    0  501  502  0.00000000000E+00  0.00000000000E+00  0.85954667648E+03  0.85954667648E+03  0.00000000000E+00 0. -1.
         21   -1    0    0  502  503 -0.00000000000E+00 -0.00000000000E+00 -0.79757679705E+02  0.79757679705E+02  0.00000000000E+00 0. -1.
          6    1    1    2  501    0  0.13075245008E+03 -0.40697024408E+02  0.64495027379E+03  0.68139365029E+03  0.17200000000E+03 0.  1.
         -6    1    1    2    0  503 -0.13075245008E+03  0.40697024408E+02  0.13483872298E+03  0.25791070589E+03  0.17200000000E+03 0.  1.
</event>
<event>
 4    1  0.1259333E+000  0.2601581E+03  0.7818608E-02  0.1107048E+00
         21   -1    0    0  501  502  0.00000000000E+00  0.00000000000E+00  0.69198675642E+02  0.69198675642E+02  0.00000000000E+00 0.  1.
         21   -1    0    0  502  503 -0.00000000000E+00 -0.00000000000E+00 -0.20185500020E+04  0.20185500020E+04  0.00000000000E+00 0. -1.
          6    1    1    2  501    0  0.85564459507E+02  0.17543367931E+03 -0.22522680003E+03  0.34410661723E+03  0.17200000000E+03 0.  1.
         -6    1    1    2    0  503 -0.85564459507E+02 -0.17543367931E+03 -0.17241245264E+04  0.17436420604E+04  0.17200000000E+03 0.  1.
</event>
<event>
 4    1  0.1259333E+000  0.1879858E+03  0.7818608E-02  0.1160291E+00
         21   -1    0    0  503  502  0.00000000000E+00  0.00000000000E+00  0.58661502212E+03  0.58661502212E+03  0.00000000000E+00 0. -1.
         21   -1    0    0  501  503 -0.00000000000E+00 -0.00000000000E+00 -0.10473641615E+03  0.10473641615E+03  0.00000000000E+00 0.  1.
          6    1    1    2  501    0 -0.29737611726E+00 -0.75858850791E+02  0.15632393150E+02  0.18863463466E+03  0.17200000000E+03 0.  1.
         -6    1    1    2    0  502  0.29737611726E+00  0.75858850791E+02  0.46624621281E+03  0.50271680362E+03  0.17200000000E+03 0. -1.
</event>
<event>
 4    1  0.1259333E+000  0.2706570E+03  0.7818608E-02  0.1100904E+00
         21   -1    0    0  501  502  0.00000000000E+00  0.00000000000E+00  0.25789012756E+03  0.25789012756E+03  0.00000000000E+00 0. -1.
         21   -1    0    0  502  503 -0.00000000000E+00 -0.00000000000E+00 -0.32636058548E+03  0.32636058548E+03  0.00000000000E+00 0.  1.
          6    1    1    2  501    0 -0.16854149776E+03 -0.12355146203E+03  0.70940342102E+02  0.27979945028E+03  0.17200000000E+03 0. -1.
         -6    1    1    2    0  503  0.16854149776E+03  0.12355146203E+03 -0.13941080002E+03  0.30445126276E+03  0.17200000000E+03 0.  1.
</event>
<event>
 4    1  0.1259333E+000  0.2051431E+03  0.7818608E-02  0.1145471E+00
         21   -1    0    0  501  502  0.00000000000E+00  0.00000000000E+00  0.94964948917E+02  0.94964948917E+02  0.00000000000E+00 0. -1.
         21   -1    0    0  502  503 -0.00000000000E+00 -0.00000000000E+00 -0.44352108496E+03  0.44352108496E+03  0.00000000000E+00 0. -1.
          6    1    1    2  501    0 -0.11179546616E+03 -0.12055750921E+01 -0.16648596623E+03  0.26419927445E+03  0.17200000000E+03 0.  1.
         -6    1    1    2    0  503  0.11179546616E+03  0.12055750921E+01 -0.18207016981E+03  0.27428675943E+03  0.17200000000E+03 0.  1.
</event>
<event>
 4    1  0.1259333E+000  0.1876785E+03  0.7818608E-02  0.1160572E+00
         21   -1    0    0  501  502  0.00000000000E+00  0.00000000000E+00  0.23831131786E+03  0.23831131786E+03  0.00000000000E+00 0.  1.
         21   -1    0    0  502  503 -0.00000000000E+00 -0.00000000000E+00 -0.18113738681E+03  0.18113738681E+03  0.00000000000E+00 0.  1.
          6    1    1    2  501    0  0.73971854624E+02  0.12937240284E+02  0.11855513168E+03  0.22198767243E+03  0.17200000000E+03 0.  1.
         -6    1    1    2    0  503 -0.73971854624E+02 -0.12937240284E+02 -0.61381200625E+02  0.19746103224E+03  0.17200000000E+03 0.  1.
</event>
<event>
 4    1  0.1259333E+000  0.1883751E+03  0.7818608E-02  0.1159935E+00
         21   -1    0    0  501  502  0.00000000000E+00  0.00000000000E+00  0.50576471672E+03  0.50576471672E+03  0.00000000000E+00 0. -1.
         21   -1    0    0  502  503 -0.00000000000E+00 -0.00000000000E+00 -0.32550798518E+03  0.32550798518E+03  0.00000000000E+00 0. -1.
          6    1    1    2  501    0  0.52597457470E+02 -0.55988202559E+02  0.45825539738E+03  0.49546259252E+03  0.17200000000E+03 0. -1.
         -6    1    1    2    0  503 -0.52597457470E+02  0.55988202559E+02 -0.27799866584E+03  0.33581010938E+03  0.17200000000E+03 0. -1.
</event>
<event>
 4    1  0.1259333E+000  0.2106206E+03  0.7818608E-02  0.1141075E+00
         21   -1    0    0  501  502  0.00000000000E+00  0.00000000000E+00  0.14890447054E+03  0.14890447054E+03  0.00000000000E+00 0. -1.
         21   -1    0    0  502  503 -0.00000000000E+00 -0.00000000000E+00 -0.34253848500E+03  0.34253848500E+03  0.00000000000E+00 0. -1.
          6    1    1    2  501    0  0.84684247165E+02  0.87210122180E+02 -0.81289351638E+01  0.21077738663E+03  0.17200000000E+03 0. -1.
         -6    1    1    2    0  503 -0.84684247165E+02 -0.87210122180E+02 -0.18550507929E+03  0.28066556891E+03  0.17200000000E+03 0. -1.
</event>
<event>
 4    1  0.1259333E+000  0.1904081E+03  0.7818608E-02  0.1158094E+00
         21   -1    0    0  501  502  0.00000000000E+00  0.00000000000E+00  0.36939370962E+03  0.36939370962E+03  0.00000000000E+00 0. -1.
         21   -1    0    0  502  503 -0.00000000000E+00 -0.00000000000E+00 -0.10247607816E+03  0.10247607816E+03  0.00000000000E+00 0. -1.
          6    1    1    2  501    0 -0.21058524971E+02  0.78916190234E+02  0.18194658202E+03  0.26336245986E+03  0.17200000000E+03 0.  1.
         -6    1    1    2    0  503  0.21058524971E+02 -0.78916190234E+02  0.84971049434E+02  0.20850732792E+03  0.17200000000E+03 0.  1.
</event>
<event>
 4    1  0.1259333E+000  0.1998655E+03  0.7818608E-02  0.1149853E+00
         21   -1    0    0  503  502  0.00000000000E+00  0.00000000000E+00  0.28775585600E+03  0.28775585600E+03  0.00000000000E+00 0. -1.
         21   -1    0    0  501  503 -0.00000000000E+00 -0.00000000000E+00 -0.13903803352E+03  0.13903803352E+03  0.00000000000E+00 0. -1.
          6    1    1    2  501    0  0.44647180480E+02 -0.91481360893E+02  0.82813315791E+02  0.21634291157E+03  0.17200000000E+03 0. -1.
         -6    1    1    2    0  502 -0.44647180480E+02  0.91481360893E+02  0.65904506690E+02  0.21045097794E+03  0.17200000000E+03 0. -1.
</event>
<event>
 4    1  0.1259333E+000  0.2027929E+03  0.7818608E-02  0.1147404E+00
         21   -1    0    0  503  502  0.00000000000E+00  0.00000000000E+00  0.40057723867E+03  0.40057723867E+03  0.00000000000E+00 0. -1.
         21   -1    0    0  501  503 -0.00000000000E+00 -0.00000000000E+00 -0.10320679390E+03  0.10320679390E+03  0.00000000000E+00 0. -1.
          6    1    1    2  501    0  0.72166339850E+02 -0.79579944719E+02  0.16694902711E+03  0.26267265915E+03  0.17200000000E+03 0. -1.
         -6    1    1    2    0  502 -0.72166339850E+02  0.79579944719E+02  0.13042141766E+03  0.24111137342E+03  0.17200000000E+03 0. -1.
</event>
<event>
 4    1  0.1259333E+000  0.1765320E+03  0.7818608E-02  0.1171202E+00
         21   -1    0    0  501  502  0.00000000000E+00  0.00000000000E+00  0.10266143183E+03  0.10266143183E+03  0.00000000000E+00 0.  1.
         21   -1    0    0  502  503 -0.00000000000E+00 -0.00000000000E+00 -0.42987394478E+03  0.42987394478E+03  0.00000000000E+00 0.  1.
          6    1    1    2  501    0  0.28647683823E+02  0.27547204143E+02 -0.19268588447E+02  0.17758045147E+03  0.17200000000E+03 0.  1.
         -6    1    1    2    0  503 -0.28647683823E+02 -0.27547204143E+02 -0.30794392450E+03  0.35495492514E+03  0.17200000000E+03 0.  1.
</event>
<event>
 4    1  0.1259333E+000  0.2150555E+03  0.7818608E-02  0.1137624E+00
         21   -1    0    0  503  502  0.00000000000E+00  0.00000000000E+00  0.18913899675E+03  0.18913899675E+03  0.00000000000E+00 0.  1.
         21   -1    0    0  501  503 -0.00000000000E+00 -0.00000000000E+00 -0.26403998592E+03  0.26403998592E+03  0.00000000000E+00 0.  1.
          6    1    1    2  501    0  0.41168330796E+02  0.12235218561E+03 -0.99054382039E+02  0.23677132298E+03  0.17200000000E+03 0.  1.
         -6    1    1    2    0  502 -0.41168330796E+02 -0.12235218561E+03  0.24153392876E+02  0.21640765969E+03  0.17200000000E+03 0.  1.
</event>
<event>
 4    1  0.1259333E+000  0.6132644E+03  0.7818608E-02  0.9878262E-01
         21   -1    0    0  503  502  0.00000000000E+00  0.00000000000E+00  0.15468517076E+04  0.15468517076E+04  0.00000000000E+00 0.  1.
         21   -1    0    0  501  503 -0.00000000000E+00 -0.00000000000E+00 -0.28227019965E+03  0.28227019965E+03  0.00000000000E+00 0. -1.
          6    1    1    2  501    0  0.56321533279E+03  0.17116578415E+03  0.29175250270E+03  0.67912646804E+03  0.17200000000E+03 0.  1.
         -6    1    1    2    0  502 -0.56321533279E+03 -0.17116578415E+03  0.97282900528E+03  0.11499954392E+04  0.17200000000E+03 0.  1.
</event>
<event>
 4    1  0.1259333E+000  0.3212051E+03  0.7818608E-02  0.1075096E+00
         21   -1    0    0  501  502  0.00000000000E+00  0.00000000000E+00  0.91218943715E+03  0.91218943715E+03  0.00000000000E+00 0.  1.
         21   -1    0    0  502  503 -0.00000000000E+00 -0.00000000000E+00 -0.18731230560E+03  0.18731230560E+03  0.00000000000E+00 0.  1.
          6    1    1    2  501    0  0.11765965692E+03  0.24442779059E+03  0.70846361239E+03  0.77787751591E+03  0.17200000000E+03 0.  1.
         -6    1    1    2    0  503 -0.11765965692E+03 -0.24442779059E+03  0.16413519163E+02  0.32162422684E+03  0.17200000000E+03 0.  1.
</event>
<event>
 4    1  0.1259333E+000  0.2262160E+03  0.7818608E-02  0.1129332E+00
         21   -1    0    0  501  502  0.00000000000E+00  0.00000000000E+00  0.36012241560E+02  0.36012241560E+02  0.00000000000E+00 0.  1.
         21   -1    0    0  502  503 -0.00000000000E+00 -0.00000000000E+00 -0.15097624717E+04  0.15097624717E+04  0.00000000000E+00 0. -1.
          6    1    1    2  501    0 -0.82711348503E+02 -0.12144338935E+03 -0.92427025671E+03  0.95155092950E+03  0.17200000000E+03 0. -1.
         -6    1    1    2    0  503  0.82711348503E+02  0.12144338935E+03 -0.54947997342E+03  0.59422378375E+03  0.17200000000E+03 0.  1.
</event>
<event>
 4    1  0.1259333E+000  0.3790844E+03  0.7818608E-02  0.1051273E+00
         21   -1    0    0  501  502  0.00000000000E+00  0.00000000000E+00  0.39157333726E+03  0.39157333726E+03  0.00000000000E+00 0. -1.
         21   -1    0    0  502  503 -0.00000000000E+00 -0.00000000000E+00 -0.39864898665E+03  0.39864898665E+03  0.00000000000E+00 0.  1.
          6    1    1    2  501    0 -0.68811171352E+02  0.33073557732E+03  0.10780088625E+03  0.39411423532E+03  0.17200000000E+03 0. -1.
         -6    1    1    2    0  503  0.68811171352E+02 -0.33073557732E+03 -0.11487653564E+03  0.39610808859E+03  0.17200000000E+03 0.  1.
</event>
<event>
 4    1  0.1259333E+000  0.2171524E+03  0.7818608E-02  0.1136024E+00
         21   -1    0    0  501  502  0.00000000000E+00  0.00000000000E+00  0.31887203904E+03  0.31887203904E+03  0.00000000000E+00 0.  1.
         21   -1    0    0  502  503 -0.00000000000E+00 -0.00000000000E+00 -0.22908737575E+03  0.22908737575E+03  0.00000000000E+00 0.  1.
          6    1    1    2  501    0 -0.10712599423E+03  0.78071535440E+02  0.20801437546E+03  0.30070770473E+03  0.17200000000E+03 0. -1.
         -6    1    1    2    0  503  0.10712599423E+03 -0.78071535440E+02 -0.11822971216E+03  0.24725171006E+03  0.17200000000E+03 0. -1.
</event>
<event>
 4    1  0.1259333E+000  0.1959692E+03  0.7818608E-02  0.1153185E+00
         21   -1    0    0  501  502  0.00000000000E+00  0.00000000000E+00  0.34728857346E+02  0.34728857346E+02  0.00000000000E+00 0.  1.
         21   -1    0    0  502  503 -0.00000000000E+00 -0.00000000000E+00 -0.11375818949E+04  0.11375818949E+04  0.00000000000E+00 0.  1.
          6    1    1    2  501    0 -0.85619775457E+02  0.38589783363E+02 -0.45348556629E+03  0.49401728327E+03  0.17200000000E+03 0. -1.
         -6    1    1    2    0  503  0.85619775457E+02 -0.38589783363E+02 -0.64936747127E+03  0.67829346899E+03  0.17200000000E+03 0. -1.
</event>
<event>
 4    1  0.1259333E+000  0.1806819E+03  0.7818608E-02  0.1167145E+00
         21   -1    0    0  501  502  0.00000000000E+00  0.00000000000E+00  0.23779659693E+03  0.23779659693E+03  0.00000000000E+00 0.  1.
         21   -1    0    0  502  503 -0.00000000000E+00 -0.00000000000E+00 -0.14065536416E+03  0.14065536416E+03  0.00000000000E+00 0.  1.
          6    1    1    2  501    0  0.51490277978E+02 -0.20265776305E+02  0.77861261889E+02  0.19674431763E+03  0.17200000000E+03 0. -1.
         -6    1    1    2    0  503 -0.51490277978E+02  0.20265776305E+02  0.19279970889E+02  0.18170764346E+03  0.17200000000E+03 0. -1.
</event>
<event>
 4    1  0.1259333E+000  0.1827303E+03  0.7818608E-02  0.1165186E+00
         21   -1    0    0  503  502  0.00000000000E+00  0.00000000000E+00  0.36435885473E+03  0.36435885473E+03  0.00000000000E+00 0. -1.
         21   -1    0    0  501  503 -0.00000000000E+00 -0.00000000000E+00 -0.30630201368E+03  0.30630201368E+03  0.00000000000E+00 0. -1.
          6    1    1    2  501    0  0.26238756612E+02  0.55838103824E+02 -0.25169212494E+03  0.31102940688E+03  0.17200000000E+03 0. -1.
         -6    1    1    2    0  502 -0.26238756612E+02 -0.55838103824E+02  0.30974896599E+03  0.35963146152E+03  0.17200000000E+03 0. -1.
</event>
<event>
 4    1  0.1259333E+000  0.2015402E+03  0.7818608E-02  0.1148446E+00
         21   -1    0    0  503  502  0.00000000000E+00  0.00000000000E+00  0.70011331557E+03  0.70011331557E+03  0.00000000000E+00 0. -1.
         21   -1    0    0  501  503 -0.00000000000E+00 -0.00000000000E+00 -0.68519195094E+02  0.68519195094E+02  0.00000000000E+00 0. -1.
          6    1    1    2  501    0  0.10204079524E+03  0.24942539890E+02  0.16533629701E+03  0.26068092623E+03  0.17200000000E+03 0. -1.
         -6    1    1    2    0  502 -0.10204079524E+03 -0.24942539890E+02  0.46625782347E+03  0.50795158444E+03  0.17200000000E+03 0. -1.
</event>
<event>
 4    1  0.1259333E+000  0.2859256E+03  0.7818608E-02  0.1092496E+00
         21   -1    0    0  503  502  0.00000000000E+00  0.00000000000E+00  0.15270353089E+03  0.15270353089E+03  0.00000000000E+00 0.  1.
         21   -1    0    0  501  503 -0.00000000000E+00 -0.00000000000E+00 -0.58482931358E+03  0.58482931358E+03  0.00000000000E+00 0. -1.
          6    1    1    2  501    0  0.22468733910E+03  0.41049051806E+02 -0.32330008593E+03  0.43159746358E+03  0.17200000000E+03 0.  1.
         -6    1    1    2    0  502 -0.22468733910E+03 -0.41049051806E+02 -0.10882569676E+03  0.30593538089E+03  0.17200000000E+03 0.  1.
</event>
<event>
 4    1  0.1259333E+000  0.1930071E+03  0.7818608E-02  0.1155777E+00
         21   -1    0    0  501  502  0.00000000000E+00  0.00000000000E+00  0.27554498929E+02  0.27554498929E+02  0.00000000000E+00 0. -1.
         21   -1    0    0  502  503 -0.00000000000E+00 -0.00000000000E+00 -0.14525398342E+04  0.14525398342E+04  0.00000000000E+00 0. -1.
          6    1    1    2  501    0 -0.46903521378E+02  0.73944499518E+02 -0.51772471309E+03  0.55253109223E+03  0.17200000000E+03 0. -1.
         -6    1    1    2    0  503  0.46903521378E+02 -0.73944499518E+02 -0.90726062219E+03  0.92756324092E+03  0.17200000000E+03 0. -1.
</event>
<event>
 4    1  0.1259333E+000  0.2008539E+03  0.7818608E-02  0.1149021E+00
         21   -1    0    0  503  502  0.00000000000E+00  0.00000000000E+00  0.27260114288E+03  0.27260114288E+03  0.00000000000E+00 0. -1.
         21   -1    0    0  501  503 -0.00000000000E+00 -0.00000000000E+00 -0.15456580620E+03  0.15456580620E+03  0.00000000000E+00 0. -1.
          6    1    1    2  501    0 -0.10227976012E+03  0.17237534327E+02  0.10307120093E+03  0.22575640496E+03  0.17200000000E+03 0. -1.
         -6    1    1    2    0  502  0.10227976012E+03 -0.17237534327E+02  0.14964135754E+02  0.20141054411E+03  0.17200000000E+03 0. -1.
</event>
<event>
 4    1  0.1259333E+000  0.2055028E+03  0.7818608E-02  0.1145178E+00
         21   -1    0    0  503  502  0.00000000000E+00  0.00000000000E+00  0.43891350197E+03  0.43891350197E+03  0.00000000000E+00 0.  1.
         21   -1    0    0  501  503 -0.00000000000E+00 -0.00000000000E+00 -0.10248415334E+03  0.10248415334E+03  0.00000000000E+00 0.  1.
          6    1    1    2  501    0 -0.10082925087E+03  0.49808451869E+02  0.10127935532E+03  0.22910462135E+03  0.17200000000E+03 0. -1.
         -6    1    1    2    0  502  0.10082925087E+03 -0.49808451869E+02  0.23514999331E+03  0.31229303396E+03  0.17200000000E+03 0. -1.
</event>
<event>
 4    1  0.1259333E+000  0.2409778E+03  0.7818608E-02  0.1119143E+00
         21   -1    0    0  501  502  0.00000000000E+00  0.00000000000E+00  0.12392974349E+03  0.12392974349E+03  0.00000000000E+00 0. -1.
         21   -1    0    0  502  503 -0.00000000000E+00 -0.00000000000E+00 -0.48320111884E+03  0.48320111884E+03  0.00000000000E+00 0. -1.
          6    1    1    2  501    0 -0.73115546311E+02  0.15211978251E+03 -0.23245114799E+03  0.33481912661E+03  0.17200000000E+03 0. -1.
         -6    1    1    2    0  503  0.73115546311E+02 -0.15211978251E+03 -0.12682022736E+03  0.27231173572E+03  0.17200000000E+03 0. -1.
</event>
<event>
 4    1  0.1259333E+000  0.1898678E+03  0.7818608E-02  0.1158581E+00
         21   -1    0    0  501  502  0.00000000000E+00  0.00000000000E+00  0.44314545744E+02  0.44314545744E+02  0.00000000000E+00 0. -1.
         21   -1    0    0  502  503 -0.00000000000E+00 -0.00000000000E+00 -0.94334587469E+03  0.94334587469E+03  0.00000000000E+00 0. -1.
          6    1    1    2  501    0 -0.79716156179E+02  0.10540804729E+02 -0.26630094464E+03  0.32705651994E+03  0.17200000000E+03 0. -1.
         -6    1    1    2    0  503  0.79716156179E+02 -0.10540804729E+02 -0.63273038431E+03  0.66060390050E+03  0.17200000000E+03 0. -1.
</event>
<event>
 4    1  0.1259333E+000  0.3968686E+03  0.7818608E-02  0.1044869E+00
         21   -1    0    0  503  502  0.00000000000E+00  0.00000000000E+00  0.14008336479E+04  0.14008336479E+04  0.00000000000E+00 0. -1.
         21   -1    0    0  501  503 -0.00000000000E+00 -0.00000000000E+00 -0.12665865191E+03  0.12665865191E+03  0.00000000000E+00 0.  1.
          6    1    1    2  501    0  0.32683820361E+03  0.14524982520E+03  0.38116088318E+03  0.55026206659E+03  0.17200000000E+03 0.  1.
         -6    1    1    2    0  502 -0.32683820361E+03 -0.14524982520E+03  0.89301411285E+03  0.97723023327E+03  0.17200000000E+03 0. -1.
</event>
<event>
 4    1  0.1259333E+000  0.1752906E+03  0.7818608E-02  0.1172440E+00
         21   -1    0    0  503  502  0.00000000000E+00  0.00000000000E+00  0.13745414719E+03  0.13745414719E+03  0.00000000000E+00 0.  1.
         21   -1    0    0  501  503 -0.00000000000E+00 -0.00000000000E+00 -0.41834184253E+03  0.41834184253E+03  0.00000000000E+00 0.  1.
          6    1    1    2  501    0 -0.31988199564E+02  0.10933121872E+02 -0.33007690039E+03  0.37373458261E+03  0.17200000000E+03 0.  1.
         -6    1    1    2    0  502  0.31988199564E+02 -0.10933121872E+02  0.49189205052E+02  0.18206140711E+03  0.17200000000E+03 0.  1.
</event>
<event>
 4    1  0.1259333E+000  0.2426641E+03  0.7818608E-02  0.1118031E+00
         21   -1    0    0  501  502  0.00000000000E+00  0.00000000000E+00  0.68948324429E+02  0.68948324429E+02  0.00000000000E+00 0. -1.
         21   -1    0    0  502  503 -0.00000000000E+00 -0.00000000000E+00 -0.12641228280E+04  0.12641228280E+04  0.00000000000E+00 0.  1.
          6    1    1    2  501    0  0.16825394632E+03 -0.31503873442E+02 -0.21796222823E+03  0.32618003837E+03  0.17200000000E+03 0. -1.
         -6    1    1    2    0  503 -0.16825394632E+03  0.31503873442E+02 -0.97721227536E+03  0.10068911141E+04  0.17200000000E+03 0.  1.
</event>
<event>
 4    1  0.1259333E+000  0.1815454E+03  0.7818608E-02  0.1166316E+00
         21   -1    0    0  503  502  0.00000000000E+00  0.00000000000E+00  0.77778470365E+02  0.77778470365E+02  0.00000000000E+00 0. -1.
         21   -1    0    0  501  503 -0.00000000000E+00 -0.00000000000E+00 -0.66733634699E+03  0.66733634699E+03  0.00000000000E+00 0. -1.
          6    1    1    2  501    0  0.42267361158E+02 -0.39852125009E+02 -0.51986375396E+03  0.55065147269E+03  0.17200000000E+03 0. -1.
         -6    1    1    2    0  502 -0.42267361158E+02  0.39852125009E+02 -0.69694122664E+02  0.19446334467E+03  0.17200000000E+03 0. -1.
</event>
<event>
 4    1  0.1259333E+000  0.1907064E+03  0.7818608E-02  0.1157826E+00
         21   -1    0    0  503  502  0.00000000000E+00  0.00000000000E+00  0.19775129248E+03  0.19775129248E+03  0.00000000000E+00 0. -1.
         21   -1    0    0  501  503 -0.00000000000E+00 -0.00000000000E+00 -0.67799684618E+03  0.67799684618E+03  0.00000000000E+00 0. -1.
          6    1    1    2  501    0 -0.34471652955E+02 -0.74810621255E+02 -0.61391990587E+03  0.64285812956E+03  0.17200000000E+03 0. -1.
         -6    1    1    2    0  502  0.34471652955E+02  0.74810621255E+02  0.13367435217E+03  0.23289000910E+03  0.17200000000E+03 0. -1.
</event>
<event>
 4    1  0.1259333E+000  0.2362498E+03  0.7818608E-02  0.1122317E+00
         21   -1    0    0  503  502  0.00000000000E+00  0.00000000000E+00  0.11994659270E+03  0.11994659270E+03  0.00000000000E+00 0. -1.
         21   -1    0    0  501  503 -0.00000000000E+00 -0.00000000000E+00 -0.49421567347E+03  0.49421567347E+03  0.00000000000E+00 0. -1.
          6    1    1    2  501    0 -0.13046914927E+03 -0.95957212745E+02 -0.26138239387E+03  0.35232760524E+03  0.17200000000E+03 0. -1.
         -6    1    1    2    0  502  0.13046914927E+03  0.95957212745E+02 -0.11288668690E+03  0.26183466094E+03  0.17200000000E+03 0. -1.
</event>
<event>
 4    1  0.1259333E+000  0.2279417E+03  0.7818608E-02  0.1128097E+00
         21   -1    0    0  503  502  0.00000000000E+00  0.00000000000E+00  0.10761929131E+03  0.10761929131E+03  0.00000000000E+00 0. -1.
         21   -1    0    0  501  503 -0.00000000000E+00 -0.00000000000E+00 -0.23025929650E+04  0.23025929650E+04  0.00000000000E+00 0. -1.
          6    1    1    2  501    0 -0.14688973481E+03 -0.28227839986E+02 -0.21688310228E+04  0.21807763321E+04  0.17200000000E+03 0. -1.
         -6    1    1    2    0  502  0.14688973481E+03  0.28227839986E+02 -0.26142650922E+02  0.22943592425E+03  0.17200000000E+03 0. -1.
</event>
<event>
 4    1  0.1259333E+000  0.1743580E+03  0.7818608E-02  0.1173378E+00
         21   -1    0    0  501  502  0.00000000000E+00  0.00000000000E+00  0.12709538645E+03  0.12709538645E+03  0.00000000000E+00 0. -1.
         21   -1    0    0  502  503 -0.00000000000E+00 -0.00000000000E+00 -0.41312609880E+03  0.41312609880E+03  0.00000000000E+00 0. -1.
          6    1    1    2  501    0 -0.28544014046E+02  0.14001042553E+01  0.32246652720E+02  0.17731488274E+03  0.17200000000E+03 0. -1.
         -6    1    1    2    0  503  0.28544014046E+02 -0.14001042553E+01 -0.31827736507E+03  0.36290660251E+03  0.17200000000E+03 0. -1.
</event>
<event>
 4    1  0.1259333E+000  0.1757667E+03  0.7818608E-02  0.1171964E+00
         21   -1    0    0  503  502  0.00000000000E+00  0.00000000000E+00  0.28213517855E+03  0.28213517855E+03  0.00000000000E+00 0.  1.
         21   -1    0    0  501  503 -0.00000000000E+00 -0.00000000000E+00 -0.11033857511E+03  0.11033857511E+03  0.00000000000E+00 0.  1.
          6    1    1    2  501    0 -0.34171175221E+02 -0.11927379454E+02  0.68795431902E+02  0.18875047827E+03  0.17200000000E+03 0.  1.
         -6    1    1    2    0  502  0.34171175221E+02  0.11927379454E+02  0.10300117154E+03  0.20372327539E+03  0.17200000000E+03 0.  1.
</event>
<event>
 4    1  0.1259333E+000  0.2709697E+03  0.7818608E-02  0.1100726E+00
         21   -1    0    0  501  502  0.00000000000E+00  0.00000000000E+00  0.19623821488E+04  0.19623821488E+04  0.00000000000E+00 0. -1.
         21   -1    0    0  502  503 -0.00000000000E+00 -0.00000000000E+00 -0.52075758854E+02  0.52075758854E+02  0.00000000000E+00 0.  1.
          6    1    1    2  501    0 -0.75907602809E+02  0.19513747882E+03  0.14895612381E+04  0.15140070283E+04  0.17200000000E+03 0. -1.
         -6    1    1    2    0  503  0.75907602809E+02 -0.19513747882E+03  0.42074515183E+03  0.50045087930E+03  0.17200000000E+03 0. -1.
</event>
<event>
 4    1  0.1259333E+000  0.1720800E+03  0.7818608E-02  0.1175696E+00
         21   -1    0    0  501  502  0.00000000000E+00  0.00000000000E+00  0.17970204107E+02  0.17970204107E+02  0.00000000000E+00 0.  1.
         21   -1    0    0  502  503 -0.00000000000E+00 -0.00000000000E+00 -0.16664209560E+04  0.16664209560E+04  0.00000000000E+00 0.  1.
          6    1    1    2  501    0  0.49225777073E+01 -0.18133333582E+01 -0.73522736133E+03  0.75509654535E+03  0.17200000000E+03 0.  1.
         -6    1    1    2    0  503 -0.49225777073E+01  0.18133333582E+01 -0.91322339055E+03  0.92929461475E+03  0.17200000000E+03 0.  1.
</event>
<event>
 4    1  0.1259333E+000  0.2033240E+03  0.7818608E-02  0.1146964E+00
         21   -1    0    0  501  502  0.00000000000E+00  0.00000000000E+00  0.85319571310E+02  0.85319571310E+02  0.00000000000E+00 0. -1.
         21   -1    0    0  502  503 -0.00000000000E+00 -0.00000000000E+00 -0.58608148022E+03  0.58608148022E+03  0.00000000000E+00 0. -1.
          6    1    1    2  501    0 -0.10835906502E+03  0.38704465828E+01 -0.11064868387E+03  0.23148174566E+03  0.17200000000E+03 0. -1.
         -6    1    1    2    0  503  0.10835906502E+03 -0.38704465828E+01 -0.39011322504E+03  0.43991930587E+03  0.17200000000E+03 0. -1.
</event>
<event>
 4    1  0.1259333E+000  0.2672358E+03  0.7818608E-02  0.1102872E+00
         21   -1    0    0  501  502  0.00000000000E+00  0.00000000000E+00  0.51143357462E+02  0.51143357462E+02  0.00000000000E+00 0.  1.
         21   -1    0    0  502  503 -0.00000000000E+00 -0.00000000000E+00 -0.14979316362E+04  0.14979316362E+04  0.00000000000E+00 0. -1.
          6    1    1    2  501    0 -0.19839532967E+03  0.49701662554E+02 -0.52171314546E+03  0.58617366731E+03  0.17200000000E+03 0.  1.
         -6    1    1    2    0  503  0.19839532967E+03 -0.49701662554E+02 -0.92507513326E+03  0.96290132634E+03  0.17200000000E+03 0. -1.
</event>
<event>
 4    1  0.1259333E+000  0.2231075E+03  0.7818608E-02  0.1131587E+00
         21   -1    0    0  503  502  0.00000000000E+00  0.00000000000E+00  0.16876712823E+03  0.16876712823E+03  0.00000000000E+00 0. -1.
         21   -1    0    0  501  503 -0.00000000000E+00 -0.00000000000E+00 -0.13128704860E+04  0.13128704860E+04  0.00000000000E+00 0.  1.
          6    1    1    2  501    0  0.24032353561E+02 -0.14005493944E+03 -0.12243693632E+04  0.12445309468E+04  0.17200000000E+03 0.  1.
         -6    1    1    2    0  502 -0.24032353561E+02  0.14005493944E+03  0.80266005454E+02  0.23710666737E+03  0.17200000000E+03 0. -1.
</event>
<event>
 4    1  0.1259333E+000  0.2067898E+03  0.7818608E-02  0.1144134E+00
         21   -1    0    0  503  502  0.00000000000E+00  0.00000000000E+00  0.13106190954E+04  0.13106190954E+04  0.00000000000E+00 0.  1.
         21   -1    0    0  501  503 -0.00000000000E+00 -0.00000000000E+00 -0.32637552950E+02  0.32637552950E+02  0.00000000000E+00 0.  1.
          6    1    1    2  501    0  0.58881112461E+02 -0.98544674300E+02  0.62712035844E+03  0.66033475011E+03  0.17200000000E+03 0.  1.
         -6    1    1    2    0  502 -0.58881112461E+02  0.98544674300E+02  0.65086118398E+03  0.68292189820E+03  0.17200000000E+03 0.  1.
</event>
<event>
 4    1  0.1259333E+000  0.1723815E+03  0.7818608E-02  0.1175387E+00
         21   -1    0    0  501  502  0.00000000000E+00  0.00000000000E+00  0.52353237355E+03  0.52353237355E+03  0.00000000000E+00 0. -1.
         21   -1    0    0  502  503 -0.00000000000E+00 -0.00000000000E+00 -0.79375796064E+02  0.79375796064E+02  0.00000000000E+00 0. -1.
          6    1    1    2  501    0  0.11157008552E+02  0.26291111438E+01  0.38299038262E+03  0.41999645742E+03  0.17200000000E+03 0.  1.
         -6    1    1    2    0  503 -0.11157008552E+02 -0.26291111438E+01  0.61166194872E+02  0.18291171220E+03  0.17200000000E+03 0.  1.
</event>
<event>
 4    1  0.1259333E+000  0.1735742E+03  0.7818608E-02  0.1174171E+00
         21   -1    0    0  503  502  0.00000000000E+00  0.00000000000E+00  0.13408952716E+03  0.13408952716E+03  0.00000000000E+00 0. -1.
         21   -1    0    0  501  503 -0.00000000000E+00 -0.00000000000E+00 -0.27226036421E+03  0.27226036421E+03  0.00000000000E+00 0. -1.
          6    1    1    2  501    0 -0.12469611549E+02 -0.19711094703E+02  0.15845369600E+02  0.17429599595E+03  0.17200000000E+03 0. -1.
         -6    1    1    2    0  502  0.12469611549E+02  0.19711094703E+02 -0.15401620666E+03  0.23205389542E+03  0.17200000000E+03 0. -1.
</event>
<event>
 4    1  0.1259333E+000  0.1785755E+03  0.7818608E-02  0.1169189E+00
         21   -1    0    0  501  502  0.00000000000E+00  0.00000000000E+00  0.67033158983E+03  0.67033158983E+03  0.00000000000E+00 0.  1.
         21   -1    0    0  502  503 -0.00000000000E+00 -0.00000000000E+00 -0.15896248403E+03  0.15896248403E+03  0.00000000000E+00 0.  1.
          6    1    1    2  501    0 -0.40222542516E+02  0.26217748964E+02  0.60278460910E+03  0.62867997284E+03  0.17200000000E+03 0.  1.
         -6    1    1    2    0  503  0.40222542516E+02 -0.26217748964E+02 -0.91415503287E+02  0.20061410102E+03  0.17200000000E+03 0.  1.
</event>
<event>
 4    1  0.1259333E+000  0.1973079E+03  0.7818608E-02  0.1152030E+00
         21   -1    0    0  503  502  0.00000000000E+00  0.00000000000E+00  0.54389793598E+03  0.54389793598E+03  0.00000000000E+00 0.  1.
         21   -1    0    0  501  503 -0.00000000000E+00 -0.00000000000E+00 -0.12350419770E+03  0.12350419770E+03  0.00000000000E+00 0.  1.
          6    1    1    2  501    0 -0.93894326125E+02  0.23027287024E+02 -0.61823649030E+01  0.19740471641E+03  0.17200000000E+03 0.  1.
         -6    1    1    2    0  502  0.93894326125E+02 -0.23027287024E+02  0.42657610319E+03  0.46999741727E+03  0.17200000000E+03 0.  1.
</event>
<event>
 4    1  0.1259333E+000  0.2301754E+03  0.7818608E-02  0.1126516E+00
         21   -1    0    0  503  502  0.00000000000E+00  0.00000000000E+00  0.11139401045E+03  0.11139401045E+03  0.00000000000E+00 0.  1.
         21   -1    0    0  501  503 -0.00000000000E+00 -0.00000000000E+00 -0.54894488330E+03  0.54894488330E+03  0.00000000000E+00 0.  1.
          6    1    1    2  501    0  0.53484761194E+02  0.14330417192E+03 -0.33944892360E+03  0.41012958574E+03  0.17200000000E+03 0. -1.
         -6    1    1    2    0  502 -0.53484761194E+02 -0.14330417192E+03 -0.98101949245E+02  0.25020930801E+03  0.17200000000E+03 0. -1.
</event>
<event>
 4    1  0.1259333E+000  0.2962046E+03  0.7818608E-02  0.1087153E+00
         21   -1    0    0  501  502  0.00000000000E+00  0.00000000000E+00  0.43204065016E+03  0.43204065016E+03  0.00000000000E+00 0.  1.
         21   -1    0    0  502  503 -0.00000000000E+00 -0.00000000000E+00 -0.23266332494E+03  0.23266332494E+03  0.00000000000E+00 0. -1.
          6    1    1    2  501    0  0.20798125271E+02 -0.24025117501E+03  0.21820696782E+03  0.36790144049E+03  0.17200000000E+03 0. -1.
         -6    1    1    2    0  503 -0.20798125271E+02  0.24025117501E+03 -0.18829642606E+02  0.29680253461E+03  0.17200000000E+03 0. -1.
</event>
<event>
 4    1  0.1259333E+000  0.1806553E+03  0.7818608E-02  0.1167170E+00
         21   -1    0    0  501  502  0.00000000000E+00  0.00000000000E+00  0.19340306205E+03  0.19340306205E+03  0.00000000000E+00 0.  1.
         21   -1    0    0  502  503 -0.00000000000E+00 -0.00000000000E+00 -0.17249058977E+03  0.17249058977E+03  0.00000000000E+00 0.  1.
          6    1    1    2  501    0 -0.26712115200E+02  0.48361137644E+02  0.37405148555E+02  0.18448707779E+03  0.17200000000E+03 0.  1.
         -6    1    1    2    0  503  0.26712115200E+02 -0.48361137644E+02 -0.16492676273E+02  0.18140657404E+03  0.17200000000E+03 0.  1.
</event>
<event>
 4    1  0.1259333E+000  0.2192647E+03  0.7818608E-02  0.1134432E+00
         21   -1    0    0  501  502  0.00000000000E+00  0.00000000000E+00  0.42817138829E+03  0.42817138829E+03  0.00000000000E+00 0.  1.
         21   -1    0    0  502  503 -0.00000000000E+00 -0.00000000000E+00 -0.14608838473E+03  0.14608838473E+03  0.00000000000E+00 0.  1.
          6    1    1    2  501    0 -0.46972369967E+02 -0.12761890633E+03  0.27916074294E+03  0.35497564591E+03  0.17200000000E+03 0.  1.
         -6    1    1    2    0  503  0.46972369967E+02  0.12761890633E+03  0.29222606182E+01  0.21928412710E+03  0.17200000000E+03 0.  1.
</event>
<event>
 4    1  0.1259333E+000  0.2427104E+03  0.7818608E-02  0.1118000E+00
         21   -1    0    0  501  502  0.00000000000E+00  0.00000000000E+00  0.17417397352E+03  0.17417397352E+03  0.00000000000E+00 0. -1.
         21   -1    0    0  502  503 -0.00000000000E+00 -0.00000000000E+00 -0.53394171351E+03  0.53394171351E+03  0.00000000000E+00 0. -1.
          6    1    1    2  501    0 -0.10774056660E+03 -0.13310258522E+03  0.34480130400E+02  0.24514731750E+03  0.17200000000E+03 0.  1.
         -6    1    1    2    0  503  0.10774056660E+03  0.13310258522E+03 -0.39424787039E+03  0.46296836953E+03  0.17200000000E+03 0.  1.
</event>
<event>
 4    1  0.1259333E+000  0.1806778E+03  0.7818608E-02  0.1167149E+00
         21   -1    0    0  503  502  0.00000000000E+00  0.00000000000E+00  0.19680967427E+03  0.19680967427E+03  0.00000000000E+00 0.  1.
         21   -1    0    0  501  503 -0.00000000000E+00 -0.00000000000E+00 -0.22232332544E+03  0.22232332544E+03  0.00000000000E+00 0.  1.
          6    1    1    2  501    0 -0.53694792765E+02  0.13316588598E+02 -0.11836100682E+03  0.21599488475E+03  0.17200000000E+03 0.  1.
         -6    1    1    2    0  502  0.53694792765E+02 -0.13316588598E+02  0.92847355645E+02  0.20313811497E+03  0.17200000000E+03 0.  1.
</event>
<event>
 4    1  0.1259333E+000  0.2235274E+03  0.7818608E-02  0.1131280E+00
         21   -1    0    0  501  502  0.00000000000E+00  0.00000000000E+00  0.59104233192E+03  0.59104233192E+03  0.00000000000E+00 0. -1.
         21   -1    0    0  502  503 -0.00000000000E+00 -0.00000000000E+00 -0.23792324949E+03  0.23792324949E+03  0.00000000000E+00 0.  1.
          6    1    1    2  501    0  0.14109276104E+03  0.21755788425E+02  0.50935882870E+03  0.55624715543E+03  0.17200000000E+03 0. -1.
         -6    1    1    2    0  503 -0.14109276104E+03 -0.21755788425E+02 -0.15623974628E+03  0.27271842597E+03  0.17200000000E+03 0.  1.
</event>
<event>
 4    1  0.1259333E+000  0.3559690E+03  0.7818608E-02  0.1060191E+00
         21   -1    0    0  503  502  0.00000000000E+00  0.00000000000E+00  0.53715636394E+02  0.53715636394E+02  0.00000000000E+00 0. -1.
         21   -1    0    0  501  503 -0.00000000000E+00 -0.00000000000E+00 -0.23830582333E+04  0.23830582333E+04  0.00000000000E+00 0. -1.
          6    1    1    2  501    0 -0.13776911027E+03 -0.27955246277E+03 -0.12871511324E+04  0.13354669389E+04  0.17200000000E+03 0. -1.
         -6    1    1    2    0  502  0.13776911027E+03  0.27955246277E+03 -0.10421914645E+04  0.11013069308E+04  0.17200000000E+03 0. -1.
</event>
<event>
 4    1  0.1259333E+000  0.1746377E+03  0.7818608E-02  0.1173096E+00
         21   -1    0    0  503  502  0.00000000000E+00  0.00000000000E+00  0.41786570046E+03  0.41786570046E+03  0.00000000000E+00 0. -1.
         21   -1    0    0  501  503 -0.00000000000E+00 -0.00000000000E+00 -0.83336590525E+02  0.83336590525E+02  0.00000000000E+00 0. -1.
          6    1    1    2  501    0  0.22057647674E+02 -0.20683299770E+02  0.78946780190E+02  0.19165315759E+03  0.17200000000E+03 0. -1.
         -6    1    1    2    0  502 -0.22057647674E+02  0.20683299770E+02  0.25558232975E+03  0.30954913340E+03  0.17200000000E+03 0. -1.
</event>
<event>
 4    1  0.1259333E+000  0.2110585E+03  0.7818608E-02  0.1140731E+00
         21   -1    0    0  501  502  0.00000000000E+00  0.00000000000E+00  0.19102857297E+03  0.19102857297E+03  0.00000000000E+00 0.  1.
         21   -1    0    0  502  503 -0.00000000000E+00 -0.00000000000E+00 -0.14313225848E+04  0.14313225848E+04  0.00000000000E+00 0.  1.
          6    1    1    2  501    0  0.12205807412E+03  0.79692779716E+01  0.12201514350E+03  0.24378961851E+03  0.17200000000E+03 0.  1.
         -6    1    1    2    0  503 -0.12205807412E+03 -0.79692779716E+01 -0.13623091554E+04  0.13785615393E+04  0.17200000000E+03 0.  1.
</event>
<event>
 4    1  0.1259333E+000  0.2446636E+03  0.7818608E-02  0.1116725E+00
         21   -1    0    0  501  502  0.00000000000E+00  0.00000000000E+00  0.67620465545E+03  0.67620465545E+03  0.00000000000E+00 0. -1.
         21   -1    0    0  502  503 -0.00000000000E+00 -0.00000000000E+00 -0.13695673484E+03  0.13695673484E+03  0.00000000000E+00 0.  1.
          6    1    1    2  501    0 -0.15715797567E+03 -0.74683611635E+02  0.51140654518E+03  0.56691879985E+03  0.17200000000E+03 0. -1.
         -6    1    1    2    0  503  0.15715797567E+03  0.74683611635E+02  0.27841375421E+02  0.24624259045E+03  0.17200000000E+03 0.  1.
</event>
<event>
 4    1  0.1259333E+000  0.1857698E+03  0.7818608E-02  0.1162333E+00
         21   -1    0    0  501  502  0.00000000000E+00  0.00000000000E+00  0.23376370504E+03  0.23376370504E+03  0.00000000000E+00 0. -1.
         21   -1    0    0  502  503 -0.00000000000E+00 -0.00000000000E+00 -0.36459553106E+03  0.36459553106E+03  0.00000000000E+00 0. -1.
          6    1    1    2  501    0  0.14141384466E+02  0.68749190388E+02  0.16537683479E+03  0.24871656040E+03  0.17200000000E+03 0. -1.
         -6    1    1    2    0  503 -0.14141384466E+02 -0.68749190388E+02 -0.29620866081E+03  0.34964267570E+03  0.17200000000E+03 0. -1.
</event>
<event>
 4    1  0.1259333E+000  0.1796954E+03  0.7818608E-02  0.1168098E+00
         21   -1    0    0  501  502  0.00000000000E+00  0.00000000000E+00  0.15045217425E+03  0.15045217425E+03  0.00000000000E+00 0.  1.
         21   -1    0    0  502  503 -0.00000000000E+00 -0.00000000000E+00 -0.21482839205E+03  0.21482839205E+03  0.00000000000E+00 0.  1.
          6    1    1    2  501    0  0.45807484338E+02 -0.24660068741E+02 -0.37840215367E+02  0.18363639757E+03  0.17200000000E+03 0.  1.
         -6    1    1    2    0  503 -0.45807484338E+02  0.24660068741E+02 -0.26536002438E+02  0.18164416874E+03  0.17200000000E+03 0.  1.
</event>
<event>
 4    1  0.1259333E+000  0.2513933E+03  0.7818608E-02  0.1112427E+00
         21   -1    0    0  501  502  0.00000000000E+00  0.00000000000E+00  0.21013847216E+03  0.21013847216E+03  0.00000000000E+00 0.  1.
         21   -1    0    0  502  503 -0.00000000000E+00 -0.00000000000E+00 -0.48126405829E+03  0.48126405829E+03  0.00000000000E+00 0. -1.
          6    1    1    2  501    0  0.12817952559E+03  0.13109005986E+03  0.76160150506E+02  0.26267653702E+03  0.17200000000E+03 0.  1.
         -6    1    1    2    0  503 -0.12817952559E+03 -0.13109005986E+03 -0.34728573663E+03  0.42872599343E+03  0.17200000000E+03 0. -1.
</event>
<event>
 4    1  0.1259333E+000  0.1821449E+03  0.7818608E-02  0.1165743E+00
         21   -1    0    0  501  502  0.00000000000E+00  0.00000000000E+00  0.88142931993E+02  0.88142931993E+02  0.00000000000E+00 0.  1.
         21   -1    0    0  502  503 -0.00000000000E+00 -0.00000000000E+00 -0.39337187723E+03  0.39337187723E+03  0.00000000000E+00 0.  1.
          6    1    1    2  501    0 -0.30296769089E+02  0.51719003739E+02 -0.10260189585E+03  0.20905477415E+03  0.17200000000E+03 0.  1.
         -6    1    1    2    0  503  0.30296769089E+02 -0.51719003739E+02 -0.20262704938E+03  0.27246003506E+03  0.17200000000E+03 0.  1.
</event>
<event>
 4    1  0.1259333E+000  0.2082218E+03  0.7818608E-02  0.1142982E+00
         21   -1    0    0  501  502  0.00000000000E+00  0.00000000000E+00  0.42544844102E+02  0.42544844102E+02  0.00000000000E+00 0. -1.
         21   -1    0    0  502  503 -0.00000000000E+00 -0.00000000000E+00 -0.14075392190E+04  0.14075392190E+04  0.00000000000E+00 0. -1.
          6    1    1    2  501    0  0.11411960078E+03 -0.27368181997E+02 -0.30159841136E+03  0.36649406871E+03  0.17200000000E+03 0. -1.
         -6    1    1    2    0  503 -0.11411960078E+03  0.27368181997E+02 -0.10633959635E+04  0.10835899944E+04  0.17200000000E+03 0. -1.
</event>
<event>
 4    1  0.1259333E+000  0.1923348E+03  0.7818608E-02  0.1156372E+00
         21   -1    0    0  501  502  0.00000000000E+00  0.00000000000E+00  0.13288065915E+04  0.13288065915E+04  0.00000000000E+00 0. -1.
         21   -1    0    0  502  503 -0.00000000000E+00 -0.00000000000E+00 -0.36925061835E+02  0.36925061835E+02  0.00000000000E+00 0. -1.
          6    1    1    2  501    0 -0.10000963491E+02 -0.85490704763E+02  0.98467727687E+03  0.10032856121E+04  0.17200000000E+03 0. -1.
         -6    1    1    2    0  503  0.10000963491E+02  0.85490704763E+02  0.30720425282E+03  0.36244604126E+03  0.17200000000E+03 0. -1.
</event>
<event>
 4    1  0.1259333E+000  0.1919540E+03  0.7818608E-02  0.1156711E+00
         21   -1    0    0  503  502  0.00000000000E+00  0.00000000000E+00  0.10559568778E+04  0.10559568778E+04  0.00000000000E+00 0.  1.
         21   -1    0    0  501  503 -0.00000000000E+00 -0.00000000000E+00 -0.38555789209E+02  0.38555789209E+02  0.00000000000E+00 0.  1.
          6    1    1    2  501    0 -0.84095509928E+02 -0.13793654482E+02  0.34004286381E+03  0.39048107371E+03  0.17200000000E+03 0.  1.
         -6    1    1    2    0  502  0.84095509928E+02  0.13793654482E+02  0.67735822483E+03  0.70403159335E+03  0.17200000000E+03 0.  1.
</event>
<event>
 4    1  0.1259333E+000  0.2576093E+03  0.7818608E-02  0.1108588E+00
         21   -1    0    0  501  502  0.00000000000E+00  0.00000000000E+00  0.63233300250E+03  0.63233300250E+03  0.00000000000E+00 0.  1.
         21   -1    0    0  502  503 -0.00000000000E+00 -0.00000000000E+00 -0.46225100720E+03  0.46225100720E+03  0.00000000000E+00 0. -1.
          6    1    1    2  501    0 -0.99735876301E+02  0.16380258720E+03  0.56621048036E+03  0.62205855083E+03  0.17200000000E+03 0.  1.
         -6    1    1    2    0  503  0.99735876301E+02 -0.16380258720E+03 -0.39612848507E+03  0.47252545887E+03  0.17200000000E+03 0. -1.
</event>
<event>
 4    1  0.1259333E+000  0.1738243E+03  0.7818608E-02  0.1173917E+00
         21   -1    0    0  503  502  0.00000000000E+00  0.00000000000E+00  0.43356861515E+03  0.43356861515E+03  0.00000000000E+00 0. -1.
         21   -1    0    0  501  503 -0.00000000000E+00 -0.00000000000E+00 -0.38816458809E+03  0.38816458809E+03  0.00000000000E+00 0. -1.
          6    1    1    2  501    0 -0.13790593029E+02 -0.20993072565E+02 -0.34945916952E+03  0.39030321638E+03  0.17200000000E+03 0. -1.
         -6    1    1    2    0  502  0.13790593029E+02  0.20993072565E+02  0.39486319658E+03  0.43142998686E+03  0.17200000000E+03 0. -1.
</event>
<event>
 4    1  0.1259333E+000  0.1774787E+03  0.7818608E-02  0.1170266E+00
         21   -1    0    0  501  502  0.00000000000E+00  0.00000000000E+00  0.35963067303E+03  0.35963067303E+03  0.00000000000E+00 0.  1.
         21   -1    0    0  502  503 -0.00000000000E+00 -0.00000000000E+00 -0.36945647305E+03  0.36945647305E+03  0.00000000000E+00 0.  1.
          6    1    1    2  501    0  0.91733391554E+01  0.42784982527E+02  0.31350127957E+03  0.36025235207E+03  0.17200000000E+03 0.  1.
         -6    1    1    2    0  503 -0.91733391554E+01 -0.42784982527E+02 -0.32332707958E+03  0.36883479401E+03  0.17200000000E+03 0.  1.
</event>
<event>
 4    1  0.1259333E+000  0.1792479E+03  0.7818608E-02  0.1168533E+00
         21   -1    0    0  501  502  0.00000000000E+00  0.00000000000E+00  0.82372323651E+03  0.82372323651E+03  0.00000000000E+00 0.  1.
         21   -1    0    0  502  503 -0.00000000000E+00 -0.00000000000E+00 -0.48456643823E+02  0.48456643823E+02  0.00000000000E+00 0.  1.
          6    1    1    2  501    0 -0.31517893628E+02 -0.39401100030E+02  0.58022569649E+03  0.60728221049E+03  0.17200000000E+03 0.  1.
         -6    1    1    2    0  503  0.31517893628E+02  0.39401100030E+02  0.19504089619E+03  0.26489766985E+03  0.17200000000E+03 0.  1.
</event>
<event>
 4    1  0.1259333E+000  0.1894012E+03  0.7818608E-02  0.1159003E+00
         21   -1    0    0  503  502  0.00000000000E+00  0.00000000000E+00  0.37867302870E+03  0.37867302870E+03  0.00000000000E+00 0. -1.
         21   -1    0    0  501  503 -0.00000000000E+00 -0.00000000000E+00 -0.94744474153E+02  0.94744474153E+02  0.00000000000E+00 0.  1.
          6    1    1    2  501    0 -0.78291283713E+02 -0.12620502690E+02  0.13935040953E+03  0.23514110408E+03  0.17200000000E+03 0.  1.
         -6    1    1    2    0  502  0.78291283713E+02  0.12620502690E+02  0.14457814502E+03  0.23827639877E+03  0.17200000000E+03 0. -1.
</event>
<event>
 4    1  0.1259333E+000  0.2622481E+03  0.7818608E-02  0.1105800E+00
         21   -1    0    0  503  502  0.00000000000E+00  0.00000000000E+00  0.45752488901E+03  0.45752488901E+03  0.00000000000E+00 0.  1.
         21   -1    0    0  501  503 -0.00000000000E+00 -0.00000000000E+00 -0.23834643023E+03  0.23834643023E+03  0.00000000000E+00 0. -1.
          6    1    1    2  501    0 -0.19131570574E+03 -0.50875736573E+02 -0.10186048333E+03  0.28133538330E+03  0.17200000000E+03 0. -1.
         -6    1    1    2    0  502  0.19131570574E+03  0.50875736573E+02  0.32103894210E+03  0.41453593594E+03  0.17200000000E+03 0. -1.
</event>
<event>
 4    1  0.1259333E+000  0.1777639E+03  0.7818608E-02  0.1169985E+00
         21   -1    0    0  503  502  0.00000000000E+00  0.00000000000E+00  0.16669511093E+04  0.16669511093E+04  0.00000000000E+00 0. -1.
         21   -1    0    0  501  503 -0.00000000000E+00 -0.00000000000E+00 -0.60271323498E+02  0.60271323498E+02  0.00000000000E+00 0. -1.
          6    1    1    2  501    0  0.24523919470E+02  0.37610980603E+02  0.88326061816E+02  0.19849811506E+03  0.17200000000E+03 0. -1.
         -6    1    1    2    0  502 -0.24523919470E+02 -0.37610980603E+02  0.15183537240E+04  0.15287243177E+04  0.17200000000E+03 0. -1.
</event>
<event>
 4    1  0.1259333E+000  0.1790685E+03  0.7818608E-02  0.1168708E+00
         21   -1    0    0  501  502  0.00000000000E+00  0.00000000000E+00  0.43473707958E+03  0.43473707958E+03  0.00000000000E+00 0.  1.
         21   -1    0    0  502  503 -0.00000000000E+00 -0.00000000000E+00 -0.87705144616E+02  0.87705144616E+02  0.00000000000E+00 0.  1.
          6    1    1    2  501    0 -0.48684829575E+01 -0.49576334640E+02  0.27768341734E+03  0.33041427836E+03  0.17200000000E+03 0.  1.
         -6    1    1    2    0  503  0.48684829575E+01  0.49576334640E+02  0.69348517624E+02  0.19202794583E+03  0.17200000000E+03 0.  1.
</event>
<event>
 4    1  0.1259333E+000  0.2455971E+03  0.7818608E-02  0.1116119E+00
         21   -1    0    0  501  502  0.00000000000E+00  0.00000000000E+00  0.10151725505E+03  0.10151725505E+03  0.00000000000E+00 0. -1.
         21   -1    0    0  502  503 -0.00000000000E+00 -0.00000000000E+00 -0.77847430636E+03  0.77847430636E+03  0.00000000000E+00 0. -1.
          6    1    1    2  501    0 -0.16155335667E+03  0.68076737750E+02 -0.12438633717E+03  0.27529963703E+03  0.17200000000E+03 0. -1.
         -6    1    1    2    0  503  0.16155335667E+03 -0.68076737750E+02 -0.55257071415E+03  0.60469192438E+03  0.17200000000E+03 0. -1.
</event>
<event>
 4    1  0.1259333E+000  0.2039607E+03  0.7818608E-02  0.1146440E+00
         21   -1    0    0  503  502  0.00000000000E+00  0.00000000000E+00  0.34970302598E+03  0.34970302598E+03  0.00000000000E+00 0. -1.
         21   -1    0    0  501  503 -0.00000000000E+00 -0.00000000000E+00 -0.22363028154E+03  0.22363028154E+03  0.00000000000E+00 0. -1.
          6    1    1    2  501    0  0.26321602159E+02 -0.10641018581E+03 -0.13308631032E+03  0.24354038757E+03  0.17200000000E+03 0. -1.
         -6    1    1    2    0  502 -0.26321602159E+02  0.10641018581E+03  0.25915905476E+03  0.32979291995E+03  0.17200000000E+03 0. -1.
</event>
<event>
 4    1  0.1259333E+000  0.1788155E+03  0.7818608E-02  0.1168954E+00
         21   -1    0    0  503  502  0.00000000000E+00  0.00000000000E+00  0.30326037683E+03  0.30326037683E+03  0.00000000000E+00 0.  1.
         21   -1    0    0  501  503 -0.00000000000E+00 -0.00000000000E+00 -0.10546580866E+03  0.10546580866E+03  0.00000000000E+00 0.  1.
          6    1    1    2  501    0  0.13612582134E+02  0.46964514745E+02  0.10225478077E+03  0.20598788369E+03  0.17200000000E+03 0. -1.
         -6    1    1    2    0  502 -0.13612582134E+02 -0.46964514745E+02  0.95539787404E+02  0.20273830180E+03  0.17200000000E+03 0. -1.
</event>
<event>
 4    1  0.1259333E+000  0.1744041E+03  0.7818608E-02  0.1173331E+00
         21   -1    0    0  503  502  0.00000000000E+00  0.00000000000E+00  0.32845448105E+03  0.32845448105E+03  0.00000000000E+00 0.  1.
         21   -1    0    0  501  503 -0.00000000000E+00 -0.00000000000E+00 -0.12270469092E+03  0.12270469092E+03  0.00000000000E+00 0.  1.
          6    1    1    2  501    0  0.12137891903E+02  0.26181570432E+02 -0.88485121419E+01  0.17462846050E+03  0.17200000000E+03 0.  1.
         -6    1    1    2    0  502 -0.12137891903E+02 -0.26181570432E+02  0.21459830227E+03  0.27653071147E+03  0.17200000000E+03 0.  1.
</event>
<event>
 4    1  0.1259333E+000  0.1831055E+03  0.7818608E-02  0.1164831E+00
         21   -1    0    0  503  502  0.00000000000E+00  0.00000000000E+00  0.13054839159E+03  0.13054839159E+03  0.00000000000E+00 0. -1.
         21   -1    0    0  501  503 -0.00000000000E+00 -0.00000000000E+00 -0.29703506663E+03  0.29703506663E+03  0.00000000000E+00 0. -1.
          6    1    1    2  501    0  0.39378297381E+02 -0.48917974553E+02 -0.16190696402E+03  0.24442071012E+03  0.17200000000E+03 0. -1.
         -6    1    1    2    0  502 -0.39378297381E+02  0.48917974553E+02 -0.45797110294E+01  0.18316274810E+03  0.17200000000E+03 0. -1.
</event>
<event>
 4    1  0.1259333E+000  0.1992019E+03  0.7818608E-02  0.1150414E+00
         21   -1    0    0  501  502  0.00000000000E+00  0.00000000000E+00  0.52160118459E+03  0.52160118459E+03  0.00000000000E+00 0.  1.
         21   -1    0    0  502  503 -0.00000000000E+00 -0.00000000000E+00 -0.12994325391E+03  0.12994325391E+03  0.00000000000E+00 0.  1.
          6    1    1    2  501    0  0.30373143991E+02  0.95785562079E+02  0.40557755735E+03  0.45185678794E+03  0.17200000000E+03 0.  1.
         -6    1    1    2    0  503 -0.30373143991E+02 -0.95785562079E+02 -0.13919626667E+02  0.19968765056E+03  0.17200000000E+03 0.  1.
</event>
<event>
 4    1  0.1259333E+000  0.1822459E+03  0.7818608E-02  0.1165647E+00
         21   -1    0    0  503  502  0.00000000000E+00  0.00000000000E+00  0.10275308815E+04  0.10275308815E+04  0.00000000000E+00 0.  1.
         21   -1    0    0  501  503 -0.00000000000E+00 -0.00000000000E+00 -0.55709264070E+03  0.55709264070E+03  0.00000000000E+00 0.  1.
          6    1    1    2  501    0 -0.28862348003E+02  0.52882333365E+02 -0.53376339078E+03  0.56401855790E+03  0.17200000000E+03 0.  1.
         -6    1    1    2    0  502  0.28862348003E+02 -0.52882333365E+02  0.10042016316E+04  0.10206049643E+04  0.17200000000E+03 0.  1.
</event>
<event>
 4    1  0.1259333E+000  0.2514150E+03  0.7818608E-02  0.1112414E+00
         21   -1    0    0  503  502  0.00000000000E+00  0.00000000000E+00  0.42170420640E+03  0.42170420640E+03  0.00000000000E+00 0.  1.
         21   -1    0    0  501  503 -0.00000000000E+00 -0.00000000000E+00 -0.16841390576E+03  0.16841390576E+03  0.00000000000E+00 0. -1.
          6    1    1    2  501    0 -0.13008151763E+03  0.12924507735E+03  0.28790973211E+02  0.25305811860E+03  0.17200000000E+03 0. -1.
         -6    1    1    2    0  502  0.13008151763E+03 -0.12924507735E+03  0.22449932742E+03  0.33705999357E+03  0.17200000000E+03 0.  1.
</event>
<event>
 4    1  0.1259333E+000  0.2947315E+03  0.7818608E-02  0.1087904E+00
         21   -1    0    0  501  502  0.00000000000E+00  0.00000000000E+00  0.96092292396E+03  0.96092292396E+03  0.00000000000E+00 0.  1.
         21   -1    0    0  502  503 -0.00000000000E+00 -0.00000000000E+00 -0.12784877888E+03  0.12784877888E+03  0.00000000000E+00 0.  1.
          6    1    1    2  501    0  0.21376373657E+03  0.10764624760E+03  0.71117054907E+03  0.76982478497E+03  0.17200000000E+03 0.  1.
         -6    1    1    2    0  503 -0.21376373657E+03 -0.10764624760E+03  0.12190359601E+03  0.31894691787E+03  0.17200000000E+03 0.  1.
</event>
<event>
 4    1  0.1259333E+000  0.2371995E+03  0.7818608E-02  0.1121673E+00
         21   -1    0    0  503  502  0.00000000000E+00  0.00000000000E+00  0.93978517448E+03  0.93978517448E+03  0.00000000000E+00 0.  1.
         21   -1    0    0  501  503 -0.00000000000E+00 -0.00000000000E+00 -0.69045476218E+02  0.69045476218E+02  0.00000000000E+00 0.  1.
          6    1    1    2  501    0 -0.82245412716E+02 -0.14112149546E+03  0.25147521394E+03  0.34569259121E+03  0.17200000000E+03 0.  1.
         -6    1    1    2    0  502  0.82245412716E+02  0.14112149546E+03  0.61926448432E+03  0.66313805949E+03  0.17200000000E+03 0.  1.
</event>
<event>
 4    1  0.1259333E+000  0.2180423E+03  0.7818608E-02  0.1135351E+00
         21   -1    0    0  503  502  0.00000000000E+00  0.00000000000E+00  0.16526244092E+03  0.16526244092E+03  0.00000000000E+00 0. -1.
         21   -1    0    0  501  503 -0.00000000000E+00 -0.00000000000E+00 -0.41371214705E+03  0.41371214705E+03  0.00000000000E+00 0.  1.
          6    1    1    2  501    0  0.13396589527E+03 -0.34043551711E+01 -0.28400529802E+03  0.35805231466E+03  0.17200000000E+03 0.  1.
         -6    1    1    2    0  502 -0.13396589527E+03  0.34043551711E+01  0.35555591889E+02  0.22092227331E+03  0.17200000000E+03 0. -1.
</event>
<event>
 4    1  0.1259333E+000  0.2280648E+03  0.7818608E-02  0.1128009E+00
         21   -1    0    0  501  502  0.00000000000E+00  0.00000000000E+00  0.68823131844E+02  0.68823131844E+02  0.00000000000E+00 0. -1.
         21   -1    0    0  502  503 -0.00000000000E+00 -0.00000000000E+00 -0.76051049722E+03  0.76051049722E+03  0.00000000000E+00 0.  1.
          6    1    1    2  501    0 -0.14944439124E+03  0.97952493046E+01 -0.31306080273E+03  0.38732497878E+03  0.17200000000E+03 0.  1.
         -6    1    1    2    0  503  0.14944439124E+03 -0.97952493046E+01 -0.37862656264E+03  0.44200865028E+03  0.17200000000E+03 0. -1.
</event>
<event>
 4    1  0.1259333E+000  0.1771146E+03  0.7818608E-02  0.1170625E+00
         21   -1    0    0  501  502  0.00000000000E+00  0.00000000000E+00  0.87453090689E+02  0.87453090689E+02  0.00000000000E+00 0. -1.
         21   -1    0    0  502  503 -0.00000000000E+00 -0.00000000000E+00 -0.37900388775E+03  0.37900388775E+03  0.00000000000E+00 0. -1.
          6    1    1    2  501    0  0.42047818358E+02  0.41923961278E+01 -0.91795957370E+02  0.19948958119E+03  0.17200000000E+03 0. -1.
         -6    1    1    2    0  503 -0.42047818358E+02 -0.41923961278E+01 -0.19975483969E+03  0.26696739725E+03  0.17200000000E+03 0. -1.
</event>
<event>
 4    1  0.1259333E+000  0.1916880E+03  0.7818608E-02  0.1156948E+00
         21   -1    0    0  503  502  0.00000000000E+00  0.00000000000E+00  0.82453797115E+03  0.82453797115E+03  0.00000000000E+00 0.  1.
         21   -1    0    0  501  503 -0.00000000000E+00 -0.00000000000E+00 -0.59804688047E+02  0.59804688047E+02  0.00000000000E+00 0.  1.
          6    1    1    2  501    0 -0.22620172844E+01  0.84588206010E+02  0.15914686880E+03  0.24914254387E+03  0.17200000000E+03 0.  1.
         -6    1    1    2    0  502  0.22620172844E+01 -0.84588206010E+02  0.60558641430E+03  0.63520011532E+03  0.17200000000E+03 0.  1.
</event>
<event>
 4    1  0.1259333E+000  0.1825296E+03  0.7818608E-02  0.1165377E+00
         21   -1    0    0  501  502  0.00000000000E+00  0.00000000000E+00  0.23577885183E+03  0.23577885183E+03  0.00000000000E+00 0.  1.
         21   -1    0    0  502  503 -0.00000000000E+00 -0.00000000000E+00 -0.17061836790E+03  0.17061836790E+03  0.00000000000E+00 0. -1.
          6    1    1    2  501    0  0.32890806085E+02  0.51490462274E+02  0.11680309509E+03  0.21670264385E+03  0.17200000000E+03 0.  1.
         -6    1    1    2    0  503 -0.32890806085E+02 -0.51490462274E+02 -0.51642611163E+02  0.18969457588E+03  0.17200000000E+03 0. -1.
</event>
<event>
 4    1  0.1259333E+000  0.2302257E+03  0.7818608E-02  0.1126481E+00
         21   -1    0    0  501  502  0.00000000000E+00  0.00000000000E+00  0.10432109745E+03  0.10432109745E+03  0.00000000000E+00 0.  1.
         21   -1    0    0  502  503 -0.00000000000E+00 -0.00000000000E+00 -0.50909855318E+03  0.50909855318E+03  0.00000000000E+00 0. -1.
          6    1    1    2  501    0 -0.15190297224E+03 -0.18583726903E+02 -0.21608145688E+03  0.31574525156E+03  0.17200000000E+03 0. -1.
         -6    1    1    2    0  503  0.15190297224E+03  0.18583726903E+02 -0.18869599885E+03  0.29767439907E+03  0.17200000000E+03 0. -1.
</event>
<event>
 4    1  0.1259333E+000  0.1807900E+03  0.7818608E-02  0.1167041E+00
         21   -1    0    0  501  502  0.00000000000E+00  0.00000000000E+00  0.67829704972E+03  0.67829704972E+03  0.00000000000E+00 0.  1.
         21   -1    0    0  502  503 -0.00000000000E+00 -0.00000000000E+00 -0.72615043124E+02  0.72615043124E+02  0.00000000000E+00 0.  1.
          6    1    1    2  501    0 -0.51516979194E+02  0.21143067117E+02  0.52060750724E+03  0.55110543912E+03  0.17200000000E+03 0.  1.
         -6    1    1    2    0  503  0.51516979194E+02 -0.21143067117E+02  0.85074499357E+02  0.19980665373E+03  0.17200000000E+03 0.  1.
</event>
<event>
 4    1  0.1259333E+000  0.1782879E+03  0.7818608E-02  0.1169470E+00
         21   -1    0    0  503  502  0.00000000000E+00  0.00000000000E+00  0.22238632933E+03  0.22238632933E+03  0.00000000000E+00 0.  1.
         21   -1    0    0  501  503 -0.00000000000E+00 -0.00000000000E+00 -0.22833616941E+03  0.22833616941E+03  0.00000000000E+00 0.  1.
          6    1    1    2  501    0 -0.41533296863E+02  0.21853152488E+02 -0.14079936517E+03  0.22718062473E+03  0.17200000000E+03 0.  1.
         -6    1    1    2    0  502  0.41533296863E+02 -0.21853152488E+02  0.13484952508E+03  0.22354187401E+03  0.17200000000E+03 0.  1.
</event>
<event>
 4    1  0.1259333E+000  0.2277910E+03  0.7818608E-02  0.1128204E+00
         21   -1    0    0  503  502  0.00000000000E+00  0.00000000000E+00  0.14656358319E+03  0.14656358319E+03  0.00000000000E+00 0.  1.
         21   -1    0    0  501  503 -0.00000000000E+00 -0.00000000000E+00 -0.40828467731E+03  0.40828467731E+03  0.00000000000E+00 0.  1.
          6    1    1    2  501    0 -0.63929632568E+02 -0.13497305265E+03 -0.23198564593E+03  0.32512468804E+03  0.17200000000E+03 0.  1.
         -6    1    1    2    0  502  0.63929632568E+02  0.13497305265E+03 -0.29735448194E+02  0.22972357245E+03  0.17200000000E+03 0.  1.
</event>
<event>
 4    1  0.1259333E+000  0.1773436E+03  0.7818608E-02  0.1170399E+00
         21   -1    0    0  503  502  0.00000000000E+00  0.00000000000E+00  0.41962725066E+03  0.41962725066E+03  0.00000000000E+00 0.  1.
         21   -1    0    0  501  503 -0.00000000000E+00 -0.00000000000E+00 -0.77128984453E+02  0.77128984453E+02  0.00000000000E+00 0.  1.
          6    1    1    2  501    0  0.41853620537E+02  0.10724531204E+02  0.12949419111E+03  0.21958935915E+03  0.17200000000E+03 0. -1.
         -6    1    1    2    0  502 -0.41853620537E+02 -0.10724531204E+02  0.21300407510E+03  0.27716687596E+03  0.17200000000E+03 0. -1.
</event>
<event>
 4    1  0.1259333E+000  0.1751524E+03  0.7818608E-02  0.1172579E+00
         21   -1    0    0  503  502  0.00000000000E+00  0.00000000000E+00  0.22446843510E+04  0.22446843510E+04  0.00000000000E+00 0. -1.
         21   -1    0    0  501  503 -0.00000000000E+00 -0.00000000000E+00 -0.31765280918E+02  0.31765280918E+02  0.00000000000E+00 0. -1.
          6    1    1    2  501    0  0.72093653656E+01  0.32285935735E+02  0.24730953149E+03  0.30305174635E+03  0.17200000000E+03 0. -1.
         -6    1    1    2    0  502 -0.72093653656E+01 -0.32285935735E+02  0.19656095386E+04  0.19733978856E+04  0.17200000000E+03 0. -1.
</event>
<event>
 4    1  0.1259333E+000  0.1932775E+03  0.7818608E-02  0.1155538E+00
         21   -1    0    0  501  502  0.00000000000E+00  0.00000000000E+00  0.14828166260E+03  0.14828166260E+03  0.00000000000E+00 0. -1.
         21   -1    0    0  502  503 -0.00000000000E+00 -0.00000000000E+00 -0.25243405991E+03  0.25243405991E+03  0.00000000000E+00 0.  1.
          6    1    1    2  501    0  0.11283153620E+02  0.87434947936E+02 -0.43098002760E+02  0.19802428517E+03  0.17200000000E+03 0. -1.
         -6    1    1    2    0  503 -0.11283153620E+02 -0.87434947936E+02 -0.61054394547E+02  0.20269143734E+03  0.17200000000E+03 0.  1.
</event>
<event>
 4    1  0.1259333E+000  0.1720294E+03  0.7818608E-02  0.1175748E+00
         21   -1    0    0  501  502  0.00000000000E+00  0.00000000000E+00  0.28347781358E+03  0.28347781358E+03  0.00000000000E+00 0. -1.
         21   -1    0    0  502  503 -0.00000000000E+00 -0.00000000000E+00 -0.11117072365E+03  0.11117072365E+03  0.00000000000E+00 0. -1.
          6    1    1    2  501    0  0.21043235642E+01  0.23828102392E+01  0.37444072868E+02  0.17605727635E+03  0.17200000000E+03 0. -1.
         -6    1    1    2    0  503 -0.21043235642E+01 -0.23828102392E+01  0.13486301707E+03  0.21859126088E+03  0.17200000000E+03 0. -1.
</event>
<event>
 4    1  0.1259333E+000  0.1747717E+03  0.7818608E-02  0.1172961E+00
         21   -1    0    0  501  502  0.00000000000E+00  0.00000000000E+00  0.98465441765E+02  0.98465441765E+02  0.00000000000E+00 0. -1.
         21   -1    0    0  502  503 -0.00000000000E+00 -0.00000000000E+00 -0.32364065591E+03  0.32364065591E+03  0.00000000000E+00 0. -1.
          6    1    1    2  501    0 -0.19307254421E+02  0.24256351007E+02 -0.69596382808E+02  0.18811910360E+03  0.17200000000E+03 0. -1.
         -6    1    1    2    0  503  0.19307254421E+02 -0.24256351007E+02 -0.15557883133E+03  0.23398699408E+03  0.17200000000E+03 0. -1.
</event>
<event>
 4    1  0.1259333E+000  0.1788017E+03  0.7818608E-02  0.1168968E+00
         21   -1    0    0  501  502  0.00000000000E+00  0.00000000000E+00  0.45991564248E+03  0.45991564248E+03  0.00000000000E+00 0. -1.
         21   -1    0    0  502  503 -0.00000000000E+00 -0.00000000000E+00 -0.10748611192E+03  0.10748611192E+03  0.00000000000E+00 0. -1.
          6    1    1    2  501    0 -0.30141077814E+02 -0.38438932887E+02  0.34484039723E+03  0.38843910165E+03  0.17200000000E+03 0. -1.
         -6    1    1    2    0  503  0.30141077814E+02  0.38438932887E+02  0.75891333308E+01  0.17896265275E+03  0.17200000000E+03 0. -1.
</event>
<event>
 4    1  0.1259333E+000  0.2347652E+03  0.7818608E-02  0.1123330E+00
         21   -1    0    0  501  502  0.00000000000E+00  0.00000000000E+00  0.37676117498E+03  0.37676117498E+03  0.00000000000E+00 0. -1.
         21   -1    0    0  502  503 -0.00000000000E+00 -0.00000000000E+00 -0.15112267042E+03  0.15112267042E+03  0.00000000000E+00 0. -1.
          6    1    1    2  501    0  0.74100821072E+02 -0.14156181279E+03  0.65597570976E+02  0.24375750212E+03  0.17200000000E+03 0.  1.
         -6    1    1    2    0  503 -0.74100821072E+02  0.14156181279E+03  0.16004093358E+03  0.28412634328E+03  0.17200000000E+03 0.  1.
</event>
<event>
 4    1  0.1259333E+000  0.2259199E+03  0.7818608E-02  0.1129545E+00
         21   -1    0    0  503  502  0.00000000000E+00  0.00000000000E+00  0.54067561059E+03  0.54067561059E+03  0.00000000000E+00 0.  1.
         21   -1    0    0  501  503 -0.00000000000E+00 -0.00000000000E+00 -0.26991882896E+03  0.26991882896E+03  0.00000000000E+00 0.  1.
          6    1    1    2  501    0 -0.14432106073E+03  0.25044873531E+02 -0.19144927077E+03  0.29612942701E+03  0.17200000000E+03 0.  1.
         -6    1    1    2    0  502  0.14432106073E+03 -0.25044873531E+02  0.46220605239E+03  0.51446501254E+03  0.17200000000E+03 0.  1.
</event>
<event>
 4    1  0.1259333E+000  0.2173134E+03  0.7818608E-02  0.1135902E+00
         21   -1    0    0  501  502  0.00000000000E+00  0.00000000000E+00  0.13542668569E+03  0.13542668569E+03  0.00000000000E+00 0. -1.
         21   -1    0    0  502  503 -0.00000000000E+00 -0.00000000000E+00 -0.45731512625E+03  0.45731512625E+03  0.00000000000E+00 0. -1.
          6    1    1    2  501    0 -0.21117584854E+02  0.13113036330E+03 -0.16518086246E+02  0.21794029398E+03  0.17200000000E+03 0. -1.
         -6    1    1    2    0  503  0.21117584854E+02 -0.13113036330E+03 -0.30537035431E+03  0.37480151796E+03  0.17200000000E+03 0. -1.
</event>
<event>
 4    1  0.1259333E+000  0.1960912E+03  0.7818608E-02  0.1153079E+00
         21   -1    0    0  501  502  0.00000000000E+00  0.00000000000E+00  0.15695002468E+03  0.15695002468E+03  0.00000000000E+00 0. -1.
         21   -1    0    0  502  503 -0.00000000000E+00 -0.00000000000E+00 -0.29950039268E+03  0.29950039268E+03  0.00000000000E+00 0. -1.
          6    1    1    2  501    0  0.92546720820E+02 -0.17402893017E+02 -0.16863732389E+03  0.25863159750E+03  0.17200000000E+03 0. -1.
         -6    1    1    2    0  503 -0.92546720820E+02  0.17402893017E+02  0.26086955886E+02  0.19781881985E+03  0.17200000000E+03 0. -1.
</event>
<event>
 4    1  0.1259333E+000  0.1743812E+03  0.7818608E-02  0.1173354E+00
         21   -1    0    0  501  502  0.00000000000E+00  0.00000000000E+00  0.32903760887E+03  0.32903760887E+03  0.00000000000E+00 0. -1.
         21   -1    0    0  502  503 -0.00000000000E+00 -0.00000000000E+00 -0.11192204430E+03  0.11192204430E+03  0.00000000000E+00 0. -1.
          6    1    1    2  501    0  0.17656758903E+02 -0.22650458713E+02  0.20059848380E+03  0.26579796109E+03  0.17200000000E+03 0. -1.
         -6    1    1    2    0  503 -0.17656758903E+02  0.22650458713E+02  0.16517080769E+02  0.17516169208E+03  0.17200000000E+03 0. -1.
</event>
<event>
 4    1  0.1259333E+000  0.2116207E+03  0.7818608E-02  0.1140289E+00
         21   -1    0    0  501  502  0.00000000000E+00  0.00000000000E+00  0.25919741203E+03  0.25919741203E+03  0.00000000000E+00 0.  1.
         21   -1    0    0  502  503 -0.00000000000E+00 -0.00000000000E+00 -0.17553911388E+03  0.17553911388E+03  0.00000000000E+00 0. -1.
          6    1    1    2  501    0 -0.53585601297E+02  0.11103101162E+03  0.69096619502E+02  0.22261546450E+03  0.17200000000E+03 0. -1.
         -6    1    1    2    0  503  0.53585601297E+02 -0.11103101162E+03  0.14561678652E+02  0.21212106141E+03  0.17200000000E+03 0.  1.
</event>
<event>
 4    1  0.1259333E+000  0.1921114E+03  0.7818608E-02  0.1156571E+00
         21   -1    0    0  503  502  0.00000000000E+00  0.00000000000E+00  0.74342271235E+03  0.74342271235E+03  0.00000000000E+00 0.  1.
         21   -1    0    0  501  503 -0.00000000000E+00 -0.00000000000E+00 -0.58891099528E+02  0.58891099528E+02  0.00000000000E+00 0.  1.
          6    1    1    2  501    0 -0.77678938998E+02  0.35899687353E+02  0.18330800504E+03  0.26553461135E+03  0.17200000000E+03 0.  1.
         -6    1    1    2    0  502  0.77678938998E+02 -0.35899687353E+02  0.50122360778E+03  0.53677920052E+03  0.17200000000E+03 0.  1.
</event>
<event>
 4    1  0.1259333E+000  0.1727435E+03  0.7818608E-02  0.1175017E+00
         21   -1    0    0  503  502  0.00000000000E+00  0.00000000000E+00  0.75499975074E+02  0.75499975074E+02  0.00000000000E+00 0. -1.
         21   -1    0    0  501  503 -0.00000000000E+00 -0.00000000000E+00 -0.40772903826E+03  0.40772903826E+03  0.00000000000E+00 0. -1.
          6    1    1    2  501    0 -0.15727372911E+02 -0.29940972562E+01 -0.20840764632E+03  0.27069182093E+03  0.17200000000E+03 0. -1.
         -6    1    1    2    0  502  0.15727372911E+02  0.29940972562E+01 -0.12382141687E+03  0.21253719240E+03  0.17200000000E+03 0. -1.
</event>
<event>
 4    1  0.1259333E+000  0.2832862E+03  0.7818608E-02  0.1093908E+00
         21   -1    0    0  503  502  0.00000000000E+00  0.00000000000E+00  0.83864344155E+03  0.83864344155E+03  0.00000000000E+00 0.  1.
         21   -1    0    0  501  503 -0.00000000000E+00 -0.00000000000E+00 -0.98005352973E+02  0.98005352973E+02  0.00000000000E+00 0. -1.
          6    1    1    2  501    0  0.17817611540E+03 -0.13755113707E+03  0.29835917310E+03  0.41142343101E+03  0.17200000000E+03 0.  1.
         -6    1    1    2    0  502 -0.17817611540E+03  0.13755113707E+03  0.44227891547E+03  0.52522536351E+03  0.17200000000E+03 0.  1.
</event>
<event>
 4    1  0.1259333E+000  0.1876435E+03  0.7818608E-02  0.1160604E+00
         21   -1    0    0  503  502  0.00000000000E+00  0.00000000000E+00  0.73371178849E+03  0.73371178849E+03  0.00000000000E+00 0.  1.
         21   -1    0    0  501  503 -0.00000000000E+00 -0.00000000000E+00 -0.62934605113E+02  0.62934605113E+02  0.00000000000E+00 0. -1.
          6    1    1    2  501    0 -0.68989344904E+02 -0.29437069979E+02  0.52949866528E+03  0.56176410292E+03  0.17200000000E+03 0.  1.
         -6    1    1    2    0  502  0.68989344904E+02  0.29437069979E+02  0.14127851809E+03  0.23488229068E+03  0.17200000000E+03 0. -1.
</event>
<event>
 4    1  0.1259333E+000  0.1725485E+03  0.7818608E-02  0.1175216E+00
         21   -1    0    0  503  502  0.00000000000E+00  0.00000000000E+00  0.33407140280E+02  0.33407140280E+02  0.00000000000E+00 0.  1.
         21   -1    0    0  501  503 -0.00000000000E+00 -0.00000000000E+00 -0.91317497648E+03  0.91317497648E+03  0.00000000000E+00 0.  1.
          6    1    1    2  501    0 -0.11987453104E+02 -0.67283066881E+01 -0.51327781490E+03  0.54150446389E+03  0.17200000000E+03 0.  1.
         -6    1    1    2    0  502  0.11987453104E+02  0.67283066881E+01 -0.36649002130E+03  0.40507765287E+03  0.17200000000E+03 0.  1.
</event>
<event>
 4    1  0.1259333E+000  0.1803483E+03  0.7818608E-02  0.1167466E+00
         21   -1    0    0  503  502  0.00000000000E+00  0.00000000000E+00  0.25120755271E+03  0.25120755271E+03  0.00000000000E+00 0. -1.
         21   -1    0    0  501  503 -0.00000000000E+00 -0.00000000000E+00 -0.13001967859E+03  0.13001967859E+03  0.00000000000E+00 0.  1.
          6    1    1    2  501    0  0.54231873061E+02  0.64157565358E+00  0.48275142537E+02  0.18669760861E+03  0.17200000000E+03 0.  1.
         -6    1    1    2    0  502 -0.54231873061E+02 -0.64157565358E+00  0.72912731588E+02  0.19452962269E+03  0.17200000000E+03 0. -1.
</event>
<event>
 4    1  0.1259333E+000  0.2009007E+03  0.7818608E-02  0.1148981E+00
         21   -1    0    0  503  502  0.00000000000E+00  0.00000000000E+00  0.69537529654E+03  0.69537529654E+03  0.00000000000E+00 0.  1.
         21   -1    0    0  501  503 -0.00000000000E+00 -0.00000000000E+00 -0.66267031439E+02  0.66267031439E+02  0.00000000000E+00 0. -1.
          6    1    1    2  501    0 -0.88511242638E+02 -0.54247893853E+02  0.18038974172E+03  0.27000283883E+03  0.17200000000E+03 0. -1.
         -6    1    1    2    0  502  0.88511242638E+02  0.54247893853E+02  0.44871852338E+03  0.49163948914E+03  0.17200000000E+03 0.  1.
</event>
<event>
 4    1  0.1259333E+000  0.1924545E+03  0.7818608E-02  0.1156266E+00
         21   -1    0    0  501  502  0.00000000000E+00  0.00000000000E+00  0.68280158536E+02  0.68280158536E+02  0.00000000000E+00 0.  1.
         21   -1    0    0  502  503 -0.00000000000E+00 -0.00000000000E+00 -0.97368437177E+03  0.97368437177E+03  0.00000000000E+00 0.  1.
          6    1    1    2  501    0  0.63917605172E+02 -0.58045315797E+02 -0.10598965338E+03  0.21971009435E+03  0.17200000000E+03 0.  1.
         -6    1    1    2    0  503 -0.63917605172E+02  0.58045315797E+02 -0.79941455985E+03  0.82225443595E+03  0.17200000000E+03 0.  1.
</event>
<event>
 4    1  0.1259333E+000  0.1782203E+03  0.7818608E-02  0.1169537E+00
         21   -1    0    0  503  502  0.00000000000E+00  0.00000000000E+00  0.13016684009E+03  0.13016684009E+03  0.00000000000E+00 0.  1.
         21   -1    0    0  501  503 -0.00000000000E+00 -0.00000000000E+00 -0.25857472861E+03  0.25857472861E+03  0.00000000000E+00 0.  1.
          6    1    1    2  501    0  0.46481298072E+02  0.42370831789E+01 -0.18078854862E+02  0.17913489034E+03  0.17200000000E+03 0.  1.
         -6    1    1    2    0  502 -0.46481298072E+02 -0.42370831789E+01 -0.11032903366E+03  0.20960667836E+03  0.17200000000E+03 0.  1.
</event>
<event>
 4    1  0.1259333E+000  0.2663455E+03  0.7818608E-02  0.1103390E+00
         21   -1    0    0  501  502  0.00000000000E+00  0.00000000000E+00  0.83171515234E+03  0.83171515234E+03  0.00000000000E+00 0.  1.
         21   -1    0    0  502  503 -0.00000000000E+00 -0.00000000000E+00 -0.10009748462E+03  0.10009748462E+03  0.00000000000E+00 0.  1.
          6    1    1    2  501    0 -0.30540965288E+02 -0.20105516795E+03  0.54498313431E+03  0.60658597726E+03  0.17200000000E+03 0.  1.
         -6    1    1    2    0  503  0.30540965288E+02  0.20105516795E+03  0.18663453341E+03  0.32522665970E+03  0.17200000000E+03 0.  1.
</event>
<event>
 4    1  0.1259333E+000  0.1905521E+03  0.7818608E-02  0.1157964E+00
         21   -1    0    0  501  502  0.00000000000E+00  0.00000000000E+00  0.64177882656E+02  0.64177882656E+02  0.00000000000E+00 0.  1.
         21   -1    0    0  502  503 -0.00000000000E+00 -0.00000000000E+00 -0.59445425109E+03  0.59445425109E+03  0.00000000000E+00 0.  1.
          6    1    1    2  501    0 -0.81983123311E+02 -0.22110281357E+01 -0.19280263067E+03  0.27107743459E+03  0.17200000000E+03 0. -1.
         -6    1    1    2    0  503  0.81983123311E+02  0.22110281357E+01 -0.33747373777E+03  0.38755469916E+03  0.17200000000E+03 0. -1.
</event>
<event>
 4    1  0.1259333E+000  0.1902565E+03  0.7818608E-02  0.1158230E+00
         21   -1    0    0  503  502  0.00000000000E+00  0.00000000000E+00  0.28780963751E+03  0.28780963751E+03  0.00000000000E+00 0.  1.
         21   -1    0    0  501  503 -0.00000000000E+00 -0.00000000000E+00 -0.14310781960E+03  0.14310781960E+03  0.00000000000E+00 0.  1.
          6    1    1    2  501    0  0.72912463913E+02  0.36018220301E+02 -0.26457247611E+01  0.19027490493E+03  0.17200000000E+03 0. -1.
         -6    1    1    2    0  502 -0.72912463913E+02 -0.36018220301E+02  0.14734754267E+03  0.24064255218E+03  0.17200000000E+03 0. -1.
</event>
<event>
 4    1  0.1259333E+000  0.1907625E+03  0.7818608E-02  0.1157775E+00
         21   -1    0    0  501  502  0.00000000000E+00  0.00000000000E+00  0.18256799442E+02  0.18256799442E+02  0.00000000000E+00 0.  1.
         21   -1    0    0  502  503 -0.00000000000E+00 -0.00000000000E+00 -0.28376742038E+04  0.28376742038E+04  0.00000000000E+00 0.  1.
          6    1    1    2  501    0 -0.81616585685E+02 -0.12044730315E+02 -0.63074520215E+03  0.65896119205E+03  0.17200000000E+03 0.  1.
         -6    1    1    2    0  503  0.81616585685E+02  0.12044730315E+02 -0.21886722022E+04  0.21969698112E+04  0.17200000000E+03 0.  1.
</event>
<event>
 4    1  0.1259333E+000  0.1749041E+03  0.7818608E-02  0.1172828E+00
         21   -1    0    0  501  502  0.00000000000E+00  0.00000000000E+00  0.62248684453E+02  0.62248684453E+02  0.00000000000E+00 0. -1.
         21   -1    0    0  502  503 -0.00000000000E+00 -0.00000000000E+00 -0.64770783605E+03  0.64770783605E+03  0.00000000000E+00 0. -1.
          6    1    1    2  501    0 -0.10391827814E+02 -0.29991096880E+02 -0.11836919155E+03  0.21119356402E+03  0.17200000000E+03 0. -1.
         -6    1    1    2    0  503  0.10391827814E+02  0.29991096880E+02 -0.46708996005E+03  0.49876295648E+03  0.17200000000E+03 0. -1.
</event>
<event>
 4    1  0.1259333E+000  0.1897596E+03  0.7818608E-02  0.1158678E+00
         21   -1    0    0  503  502  0.00000000000E+00  0.00000000000E+00  0.46958152936E+03  0.46958152936E+03  0.00000000000E+00 0.  1.
         21   -1    0    0  501  503 -0.00000000000E+00 -0.00000000000E+00 -0.13817398279E+03  0.13817398279E+03  0.00000000000E+00 0.  1.
          6    1    1    2  501    0 -0.24080045124E+02  0.76451672589E+02 -0.37014592366E+02  0.19333594302E+03  0.17200000000E+03 0. -1.
         -6    1    1    2    0  502  0.24080045124E+02 -0.76451672589E+02  0.36842213894E+03  0.41441956913E+03  0.17200000000E+03 0. -1.
</event>
<event>
 4    1  0.1259333E+000  0.2269597E+03  0.7818608E-02  0.1128798E+00
         21   -1    0    0  503  502  0.00000000000E+00  0.00000000000E+00  0.88797215482E+02  0.88797215482E+02  0.00000000000E+00 0.  1.
         21   -1    0    0  501  503 -0.00000000000E+00 -0.00000000000E+00 -0.78506635452E+03  0.78506635452E+03  0.00000000000E+00 0. -1.
          6    1    1    2  501    0 -0.12951043062E+03  0.71789800722E+02 -0.57139314969E+03  0.61481774425E+03  0.17200000000E+03 0.  1.
         -6    1    1    2    0  502  0.12951043062E+03 -0.71789800722E+02 -0.12487598935E+03  0.25904582576E+03  0.17200000000E+03 0.  1.
</event>
<event>
 4    1  0.1259333E+000  0.1997431E+03  0.7818608E-02  0.1149956E+00
         21   -1    0    0  503  502  0.00000000000E+00  0.00000000000E+00  0.11289905242E+03  0.11289905242E+03  0.00000000000E+00 0. -1.
         21   -1    0    0  501  503 -0.00000000000E+00 -0.00000000000E+00 -0.38212599167E+03  0.38212599167E+03  0.00000000000E+00 0. -1.
          6    1    1    2  501    0 -0.59428051238E+02  0.82350518555E+02 -0.20248901561E+03  0.28442767556E+03  0.17200000000E+03 0.  1.
         -6    1    1    2    0  502  0.59428051238E+02 -0.82350518555E+02 -0.66737923637E+02  0.21059736853E+03  0.17200000000E+03 0.  1.
</event>
<event>
 4    1  0.1259333E+000  0.2031307E+03  0.7818608E-02  0.1147124E+00
         21   -1    0    0  501  502  0.00000000000E+00  0.00000000000E+00  0.16265273421E+03  0.16265273421E+03  0.00000000000E+00 0. -1.
         21   -1    0    0  502  503 -0.00000000000E+00 -0.00000000000E+00 -0.30372509505E+03  0.30372509505E+03  0.00000000000E+00 0. -1.
          6    1    1    2  501    0  0.92094225911E+02  0.56539760245E+02  0.24117849684E+02  0.20455747752E+03  0.17200000000E+03 0. -1.
         -6    1    1    2    0  503 -0.92094225911E+02 -0.56539760245E+02 -0.16519021052E+03  0.26182035174E+03  0.17200000000E+03 0. -1.
</event>
<event>
 4    1  0.1259333E+000  0.2150545E+03  0.7818608E-02  0.1137625E+00
         21   -1    0    0  503  502  0.00000000000E+00  0.00000000000E+00  0.40702206047E+03  0.40702206047E+03  0.00000000000E+00 0. -1.
         21   -1    0    0  501  503 -0.00000000000E+00 -0.00000000000E+00 -0.15988766504E+03  0.15988766504E+03  0.00000000000E+00 0.  1.
          6    1    1    2  501    0 -0.92330090516E+02 -0.90219590562E+02  0.27603759965E+03  0.34992167203E+03  0.17200000000E+03 0. -1.
         -6    1    1    2    0  502  0.92330090516E+02  0.90219590562E+02 -0.28903204225E+02  0.21698805347E+03  0.17200000000E+03 0.  1.
</event>
<event>
 4    1  0.1259333E+000  0.2794261E+03  0.7818608E-02  0.1096003E+00
         21   -1    0    0  501  502  0.00000000000E+00  0.00000000000E+00  0.51792715307E+03  0.51792715307E+03  0.00000000000E+00 0.  1.
         21   -1    0    0  502  503 -0.00000000000E+00 -0.00000000000E+00 -0.20764756577E+03  0.20764756577E+03  0.00000000000E+00 0.  1.
          6    1    1    2  501    0  0.12253714141E+03 -0.18297427893E+03  0.34503985624E+03  0.44399486502E+03  0.17200000000E+03 0. -1.
         -6    1    1    2    0  503 -0.12253714141E+03  0.18297427893E+03 -0.34760268932E+02  0.28157985381E+03  0.17200000000E+03 0. -1.
</event>
<event>
 4    1  0.1259333E+000  0.3489301E+03  0.7818608E-02  0.1063055E+00
         21   -1    0    0  501  502  0.00000000000E+00  0.00000000000E+00  0.19804331360E+03  0.19804331360E+03  0.00000000000E+00 0.  1.
         21   -1    0    0  502  503 -0.00000000000E+00 -0.00000000000E+00 -0.66211418460E+03  0.66211418460E+03  0.00000000000E+00 0. -1.
          6    1    1    2  501    0  0.83848890558E+02 -0.29178343037E+03 -0.11703779054E+03  0.36803539381E+03  0.17200000000E+03 0.  1.
         -6    1    1    2    0  503 -0.83848890558E+02  0.29178343037E+03 -0.34703308046E+03  0.49212210438E+03  0.17200000000E+03 0. -1.
</event>
<event>
 4    1  0.1259333E+000  0.2977649E+03  0.7818608E-02  0.1086363E+00
         21   -1    0    0  501  502  0.00000000000E+00  0.00000000000E+00  0.20618562700E+03  0.20618562700E+03  0.00000000000E+00 0. -1.
         21   -1    0    0  502  503 -0.00000000000E+00 -0.00000000000E+00 -0.43021449578E+03  0.43021449578E+03  0.00000000000E+00 0.  1.
          6    1    1    2  501    0 -0.22791254021E+03 -0.84473693191E+02 -0.11878119013E+03  0.32058212981E+03  0.17200000000E+03 0.  1.
         -6    1    1    2    0  503  0.22791254021E+03  0.84473693191E+02 -0.10524767865E+03  0.31581799297E+03  0.17200000000E+03 0.  1.
</event>
<event>
 4    1  0.1259333E+000  0.1858616E+03  0.7818608E-02  0.1162248E+00
         21   -1    0    0  503  502  0.00000000000E+00  0.00000000000E+00  0.34908380782E+03  0.34908380782E+03  0.00000000000E+00 0. -1.
         21   -1    0    0  501  503 -0.00000000000E+00 -0.00000000000E+00 -0.10008442431E+03  0.10008442431E+03  0.00000000000E+00 0. -1.
          6    1    1    2  501    0 -0.62201242096E+02  0.33038418550E+02  0.14832859919E+03  0.23779382868E+03  0.17200000000E+03 0. -1.
         -6    1    1    2    0  502  0.62201242096E+02 -0.33038418550E+02  0.10067078433E+03  0.21137440345E+03  0.17200000000E+03 0. -1.
</event>
<event>
 4    1  0.1259333E+000  0.1752604E+03  0.7818608E-02  0.1172471E+00
         21   -1    0    0  503  502  0.00000000000E+00  0.00000000000E+00  0.45598323773E+03  0.45598323773E+03  0.00000000000E+00 0. -1.
         21   -1    0    0  501  503 -0.00000000000E+00 -0.00000000000E+00 -0.11016845105E+03  0.11016845105E+03  0.00000000000E+00 0. -1.
          6    1    1    2  501    0 -0.31729687923E+02  0.11199648794E+02 -0.35443211669E+01  0.17529622769E+03  0.17200000000E+03 0. -1.
         -6    1    1    2    0  502  0.31729687923E+02 -0.11199648794E+02  0.34935910784E+03  0.39085546109E+03  0.17200000000E+03 0. -1.
</event>
<event>
 4    1  0.1259333E+000  0.1721779E+03  0.7818608E-02  0.1175596E+00
         21   -1    0    0  503  502  0.00000000000E+00  0.00000000000E+00  0.15516151514E+02  0.15516151514E+02  0.00000000000E+00 0.  1.
         21   -1    0    0  501  503 -0.00000000000E+00 -0.00000000000E+00 -0.19500875890E+04  0.19500875890E+04  0.00000000000E+00 0.  1.
          6    1    1    2  501    0 -0.66729415250E+01  0.40861290283E+01 -0.82744102153E+03  0.84516499496E+03  0.17200000000E+03 0.  1.
         -6    1    1    2    0  502  0.66729415250E+01 -0.40861290283E+01 -0.11071304159E+04  0.11204387455E+04  0.17200000000E+03 0.  1.
</event>
<event>
 4    1  0.1259333E+000  0.1786191E+03  0.7818608E-02  0.1169146E+00
         21   -1    0    0  503  502  0.00000000000E+00  0.00000000000E+00  0.60681763829E+02  0.60681763829E+02  0.00000000000E+00 0. -1.
         21   -1    0    0  501  503 -0.00000000000E+00 -0.00000000000E+00 -0.52646834243E+03  0.52646834243E+03  0.00000000000E+00 0. -1.
          6    1    1    2  501    0 -0.47568308046E+02 -0.76174107913E+01 -0.24357060779E+03  0.30204537715E+03  0.17200000000E+03 0.  1.
         -6    1    1    2    0  502  0.47568308046E+02  0.76174107913E+01 -0.22221597081E+03  0.28510472911E+03  0.17200000000E+03 0.  1.
</event>
<event>
 4    1  0.1259333E+000  0.1829859E+03  0.7818608E-02  0.1164944E+00
         21   -1    0    0  501  502  0.00000000000E+00  0.00000000000E+00  0.28911956293E+03  0.28911956293E+03  0.00000000000E+00 0. -1.
         21   -1    0    0  502  503 -0.00000000000E+00 -0.00000000000E+00 -0.22124768981E+03  0.22124768981E+03  0.00000000000E+00 0. -1.
          6    1    1    2  501    0 -0.43159877044E+02  0.45133881642E+02  0.21009497128E+03  0.27861037170E+03  0.17200000000E+03 0. -1.
         -6    1    1    2    0  503  0.43159877044E+02 -0.45133881642E+02 -0.14222309817E+03  0.23175688104E+03  0.17200000000E+03 0. -1.
</event>
<event>
 4    1  0.1259333E+000  0.2389511E+03  0.7818608E-02  0.1120494E+00
         21   -1    0    0  503  502  0.00000000000E+00  0.00000000000E+00  0.10408246856E+04  0.10408246856E+04  0.00000000000E+00 0. -1.
         21   -1    0    0  501  503 -0.00000000000E+00 -0.00000000000E+00 -0.57340659097E+02  0.57340659097E+02  0.00000000000E+00 0. -1.
          6    1    1    2  501    0  0.16784352874E+02 -0.16502099814E+03  0.60599245994E+03  0.65140195412E+03  0.17200000000E+03 0. -1.
         -6    1    1    2    0  502 -0.16784352874E+02  0.16502099814E+03  0.37749156652E+03  0.44676339054E+03  0.17200000000E+03 0. -1.
</event>
<event>
 4    1  0.1259333E+000  0.1861622E+03  0.7818608E-02  0.1161969E+00
         21   -1    0    0  501  502  0.00000000000E+00  0.00000000000E+00  0.29150695208E+03  0.29150695208E+03  0.00000000000E+00 0. -1.
         21   -1    0    0  502  503 -0.00000000000E+00 -0.00000000000E+00 -0.12852841013E+03  0.12852841013E+03  0.00000000000E+00 0. -1.
          6    1    1    2  501    0 -0.67052806244E+02  0.24005707311E+02  0.13901063984E+03  0.23233663249E+03  0.17200000000E+03 0. -1.
         -6    1    1    2    0  503  0.67052806244E+02 -0.24005707311E+02  0.23967902106E+02  0.18769872972E+03  0.17200000000E+03 0. -1.
</event>
<event>
 4    1  0.1259333E+000  0.1982821E+03  0.7818608E-02  0.1151197E+00
         21   -1    0    0  501  502  0.00000000000E+00  0.00000000000E+00  0.40777561530E+02  0.40777561530E+02  0.00000000000E+00 0. -1.
         21   -1    0    0  502  503 -0.00000000000E+00 -0.00000000000E+00 -0.96436690744E+03  0.96436690744E+03  0.00000000000E+00 0.  1.
          6    1    1    2  501    0 -0.73030161568E+02  0.66320307045E+02 -0.46928850427E+03  0.50945803347E+03  0.17200000000E+03 0.  1.
         -6    1    1    2    0  503  0.73030161568E+02 -0.66320307045E+02 -0.45430084164E+03  0.49568643550E+03  0.17200000000E+03 0.  1.
</event>
<event>
 4    1  0.1259333E+000  0.1841779E+03  0.7818608E-02  0.1163820E+00
         21   -1    0    0  503  502  0.00000000000E+00  0.00000000000E+00  0.43984571064E+02  0.43984571064E+02  0.00000000000E+00 0.  1.
         21   -1    0    0  501  503 -0.00000000000E+00 -0.00000000000E+00 -0.10377373734E+04  0.10377373734E+04  0.00000000000E+00 0.  1.
          6    1    1    2  501    0  0.42482610060E+02  0.50326224505E+02 -0.77097692277E+03  0.79267074909E+03  0.17200000000E+03 0.  1.
         -6    1    1    2    0  502 -0.42482610060E+02 -0.50326224505E+02 -0.22277587960E+03  0.28905119540E+03  0.17200000000E+03 0.  1.
</event>
<event>
 4    1  0.1259333E+000  0.1790035E+03  0.7818608E-02  0.1168771E+00
         21   -1    0    0  501  502  0.00000000000E+00  0.00000000000E+00  0.14090424562E+04  0.14090424562E+04  0.00000000000E+00 0.  1.
         21   -1    0    0  502  503 -0.00000000000E+00 -0.00000000000E+00 -0.34368739626E+02  0.34368739626E+02  0.00000000000E+00 0.  1.
          6    1    1    2  501    0  0.46023611108E+02  0.18441307370E+02  0.11071308866E+04  0.11215083837E+04  0.17200000000E+03 0.  1.
         -6    1    1    2    0  503 -0.46023611108E+02 -0.18441307370E+02  0.26754282996E+03  0.32190281213E+03  0.17200000000E+03 0.  1.
</event>
<event>
 4    1  0.1259333E+000  0.2637227E+03  0.7818608E-02  0.1104927E+00
         21   -1    0    0  501  502  0.00000000000E+00  0.00000000000E+00  0.15744238810E+03  0.15744238810E+03  0.00000000000E+00 0.  1.
         21   -1    0    0  502  503 -0.00000000000E+00 -0.00000000000E+00 -0.76181156726E+03  0.76181156726E+03  0.00000000000E+00 0.  1.
          6    1    1    2  501    0  0.19025597342E+03 -0.61386612773E+02 -0.60010533708E+03  0.65549680948E+03  0.17200000000E+03 0.  1.
         -6    1    1    2    0  503 -0.19025597342E+03  0.61386612773E+02 -0.42638420822E+01  0.26375714587E+03  0.17200000000E+03 0.  1.
</event>
<event>
 4    1  0.1259333E+000  0.2028869E+03  0.7818608E-02  0.1147326E+00
         21   -1    0    0  501  502  0.00000000000E+00  0.00000000000E+00  0.23669584598E+03  0.23669584598E+03  0.00000000000E+00 0. -1.
         21   -1    0    0  502  503 -0.00000000000E+00 -0.00000000000E+00 -0.18526681415E+03  0.18526681415E+03  0.00000000000E+00 0. -1.
          6    1    1    2  501    0  0.30858322476E+02  0.10308663041E+03  0.77957600072E+02  0.21734874475E+03  0.17200000000E+03 0. -1.
         -6    1    1    2    0  503 -0.30858322476E+02 -0.10308663041E+03 -0.26528568245E+02  0.20461391538E+03  0.17200000000E+03 0. -1.
</event>
<event>
 4    1  0.1259333E+000  0.2027092E+03  0.7818608E-02  0.1147473E+00
         21   -1    0    0  501  502  0.00000000000E+00  0.00000000000E+00  0.22144900872E+03  0.22144900872E+03  0.00000000000E+00 0.  1.
         21   -1    0    0  502  503 -0.00000000000E+00 -0.00000000000E+00 -0.20223264608E+03  0.20223264608E+03  0.00000000000E+00 0. -1.
          6    1    1    2  501    0 -0.91825835701E+02 -0.55452911420E+02  0.70442568092E+02  0.21460001139E+03  0.17200000000E+03 0. -1.
         -6    1    1    2    0  503  0.91825835701E+02  0.55452911420E+02 -0.51226205456E+02  0.20908164341E+03  0.17200000000E+03 0.  1.
</event>
<event>
 4    1  0.1259333E+000  0.1765169E+03  0.7818608E-02  0.1171217E+00
         21   -1    0    0  501  502  0.00000000000E+00  0.00000000000E+00  0.39954531859E+03  0.39954531859E+03  0.00000000000E+00 0.  1.
         21   -1    0    0  502  503 -0.00000000000E+00 -0.00000000000E+00 -0.11853306507E+03  0.11853306507E+03  0.00000000000E+00 0.  1.
          6    1    1    2  501    0  0.69124820713E+01  0.39069744968E+02  0.29201392922E+03  0.34121893594E+03  0.17200000000E+03 0. -1.
         -6    1    1    2    0  503 -0.69124820713E+01 -0.39069744968E+02 -0.11001675697E+02  0.17685944772E+03  0.17200000000E+03 0. -1.
</event>
<event>
 4    1  0.1259333E+000  0.2192574E+03  0.7818608E-02  0.1134438E+00
         21   -1    0    0  503  502  0.00000000000E+00  0.00000000000E+00  0.80573411031E+03  0.80573411031E+03  0.00000000000E+00 0. -1.
         21   -1    0    0  501  503 -0.00000000000E+00 -0.00000000000E+00 -0.72123361057E+02  0.72123361057E+02  0.00000000000E+00 0. -1.
          6    1    1    2  501    0  0.12856839907E+03 -0.44271474788E+02  0.54923426150E+03  0.59138149340E+03  0.17200000000E+03 0. -1.
         -6    1    1    2    0  502 -0.12856839907E+03  0.44271474788E+02  0.18437648775E+03  0.28647597797E+03  0.17200000000E+03 0. -1.
</event>
<event>
 4    1  0.1259333E+000  0.2042738E+03  0.7818608E-02  0.1146182E+00
         21   -1    0    0  501  502  0.00000000000E+00  0.00000000000E+00  0.50702706286E+02  0.50702706286E+02  0.00000000000E+00 0. -1.
         21   -1    0    0  502  503 -0.00000000000E+00 -0.00000000000E+00 -0.10594303445E+04  0.10594303445E+04  0.00000000000E+00 0. -1.
          6    1    1    2  501    0  0.10790776396E+03 -0.22354034944E+02 -0.24214116939E+03  0.31679667662E+03  0.17200000000E+03 0. -1.
         -6    1    1    2    0  503 -0.10790776396E+03  0.22354034944E+02 -0.76658646881E+03  0.79333637416E+03  0.17200000000E+03 0. -1.
</event>
<event>
 4    1  0.1259333E+000  0.2463230E+03  0.7818608E-02  0.1115651E+00
         21   -1    0    0  503  502  0.00000000000E+00  0.00000000000E+00  0.94374312358E+03  0.94374312358E+03  0.00000000000E+00 0. -1.
         21   -1    0    0  501  503 -0.00000000000E+00 -0.00000000000E+00 -0.13160038714E+03  0.13160038714E+03  0.00000000000E+00 0.  1.
          6    1    1    2  501    0  0.11295316903E+03 -0.13539796287E+03  0.21547241560E+02  0.24726364545E+03  0.17200000000E+03 0. -1.
         -6    1    1    2    0  502 -0.11295316903E+03  0.13539796287E+03  0.79059549488E+03  0.82807986527E+03  0.17200000000E+03 0. -1.
</event>
<event>
 4    1  0.1259333E+000  0.2447730E+03  0.7818608E-02  0.1116653E+00
         21   -1    0    0  503  502  0.00000000000E+00  0.00000000000E+00  0.29814209575E+03  0.29814209575E+03  0.00000000000E+00 0. -1.
         21   -1    0    0  501  503 -0.00000000000E+00 -0.00000000000E+00 -0.20993171820E+03  0.20993171820E+03  0.00000000000E+00 0. -1.
          6    1    1    2  501    0  0.11713638242E+03  0.12887548636E+03  0.96629642845E+02  0.26315605816E+03  0.17200000000E+03 0. -1.
         -6    1    1    2    0  502 -0.11713638242E+03 -0.12887548636E+03 -0.84192652947E+01  0.24491775578E+03  0.17200000000E+03 0. -1.
</event>
<event>
 4    1  0.1259333E+000  0.2522449E+03  0.7818608E-02  0.1111894E+00
         21   -1    0    0  503  502  0.00000000000E+00  0.00000000000E+00  0.40862588808E+03  0.40862588808E+03  0.00000000000E+00 0. -1.
         21   -1    0    0  501  503 -0.00000000000E+00 -0.00000000000E+00 -0.65417771554E+03  0.65417771554E+03  0.00000000000E+00 0.  1.
          6    1    1    2  501    0  0.18415150377E+03  0.11476631314E+02 -0.58664271540E+03  0.63857432217E+03  0.17200000000E+03 0. -1.
         -6    1    1    2    0  502 -0.18415150377E+03 -0.11476631314E+02  0.34109088794E+03  0.42422928145E+03  0.17200000000E+03 0. -1.
</event>
<event>
 4    1  0.1259333E+000  0.1748523E+03  0.7818608E-02  0.1172880E+00
         21   -1    0    0  503  502  0.00000000000E+00  0.00000000000E+00  0.71559201218E+03  0.71559201218E+03  0.00000000000E+00 0.  1.
         21   -1    0    0  501  503 -0.00000000000E+00 -0.00000000000E+00 -0.44486283727E+02  0.44486283727E+02  0.00000000000E+00 0.  1.
          6    1    1    2  501    0  0.25539852600E+02 -0.18358607086E+02  0.41118207547E+03  0.44681542242E+03  0.17200000000E+03 0. -1.
         -6    1    1    2    0  502 -0.25539852600E+02  0.18358607086E+02  0.25992365298E+03  0.31326287348E+03  0.17200000000E+03 0. -1.
</event>
<event>
 4    1  0.1259333E+000  0.1776739E+03  0.7818608E-02  0.1170073E+00
         21   -1    0    0  501  502  0.00000000000E+00  0.00000000000E+00  0.29670570235E+03  0.29670570235E+03  0.00000000000E+00 0. -1.
         21   -1    0    0  502  503 -0.00000000000E+00 -0.00000000000E+00 -0.16866693291E+03  0.16866693291E+03  0.00000000000E+00 0. -1.
          6    1    1    2  501    0  0.21467674396E+02  0.39027826577E+02  0.20540385343E+03  0.27158566843E+03  0.17200000000E+03 0. -1.
         -6    1    1    2    0  503 -0.21467674396E+02 -0.39027826577E+02 -0.77365083994E+02  0.19378696683E+03  0.17200000000E+03 0. -1.
</event>
<event>
 4    1  0.1259333E+000  0.1811898E+03  0.7818608E-02  0.1166657E+00
         21   -1    0    0  503  502  0.00000000000E+00  0.00000000000E+00  0.17647230920E+03  0.17647230920E+03  0.00000000000E+00 0. -1.
         21   -1    0    0  501  503 -0.00000000000E+00 -0.00000000000E+00 -0.22412329232E+03  0.22412329232E+03  0.00000000000E+00 0. -1.
          6    1    1    2  501    0  0.50922792022E+02  0.25545938103E+02 -0.10639850566E+03  0.21011988889E+03  0.17200000000E+03 0. -1.
         -6    1    1    2    0  502 -0.50922792022E+02 -0.25545938103E+02  0.58747522537E+02  0.19047571264E+03  0.17200000000E+03 0. -1.
</event>
<event>
 4    1  0.1259333E+000  0.1922577E+03  0.7818608E-02  0.1156441E+00
         21   -1    0    0  501  502  0.00000000000E+00  0.00000000000E+00  0.39604530148E+03  0.39604530148E+03  0.00000000000E+00 0.  1.
         21   -1    0    0  502  503 -0.00000000000E+00 -0.00000000000E+00 -0.93784595304E+02  0.93784595304E+02  0.00000000000E+00 0.  1.
          6    1    1    2  501    0 -0.78872500368E+02  0.34031771064E+02  0.13408478519E+03  0.23439659207E+03  0.17200000000E+03 0.  1.
         -6    1    1    2    0  503  0.78872500368E+02 -0.34031771064E+02  0.16817592099E+03  0.25543330471E+03  0.17200000000E+03 0.  1.
</event>
<event>
 4    1  0.1259333E+000  0.3028274E+03  0.7818608E-02  0.1083836E+00
         21   -1    0    0  501  502  0.00000000000E+00  0.00000000000E+00  0.12611850870E+03  0.12611850870E+03  0.00000000000E+00 0. -1.
         21   -1    0    0  502  503 -0.00000000000E+00 -0.00000000000E+00 -0.10114325047E+04  0.10114325047E+04  0.00000000000E+00 0.  1.
          6    1    1    2  501    0 -0.20719803180E+03  0.13852573735E+03 -0.14110398958E+03  0.33408792281E+03  0.17200000000E+03 0. -1.
         -6    1    1    2    0  503  0.20719803180E+03 -0.13852573735E+03 -0.74421000641E+03  0.80346309058E+03  0.17200000000E+03 0.  1.
</event>
<event>
 4    1  0.1259333E+000  0.1814594E+03  0.7818608E-02  0.1166398E+00
         21   -1    0    0  503  502  0.00000000000E+00  0.00000000000E+00  0.15193303602E+03  0.15193303602E+03  0.00000000000E+00 0. -1.
         21   -1    0    0  501  503 -0.00000000000E+00 -0.00000000000E+00 -0.23479707603E+03  0.23479707603E+03  0.00000000000E+00 0. -1.
          6    1    1    2  501    0 -0.50816481311E+02 -0.27589760955E+02 -0.95079547964E+02  0.20486002568E+03  0.17200000000E+03 0.  1.
         -6    1    1    2    0  502  0.50816481311E+02  0.27589760955E+02  0.12215507950E+02  0.18187008637E+03  0.17200000000E+03 0.  1.
</event>
<event>
 4    1  0.1259333E+000  0.1976532E+03  0.7818608E-02  0.1151734E+00
         21   -1    0    0  501  502  0.00000000000E+00  0.00000000000E+00  0.18445099134E+04  0.18445099134E+04  0.00000000000E+00 0. -1.
         21   -1    0    0  502  503 -0.00000000000E+00 -0.00000000000E+00 -0.14356097483E+03  0.14356097483E+03  0.00000000000E+00 0. -1.
          6    1    1    2  501    0 -0.37025331278E+02  0.90066068420E+02  0.17682586656E+04  0.17792710530E+04  0.17200000000E+03 0. -1.
         -6    1    1    2    0  503  0.37025331278E+02 -0.90066068420E+02 -0.67309726978E+02  0.20879983521E+03  0.17200000000E+03 0. -1.
</event>
<event>
 4    1  0.1259333E+000  0.4224483E+03  0.7818608E-02  0.1036272E+00
         21   -1    0    0  503  502  0.00000000000E+00  0.00000000000E+00  0.13024063694E+04  0.13024063694E+04  0.00000000000E+00 0.  1.
         21   -1    0    0  501  503 -0.00000000000E+00 -0.00000000000E+00 -0.13902538406E+03  0.13902538406E+03  0.00000000000E+00 0. -1.
          6    1    1    2  501    0 -0.44729941015E+02  0.38324637058E+03  0.66813699752E+03  0.79048693578E+03  0.17200000000E+03 0. -1.
         -6    1    1    2    0  502  0.44729941015E+02 -0.38324637058E+03  0.49524398779E+03  0.65094481765E+03  0.17200000000E+03 0. -1.
</event>
<event>
 4    1  0.1259333E+000  0.1903014E+03  0.7818608E-02  0.1158190E+00
         21   -1    0    0  503  502  0.00000000000E+00  0.00000000000E+00  0.10825267649E+03  0.10825267649E+03  0.00000000000E+00 0. -1.
         21   -1    0    0  501  503 -0.00000000000E+00 -0.00000000000E+00 -0.34761285061E+03  0.34761285061E+03  0.00000000000E+00 0. -1.
          6    1    1    2  501    0 -0.33579941538E+02 -0.74182294896E+02 -0.16388581251E+03  0.25114375344E+03  0.17200000000E+03 0. -1.
         -6    1    1    2    0  502  0.33579941538E+02  0.74182294896E+02 -0.75474361613E+02  0.20472177366E+03  0.17200000000E+03 0. -1.
</event>
<event>
 4    1  0.1259333E+000  0.2137300E+03  0.7818608E-02  0.1138646E+00
         21   -1    0    0  501  502  0.00000000000E+00  0.00000000000E+00  0.29766402909E+03  0.29766402909E+03  0.00000000000E+00 0. -1.
         21   -1    0    0  502  503 -0.00000000000E+00 -0.00000000000E+00 -0.22509314194E+03  0.22509314194E+03  0.00000000000E+00 0. -1.
          6    1    1    2  501    0  0.10494107551E+03 -0.71301287194E+02  0.18373242348E+03  0.28184766510E+03  0.17200000000E+03 0. -1.
         -6    1    1    2    0  503 -0.10494107551E+03  0.71301287194E+02 -0.11116153633E+03  0.24090950593E+03  0.17200000000E+03 0. -1.
</event>
<event>
 4    1  0.1259333E+000  0.2062618E+03  0.7818608E-02  0.1144561E+00
         21   -1    0    0  501  502  0.00000000000E+00  0.00000000000E+00  0.38038058388E+03  0.38038058388E+03  0.00000000000E+00 0. -1.
         21   -1    0    0  502  503 -0.00000000000E+00 -0.00000000000E+00 -0.35457686782E+03  0.35457686782E+03  0.00000000000E+00 0.  1.
          6    1    1    2  501    0  0.92152602723E+02  0.66841733213E+02 -0.29114450017E+03  0.35680392300E+03  0.17200000000E+03 0.  1.
         -6    1    1    2    0  503 -0.92152602723E+02 -0.66841733213E+02  0.31694821624E+03  0.37815352870E+03  0.17200000000E+03 0. -1.
</event>
<event>
 4    1  0.1259333E+000  0.1782374E+03  0.7818608E-02  0.1169520E+00
         21   -1    0    0  503  502  0.00000000000E+00  0.00000000000E+00  0.11285806715E+04  0.11285806715E+04  0.00000000000E+00 0.  1.
         21   -1    0    0  501  503 -0.00000000000E+00 -0.00000000000E+00 -0.67441685613E+02  0.67441685613E+02  0.00000000000E+00 0.  1.
          6    1    1    2  501    0 -0.46382809333E+02 -0.57614721422E+01  0.74112090724E+02  0.19303150405E+03  0.17200000000E+03 0.  1.
         -6    1    1    2    0  502  0.46382809333E+02  0.57614721422E+01  0.98702689518E+03  0.10029908531E+04  0.17200000000E+03 0.  1.
</event>
<event>
 4    1  0.1259333E+000  0.2127465E+03  0.7818608E-02  0.1139409E+00
         21   -1    0    0  503  502  0.00000000000E+00  0.00000000000E+00  0.12473150170E+04  0.12473150170E+04  0.00000000000E+00 0. -1.
         21   -1    0    0  501  503 -0.00000000000E+00 -0.00000000000E+00 -0.36383786399E+02  0.36383786399E+02  0.00000000000E+00 0. -1.
          6    1    1    2  501    0 -0.12509138765E+03 -0.54057984646E+01  0.57232798911E+03  0.61059021041E+03  0.17200000000E+03 0. -1.
         -6    1    1    2    0  502  0.12509138765E+03  0.54057984646E+01  0.63860324150E+03  0.67310859301E+03  0.17200000000E+03 0. -1.
</event>
<event>
 4    1  0.1259333E+000  0.2681505E+03  0.7818608E-02  0.1102343E+00
         21   -1    0    0  501  502  0.00000000000E+00  0.00000000000E+00  0.35084791702E+03  0.35084791702E+03  0.00000000000E+00 0. -1.
         21   -1    0    0  502  503 -0.00000000000E+00 -0.00000000000E+00 -0.26230808372E+03  0.26230808372E+03  0.00000000000E+00 0.  1.
          6    1    1    2  501    0 -0.10604910673E+03  0.17627899848E+03  0.18763702942E+03  0.32728023642E+03  0.17200000000E+03 0. -1.
         -6    1    1    2    0  503  0.10604910673E+03 -0.17627899848E+03 -0.99097196115E+02  0.28587576432E+03  0.17200000000E+03 0.  1.
</event>
<event>
 4    1  0.1259333E+000  0.2219429E+03  0.7818608E-02  0.1132443E+00
         21   -1    0    0  503  502  0.00000000000E+00  0.00000000000E+00  0.16557811562E+04  0.16557811562E+04  0.00000000000E+00 0.  1.
         21   -1    0    0  501  503 -0.00000000000E+00 -0.00000000000E+00 -0.30476139490E+02  0.30476139490E+02  0.00000000000E+00 0.  1.
          6    1    1    2  501    0 -0.12373260213E+03  0.66067449453E+02  0.68246395831E+03  0.71764595666E+03  0.17200000000E+03 0.  1.
         -6    1    1    2    0  502  0.12373260213E+03 -0.66067449453E+02  0.94284105838E+03  0.96861133901E+03  0.17200000000E+03 0.  1.
</event>
<event>
 4    1  0.1259333E+000  0.1917256E+03  0.7818608E-02  0.1156914E+00
         21   -1    0    0  501  502  0.00000000000E+00  0.00000000000E+00  0.31532736424E+02  0.31532736424E+02  0.00000000000E+00 0.  1.
         21   -1    0    0  502  503 -0.00000000000E+00 -0.00000000000E+00 -0.14665311759E+04  0.14665311759E+04  0.00000000000E+00 0. -1.
          6    1    1    2  501    0  0.47790963902E+01  0.84568761649E+02 -0.37827010032E+03  0.42408369929E+03  0.17200000000E+03 0.  1.
         -6    1    1    2    0  503 -0.47790963902E+01 -0.84568761649E+02 -0.10567283392E+04  0.10739802130E+04  0.17200000000E+03 0.  1.
</event>
<event>
 4    1  0.1259333E+000  0.2151714E+03  0.7818608E-02  0.1137535E+00
         21   -1    0    0  501  502  0.00000000000E+00  0.00000000000E+00  0.29444992824E+02  0.29444992824E+02  0.00000000000E+00 0. -1.
         21   -1    0    0  502  503 -0.00000000000E+00 -0.00000000000E+00 -0.17743414752E+04  0.17743414752E+04  0.00000000000E+00 0. -1.
          6    1    1    2  501    0 -0.44787939630E+02  0.12127971750E+03 -0.11767261132E+04  0.11962370480E+04  0.17200000000E+03 0. -1.
         -6    1    1    2    0  503  0.44787939630E+02 -0.12127971750E+03 -0.56817036914E+03  0.60754942003E+03  0.17200000000E+03 0. -1.
</event>
<event>
 4    1  0.1259333E+000  0.1856996E+03  0.7818608E-02  0.1162398E+00
         21   -1    0    0  503  502  0.00000000000E+00  0.00000000000E+00  0.73583577726E+02  0.73583577726E+02  0.00000000000E+00 0. -1.
         21   -1    0    0  501  503 -0.00000000000E+00 -0.00000000000E+00 -0.51262898583E+03  0.51262898583E+03  0.00000000000E+00 0. -1.
          6    1    1    2  501    0 -0.20445172835E+02  0.66950221868E+02 -0.30538190413E+03  0.35741075064E+03  0.17200000000E+03 0. -1.
         -6    1    1    2    0  502  0.20445172835E+02 -0.66950221868E+02 -0.13366350397E+03  0.22880181292E+03  0.17200000000E+03 0. -1.
</event>
<event>
 4    1  0.1259333E+000  0.1791509E+03  0.7818608E-02  0.1168627E+00
         21   -1    0    0  503  502  0.00000000000E+00  0.00000000000E+00  0.37878810985E+03  0.37878810985E+03  0.00000000000E+00 0.  1.
         21   -1    0    0  501  503 -0.00000000000E+00 -0.00000000000E+00 -0.28352444198E+03  0.28352444198E+03  0.00000000000E+00 0.  1.
          6    1    1    2  501    0 -0.38160797778E+02  0.32477794135E+02 -0.22966115232E+03  0.29127186353E+03  0.17200000000E+03 0.  1.
         -6    1    1    2    0  502  0.38160797778E+02 -0.32477794135E+02  0.32492482019E+03  0.37104068830E+03  0.17200000000E+03 0.  1.
</event>
<event>
 4    1  0.1259333E+000  0.1869206E+03  0.7818608E-02  0.1161268E+00
         21   -1    0    0  501  502  0.00000000000E+00  0.00000000000E+00  0.51274570241E+03  0.51274570241E+03  0.00000000000E+00 0. -1.
         21   -1    0    0  502  503 -0.00000000000E+00 -0.00000000000E+00 -0.77105971875E+02  0.77105971875E+02  0.00000000000E+00 0.  1.
          6    1    1    2  501    0  0.67450612894E+02  0.28385213548E+02  0.31838074806E+03  0.36919589145E+03  0.17200000000E+03 0. -1.
         -6    1    1    2    0  503 -0.67450612894E+02 -0.28385213548E+02  0.11725898247E+03  0.22065578284E+03  0.17200000000E+03 0. -1.
</event>
<event>
 4    1  0.1259333E+000  0.2378476E+03  0.7818608E-02  0.1121235E+00
         21   -1    0    0  501  502  0.00000000000E+00  0.00000000000E+00  0.29740553570E+02  0.29740553570E+02  0.00000000000E+00 0.  1.
         21   -1    0    0  502  503 -0.00000000000E+00 -0.00000000000E+00 -0.27692715822E+04  0.27692715822E+04  0.00000000000E+00 0.  1.
          6    1    1    2  501    0  0.57805080790E+02  0.15377272350E+03 -0.58664620107E+03  0.63302862738E+03  0.17200000000E+03 0. -1.
         -6    1    1    2    0  503 -0.57805080790E+02 -0.15377272350E+03 -0.21528848276E+04  0.21659835084E+04  0.17200000000E+03 0. -1.
</event>
<event>
 4    1  0.1259333E+000  0.1790739E+03  0.7818608E-02  0.1168702E+00
         21   -1    0    0  503  502  0.00000000000E+00  0.00000000000E+00  0.71892848974E+02  0.71892848974E+02  0.00000000000E+00 0.  1.
         21   -1    0    0  501  503 -0.00000000000E+00 -0.00000000000E+00 -0.45421796797E+03  0.45421796797E+03  0.00000000000E+00 0.  1.
          6    1    1    2  501    0  0.35115250177E+02 -0.35360829036E+02 -0.22644806984E+03  0.28869741488E+03  0.17200000000E+03 0.  1.
         -6    1    1    2    0  502 -0.35115250177E+02  0.35360829036E+02 -0.15587704915E+03  0.23741340206E+03  0.17200000000E+03 0.  1.
</event>
<event>
 4    1  0.1259333E+000  0.2423873E+03  0.7818608E-02  0.1118213E+00
         21   -1    0    0  501  502  0.00000000000E+00  0.00000000000E+00  0.34239654490E+03  0.34239654490E+03  0.00000000000E+00 0. -1.
         21   -1    0    0  502  503 -0.00000000000E+00 -0.00000000000E+00 -0.67592097709E+03  0.67592097709E+03  0.00000000000E+00 0. -1.
          6    1    1    2  501    0  0.85630963951E+02  0.14776647511E+03 -0.60657046429E+03  0.65320695135E+03  0.17200000000E+03 0. -1.
         -6    1    1    2    0  503 -0.85630963951E+02 -0.14776647511E+03  0.27304603209E+03  0.36511057064E+03  0.17200000000E+03 0. -1.
</event>
<event>
 4    1  0.1259333E+000  0.1876932E+03  0.7818608E-02  0.1160558E+00
         21   -1    0    0  503  502  0.00000000000E+00  0.00000000000E+00  0.81567122638E+02  0.81567122638E+02  0.00000000000E+00 0.  1.
         21   -1    0    0  501  503 -0.00000000000E+00 -0.00000000000E+00 -0.45560522331E+03  0.45560522331E+03  0.00000000000E+00 0.  1.
          6    1    1    2  501    0 -0.57579261008E+02 -0.48263627910E+02 -0.24828533862E+03  0.31124645934E+03  0.17200000000E+03 0.  1.
         -6    1    1    2    0  502  0.57579261008E+02  0.48263627910E+02 -0.12575276206E+03  0.22592588661E+03  0.17200000000E+03 0.  1.
</event>
<event>
 4    1  0.1259333E+000  0.1757600E+03  0.7818608E-02  0.1171971E+00
         21   -1    0    0  503  502  0.00000000000E+00  0.00000000000E+00  0.13095704938E+03  0.13095704938E+03  0.00000000000E+00 0. -1.
         21   -1    0    0  501  503 -0.00000000000E+00 -0.00000000000E+00 -0.24720461540E+03  0.24720461540E+03  0.00000000000E+00 0. -1.
          6    1    1    2  501    0  0.36160249414E+02 -0.76603837254E-02 -0.17673302837E+02  0.17664628309E+03  0.17200000000E+03 0. -1.
         -6    1    1    2    0  502 -0.36160249414E+02  0.76603837254E-02 -0.98574263176E+02  0.20151538169E+03  0.17200000000E+03 0. -1.
</event>
<event>
 4    1  0.1259333E+000  0.1993269E+03  0.7818608E-02  0.1150308E+00
         21   -1    0    0  503  502  0.00000000000E+00  0.00000000000E+00  0.79327499097E+03  0.79327499097E+03  0.00000000000E+00 0.  1.
         21   -1    0    0  501  503 -0.00000000000E+00 -0.00000000000E+00 -0.57847767286E+02  0.57847767286E+02  0.00000000000E+00 0.  1.
          6    1    1    2  501    0 -0.94495018088E+02 -0.34898234151E+02  0.21182062374E+03  0.29085936779E+03  0.17200000000E+03 0.  1.
         -6    1    1    2    0  502  0.94495018088E+02  0.34898234151E+02  0.52360659995E+03  0.56026339047E+03  0.17200000000E+03 0.  1.
</event>
<event>
 4    1  0.1259333E+000  0.2186575E+03  0.7818608E-02  0.1134888E+00
         21   -1    0    0  503  502  0.00000000000E+00  0.00000000000E+00  0.21757305886E+03  0.21757305886E+03  0.00000000000E+00 0.  1.
         21   -1    0    0  501  503 -0.00000000000E+00 -0.00000000000E+00 -0.24600611519E+03  0.24600611519E+03  0.00000000000E+00 0. -1.
          6    1    1    2  501    0  0.79227928133E+02 -0.10931621508E+03 -0.89944837026E+02  0.23643428936E+03  0.17200000000E+03 0. -1.
         -6    1    1    2    0  502 -0.79227928133E+02  0.10931621508E+03  0.61511780697E+02  0.22714488469E+03  0.17200000000E+03 0. -1.
</event>
<event>
 4    1  0.1259333E+000  0.1810640E+03  0.7818608E-02  0.1166777E+00
         21   -1    0    0  501  502  0.00000000000E+00  0.00000000000E+00  0.40604164399E+03  0.40604164399E+03  0.00000000000E+00 0. -1.
         21   -1    0    0  502  503 -0.00000000000E+00 -0.00000000000E+00 -0.12900280586E+03  0.12900280586E+03  0.00000000000E+00 0. -1.
          6    1    1    2  501    0  0.14762411662E+01  0.56550810451E+02  0.30214924208E+03  0.35224755207E+03  0.17200000000E+03 0. -1.
         -6    1    1    2    0  503 -0.14762411662E+01 -0.56550810451E+02 -0.25110403943E+02  0.18279689778E+03  0.17200000000E+03 0. -1.
</event>
<event>
 4    1  0.1259333E+000  0.1784537E+03  0.7818608E-02  0.1169308E+00
         21   -1    0    0  503  502  0.00000000000E+00  0.00000000000E+00  0.13121328672E+03  0.13121328672E+03  0.00000000000E+00 0.  1.
         21   -1    0    0  501  503 -0.00000000000E+00 -0.00000000000E+00 -0.29852828046E+03  0.29852828046E+03  0.00000000000E+00 0.  1.
          6    1    1    2  501    0  0.30391483757E+02 -0.36579861477E+02  0.92613757426E+01  0.17869387687E+03  0.17200000000E+03 0.  1.
         -6    1    1    2    0  502 -0.30391483757E+02  0.36579861477E+02 -0.17657636948E+03  0.25104769031E+03  0.17200000000E+03 0.  1.
</event>
<event>
 4    1  0.1259333E+000  0.2901025E+03  0.7818608E-02  0.1090296E+00
         21   -1    0    0  503  502  0.00000000000E+00  0.00000000000E+00  0.11029772069E+03  0.11029772069E+03  0.00000000000E+00 0. -1.
         21   -1    0    0  501  503 -0.00000000000E+00 -0.00000000000E+00 -0.87979666254E+03  0.87979666254E+03  0.00000000000E+00 0.  1.
          6    1    1    2  501    0  0.12853388381E+03 -0.19507557526E+03 -0.56510615960E+03  0.63521997054E+03  0.17200000000E+03 0. -1.
         -6    1    1    2    0  502 -0.12853388381E+03  0.19507557526E+03 -0.20439278225E+03  0.35487441270E+03  0.17200000000E+03 0.  1.
</event>
<event>
 4    1  0.1259333E+000  0.2058054E+03  0.7818608E-02  0.1144931E+00
         21   -1    0    0  503  502  0.00000000000E+00  0.00000000000E+00  0.10335962291E+04  0.10335962291E+04  0.00000000000E+00 0.  1.
         21   -1    0    0  501  503 -0.00000000000E+00 -0.00000000000E+00 -0.41042629060E+02  0.41042629060E+02  0.00000000000E+00 0.  1.
          6    1    1    2  501    0  0.11195056604E+03 -0.15456894553E+02  0.51741635780E+03  0.55684426202E+03  0.17200000000E+03 0. -1.
         -6    1    1    2    0  502 -0.11195056604E+03  0.15456894553E+02  0.47513724220E+03  0.51779459610E+03  0.17200000000E+03 0. -1.
</event>
<event>
 4    1  0.1259333E+000  0.2249692E+03  0.7818608E-02  0.1130232E+00
         21   -1    0    0  503  502  0.00000000000E+00  0.00000000000E+00  0.28331743906E+04  0.28331743906E+04  0.00000000000E+00 0. -1.
         21   -1    0    0  501  503 -0.00000000000E+00 -0.00000000000E+00 -0.20281691109E+02  0.20281691109E+02  0.00000000000E+00 0. -1.
          6    1    1    2  501    0  0.16464726263E+02 -0.14406968369E+03  0.91382793235E+03  0.94111245391E+03  0.17200000000E+03 0. -1.
         -6    1    1    2    0  502 -0.16464726263E+02  0.14406968369E+03  0.18990647672E+04  0.19123436278E+04  0.17200000000E+03 0. -1.
</event>
<event>
 4    1  0.1259333E+000  0.2118814E+03  0.7818608E-02  0.1140085E+00
         21   -1    0    0  503  502  0.00000000000E+00  0.00000000000E+00  0.44552943776E+02  0.44552943776E+02  0.00000000000E+00 0.  1.
         21   -1    0    0  501  503 -0.00000000000E+00 -0.00000000000E+00 -0.13301940818E+04  0.13301940818E+04  0.00000000000E+00 0.  1.
          6    1    1    2  501    0 -0.90752816387E+02  0.84105136918E+02 -0.30434274529E+03  0.37083453770E+03  0.17200000000E+03 0.  1.
         -6    1    1    2    0  502  0.90752816387E+02 -0.84105136918E+02 -0.98129839278E+03  0.10039124879E+04  0.17200000000E+03 0.  1.
</event>
<event>
 4    1  0.1259333E+000  0.1723026E+03  0.7818608E-02  0.1175468E+00
         21   -1    0    0  503  502  0.00000000000E+00  0.00000000000E+00  0.70435560342E+03  0.70435560342E+03  0.00000000000E+00 0. -1.
         21   -1    0    0  501  503 -0.00000000000E+00 -0.00000000000E+00 -0.42762114956E+02  0.42762114956E+02  0.00000000000E+00 0. -1.
          6    1    1    2  501    0 -0.74038502039E+01  0.70270294364E+01  0.37551074835E+03  0.41315435163E+03  0.17200000000E+03 0.  1.
         -6    1    1    2    0  502  0.74038502039E+01 -0.70270294364E+01  0.28608274012E+03  0.33396336675E+03  0.17200000000E+03 0.  1.
</event>
<event>
 4    1  0.1259333E+000  0.2381852E+03  0.7818608E-02  0.1121008E+00
         21   -1    0    0  501  502  0.00000000000E+00  0.00000000000E+00  0.20040801261E+03  0.20040801261E+03  0.00000000000E+00 0. -1.
         21   -1    0    0  502  503 -0.00000000000E+00 -0.00000000000E+00 -0.29797124604E+03  0.29797124604E+03  0.00000000000E+00 0. -1.
          6    1    1    2  501    0  0.14967237460E+03  0.68893828019E+02  0.69188572086E+01  0.23828564758E+03  0.17200000000E+03 0. -1.
         -6    1    1    2    0  503 -0.14967237460E+03 -0.68893828019E+02 -0.10448209064E+03  0.26009361107E+03  0.17200000000E+03 0. -1.
</event>
<event>
 4    1  0.1259333E+000  0.2021707E+03  0.7818608E-02  0.1147920E+00
         21   -1    0    0  503  502  0.00000000000E+00  0.00000000000E+00  0.95586253574E+02  0.95586253574E+02  0.00000000000E+00 0. -1.
         21   -1    0    0  501  503 -0.00000000000E+00 -0.00000000000E+00 -0.49179041583E+03  0.49179041583E+03  0.00000000000E+00 0. -1.
          6    1    1    2  501    0 -0.77509446693E+02  0.72672519441E+02 -0.30420325145E+03  0.36525693368E+03  0.17200000000E+03 0. -1.
         -6    1    1    2    0  502  0.77509446693E+02 -0.72672519441E+02 -0.92000910803E+02  0.22211973572E+03  0.17200000000E+03 0. -1.
</event>
<event>
 4    1  0.1259333E+000  0.2096198E+03  0.7818608E-02  0.1141867E+00
         21   -1    0    0  503  502  0.00000000000E+00  0.00000000000E+00  0.47381188800E+02  0.47381188800E+02  0.00000000000E+00 0.  1.
         21   -1    0    0  501  503 -0.00000000000E+00 -0.00000000000E+00 -0.92753265201E+03  0.92753265201E+03  0.00000000000E+00 0. -1.
          6    1    1    2  501    0 -0.71112731408E+02  0.96433625366E+02 -0.44628680489E+03  0.49306427258E+03  0.17200000000E+03 0. -1.
         -6    1    1    2    0  502  0.71112731408E+02 -0.96433625366E+02 -0.43386465832E+03  0.48184956823E+03  0.17200000000E+03 0.  1.
</event>
<event>
 4    1  0.1259333E+000  0.1860646E+03  0.7818608E-02  0.1162059E+00
         21   -1    0    0  503  502  0.00000000000E+00  0.00000000000E+00  0.32786279678E+02  0.32786279678E+02  0.00000000000E+00 0. -1.
         21   -1    0    0  501  503 -0.00000000000E+00 -0.00000000000E+00 -0.11701856696E+04  0.11701856696E+04  0.00000000000E+00 0. -1.
          6    1    1    2  501    0 -0.65416355768E+02 -0.27508825792E+02 -0.75664691552E+03  0.77918841743E+03  0.17200000000E+03 0. -1.
         -6    1    1    2    0  502  0.65416355768E+02  0.27508825792E+02 -0.38075247440E+03  0.42378353184E+03  0.17200000000E+03 0. -1.
</event>
<event>
 4    1  0.1259333E+000  0.2010429E+03  0.7818608E-02  0.1148862E+00
         21   -1    0    0  503  502  0.00000000000E+00  0.00000000000E+00  0.31070807588E+03  0.31070807588E+03  0.00000000000E+00 0. -1.
         21   -1    0    0  501  503 -0.00000000000E+00 -0.00000000000E+00 -0.26121637438E+03  0.26121637438E+03  0.00000000000E+00 0. -1.
          6    1    1    2  501    0 -0.55581904353E+02 -0.88005081751E+02  0.22735681110E+03  0.30349524224E+03  0.17200000000E+03 0. -1.
         -6    1    1    2    0  502  0.55581904353E+02  0.88005081751E+02 -0.17786510960E+03  0.26842920802E+03  0.17200000000E+03 0. -1.
</event>
<event>
 4    1  0.1259333E+000  0.2178144E+03  0.7818608E-02  0.1135523E+00
         21   -1    0    0  503  502  0.00000000000E+00  0.00000000000E+00  0.14253583321E+03  0.14253583321E+03  0.00000000000E+00 0.  1.
         21   -1    0    0  501  503 -0.00000000000E+00 -0.00000000000E+00 -0.38675568194E+03  0.38675568194E+03  0.00000000000E+00 0. -1.
          6    1    1    2  501    0 -0.11219637902E+03 -0.72602326418E+02 -0.22091102645E+03  0.31023347156E+03  0.17200000000E+03 0.  1.
         -6    1    1    2    0  502  0.11219637902E+03  0.72602326418E+02 -0.23308822280E+02  0.21905804359E+03  0.17200000000E+03 0.  1.
</event>
<event>
 4    1  0.1259333E+000  0.1771159E+03  0.7818608E-02  0.1170624E+00
         21   -1    0    0  501  502  0.00000000000E+00  0.00000000000E+00  0.64660451906E+03  0.64660451906E+03  0.00000000000E+00 0.  1.
         21   -1    0    0  502  503 -0.00000000000E+00 -0.00000000000E+00 -0.49275181736E+02  0.49275181736E+02  0.00000000000E+00 0.  1.
          6    1    1    2  501    0 -0.35534545379E+02  0.22876757672E+02  0.34187969277E+03  0.38503477023E+03  0.17200000000E+03 0. -1.
         -6    1    1    2    0  503  0.35534545379E+02 -0.22876757672E+02  0.25544964455E+03  0.31084493057E+03  0.17200000000E+03 0. -1.
</event>
<event>
 4    1  0.1259333E+000  0.1726644E+03  0.7818608E-02  0.1175097E+00
         21   -1    0    0  503  502  0.00000000000E+00  0.00000000000E+00  0.45074336187E+03  0.45074336187E+03  0.00000000000E+00 0.  1.
         21   -1    0    0  501  503 -0.00000000000E+00 -0.00000000000E+00 -0.98138337920E+02  0.98138337920E+02  0.00000000000E+00 0.  1.
          6    1    1    2  501    0  0.11713978578E+02 -0.95809537731E+01  0.33300661901E+03  0.37510854465E+03  0.17200000000E+03 0.  1.
         -6    1    1    2    0  502 -0.11713978578E+02  0.95809537731E+01  0.19598404941E+02  0.17377315513E+03  0.17200000000E+03 0.  1.
</event>
<event>
 4    1  0.1259333E+000  0.2318407E+03  0.7818608E-02  0.1125351E+00
         21   -1    0    0  501  502  0.00000000000E+00  0.00000000000E+00  0.94133046035E+03  0.94133046035E+03  0.00000000000E+00 0.  1.
         21   -1    0    0  502  503 -0.00000000000E+00 -0.00000000000E+00 -0.87060126889E+02  0.87060126889E+02  0.00000000000E+00 0.  1.
          6    1    1    2  501    0 -0.14816683767E+03  0.47039223923E+02  0.72877539740E+03  0.76476380682E+03  0.17200000000E+03 0.  1.
         -6    1    1    2    0  503  0.14816683767E+03 -0.47039223923E+02  0.12549493606E+03  0.26362678041E+03  0.17200000000E+03 0.  1.
</event>
<event>
 4    1  0.1259333E+000  0.2151723E+03  0.7818608E-02  0.1137534E+00
         21   -1    0    0  501  502  0.00000000000E+00  0.00000000000E+00  0.23585065607E+03  0.23585065607E+03  0.00000000000E+00 0. -1.
         21   -1    0    0  502  503 -0.00000000000E+00 -0.00000000000E+00 -0.71364700441E+03  0.71364700441E+03  0.00000000000E+00 0. -1.
          6    1    1    2  501    0 -0.15262552353E+01 -0.12927797467E+03  0.16531478198E+03  0.27134498582E+03  0.17200000000E+03 0. -1.
         -6    1    1    2    0  503  0.15262552353E+01  0.12927797467E+03 -0.64311113033E+03  0.67815267466E+03  0.17200000000E+03 0. -1.
</event>
<event>
 4    1  0.1259333E+000  0.2681244E+03  0.7818608E-02  0.1102358E+00
         21   -1    0    0  503  502  0.00000000000E+00  0.00000000000E+00  0.12997269680E+04  0.12997269680E+04  0.00000000000E+00 0. -1.
         21   -1    0    0  501  503 -0.00000000000E+00 -0.00000000000E+00 -0.55359427081E+02  0.55359427081E+02  0.00000000000E+00 0.  1.
          6    1    1    2  501    0  0.16520682700E+03 -0.12252927061E+03  0.64197982996E+03  0.69572179779E+03  0.17200000000E+03 0. -1.
         -6    1    1    2    0  502 -0.16520682700E+03  0.12252927061E+03  0.60238771092E+03  0.65936459726E+03  0.17200000000E+03 0. -1.
</event>
<event>
 4    1  0.1259333E+000  0.1799620E+03  0.7818608E-02  0.1167840E+00
         21   -1    0    0  503  502  0.00000000000E+00  0.00000000000E+00  0.24507283178E+03  0.24507283178E+03  0.00000000000E+00 0.  1.
         21   -1    0    0  501  503 -0.00000000000E+00 -0.00000000000E+00 -0.13373370959E+03  0.13373370959E+03  0.00000000000E+00 0.  1.
          6    1    1    2  501    0  0.22041643829E+02  0.48129980896E+02  0.76282044082E+02  0.19546170820E+03  0.17200000000E+03 0.  1.
         -6    1    1    2    0  502 -0.22041643829E+02 -0.48129980896E+02  0.35057078116E+02  0.18334483317E+03  0.17200000000E+03 0.  1.
</event>
<event>
 4    1  0.1259333E+000  0.1912298E+03  0.7818608E-02  0.1157357E+00
         21   -1    0    0  503  502  0.00000000000E+00  0.00000000000E+00  0.11357951266E+03  0.11357951266E+03  0.00000000000E+00 0.  1.
         21   -1    0    0  501  503 -0.00000000000E+00 -0.00000000000E+00 -0.34119224707E+03  0.34119224707E+03  0.00000000000E+00 0.  1.
          6    1    1    2  501    0  0.75219728012E+02 -0.36425662946E+02 -0.59830239443E+02  0.20037089099E+03  0.17200000000E+03 0.  1.
         -6    1    1    2    0  502 -0.75219728012E+02  0.36425662946E+02 -0.16778249496E+03  0.25440086875E+03  0.17200000000E+03 0.  1.
</event>
<event>
 4    1  0.1259333E+000  0.2796864E+03  0.7818608E-02  0.1095860E+00
         21   -1    0    0  501  502  0.00000000000E+00  0.00000000000E+00  0.87131354947E+02  0.87131354947E+02  0.00000000000E+00 0. -1.
         21   -1    0    0  502  503 -0.00000000000E+00 -0.00000000000E+00 -0.89785083398E+03  0.89785083398E+03  0.00000000000E+00 0.  1.
          6    1    1    2  501    0 -0.17729855097E+03  0.13117052827E+03 -0.40087885348E+03  0.48880296524E+03  0.17200000000E+03 0. -1.
         -6    1    1    2    0  503  0.17729855097E+03 -0.13117052827E+03 -0.40984062556E+03  0.49617922369E+03  0.17200000000E+03 0. -1.
</event>
<event>
 4    1  0.1259333E+000  0.2139884E+03  0.7818608E-02  0.1138446E+00
         21   -1    0    0  503  502  0.00000000000E+00  0.00000000000E+00  0.97326991212E+03  0.97326991212E+03  0.00000000000E+00 0.  1.
         21   -1    0    0  501  503 -0.00000000000E+00 -0.00000000000E+00 -0.68109099424E+02  0.68109099424E+02  0.00000000000E+00 0.  1.
          6    1    1    2  501    0  0.12336521672E+03  0.31433321502E+02  0.16303936853E+03  0.26902205502E+03  0.17200000000E+03 0.  1.
         -6    1    1    2    0  502 -0.12336521672E+03 -0.31433321502E+02  0.74212144416E+03  0.77235695652E+03  0.17200000000E+03 0.  1.
</event>
<event>
 4    1  0.1259333E+000  0.1801386E+03  0.7818608E-02  0.1167669E+00
         21   -1    0    0  503  502  0.00000000000E+00  0.00000000000E+00  0.35030803350E+02  0.35030803350E+02  0.00000000000E+00 0.  1.
         21   -1    0    0  501  503 -0.00000000000E+00 -0.00000000000E+00 -0.19308867350E+04  0.19308867350E+04  0.00000000000E+00 0.  1.
          6    1    1    2  501    0  0.32542290704E+02  0.42508027746E+02 -0.16569260609E+04  0.16666895045E+04  0.17200000000E+03 0.  1.
         -6    1    1    2    0  502 -0.32542290704E+02 -0.42508027746E+02 -0.23892987074E+03  0.29922803385E+03  0.17200000000E+03 0.  1.
</event>
<event>
 4    1  0.1259333E+000  0.1946662E+03  0.7818608E-02  0.1154319E+00
         21   -1    0    0  503  502  0.00000000000E+00  0.00000000000E+00  0.15987127373E+04  0.15987127373E+04  0.00000000000E+00 0. -1.
         21   -1    0    0  501  503 -0.00000000000E+00 -0.00000000000E+00 -0.27632334835E+02  0.27632334835E+02  0.00000000000E+00 0. -1.
          6    1    1    2  501    0  0.83955480372E+02 -0.35530209533E+02  0.10921680781E+04  0.11093809216E+04  0.17200000000E+03 0. -1.
         -6    1    1    2    0  502 -0.83955480372E+02  0.35530209533E+02  0.47891232441E+03  0.51696415055E+03  0.17200000000E+03 0. -1.
</event>
<event>
 4    1  0.1259333E+000  0.1945704E+03  0.7818608E-02  0.1154403E+00
         21   -1    0    0  501  502  0.00000000000E+00  0.00000000000E+00  0.75827988006E+03  0.75827988006E+03  0.00000000000E+00 0.  1.
         21   -1    0    0  502  503 -0.00000000000E+00 -0.00000000000E+00 -0.19174228072E+03  0.19174228072E+03  0.00000000000E+00 0. -1.
          6    1    1    2  501    0  0.36510224706E+02  0.83310487092E+02  0.69178411354E+03  0.71862569779E+03  0.17200000000E+03 0.  1.
         -6    1    1    2    0  503 -0.36510224706E+02 -0.83310487092E+02 -0.12524651421E+03  0.23139646300E+03  0.17200000000E+03 0. -1.
</event>
<event>
 4    1  0.1259333E+000  0.3077767E+03  0.7818608E-02  0.1081416E+00
         21   -1    0    0  503  502  0.00000000000E+00  0.00000000000E+00  0.29570758398E+03  0.29570758398E+03  0.00000000000E+00 0. -1.
         21   -1    0    0  501  503 -0.00000000000E+00 -0.00000000000E+00 -0.32203135851E+03  0.32203135851E+03  0.00000000000E+00 0.  1.
          6    1    1    2  501    0 -0.17284760243E+03 -0.18779303879E+03 -0.35556229851E+02  0.30982376372E+03  0.17200000000E+03 0. -1.
         -6    1    1    2    0  502  0.17284760243E+03  0.18779303879E+03  0.92324553175E+01  0.30791517877E+03  0.17200000000E+03 0.  1.
</event>
<event>
 4    1  0.1259333E+000  0.1991993E+03  0.7818608E-02  0.1150416E+00
         21   -1    0    0  503  502  0.00000000000E+00  0.00000000000E+00  0.50896739587E+03  0.50896739587E+03  0.00000000000E+00 0. -1.
         21   -1    0    0  501  503 -0.00000000000E+00 -0.00000000000E+00 -0.83140117909E+02  0.83140117909E+02  0.00000000000E+00 0. -1.
          6    1    1    2  501    0  0.20853039372E+02 -0.98292980216E+02  0.28679437204E+03  0.34918672804E+03  0.17200000000E+03 0. -1.
         -6    1    1    2    0  502 -0.20853039372E+02  0.98292980216E+02  0.13903290592E+03  0.24292078573E+03  0.17200000000E+03 0. -1.
</event>
<event>
 4    1  0.1259333E+000  0.3079929E+03  0.7818608E-02  0.1081312E+00
         21   -1    0    0  503  502  0.00000000000E+00  0.00000000000E+00  0.50026504228E+03  0.50026504228E+03  0.00000000000E+00 0.  1.
         21   -1    0    0  501  503 -0.00000000000E+00 -0.00000000000E+00 -0.33920267409E+03  0.33920267409E+03  0.00000000000E+00 0. -1.
          6    1    1    2  501    0  0.83839707641E+02  0.24134313096E+03 -0.19820086886E+03  0.36625563184E+03  0.17200000000E+03 0. -1.
         -6    1    1    2    0  502 -0.83839707641E+02 -0.24134313096E+03  0.35926323706E+03  0.47321208453E+03  0.17200000000E+03 0.  1.
</event>
<event>
 4    1  0.1259333E+000  0.1865468E+03  0.7818608E-02  0.1161613E+00
         21   -1    0    0  501  502  0.00000000000E+00  0.00000000000E+00  0.35637786182E+03  0.35637786182E+03  0.00000000000E+00 0. -1.
         21   -1    0    0  502  503 -0.00000000000E+00 -0.00000000000E+00 -0.13173702727E+03  0.13173702727E+03  0.00000000000E+00 0. -1.
          6    1    1    2  501    0  0.58839336024E+02 -0.41876592528E+02  0.23646937923E+03  0.30119343250E+03  0.17200000000E+03 0. -1.
         -6    1    1    2    0  503 -0.58839336024E+02  0.41876592528E+02 -0.11828544679E+02  0.18692145659E+03  0.17200000000E+03 0. -1.
</event>
<event>
 4    1  0.1259333E+000  0.1927647E+03  0.7818608E-02  0.1155991E+00
         21   -1    0    0  503  502  0.00000000000E+00  0.00000000000E+00  0.10235757271E+03  0.10235757271E+03  0.00000000000E+00 0.  1.
         21   -1    0    0  501  503 -0.00000000000E+00 -0.00000000000E+00 -0.12426468290E+04  0.12426468290E+04  0.00000000000E+00 0.  1.
          6    1    1    2  501    0 -0.29691045795E+02 -0.81808811752E+02 -0.43378632203E+01  0.19281352893E+03  0.17200000000E+03 0.  1.
         -6    1    1    2    0  502  0.29691045795E+02  0.81808811752E+02 -0.11359513930E+04  0.11521908727E+04  0.17200000000E+03 0.  1.
</event>
<event>
 4    1  0.1259333E+000  0.2211448E+03  0.7818608E-02  0.1133032E+00
         21   -1    0    0  503  502  0.00000000000E+00  0.00000000000E+00  0.50732104517E+03  0.50732104517E+03  0.00000000000E+00 0.  1.
         21   -1    0    0  501  503 -0.00000000000E+00 -0.00000000000E+00 -0.11855396399E+03  0.11855396399E+03  0.00000000000E+00 0. -1.
          6    1    1    2  501    0 -0.13797020308E+03  0.16889629641E+02  0.59101838705E+02  0.22890623379E+03  0.17200000000E+03 0. -1.
         -6    1    1    2    0  502  0.13797020308E+03 -0.16889629641E+02  0.32966524247E+03  0.39696877537E+03  0.17200000000E+03 0.  1.
</event>
<event>
 4    1  0.1259333E+000  0.1831837E+03  0.7818608E-02  0.1164757E+00
         21   -1    0    0  501  502  0.00000000000E+00  0.00000000000E+00  0.14155171787E+03  0.14155171787E+03  0.00000000000E+00 0. -1.
         21   -1    0    0  502  503 -0.00000000000E+00 -0.00000000000E+00 -0.26854833472E+03  0.26854833472E+03  0.00000000000E+00 0. -1.
          6    1    1    2  501    0  0.69132093320E+01  0.62645674612E+02  0.67154684371E+01  0.18330676618E+03  0.17200000000E+03 0. -1.
         -6    1    1    2    0  503 -0.69132093320E+01 -0.62645674612E+02 -0.13371208529E+03  0.22679328642E+03  0.17200000000E+03 0. -1.
</event>
<event>
 4    1  0.1259333E+000  0.2030029E+03  0.7818608E-02  0.1147230E+00
         21   -1    0    0  501  502  0.00000000000E+00  0.00000000000E+00  0.90257544274E+02  0.90257544274E+02  0.00000000000E+00 0.  1.
         21   -1    0    0  502  503 -0.00000000000E+00 -0.00000000000E+00 -0.48950427666E+03  0.48950427666E+03  0.00000000000E+00 0. -1.
          6    1    1    2  501    0 -0.59776796136E+00 -0.10782318777E+03 -0.27479772066E+03  0.34164891984E+03  0.17200000000E+03 0. -1.
         -6    1    1    2    0  503  0.59776796136E+00  0.10782318777E+03 -0.12444901173E+03  0.23811290110E+03  0.17200000000E+03 0.  1.
</event>
<event>
 4    1  0.1259333E+000  0.2293763E+03  0.7818608E-02  0.1127080E+00
         21   -1    0    0  501  502  0.00000000000E+00  0.00000000000E+00  0.16246053719E+04  0.16246053719E+04  0.00000000000E+00 0.  1.
         21   -1    0    0  502  503 -0.00000000000E+00 -0.00000000000E+00 -0.32656930083E+02  0.32656930083E+02  0.00000000000E+00 0.  1.
          6    1    1    2  501    0  0.15113957942E+03 -0.13649622747E+02  0.72041498698E+03  0.75604975904E+03  0.17200000000E+03 0.  1.
         -6    1    1    2    0  503 -0.15113957942E+03  0.13649622747E+02  0.87153345484E+03  0.90121254295E+03  0.17200000000E+03 0.  1.
</event>
<event>
 4    1  0.1259333E+000  0.1928965E+03  0.7818608E-02  0.1155874E+00
         21   -1    0    0  503  502  0.00000000000E+00  0.00000000000E+00  0.41180228956E+02  0.41180228956E+02  0.00000000000E+00 0. -1.
         21   -1    0    0  501  503 -0.00000000000E+00 -0.00000000000E+00 -0.12814626977E+04  0.12814626977E+04  0.00000000000E+00 0. -1.
          6    1    1    2  501    0 -0.82671226938E+02 -0.28116608530E+02 -0.97926644477E+03  0.99808408729E+03  0.17200000000E+03 0. -1.
         -6    1    1    2    0  502  0.82671226938E+02  0.28116608530E+02 -0.26101602394E+03  0.32455883934E+03  0.17200000000E+03 0. -1.
</event>
<event>
 4    1  0.1259333E+000  0.1842979E+03  0.7818608E-02  0.1163707E+00
         21   -1    0    0  501  502  0.00000000000E+00  0.00000000000E+00  0.77093125679E+03  0.77093125679E+03  0.00000000000E+00 0. -1.
         21   -1    0    0  502  503 -0.00000000000E+00 -0.00000000000E+00 -0.12732308184E+03  0.12732308184E+03  0.00000000000E+00 0. -1.
          6    1    1    2  501    0  0.61136902700E+02  0.25377254382E+02  0.68500513268E+03  0.70936433354E+03  0.17200000000E+03 0. -1.
         -6    1    1    2    0  503 -0.61136902700E+02 -0.25377254382E+02 -0.41396957727E+02  0.18889000508E+03  0.17200000000E+03 0. -1.
</event>
<event>
 4    1  0.1259333E+000  0.1863690E+03  0.7818608E-02  0.1161778E+00
         21   -1    0    0  501  502  0.00000000000E+00  0.00000000000E+00  0.15105732995E+03  0.15105732995E+03  0.00000000000E+00 0. -1.
         21   -1    0    0  502  503 -0.00000000000E+00 -0.00000000000E+00 -0.44885619263E+03  0.44885619263E+03  0.00000000000E+00 0. -1.
          6    1    1    2  501    0 -0.47833130922E+02  0.53491989545E+02  0.60583538978E+02  0.19596878975E+03  0.17200000000E+03 0. -1.
         -6    1    1    2    0  503  0.47833130922E+02 -0.53491989545E+02 -0.35838240166E+03  0.40394473283E+03  0.17200000000E+03 0. -1.
</event>
<event>
 4    1  0.1259333E+000  0.1809981E+03  0.7818608E-02  0.1166841E+00
         21   -1    0    0  503  502  0.00000000000E+00  0.00000000000E+00  0.19166314855E+04  0.19166314855E+04  0.00000000000E+00 0.  1.
         21   -1    0    0  501  503 -0.00000000000E+00 -0.00000000000E+00 -0.17120759852E+02  0.17120759852E+02  0.00000000000E+00 0.  1.
          6    1    1    2  501    0  0.47381204370E+02 -0.30517849177E+02  0.98893067449E+03  0.10053577456E+04  0.17200000000E+03 0.  1.
         -6    1    1    2    0  502 -0.47381204370E+02  0.30517849177E+02  0.91058005118E+03  0.92839449980E+03  0.17200000000E+03 0.  1.
</event>
<event>
 4    1  0.1259333E+000  0.1840301E+03  0.7818608E-02  0.1163959E+00
         21   -1    0    0  501  502  0.00000000000E+00  0.00000000000E+00  0.44162609479E+03  0.44162609479E+03  0.00000000000E+00 0.  1.
         21   -1    0    0  502  503 -0.00000000000E+00 -0.00000000000E+00 -0.14749793171E+03  0.14749793171E+03  0.00000000000E+00 0.  1.
          6    1    1    2  501    0  0.64920053451E+02  0.82750910750E+01  0.35115945678E+03  0.39645939837E+03  0.17200000000E+03 0.  1.
         -6    1    1    2    0  503 -0.64920053451E+02 -0.82750910750E+01 -0.57031293694E+02  0.19266462813E+03  0.17200000000E+03 0.  1.
</event>
<event>
 4    1  0.1259333E+000  0.2777008E+03  0.7818608E-02  0.1096951E+00
         21   -1    0    0  503  502  0.00000000000E+00  0.00000000000E+00  0.10614684611E+04  0.10614684611E+04  0.00000000000E+00 0. -1.
         21   -1    0    0  501  503 -0.00000000000E+00 -0.00000000000E+00 -0.34652071625E+03  0.34652071625E+03  0.00000000000E+00 0.  1.
          6    1    1    2  501    0 -0.12763415098E+03  0.17675764219E+03 -0.26838437780E+03  0.38619673072E+03  0.17200000000E+03 0.  1.
         -6    1    1    2    0  502  0.12763415098E+03 -0.17675764219E+03  0.98333212268E+03  0.10217924467E+04  0.17200000000E+03 0. -1.
</event>
<event>
 4    1  0.1259333E+000  0.2980408E+03  0.7818608E-02  0.1086224E+00
         21   -1    0    0  503  502  0.00000000000E+00  0.00000000000E+00  0.32480580352E+03  0.32480580352E+03  0.00000000000E+00 0.  1.
         21   -1    0    0  501  503 -0.00000000000E+00 -0.00000000000E+00 -0.29360873187E+03  0.29360873187E+03  0.00000000000E+00 0. -1.
          6    1    1    2  501    0  0.19605137048E+03 -0.14425048153E+03  0.96556292543E+02  0.31329133234E+03  0.17200000000E+03 0. -1.
         -6    1    1    2    0  502 -0.19605137048E+03  0.14425048153E+03 -0.65359220892E+02  0.30512320305E+03  0.17200000000E+03 0. -1.
</event>
<event>
 4    1  0.1259333E+000  0.2259322E+03  0.7818608E-02  0.1129536E+00
         21   -1    0    0  503  502  0.00000000000E+00  0.00000000000E+00  0.61299528023E+03  0.61299528023E+03  0.00000000000E+00 0. -1.
         21   -1    0    0  501  503 -0.00000000000E+00 -0.00000000000E+00 -0.85041118963E+02  0.85041118963E+02  0.00000000000E+00 0. -1.
          6    1    1    2  501    0 -0.12733881343E+03  0.72430516458E+02  0.21363744376E+03  0.31094422410E+03  0.17200000000E+03 0. -1.
         -6    1    1    2    0  502  0.12733881343E+03 -0.72430516458E+02  0.31431671750E+03  0.38709217510E+03  0.17200000000E+03 0. -1.
</event>
<event>
 4    1  0.1259333E+000  0.1915232E+03  0.7818608E-02  0.1157095E+00
         21   -1    0    0  501  502  0.00000000000E+00  0.00000000000E+00  0.79291455523E+02  0.79291455523E+02  0.00000000000E+00 0.  1.
         21   -1    0    0  502  503 -0.00000000000E+00 -0.00000000000E+00 -0.69488321009E+03  0.69488321009E+03  0.00000000000E+00 0.  1.
          6    1    1    2  501    0 -0.54125692555E+02  0.64556418115E+02 -0.84000343611E+02  0.20913435739E+03  0.17200000000E+03 0.  1.
         -6    1    1    2    0  503  0.54125692555E+02 -0.64556418115E+02 -0.53159141096E+03  0.56504030822E+03  0.17200000000E+03 0.  1.
</event>
<event>
 4    1  0.1259333E+000  0.2029890E+03  0.7818608E-02  0.1147241E+00
         21   -1    0    0  501  502  0.00000000000E+00  0.00000000000E+00  0.35616822251E+02  0.35616822251E+02  0.00000000000E+00 0.  1.
         21   -1    0    0  502  503 -0.00000000000E+00 -0.00000000000E+00 -0.19692474952E+04  0.19692474952E+04  0.00000000000E+00 0.  1.
          6    1    1    2  501    0  0.27031417009E+02  0.10435433765E+03 -0.32297217335E+03  0.38146500501E+03  0.17200000000E+03 0.  1.
         -6    1    1    2    0  503 -0.27031417009E+02 -0.10435433765E+03 -0.16106584996E+04  0.16233993124E+04  0.17200000000E+03 0.  1.
</event>
<event>
 4    1  0.1259333E+000  0.2106350E+03  0.7818608E-02  0.1141064E+00
         21   -1    0    0  503  502  0.00000000000E+00  0.00000000000E+00  0.16758776261E+03  0.16758776261E+03  0.00000000000E+00 0. -1.
         21   -1    0    0  501  503 -0.00000000000E+00 -0.00000000000E+00 -0.26693239437E+03  0.26693239437E+03  0.00000000000E+00 0.  1.
          6    1    1    2  501    0 -0.37088973808E+02  0.11579082745E+03 -0.69364046286E+02  0.22176221188E+03  0.17200000000E+03 0. -1.
         -6    1    1    2    0  502  0.37088973808E+02 -0.11579082745E+03 -0.29980585473E+02  0.21275794511E+03  0.17200000000E+03 0. -1.
</event>
<event>
 4    1  0.1259333E+000  0.1767950E+03  0.7818608E-02  0.1170941E+00
         21   -1    0    0  501  502  0.00000000000E+00  0.00000000000E+00  0.69097935045E+02  0.69097935045E+02  0.00000000000E+00 0.  1.
         21   -1    0    0  502  503 -0.00000000000E+00 -0.00000000000E+00 -0.46004130612E+03  0.46004130612E+03  0.00000000000E+00 0.  1.
          6    1    1    2  501    0 -0.40519194368E+02 -0.55379142226E+01 -0.16126331888E+03  0.23929549018E+03  0.17200000000E+03 0. -1.
         -6    1    1    2    0  503  0.40519194368E+02  0.55379142226E+01 -0.22968005219E+03  0.28984375098E+03  0.17200000000E+03 0. -1.
</event>
<event>
 4    1  0.1259333E+000  0.1733565E+03  0.7818608E-02  0.1174392E+00
         21   -1    0    0  501  502  0.00000000000E+00  0.00000000000E+00  0.78884009132E+03  0.78884009132E+03  0.00000000000E+00 0.  1.
         21   -1    0    0  502  503 -0.00000000000E+00 -0.00000000000E+00 -0.56037910109E+02  0.56037910109E+02  0.00000000000E+00 0.  1.
          6    1    1    2  501    0 -0.11312093647E+02  0.18452602347E+02  0.60542698605E+03  0.62975733218E+03  0.17200000000E+03 0.  1.
         -6    1    1    2    0  503  0.11312093647E+02 -0.18452602347E+02  0.12737519516E+03  0.21512066925E+03  0.17200000000E+03 0.  1.
</event>
<event>
 4    1  0.1259333E+000  0.2161330E+03  0.7818608E-02  0.1136799E+00
         21   -1    0    0  501  502  0.00000000000E+00  0.00000000000E+00  0.79582103210E+03  0.79582103210E+03  0.00000000000E+00 0.  1.
         21   -1    0    0  502  503 -0.00000000000E+00 -0.00000000000E+00 -0.70616193519E+02  0.70616193519E+02  0.00000000000E+00 0. -1.
          6    1    1    2  501    0 -0.10061610807E+03 -0.83701015301E+02  0.54057453795E+03  0.58218063541E+03  0.17200000000E+03 0.  1.
         -6    1    1    2    0  503  0.10061610807E+03  0.83701015301E+02  0.18463030062E+03  0.28425659020E+03  0.17200000000E+03 0. -1.
</event>
<event>
 4    1  0.1259333E+000  0.1863900E+03  0.7818608E-02  0.1161758E+00
         21   -1    0    0  501  502  0.00000000000E+00  0.00000000000E+00  0.11457352816E+03  0.11457352816E+03  0.00000000000E+00 0. -1.
         21   -1    0    0  502  503 -0.00000000000E+00 -0.00000000000E+00 -0.31887148232E+03  0.31887148232E+03  0.00000000000E+00 0. -1.
          6    1    1    2  501    0  0.61616499521E+02 -0.36886794107E+02 -0.54137569823E+02  0.19409303197E+03  0.17200000000E+03 0. -1.
         -6    1    1    2    0  503 -0.61616499521E+02  0.36886794107E+02 -0.15016038434E+03  0.23935197851E+03  0.17200000000E+03 0. -1.
</event>
<event>
 4    1  0.1259333E+000  0.1779866E+03  0.7818608E-02  0.1169766E+00
         21   -1    0    0  503  502  0.00000000000E+00  0.00000000000E+00  0.11839855260E+03  0.11839855260E+03  0.00000000000E+00 0.  1.
         21   -1    0    0  501  503 -0.00000000000E+00 -0.00000000000E+00 -0.38524656442E+03  0.38524656442E+03  0.00000000000E+00 0. -1.
          6    1    1    2  501    0 -0.29286255497E+02  0.35178921371E+02 -0.27260518543E+03  0.32556539803E+03  0.17200000000E+03 0. -1.
         -6    1    1    2    0  502  0.29286255497E+02 -0.35178921371E+02  0.57571736070E+01  0.17807971900E+03  0.17200000000E+03 0.  1.
</event>
<event>
 4    1  0.1259333E+000  0.2570593E+03  0.7818608E-02  0.1108923E+00
         21   -1    0    0  503  502  0.00000000000E+00  0.00000000000E+00  0.42256871598E+03  0.42256871598E+03  0.00000000000E+00 0. -1.
         21   -1    0    0  501  503 -0.00000000000E+00 -0.00000000000E+00 -0.21767397563E+03  0.21767397563E+03  0.00000000000E+00 0.  1.
          6    1    1    2  501    0  0.77973061026E+02 -0.17440093332E+03 -0.67429975293E+02  0.26575606363E+03  0.17200000000E+03 0.  1.
         -6    1    1    2    0  502 -0.77973061026E+02  0.17440093332E+03  0.27232471564E+03  0.37448662798E+03  0.17200000000E+03 0. -1.
</event>
<event>
 4    1  0.1259333E+000  0.2164793E+03  0.7818608E-02  0.1136535E+00
         21   -1    0    0  503  502  0.00000000000E+00  0.00000000000E+00  0.61684701058E+02  0.61684701058E+02  0.00000000000E+00 0. -1.
         21   -1    0    0  501  503 -0.00000000000E+00 -0.00000000000E+00 -0.11277743964E+04  0.11277743964E+04  0.00000000000E+00 0. -1.
          6    1    1    2  501    0 -0.43782512754E+02 -0.12394507003E+03 -0.87279730830E+03  0.89924325418E+03  0.17200000000E+03 0. -1.
         -6    1    1    2    0  502  0.43782512754E+02  0.12394507003E+03 -0.19329238707E+03  0.29021584331E+03  0.17200000000E+03 0. -1.
</event>
<event>
 4    1  0.1259333E+000  0.1952034E+03  0.7818608E-02  0.1153850E+00
         21   -1    0    0  503  502  0.00000000000E+00  0.00000000000E+00  0.15430628585E+03  0.15430628585E+03  0.00000000000E+00 0.  1.
         21   -1    0    0  501  503 -0.00000000000E+00 -0.00000000000E+00 -0.26069974363E+03  0.26069974363E+03  0.00000000000E+00 0.  1.
          6    1    1    2  501    0  0.57260401479E+02 -0.72398910488E+02 -0.55247468969E+01  0.19528153688E+03  0.17200000000E+03 0. -1.
         -6    1    1    2    0  502 -0.57260401479E+02  0.72398910488E+02 -0.10086871088E+03  0.21972449261E+03  0.17200000000E+03 0. -1.
</event>
<event>
 4    1  0.1259333E+000  0.2666375E+03  0.7818608E-02  0.1103220E+00
         21   -1    0    0  503  502  0.00000000000E+00  0.00000000000E+00  0.41784810602E+03  0.41784810602E+03  0.00000000000E+00 0.  1.
         21   -1    0    0  501  503 -0.00000000000E+00 -0.00000000000E+00 -0.18078660032E+03  0.18078660032E+03  0.00000000000E+00 0. -1.
          6    1    1    2  501    0 -0.78465959178E+02 -0.18802828913E+03  0.45917776355E+02  0.27056235224E+03  0.17200000000E+03 0.  1.
         -6    1    1    2    0  502  0.78465959178E+02  0.18802828913E+03  0.19114372934E+03  0.32807235411E+03  0.17200000000E+03 0. -1.
</event>
<event>
 4    1  0.1259333E+000  0.2027734E+03  0.7818608E-02  0.1147420E+00
         21   -1    0    0  501  502  0.00000000000E+00  0.00000000000E+00  0.57789147497E+03  0.57789147497E+03  0.00000000000E+00 0.  1.
         21   -1    0    0  502  503 -0.00000000000E+00 -0.00000000000E+00 -0.75426816484E+02  0.75426816484E+02  0.00000000000E+00 0.  1.
          6    1    1    2  501    0 -0.85274485835E+02  0.65278812658E+02  0.17344928088E+03  0.26683649367E+03  0.17200000000E+03 0.  1.
         -6    1    1    2    0  503  0.85274485835E+02 -0.65278812658E+02  0.32901537760E+03  0.38648179778E+03  0.17200000000E+03 0.  1.
</event>
<event>
 4    1  0.1259333E+000  0.2291169E+03  0.7818608E-02  0.1127263E+00
         21   -1    0    0  503  502  0.00000000000E+00  0.00000000000E+00  0.14429272303E+03  0.14429272303E+03  0.00000000000E+00 0. -1.
         21   -1    0    0  501  503 -0.00000000000E+00 -0.00000000000E+00 -0.36947166913E+03  0.36947166913E+03  0.00000000000E+00 0. -1.
          6    1    1    2  501    0  0.12517749317E+03 -0.85094985002E+02 -0.14439981046E+03  0.27082442011E+03  0.17200000000E+03 0. -1.
         -6    1    1    2    0  502 -0.12517749317E+03  0.85094985002E+02 -0.80779135646E+02  0.24293997206E+03  0.17200000000E+03 0. -1.
</event>
<event>
 4    1  0.1259333E+000  0.1768421E+03  0.7818608E-02  0.1170895E+00
         21   -1    0    0  501  502  0.00000000000E+00  0.00000000000E+00  0.27720060554E+02  0.27720060554E+02  0.00000000000E+00 0.  1.
         21   -1    0    0  502  503 -0.00000000000E+00 -0.00000000000E+00 -0.11497356526E+04  0.11497356526E+04  0.00000000000E+00 0.  1.
          6    1    1    2  501    0  0.22466747681E+02  0.34414915738E+02 -0.64162431840E+03  0.66554857609E+03  0.17200000000E+03 0.  1.
         -6    1    1    2    0  503 -0.22466747681E+02 -0.34414915738E+02 -0.48039127361E+03  0.51190713702E+03  0.17200000000E+03 0.  1.
</event>
<event>
 4    1  0.1259333E+000  0.1846272E+03  0.7818608E-02  0.1163399E+00
         21   -1    0    0  503  502  0.00000000000E+00  0.00000000000E+00  0.31154306860E+02  0.31154306860E+02  0.00000000000E+00 0. -1.
         21   -1    0    0  501  503 -0.00000000000E+00 -0.00000000000E+00 -0.15049508389E+04  0.15049508389E+04  0.00000000000E+00 0.  1.
          6    1    1    2  501    0 -0.23149628559E+02 -0.62986401380E+02 -0.11381809506E+04  0.11530581375E+04  0.17200000000E+03 0.  1.
         -6    1    1    2    0  502  0.23149628559E+02  0.62986401380E+02 -0.33561558146E+03  0.38304700831E+03  0.17200000000E+03 0. -1.
</event>
<event>
 4    1  0.1259333E+000  0.1950047E+03  0.7818608E-02  0.1154023E+00
         21   -1    0    0  503  502  0.00000000000E+00  0.00000000000E+00  0.21082779351E+04  0.21082779351E+04  0.00000000000E+00 0.  1.
         21   -1    0    0  501  503 -0.00000000000E+00 -0.00000000000E+00 -0.51198075896E+02  0.51198075896E+02  0.00000000000E+00 0. -1.
          6    1    1    2  501    0  0.82827613419E+02 -0.39779589263E+02  0.15956662814E+03  0.25196892285E+03  0.17200000000E+03 0. -1.
         -6    1    1    2    0  502 -0.82827613419E+02  0.39779589263E+02  0.18975132311E+04  0.19075070882E+04  0.17200000000E+03 0.  1.
</event>
<event>
 4    1  0.1259333E+000  0.1785057E+03  0.7818608E-02  0.1169257E+00
         21   -1    0    0  503  502  0.00000000000E+00  0.00000000000E+00  0.42909498545E+03  0.42909498545E+03  0.00000000000E+00 0. -1.
         21   -1    0    0  501  503 -0.00000000000E+00 -0.00000000000E+00 -0.77584881193E+02  0.77584881193E+02  0.00000000000E+00 0. -1.
          6    1    1    2  501    0  0.10853059467E+02  0.46502649767E+02  0.12330449751E+03  0.21695226305E+03  0.17200000000E+03 0.  1.
         -6    1    1    2    0  502 -0.10853059467E+02 -0.46502649767E+02  0.22820560675E+03  0.28972760360E+03  0.17200000000E+03 0.  1.
</event>
<event>
 4    1  0.1259333E+000  0.1944983E+03  0.7818608E-02  0.1154466E+00
         21   -1    0    0  503  502  0.00000000000E+00  0.00000000000E+00  0.14705054276E+03  0.14705054276E+03  0.00000000000E+00 0. -1.
         21   -1    0    0  501  503 -0.00000000000E+00 -0.00000000000E+00 -0.27500587754E+03  0.27500587754E+03  0.00000000000E+00 0. -1.
          6    1    1    2  501    0  0.78509003101E+02  0.45627918992E+02 -0.11759096515E+03  0.22728221585E+03  0.17200000000E+03 0. -1.
         -6    1    1    2    0  502 -0.78509003101E+02 -0.45627918992E+02 -0.10364369628E+02  0.19477420445E+03  0.17200000000E+03 0. -1.
</event>
<event>
 4    1  0.1259333E+000  0.1836012E+03  0.7818608E-02  0.1164363E+00
         21   -1    0    0  503  502  0.00000000000E+00  0.00000000000E+00  0.29803832886E+04  0.29803832886E+04  0.00000000000E+00 0.  1.
         21   -1    0    0  501  503 -0.00000000000E+00 -0.00000000000E+00 -0.11550695834E+02  0.11550695834E+02  0.00000000000E+00 0.  1.
          6    1    1    2  501    0 -0.63663047173E+02 -0.85095953757E+01  0.12686567892E+04  0.12818734124E+04  0.17200000000E+03 0. -1.
         -6    1    1    2    0  502  0.63663047173E+02  0.85095953757E+01  0.17001758036E+04  0.17100605720E+04  0.17200000000E+03 0. -1.
</event>
<event>
 4    1  0.1259333E+000  0.1895834E+03  0.7818608E-02  0.1158838E+00
         21   -1    0    0  501  502  0.00000000000E+00  0.00000000000E+00  0.51030949385E+02  0.51030949385E+02  0.00000000000E+00 0.  1.
         21   -1    0    0  502  503 -0.00000000000E+00 -0.00000000000E+00 -0.72732613319E+03  0.72732613319E+03  0.00000000000E+00 0.  1.
          6    1    1    2  501    0 -0.21022497220E+01  0.79708500218E+02 -0.26892417314E+03  0.32903202787E+03  0.17200000000E+03 0.  1.
         -6    1    1    2    0  503  0.21022497220E+01 -0.79708500218E+02 -0.40737101066E+03  0.44932505470E+03  0.17200000000E+03 0.  1.
</event>
<event>
 4    1  0.1259333E+000  0.1736225E+03  0.7818608E-02  0.1174122E+00
         21   -1    0    0  503  502  0.00000000000E+00  0.00000000000E+00  0.16500363966E+03  0.16500363966E+03  0.00000000000E+00 0.  1.
         21   -1    0    0  501  503 -0.00000000000E+00 -0.00000000000E+00 -0.18921364635E+03  0.18921364635E+03  0.00000000000E+00 0.  1.
          6    1    1    2  501    0 -0.15846724795E+02  0.17596705455E+02  0.20777035509E+02  0.17486122479E+03  0.17200000000E+03 0.  1.
         -6    1    1    2    0  502  0.15846724795E+02 -0.17596705455E+02 -0.44987042196E+02  0.17935606122E+03  0.17200000000E+03 0.  1.
</event>
<event>
 4    1  0.1259333E+000  0.1798305E+03  0.7818608E-02  0.1167967E+00
         21   -1    0    0  501  502  0.00000000000E+00  0.00000000000E+00  0.17429286744E+03  0.17429286744E+03  0.00000000000E+00 0. -1.
         21   -1    0    0  502  503 -0.00000000000E+00 -0.00000000000E+00 -0.73603762370E+03  0.73603762370E+03  0.00000000000E+00 0. -1.
          6    1    1    2  501    0  0.42534094141E+02 -0.30754611007E+02  0.11276400640E+03  0.21226096297E+03  0.17200000000E+03 0.  1.
         -6    1    1    2    0  503 -0.42534094141E+02  0.30754611007E+02 -0.67450876266E+03  0.69806952817E+03  0.17200000000E+03 0.  1.
</event>
<event>
 4    1  0.1259333E+000  0.1919330E+03  0.7818608E-02  0.1156729E+00
         21   -1    0    0  503  502  0.00000000000E+00  0.00000000000E+00  0.42762000421E+02  0.42762000421E+02  0.00000000000E+00 0. -1.
         21   -1    0    0  501  503 -0.00000000000E+00 -0.00000000000E+00 -0.99105543345E+03  0.99105543345E+03  0.00000000000E+00 0. -1.
          6    1    1    2  501    0  0.80824987668E+02 -0.26862900835E+02 -0.66105929338E+03  0.68835868806E+03  0.17200000000E+03 0. -1.
         -6    1    1    2    0  502 -0.80824987668E+02  0.26862900835E+02 -0.28723413965E+03  0.34545874581E+03  0.17200000000E+03 0. -1.
</event>
<event>
 4    1  0.1259333E+000  0.2037890E+03  0.7818608E-02  0.1146581E+00
         21   -1    0    0  503  502  0.00000000000E+00  0.00000000000E+00  0.12640924475E+04  0.12640924475E+04  0.00000000000E+00 0. -1.
         21   -1    0    0  501  503 -0.00000000000E+00 -0.00000000000E+00 -0.33724146799E+02  0.33724146799E+02  0.00000000000E+00 0. -1.
          6    1    1    2  501    0 -0.10342069127E+03 -0.35357001362E+02  0.51092481257E+03  0.55006737862E+03  0.17200000000E+03 0. -1.
         -6    1    1    2    0  502  0.10342069127E+03  0.35357001362E+02  0.71944348813E+03  0.74774921568E+03  0.17200000000E+03 0. -1.
</event>
<event>
 4    1  0.1259333E+000  0.2022410E+03  0.7818608E-02  0.1147862E+00
         21   -1    0    0  501  502  0.00000000000E+00  0.00000000000E+00  0.47276220784E+03  0.47276220784E+03  0.00000000000E+00 0.  1.
         21   -1    0    0  502  503 -0.00000000000E+00 -0.00000000000E+00 -0.91183925926E+02  0.91183925926E+02  0.00000000000E+00 0. -1.
          6    1    1    2  501    0  0.35790977709E+01 -0.10632315718E+03  0.25458867339E+03  0.32514122518E+03  0.17200000000E+03 0.  1.
         -6    1    1    2    0  503 -0.35790977709E+01  0.10632315718E+03  0.12698960853E+03  0.23880490859E+03  0.17200000000E+03 0. -1.
</event>
<event>
 4    1  0.1259333E+000  0.2561573E+03  0.7818608E-02  0.1109474E+00
         21   -1    0    0  503  502  0.00000000000E+00  0.00000000000E+00  0.89410188668E+02  0.89410188668E+02  0.00000000000E+00 0. -1.
         21   -1    0    0  501  503 -0.00000000000E+00 -0.00000000000E+00 -0.10429725188E+04  0.10429725188E+04  0.00000000000E+00 0.  1.
          6    1    1    2  501    0 -0.13339139164E+03  0.13505293191E+03 -0.78500726325E+03  0.82574388350E+03  0.17200000000E+03 0. -1.
         -6    1    1    2    0  502  0.13339139164E+03 -0.13505293191E+03 -0.16855506684E+03  0.30663882393E+03  0.17200000000E+03 0. -1.
</event>
<event>
 4    1  0.1259333E+000  0.1790314E+03  0.7818608E-02  0.1168744E+00
         21   -1    0    0  501  502  0.00000000000E+00  0.00000000000E+00  0.96789464973E+03  0.96789464973E+03  0.00000000000E+00 0.  1.
         21   -1    0    0  502  503 -0.00000000000E+00 -0.00000000000E+00 -0.44580934056E+02  0.44580934056E+02  0.00000000000E+00 0.  1.
          6    1    1    2  501    0  0.49408910537E+02 -0.51969234109E+01  0.71838680966E+03  0.74035927545E+03  0.17200000000E+03 0.  1.
         -6    1    1    2    0  503 -0.49408910537E+02  0.51969234109E+01  0.20492690601E+03  0.27211630833E+03  0.17200000000E+03 0.  1.
</event>
<event>
 4    1  0.1259333E+000  0.1803993E+03  0.7818608E-02  0.1167417E+00
         21   -1    0    0  503  502  0.00000000000E+00  0.00000000000E+00  0.58747078131E+03  0.58747078131E+03  0.00000000000E+00 0. -1.
         21   -1    0    0  501  503 -0.00000000000E+00 -0.00000000000E+00 -0.83845396316E+02  0.83845396316E+02  0.00000000000E+00 0. -1.
          6    1    1    2  501    0 -0.38724522896E+02  0.38214244779E+02  0.56293667945E+02  0.18897855494E+03  0.17200000000E+03 0. -1.
         -6    1    1    2    0  502  0.38724522896E+02 -0.38214244779E+02  0.44733171705E+03  0.48233762268E+03  0.17200000000E+03 0. -1.
</event>
<event>
 4    1  0.1259333E+000  0.1889866E+03  0.7818608E-02  0.1159379E+00
         21   -1    0    0  503  502  0.00000000000E+00  0.00000000000E+00  0.28738155850E+03  0.28738155850E+03  0.00000000000E+00 0.  1.
         21   -1    0    0  501  503 -0.00000000000E+00 -0.00000000000E+00 -0.28299479950E+03  0.28299479950E+03  0.00000000000E+00 0. -1.
          6    1    1    2  501    0  0.71209032072E+02  0.32576187237E+02 -0.21138154986E+03  0.28354557631E+03  0.17200000000E+03 0. -1.
         -6    1    1    2    0  502 -0.71209032072E+02 -0.32576187237E+02  0.21576830885E+03  0.28683078170E+03  0.17200000000E+03 0.  1.
</event>
<event>
 4    1  0.1259333E+000  0.2244875E+03  0.7818608E-02  0.1130581E+00
         21   -1    0    0  501  502  0.00000000000E+00  0.00000000000E+00  0.28380771264E+03  0.28380771264E+03  0.00000000000E+00 0. -1.
         21   -1    0    0  502  503 -0.00000000000E+00 -0.00000000000E+00 -0.31506756162E+03  0.31506756162E+03  0.00000000000E+00 0.  1.
          6    1    1    2  501    0 -0.11517456837E+03 -0.86864571629E+02  0.18218459405E+03  0.28911219502E+03  0.17200000000E+03 0. -1.
         -6    1    1    2    0  503  0.11517456837E+03  0.86864571629E+02 -0.21344444302E+03  0.30976307924E+03  0.17200000000E+03 0.  1.
</event>
<event>
 4    1  0.1259333E+000  0.2349363E+03  0.7818608E-02  0.1123213E+00
         21   -1    0    0  503  502  0.00000000000E+00  0.00000000000E+00  0.54229712249E+02  0.54229712249E+02  0.00000000000E+00 0.  1.
         21   -1    0    0  501  503 -0.00000000000E+00 -0.00000000000E+00 -0.21786346439E+04  0.21786346439E+04  0.00000000000E+00 0. -1.
          6    1    1    2  501    0  0.54033148757E+02  0.15063689041E+03 -0.18771415388E+04  0.18917863015E+04  0.17200000000E+03 0. -1.
         -6    1    1    2    0  502 -0.54033148757E+02 -0.15063689041E+03 -0.24726339291E+03  0.34107805469E+03  0.17200000000E+03 0.  1.
</event>
<event>
 4    1  0.1259333E+000  0.1918313E+03  0.7818608E-02  0.1156820E+00
         21   -1    0    0  503  502  0.00000000000E+00  0.00000000000E+00  0.23917034091E+03  0.23917034091E+03  0.00000000000E+00 0.  1.
         21   -1    0    0  501  503 -0.00000000000E+00 -0.00000000000E+00 -0.18607363146E+03  0.18607363146E+03  0.00000000000E+00 0.  1.
          6    1    1    2  501    0  0.84739329113E+02  0.58745004399E+01 -0.61916563715E+02  0.20157610105E+03  0.17200000000E+03 0.  1.
         -6    1    1    2    0  502 -0.84739329113E+02 -0.58745004399E+01  0.11501327317E+03  0.22366787131E+03  0.17200000000E+03 0.  1.
</event>
<event>
 4    1  0.1259333E+000  0.2240882E+03  0.7818608E-02  0.1130871E+00
         21   -1    0    0  503  502  0.00000000000E+00  0.00000000000E+00  0.17118367214E+03  0.17118367214E+03  0.00000000000E+00 0. -1.
         21   -1    0    0  501  503 -0.00000000000E+00 -0.00000000000E+00 -0.32976360451E+03  0.32976360451E+03  0.00000000000E+00 0. -1.
          6    1    1    2  501    0 -0.65209460417E+02 -0.12798151823E+03 -0.16253030943E+03  0.27682421177E+03  0.17200000000E+03 0.  1.
         -6    1    1    2    0  502  0.65209460417E+02  0.12798151823E+03  0.39503770671E+01  0.22412306489E+03  0.17200000000E+03 0.  1.
</event>
<event>
 4    1  0.1259333E+000  0.1864819E+03  0.7818608E-02  0.1161673E+00
         21   -1    0    0  501  502  0.00000000000E+00  0.00000000000E+00  0.14357506946E+03  0.14357506946E+03  0.00000000000E+00 0. -1.
         21   -1    0    0  502  503 -0.00000000000E+00 -0.00000000000E+00 -0.43594322491E+03  0.43594322491E+03  0.00000000000E+00 0. -1.
          6    1    1    2  501    0 -0.18094453585E+02 -0.69743086149E+02  0.46978397156E+02  0.19230828665E+03  0.17200000000E+03 0. -1.
         -6    1    1    2    0  503  0.18094453585E+02  0.69743086149E+02 -0.33934655260E+03  0.38721000772E+03  0.17200000000E+03 0. -1.
</event>
<event>
 4    1  0.1259333E+000  0.1784049E+03  0.7818608E-02  0.1169356E+00
         21   -1    0    0  501  502  0.00000000000E+00  0.00000000000E+00  0.50474478186E+02  0.50474478186E+02  0.00000000000E+00 0. -1.
         21   -1    0    0  502  503 -0.00000000000E+00 -0.00000000000E+00 -0.81857807097E+03  0.81857807097E+03  0.00000000000E+00 0. -1.
          6    1    1    2  501    0  0.47345927740E+02  0.16376058763E+01 -0.59228975125E+03  0.61857535358E+03  0.17200000000E+03 0. -1.
         -6    1    1    2    0  503 -0.47345927740E+02 -0.16376058763E+01 -0.17581384154E+03  0.25047719557E+03  0.17200000000E+03 0. -1.
</event>
<event>
 4    1  0.1259333E+000  0.2163527E+03  0.7818608E-02  0.1136632E+00
         21   -1    0    0  503  502  0.00000000000E+00  0.00000000000E+00  0.23968275813E+03  0.23968275813E+03  0.00000000000E+00 0.  1.
         21   -1    0    0  501  503 -0.00000000000E+00 -0.00000000000E+00 -0.20806910066E+03  0.20806910066E+03  0.00000000000E+00 0. -1.
          6    1    1    2  501    0  0.79650296135E+02  0.10430882009E+03  0.71281305447E+02  0.22779272185E+03  0.17200000000E+03 0.  1.
         -6    1    1    2    0  502 -0.79650296135E+02 -0.10430882009E+03 -0.39667647976E+02  0.21995913693E+03  0.17200000000E+03 0.  1.
</event>
<event>
 4    1  0.1259333E+000  0.2331332E+03  0.7818608E-02  0.1124454E+00
         21   -1    0    0  503  502  0.00000000000E+00  0.00000000000E+00  0.65341842515E+03  0.65341842515E+03  0.00000000000E+00 0.  1.
         21   -1    0    0  501  503 -0.00000000000E+00 -0.00000000000E+00 -0.85372487254E+02  0.85372487254E+02  0.00000000000E+00 0.  1.
          6    1    1    2  501    0  0.15065701494E+03 -0.45492133670E+02  0.34322582827E+03  0.41491570176E+03  0.17200000000E+03 0.  1.
         -6    1    1    2    0  502 -0.15065701494E+03  0.45492133670E+02  0.22482010963E+03  0.32387521064E+03  0.17200000000E+03 0.  1.
</event>
<event>
 4    1  0.1259333E+000  0.1837921E+03  0.7818608E-02  0.1164183E+00
         21   -1    0    0  501  502  0.00000000000E+00  0.00000000000E+00  0.18831442139E+04  0.18831442139E+04  0.00000000000E+00 0. -1.
         21   -1    0    0  502  503 -0.00000000000E+00 -0.00000000000E+00 -0.19713726423E+02  0.19713726423E+02  0.00000000000E+00 0. -1.
          6    1    1    2  501    0  0.64185725584E+02 -0.87020477278E+01  0.64615349642E+03  0.67178409771E+03  0.17200000000E+03 0. -1.
         -6    1    1    2    0  503 -0.64185725584E+02  0.87020477278E+01  0.12172769911E+04  0.12310738426E+04  0.17200000000E+03 0. -1.
</event>
<event>
 4    1  0.1259333E+000  0.2906439E+03  0.7818608E-02  0.1090013E+00
         21   -1    0    0  501  502  0.00000000000E+00  0.00000000000E+00  0.14089848036E+03  0.14089848036E+03  0.00000000000E+00 0.  1.
         21   -1    0    0  502  503 -0.00000000000E+00 -0.00000000000E+00 -0.60826904188E+03  0.60826904188E+03  0.00000000000E+00 0. -1.
          6    1    1    2  501    0  0.19757600049E+03 -0.12591103748E+03 -0.27856567679E+03  0.40258254013E+03  0.17200000000E+03 0. -1.
         -6    1    1    2    0  503 -0.19757600049E+03  0.12591103748E+03 -0.18880488472E+03  0.34658498211E+03  0.17200000000E+03 0. -1.
</event>
<event>
 4    1  0.1259333E+000  0.1984107E+03  0.7818608E-02  0.1151087E+00
         21   -1    0    0  501  502  0.00000000000E+00  0.00000000000E+00  0.20424325559E+03  0.20424325559E+03  0.00000000000E+00 0.  1.
         21   -1    0    0  502  503 -0.00000000000E+00 -0.00000000000E+00 -0.34558535926E+03  0.34558535926E+03  0.00000000000E+00 0.  1.
          6    1    1    2  501    0  0.97523682297E+02  0.16490686888E+02  0.11215542149E+03  0.22791588346E+03  0.17200000000E+03 0.  1.
         -6    1    1    2    0  503 -0.97523682297E+02 -0.16490686888E+02 -0.25349752517E+03  0.32191273139E+03  0.17200000000E+03 0.  1.
</event>
<event>
 4    1  0.1259333E+000  0.1772564E+03  0.7818608E-02  0.1170485E+00
         21   -1    0    0  503  502  0.00000000000E+00  0.00000000000E+00  0.21130666210E+03  0.21130666210E+03  0.00000000000E+00 0. -1.
         21   -1    0    0  501  503 -0.00000000000E+00 -0.00000000000E+00 -0.15971160189E+03  0.15971160189E+03  0.00000000000E+00 0.  1.
          6    1    1    2  501    0  0.41134277535E+02  0.11992232106E+02 -0.22928200111E+02  0.17873316642E+03  0.17200000000E+03 0.  1.
         -6    1    1    2    0  502 -0.41134277535E+02 -0.11992232106E+02  0.74523260315E+02  0.19228509757E+03  0.17200000000E+03 0.  1.
</event>
<event>
 4    1  0.1259333E+000  0.2029255E+03  0.7818608E-02  0.1147294E+00
         21   -1    0    0  503  502  0.00000000000E+00  0.00000000000E+00  0.90954583614E+02  0.90954583614E+02  0.00000000000E+00 0. -1.
         21   -1    0    0  501  503 -0.00000000000E+00 -0.00000000000E+00 -0.50086359394E+03  0.50086359394E+03  0.00000000000E+00 0. -1.
          6    1    1    2  501    0  0.10118293355E+03  0.36834139272E+02 -0.29667776902E+03  0.35943906088E+03  0.17200000000E+03 0. -1.
         -6    1    1    2    0  502 -0.10118293355E+03 -0.36834139272E+02 -0.11323124131E+03  0.23237911667E+03  0.17200000000E+03 0. -1.
</event>
<event>
 4    1  0.1259333E+000  0.1786584E+03  0.7818608E-02  0.1169108E+00
         21   -1    0    0  501  502  0.00000000000E+00  0.00000000000E+00  0.11637323393E+03  0.11637323393E+03  0.00000000000E+00 0.  1.
         21   -1    0    0  502  503 -0.00000000000E+00 -0.00000000000E+00 -0.28953039162E+03  0.28953039162E+03  0.00000000000E+00 0.  1.
          6    1    1    2  501    0  0.90689068434E+01 -0.47461499932E+02 -0.13315732224E+03  0.22282215221E+03  0.17200000000E+03 0.  1.
         -6    1    1    2    0  503 -0.90689068434E+01  0.47461499932E+02 -0.39999835450E+02  0.18308147335E+03  0.17200000000E+03 0.  1.
</event>
<event>
 4    1  0.1259333E+000  0.1734495E+03  0.7818608E-02  0.1174298E+00
         21   -1    0    0  503  502  0.00000000000E+00  0.00000000000E+00  0.93020098968E+03  0.93020098968E+03  0.00000000000E+00 0. -1.
         21   -1    0    0  501  503 -0.00000000000E+00 -0.00000000000E+00 -0.44758019242E+02  0.44758019242E+02  0.00000000000E+00 0. -1.
          6    1    1    2  501    0  0.22352841614E+02  0.10441103845E+01  0.18597249203E+03  0.25430396671E+03  0.17200000000E+03 0. -1.
         -6    1    1    2    0  502 -0.22352841614E+02 -0.10441103845E+01  0.69947047840E+03  0.72065504220E+03  0.17200000000E+03 0. -1.
</event>
<event>
 4    1  0.1259333E+000  0.1944086E+03  0.7818608E-02  0.1154544E+00
         21   -1    0    0  503  502  0.00000000000E+00  0.00000000000E+00  0.22916974113E+03  0.22916974113E+03  0.00000000000E+00 0.  1.
         21   -1    0    0  501  503 -0.00000000000E+00 -0.00000000000E+00 -0.20231877311E+03  0.20231877311E+03  0.00000000000E+00 0.  1.
          6    1    1    2  501    0 -0.86323371262E+02  0.27549294006E+02 -0.79332108363E+02  0.20997207301E+03  0.17200000000E+03 0.  1.
         -6    1    1    2    0  502  0.86323371262E+02 -0.27549294006E+02  0.10618307638E+03  0.22151644123E+03  0.17200000000E+03 0.  1.
</event>
<event>
 4    1  0.1259333E+000  0.1865656E+03  0.7818608E-02  0.1161596E+00
         21   -1    0    0  501  502  0.00000000000E+00  0.00000000000E+00  0.47242895091E+03  0.47242895091E+03  0.00000000000E+00 0.  1.
         21   -1    0    0  502  503 -0.00000000000E+00 -0.00000000000E+00 -0.82543986501E+02  0.82543986501E+02  0.00000000000E+00 0.  1.
          6    1    1    2  501    0  0.71080544977E+02 -0.13049103790E+02  0.28589382913E+03  0.34138249006E+03  0.17200000000E+03 0.  1.
         -6    1    1    2    0  503 -0.71080544977E+02  0.13049103790E+02  0.10399113528E+03  0.21359044735E+03  0.17200000000E+03 0.  1.
</event>
<event>
 4    1  0.1259333E+000  0.1770778E+03  0.7818608E-02  0.1170661E+00
         21   -1    0    0  501  502  0.00000000000E+00  0.00000000000E+00  0.10123519744E+04  0.10123519744E+04  0.00000000000E+00 0.  1.
         21   -1    0    0  502  503 -0.00000000000E+00 -0.00000000000E+00 -0.32260813523E+02  0.32260813523E+02  0.00000000000E+00 0.  1.
          6    1    1    2  501    0 -0.37849892742E+02 -0.18437438866E+02  0.59436173784E+03  0.62017935224E+03  0.17200000000E+03 0. -1.
         -6    1    1    2    0  503  0.37849892742E+02  0.18437438866E+02  0.38572942303E+03  0.42443343568E+03  0.17200000000E+03 0. -1.
</event>
<event>
 4    1  0.1259333E+000  0.1762302E+03  0.7818608E-02  0.1171502E+00
         21   -1    0    0  503  502  0.00000000000E+00  0.00000000000E+00  0.30302293971E+03  0.30302293971E+03  0.00000000000E+00 0.  1.
         21   -1    0    0  501  503 -0.00000000000E+00 -0.00000000000E+00 -0.11145323700E+03  0.11145323700E+03  0.00000000000E+00 0.  1.
          6    1    1    2  501    0  0.37980689480E+02  0.55269185691E+01  0.37017650477E+02  0.18007605629E+03  0.17200000000E+03 0.  1.
         -6    1    1    2    0  502 -0.37980689480E+02 -0.55269185691E+01  0.15455205224E+03  0.23440012042E+03  0.17200000000E+03 0.  1.
</event>
<event>
 4    1  0.1259333E+000  0.3628726E+03  0.7818608E-02  0.1057452E+00
         21   -1    0    0  503  502  0.00000000000E+00  0.00000000000E+00  0.25254537018E+04  0.25254537018E+04  0.00000000000E+00 0.  1.
         21   -1    0    0  501  503 -0.00000000000E+00 -0.00000000000E+00 -0.54550016606E+02  0.54550016606E+02  0.00000000000E+00 0. -1.
          6    1    1    2  501    0  0.31434399966E+03 -0.57274386956E+02  0.96429153579E+03  0.10303080469E+04  0.17200000000E+03 0.  1.
         -6    1    1    2    0  502 -0.31434399966E+03  0.57274386956E+02  0.15066121494E+04  0.15496956715E+04  0.17200000000E+03 0.  1.
</event>
<event>
 4    1  0.1259333E+000  0.1802046E+03  0.7818608E-02  0.1167605E+00
         21   -1    0    0  503  502  0.00000000000E+00  0.00000000000E+00  0.24749667963E+03  0.24749667963E+03  0.00000000000E+00 0. -1.
         21   -1    0    0  501  503 -0.00000000000E+00 -0.00000000000E+00 -0.16438956976E+03  0.16438956976E+03  0.00000000000E+00 0. -1.
          6    1    1    2  501    0  0.48064464771E+02  0.24072815006E+02 -0.50970508220E+02  0.18727435998E+03  0.17200000000E+03 0.  1.
         -6    1    1    2    0  502 -0.48064464771E+02 -0.24072815006E+02  0.13407761809E+03  0.22461188942E+03  0.17200000000E+03 0.  1.
</event>
<event>
 4    1  0.1259333E+000  0.1875523E+03  0.7818608E-02  0.1160688E+00
         21   -1    0    0  501  502  0.00000000000E+00  0.00000000000E+00  0.14021374947E+04  0.14021374947E+04  0.00000000000E+00 0.  1.
         21   -1    0    0  502  503 -0.00000000000E+00 -0.00000000000E+00 -0.25119469980E+02  0.25119469980E+02  0.00000000000E+00 0.  1.
          6    1    1    2  501    0 -0.62373978008E+02  0.41247338419E+02  0.71404391063E+03  0.73826456123E+03  0.17200000000E+03 0.  1.
         -6    1    1    2    0  503  0.62373978008E+02 -0.41247338419E+02  0.66297411410E+03  0.68899240346E+03  0.17200000000E+03 0.  1.
</event>
<event>
 4    1  0.1259333E+000  0.1750273E+03  0.7818608E-02  0.1172704E+00
         21   -1    0    0  501  502  0.00000000000E+00  0.00000000000E+00  0.91322179107E+02  0.91322179107E+02  0.00000000000E+00 0.  1.
         21   -1    0    0  502  503 -0.00000000000E+00 -0.00000000000E+00 -0.34275887113E+03  0.34275887113E+03  0.00000000000E+00 0.  1.
          6    1    1    2  501    0  0.25009705306E+02  0.20617047708E+02 -0.94037161924E+02  0.19868954637E+03  0.17200000000E+03 0.  1.
         -6    1    1    2    0  503 -0.25009705306E+02 -0.20617047708E+02 -0.15739953010E+03  0.23539150387E+03  0.17200000000E+03 0.  1.
</event>
<event>
 4    1  0.1259333E+000  0.2319315E+03  0.7818608E-02  0.1125288E+00
         21   -1    0    0  501  502  0.00000000000E+00  0.00000000000E+00  0.80901034270E+03  0.80901034270E+03  0.00000000000E+00 0.  1.
         21   -1    0    0  502  503 -0.00000000000E+00 -0.00000000000E+00 -0.75220186947E+02  0.75220186947E+02  0.00000000000E+00 0. -1.
          6    1    1    2  501    0 -0.80678929388E+01  0.15538064052E+03  0.21628808815E+03  0.31713210405E+03  0.17200000000E+03 0. -1.
         -6    1    1    2    0  503  0.80678929388E+01 -0.15538064052E+03  0.51750206760E+03  0.56709842560E+03  0.17200000000E+03 0.  1.
</event>
<event>
 4    1  0.1259333E+000  0.1778209E+03  0.7818608E-02  0.1169929E+00
         21   -1    0    0  503  502  0.00000000000E+00  0.00000000000E+00  0.85211703603E+02  0.85211703603E+02  0.00000000000E+00 0.  1.
         21   -1    0    0  501  503 -0.00000000000E+00 -0.00000000000E+00 -0.37315011166E+03  0.37315011166E+03  0.00000000000E+00 0.  1.
          6    1    1    2  501    0  0.10912904789E+02 -0.43785524343E+02 -0.12689459115E+03  0.21845480287E+03  0.17200000000E+03 0. -1.
         -6    1    1    2    0  502 -0.10912904789E+02  0.43785524343E+02 -0.16104381691E+03  0.23990701240E+03  0.17200000000E+03 0. -1.
</event>
<event>
 4    1  0.1259333E+000  0.1915964E+03  0.7818608E-02  0.1157029E+00
         21   -1    0    0  503  502  0.00000000000E+00  0.00000000000E+00  0.10134362286E+04  0.10134362286E+04  0.00000000000E+00 0.  1.
         21   -1    0    0  501  503 -0.00000000000E+00 -0.00000000000E+00 -0.60749325840E+02  0.60749325840E+02  0.00000000000E+00 0.  1.
          6    1    1    2  501    0  0.10884797522E+02  0.83706132202E+02  0.13507256506E+03  0.23442225410E+03  0.17200000000E+03 0.  1.
         -6    1    1    2    0  502 -0.10884797522E+02 -0.83706132202E+02  0.81761433771E+03  0.83976330035E+03  0.17200000000E+03 0.  1.
</event>
<event>
 4    1  0.1259333E+000  0.1962899E+03  0.7818608E-02  0.1152908E+00
         21   -1    0    0  503  502  0.00000000000E+00  0.00000000000E+00  0.34538940931E+03  0.34538940931E+03  0.00000000000E+00 0.  1.
         21   -1    0    0  501  503 -0.00000000000E+00 -0.00000000000E+00 -0.11196530781E+03  0.11196530781E+03  0.00000000000E+00 0.  1.
          6    1    1    2  501    0 -0.69129187773E+02  0.64551244007E+02  0.10285870832E+03  0.22160690780E+03  0.17200000000E+03 0.  1.
         -6    1    1    2    0  502  0.69129187773E+02 -0.64551244007E+02  0.13056539318E+03  0.23574780932E+03  0.17200000000E+03 0.  1.
</event>
<event>
 4    1  0.1259333E+000  0.2730314E+03  0.7818608E-02  0.1099557E+00
         21   -1    0    0  501  502  0.00000000000E+00  0.00000000000E+00  0.35178172502E+03  0.35178172502E+03  0.00000000000E+00 0. -1.
         21   -1    0    0  502  503 -0.00000000000E+00 -0.00000000000E+00 -0.48649943159E+03  0.48649943159E+03  0.00000000000E+00 0. -1.
          6    1    1    2  501    0  0.17905612984E+03  0.11358281073E+03  0.24753215008E+03  0.36853536852E+03  0.17200000000E+03 0. -1.
         -6    1    1    2    0  503 -0.17905612984E+03 -0.11358281073E+03 -0.38224985665E+03  0.46974578810E+03  0.17200000000E+03 0. -1.
</event>
<event>
 4    1  0.1259333E+000  0.2046169E+03  0.7818608E-02  0.1145901E+00
         21   -1    0    0  503  502  0.00000000000E+00  0.00000000000E+00  0.17832309430E+03  0.17832309430E+03  0.00000000000E+00 0. -1.
         21   -1    0    0  501  503 -0.00000000000E+00 -0.00000000000E+00 -0.42153979678E+03  0.42153979678E+03  0.00000000000E+00 0. -1.
          6    1    1    2  501    0 -0.93890545911E+02  0.58895113337E+02 -0.32124278588E+03  0.38087399028E+03  0.17200000000E+03 0. -1.
         -6    1    1    2    0  502  0.93890545911E+02 -0.58895113337E+02  0.78026083401E+02  0.21898890081E+03  0.17200000000E+03 0. -1.
</event>
<event>
 4    1  0.1259333E+000  0.2645017E+03  0.7818608E-02  0.1104468E+00
         21   -1    0    0  501  502  0.00000000000E+00  0.00000000000E+00  0.61169097946E+03  0.61169097946E+03  0.00000000000E+00 0. -1.
         21   -1    0    0  502  503 -0.00000000000E+00 -0.00000000000E+00 -0.24961790025E+03  0.24961790025E+03  0.00000000000E+00 0. -1.
          6    1    1    2  501    0 -0.15397303724E+03  0.12911030464E+03  0.49803043547E+03  0.56391088092E+03  0.17200000000E+03 0. -1.
         -6    1    1    2    0  503  0.15397303724E+03 -0.12911030464E+03 -0.13595735626E+03  0.29739799879E+03  0.17200000000E+03 0. -1.
</event>
<event>
 4    1  0.1259333E+000  0.4760702E+03  0.7818608E-02  0.1020221E+00
         21   -1    0    0  501  502  0.00000000000E+00  0.00000000000E+00  0.24056100719E+04  0.24056100719E+04  0.00000000000E+00 0. -1.
         21   -1    0    0  502  503 -0.00000000000E+00 -0.00000000000E+00 -0.10850372235E+03  0.10850372235E+03  0.00000000000E+00 0.  1.
          6    1    1    2  501    0  0.44261571615E+03  0.33914437321E+02  0.16047371254E+04  0.16738650193E+04  0.17200000000E+03 0. -1.
         -6    1    1    2    0  503 -0.44261571615E+03 -0.33914437321E+02  0.69236922422E+03  0.84024877500E+03  0.17200000000E+03 0.  1.
</event>
<event>
 4    1  0.1259333E+000  0.2667341E+03  0.7818608E-02  0.1103163E+00
         21   -1    0    0  501  502  0.00000000000E+00  0.00000000000E+00  0.67887131045E+02  0.67887131045E+02  0.00000000000E+00 0.  1.
         21   -1    0    0  502  503 -0.00000000000E+00 -0.00000000000E+00 -0.11627449791E+04  0.11627449791E+04  0.00000000000E+00 0.  1.
          6    1    1    2  501    0 -0.96526820976E+02 -0.17957078873E+03 -0.35415007623E+03  0.44336144603E+03  0.17200000000E+03 0.  1.
         -6    1    1    2    0  503  0.96526820976E+02  0.17957078873E+03 -0.74070777179E+03  0.78727066408E+03  0.17200000000E+03 0.  1.
</event>
<event>
 4    1  0.1259333E+000  0.1737088E+03  0.7818608E-02  0.1174034E+00
         21   -1    0    0  501  502  0.00000000000E+00  0.00000000000E+00  0.37970127447E+03  0.37970127447E+03  0.00000000000E+00 0.  1.
         21   -1    0    0  502  503 -0.00000000000E+00 -0.00000000000E+00 -0.80994319192E+02  0.80994319192E+02  0.00000000000E+00 0.  1.
          6    1    1    2  501    0  0.78414137656E+01 -0.23005905853E+02  0.18095678680E+03  0.25083882906E+03  0.17200000000E+03 0.  1.
         -6    1    1    2    0  503 -0.78414137656E+01  0.23005905853E+02  0.11775016848E+03  0.20985676461E+03  0.17200000000E+03 0.  1.
</event>
<event>
 4    1  0.1259333E+000  0.1769378E+03  0.7818608E-02  0.1170800E+00
         21   -1    0    0  503  502  0.00000000000E+00  0.00000000000E+00  0.54259566919E+03  0.54259566919E+03  0.00000000000E+00 0.  1.
         21   -1    0    0  501  503 -0.00000000000E+00 -0.00000000000E+00 -0.86328138548E+02  0.86328138548E+02  0.00000000000E+00 0.  1.
          6    1    1    2  501    0  0.21729696793E+02 -0.35366571244E+02  0.47041653218E+02  0.18308438279E+03  0.17200000000E+03 0.  1.
         -6    1    1    2    0  502 -0.21729696793E+02  0.35366571244E+02  0.40922587743E+03  0.44583942495E+03  0.17200000000E+03 0.  1.
</event>
<event>
 4    1  0.1259333E+000  0.3075017E+03  0.7818608E-02  0.1081550E+00
         21   -1    0    0  503  502  0.00000000000E+00  0.00000000000E+00  0.25521786233E+03  0.25521786233E+03  0.00000000000E+00 0.  1.
         21   -1    0    0  501  503 -0.00000000000E+00 -0.00000000000E+00 -0.68950887985E+03  0.68950887985E+03  0.00000000000E+00 0.  1.
          6    1    1    2  501    0  0.12307959568E+03 -0.22321453570E+03 -0.53844502657E+03  0.62006480505E+03  0.17200000000E+03 0.  1.
         -6    1    1    2    0  502 -0.12307959568E+03  0.22321453570E+03  0.10415400905E+03  0.32466193713E+03  0.17200000000E+03 0.  1.
</event>
<event>
 4    1  0.1259333E+000  0.1998961E+03  0.7818608E-02  0.1149827E+00
         21   -1    0    0  501  502  0.00000000000E+00  0.00000000000E+00  0.12055707863E+03  0.12055707863E+03  0.00000000000E+00 0.  1.
         21   -1    0    0  502  503 -0.00000000000E+00 -0.00000000000E+00 -0.41463362433E+03  0.41463362433E+03  0.00000000000E+00 0.  1.
          6    1    1    2  501    0 -0.29526196296E+02 -0.97481643449E+02 -0.27179714447E+02  0.20173548016E+03  0.17200000000E+03 0.  1.
         -6    1    1    2    0  503  0.29526196296E+02  0.97481643449E+02 -0.26689683125E+03  0.33345522280E+03  0.17200000000E+03 0.  1.
</event>
<event>
 4    1  0.1259333E+000  0.2536157E+03  0.7818608E-02  0.1111041E+00
         21   -1    0    0  503  502  0.00000000000E+00  0.00000000000E+00  0.65892766923E+03  0.65892766923E+03  0.00000000000E+00 0.  1.
         21   -1    0    0  501  503 -0.00000000000E+00 -0.00000000000E+00 -0.10119103549E+03  0.10119103549E+03  0.00000000000E+00 0.  1.
          6    1    1    2  501    0  0.18637268092E+03  0.14715239973E+01  0.20741747033E+03  0.32763233750E+03  0.17200000000E+03 0.  1.
         -6    1    1    2    0  502 -0.18637268092E+03 -0.14715239973E+01  0.35031916341E+03  0.43248636722E+03  0.17200000000E+03 0.  1.
</event>
<event>
 4    1  0.1259333E+000  0.3735413E+03  0.7818608E-02  0.1053347E+00
         21   -1    0    0  501  502  0.00000000000E+00  0.00000000000E+00  0.10176323200E+04  0.10176323200E+04  0.00000000000E+00 0. -1.
         21   -1    0    0  502  503 -0.00000000000E+00 -0.00000000000E+00 -0.13767211707E+03  0.13767211707E+03  0.00000000000E+00 0. -1.
          6    1    1    2  501    0 -0.25379322761E+03 -0.21339650555E+03  0.47671319589E+03  0.60563069778E+03  0.17200000000E+03 0. -1.
         -6    1    1    2    0  503  0.25379322761E+03  0.21339650555E+03  0.40324700703E+03  0.54967373927E+03  0.17200000000E+03 0. -1.
</event>
<event>
 4    1  0.1259333E+000  0.1745563E+03  0.7818608E-02  0.1173178E+00
         21   -1    0    0  503  502  0.00000000000E+00  0.00000000000E+00  0.31913078917E+03  0.31913078917E+03  0.00000000000E+00 0.  1.
         21   -1    0    0  501  503 -0.00000000000E+00 -0.00000000000E+00 -0.33089912434E+03  0.33089912434E+03  0.00000000000E+00 0.  1.
          6    1    1    2  501    0 -0.25644097304E+02  0.15108743443E+02 -0.28002799480E+03  0.32997813826E+03  0.17200000000E+03 0.  1.
         -6    1    1    2    0  502  0.25644097304E+02 -0.15108743443E+02  0.26825965963E+03  0.32005177525E+03  0.17200000000E+03 0.  1.
</event>
<event>
 4    1  0.1259333E+000  0.2126802E+03  0.7818608E-02  0.1139461E+00
         21   -1    0    0  501  502  0.00000000000E+00  0.00000000000E+00  0.19085475713E+03  0.19085475713E+03  0.00000000000E+00 0.  1.
         21   -1    0    0  502  503 -0.00000000000E+00 -0.00000000000E+00 -0.25633112852E+03  0.25633112852E+03  0.00000000000E+00 0.  1.
          6    1    1    2  501    0 -0.98594977503E+02 -0.76992914517E+02  0.28661804639E+02  0.21460283670E+03  0.17200000000E+03 0.  1.
         -6    1    1    2    0  503  0.98594977503E+02  0.76992914517E+02 -0.94138176028E+02  0.23258304895E+03  0.17200000000E+03 0.  1.
</event>
<event>
 4    1  0.1259333E+000  0.2140705E+03  0.7818608E-02  0.1138383E+00
         21   -1    0    0  503  502  0.00000000000E+00  0.00000000000E+00  0.12815867220E+03  0.12815867220E+03  0.00000000000E+00 0.  1.
         21   -1    0    0  501  503 -0.00000000000E+00 -0.00000000000E+00 -0.38474931964E+03  0.38474931964E+03  0.00000000000E+00 0.  1.
          6    1    1    2  501    0 -0.10997352923E+03  0.64405125739E+02 -0.19645203084E+03  0.29055050813E+03  0.17200000000E+03 0. -1.
         -6    1    1    2    0  502  0.10997352923E+03 -0.64405125739E+02 -0.60138616603E+02  0.22235748371E+03  0.17200000000E+03 0. -1.
</event>
<event>
 4    1  0.1259333E+000  0.1805972E+03  0.7818608E-02  0.1167226E+00
         21   -1    0    0  501  502  0.00000000000E+00  0.00000000000E+00  0.41889876780E+02  0.41889876780E+02  0.00000000000E+00 0. -1.
         21   -1    0    0  502  503 -0.00000000000E+00 -0.00000000000E+00 -0.91222361918E+03  0.91222361918E+03  0.00000000000E+00 0. -1.
          6    1    1    2  501    0  0.50446991564E+02 -0.22055705985E+02 -0.61775186159E+03  0.64360913264E+03  0.17200000000E+03 0. -1.
         -6    1    1    2    0  503 -0.50446991564E+02  0.22055705985E+02 -0.25258188081E+03  0.31050436331E+03  0.17200000000E+03 0. -1.
</event>
<event>
 4    1  0.1259333E+000  0.1830692E+03  0.7818608E-02  0.1164865E+00
         21   -1    0    0  501  502  0.00000000000E+00  0.00000000000E+00  0.20482845830E+02  0.20482845830E+02  0.00000000000E+00 0.  1.
         21   -1    0    0  502  503 -0.00000000000E+00 -0.00000000000E+00 -0.25661872868E+04  0.25661872868E+04  0.00000000000E+00 0. -1.
          6    1    1    2  501    0  0.23070900635E+02 -0.58292855572E+02 -0.49427433240E+03  0.52708769587E+03  0.17200000000E+03 0.  1.
         -6    1    1    2    0  503 -0.23070900635E+02  0.58292855572E+02 -0.20514301086E+04  0.20595824368E+04  0.17200000000E+03 0. -1.
</event>
<event>
 4    1  0.1259333E+000  0.2016277E+03  0.7818608E-02  0.1148373E+00
         21   -1    0    0  503  502  0.00000000000E+00  0.00000000000E+00  0.25625571665E+02  0.25625571665E+02  0.00000000000E+00 0. -1.
         21   -1    0    0  501  503 -0.00000000000E+00 -0.00000000000E+00 -0.17772479519E+04  0.17772479519E+04  0.00000000000E+00 0. -1.
          6    1    1    2  501    0  0.91102823363E+02 -0.52630786927E+02 -0.11711676744E+04  0.11883970068E+04  0.17200000000E+03 0.  1.
         -6    1    1    2    0  502 -0.91102823363E+02  0.52630786927E+02 -0.58045470583E+03  0.61447651678E+03  0.17200000000E+03 0.  1.
</event>
<event>
 4    1  0.1259333E+000  0.1823658E+03  0.7818608E-02  0.1165533E+00
         21   -1    0    0  501  502  0.00000000000E+00  0.00000000000E+00  0.84238060625E+02  0.84238060625E+02  0.00000000000E+00 0. -1.
         21   -1    0    0  502  503 -0.00000000000E+00 -0.00000000000E+00 -0.41033933929E+03  0.41033933929E+03  0.00000000000E+00 0. -1.
          6    1    1    2  501    0  0.16261865656E+02 -0.58385103667E+02 -0.11492956434E+03  0.21555990667E+03  0.17200000000E+03 0. -1.
         -6    1    1    2    0  503 -0.16261865656E+02  0.58385103667E+02 -0.21117171432E+03  0.27901749324E+03  0.17200000000E+03 0. -1.
</event>
<event>
 4    1  0.1259333E+000  0.1968958E+03  0.7818608E-02  0.1152385E+00
         21   -1    0    0  501  502  0.00000000000E+00  0.00000000000E+00  0.22950573554E+03  0.22950573554E+03  0.00000000000E+00 0.  1.
         21   -1    0    0  502  503 -0.00000000000E+00 -0.00000000000E+00 -0.25938531307E+03  0.25938531307E+03  0.00000000000E+00 0.  1.
          6    1    1    2  501    0 -0.22141976742E+02  0.93239901568E+02  0.12942196303E+03  0.23562256024E+03  0.17200000000E+03 0. -1.
         -6    1    1    2    0  503  0.22141976742E+02 -0.93239901568E+02 -0.15930154056E+03  0.25326848838E+03  0.17200000000E+03 0. -1.
</event>
<event>
 4    1  0.1259333E+000  0.1804770E+03  0.7818608E-02  0.1167342E+00
         21   -1    0    0  503  502  0.00000000000E+00  0.00000000000E+00  0.23439697414E+02  0.23439697414E+02  0.00000000000E+00 0. -1.
         21   -1    0    0  501  503 -0.00000000000E+00 -0.00000000000E+00 -0.14669211794E+04  0.14669211794E+04  0.00000000000E+00 0. -1.
          6    1    1    2  501    0  0.51384776122E+02  0.18643018448E+02 -0.89281665138E+03  0.91087514530E+03  0.17200000000E+03 0.  1.
         -6    1    1    2    0  502 -0.51384776122E+02 -0.18643018448E+02 -0.55066483056E+03  0.57948573147E+03  0.17200000000E+03 0.  1.
</event>
<event>
 4    1  0.1259333E+000  0.2110574E+03  0.7818608E-02  0.1140731E+00
         21   -1    0    0  501  502  0.00000000000E+00  0.00000000000E+00  0.20112065650E+03  0.20112065650E+03  0.00000000000E+00 0. -1.
         21   -1    0    0  502  503 -0.00000000000E+00 -0.00000000000E+00 -0.27206084696E+03  0.27206084696E+03  0.00000000000E+00 0.  1.
          6    1    1    2  501    0  0.87932771091E+02 -0.85023734486E+02  0.66538400602E+02  0.22129746138E+03  0.17200000000E+03 0. -1.
         -6    1    1    2    0  503 -0.87932771091E+02  0.85023734486E+02 -0.13747859106E+03  0.25188404209E+03  0.17200000000E+03 0. -1.
</event>
<event>
 4    1  0.1259333E+000  0.1889748E+03  0.7818608E-02  0.1159389E+00
         21   -1    0    0  503  502  0.00000000000E+00  0.00000000000E+00  0.31773880534E+03  0.31773880534E+03  0.00000000000E+00 0.  1.
         21   -1    0    0  501  503 -0.00000000000E+00 -0.00000000000E+00 -0.13459791106E+03  0.13459791106E+03  0.00000000000E+00 0.  1.
          6    1    1    2  501    0  0.19196819048E+02  0.75887717600E+02 -0.29283211458E+00  0.18897499648E+03  0.17200000000E+03 0. -1.
         -6    1    1    2    0  502 -0.19196819048E+02 -0.75887717600E+02  0.18343372639E+03  0.26336171993E+03  0.17200000000E+03 0. -1.
</event>
<event>
 4    1  0.1259333E+000  0.2068177E+03  0.7818608E-02  0.1144111E+00
         21   -1    0    0  503  502  0.00000000000E+00  0.00000000000E+00  0.59111311997E+02  0.59111311997E+02  0.00000000000E+00 0. -1.
         21   -1    0    0  501  503 -0.00000000000E+00 -0.00000000000E+00 -0.11570939381E+04  0.11570939381E+04  0.00000000000E+00 0. -1.
          6    1    1    2  501    0 -0.90845568922E+02  0.70261174591E+02 -0.92119353296E+03  0.94412450197E+03  0.17200000000E+03 0. -1.
         -6    1    1    2    0  502  0.90845568922E+02 -0.70261174591E+02 -0.17678909314E+03  0.27208074813E+03  0.17200000000E+03 0. -1.
</event>
<event>
 4    1  0.1259333E+000  0.2752011E+03  0.7818608E-02  0.1098339E+00
         21   -1    0    0  501  502  0.00000000000E+00  0.00000000000E+00  0.15861309225E+04  0.15861309225E+04  0.00000000000E+00 0.  1.
         21   -1    0    0  502  503 -0.00000000000E+00 -0.00000000000E+00 -0.84291592711E+02  0.84291592711E+02  0.00000000000E+00 0. -1.
          6    1    1    2  501    0  0.20951329441E+03 -0.47495303899E+02  0.13008477690E+04  0.13296392528E+04  0.17200000000E+03 0.  1.
         -6    1    1    2    0  503 -0.20951329441E+03  0.47495303899E+02  0.20099156074E+03  0.34078326238E+03  0.17200000000E+03 0.  1.
</event>
<event>
 4    1  0.1259333E+000  0.2379458E+03  0.7818608E-02  0.1121169E+00
         21   -1    0    0  503  502  0.00000000000E+00  0.00000000000E+00  0.50912391468E+02  0.50912391468E+02  0.00000000000E+00 0.  1.
         21   -1    0    0  501  503 -0.00000000000E+00 -0.00000000000E+00 -0.11162149557E+04  0.11162149557E+04  0.00000000000E+00 0.  1.
          6    1    1    2  501    0  0.15851530323E+03  0.43670181250E+02 -0.49709387205E+03  0.55110843190E+03  0.17200000000E+03 0. -1.
         -6    1    1    2    0  502 -0.15851530323E+03 -0.43670181250E+02 -0.56820869218E+03  0.61601891526E+03  0.17200000000E+03 0. -1.
</event>
<event>
 4    1  0.1259333E+000  0.1986390E+03  0.7818608E-02  0.1150892E+00
         21   -1    0    0  501  502  0.00000000000E+00  0.00000000000E+00  0.35748157921E+03  0.35748157921E+03  0.00000000000E+00 0.  1.
         21   -1    0    0  502  503 -0.00000000000E+00 -0.00000000000E+00 -0.17346139480E+03  0.17346139480E+03  0.00000000000E+00 0.  1.
          6    1    1    2  501    0  0.30471394496E+02 -0.94577642381E+02 -0.68085878252E+02  0.20998362588E+03  0.17200000000E+03 0.  1.
         -6    1    1    2    0  503 -0.30471394496E+02  0.94577642381E+02  0.25210606267E+03  0.32095934813E+03  0.17200000000E+03 0.  1.
</event>
<event>
 4    1  0.1259333E+000  0.2173672E+03  0.7818608E-02  0.1135861E+00
         21   -1    0    0  503  502  0.00000000000E+00  0.00000000000E+00  0.10887849684E+04  0.10887849684E+04  0.00000000000E+00 0. -1.
         21   -1    0    0  501  503 -0.00000000000E+00 -0.00000000000E+00 -0.54127728024E+02  0.54127728024E+02  0.00000000000E+00 0.  1.
          6    1    1    2  501    0  0.34639452735E+02  0.12831456978E+03  0.26287110853E+03  0.34110077719E+03  0.17200000000E+03 0.  1.
         -6    1    1    2    0  502 -0.34639452735E+02 -0.12831456978E+03  0.77178613180E+03  0.80181191919E+03  0.17200000000E+03 0.  1.
</event>
<event>
 4    1  0.1259333E+000  0.1772678E+03  0.7818608E-02  0.1170474E+00
         21   -1    0    0  501  502  0.00000000000E+00  0.00000000000E+00  0.12038446957E+03  0.12038446957E+03  0.00000000000E+00 0. -1.
         21   -1    0    0  502  503 -0.00000000000E+00 -0.00000000000E+00 -0.51700019040E+03  0.51700019040E+03  0.00000000000E+00 0. -1.
          6    1    1    2  501    0 -0.33642833117E+02 -0.26608807938E+02  0.25936528184E+02  0.17915516285E+03  0.17200000000E+03 0. -1.
         -6    1    1    2    0  503  0.33642833117E+02  0.26608807938E+02 -0.42255224902E+03  0.45822949712E+03  0.17200000000E+03 0. -1.
</event>
<event>
 4    1  0.1259333E+000  0.3670722E+03  0.7818608E-02  0.1055818E+00
         21   -1    0    0  503  502  0.00000000000E+00  0.00000000000E+00  0.20223778221E+04  0.20223778221E+04  0.00000000000E+00 0. -1.
         21   -1    0    0  501  503 -0.00000000000E+00 -0.00000000000E+00 -0.14015799770E+03  0.14015799770E+03  0.00000000000E+00 0.  1.
          6    1    1    2  501    0  0.30008082248E+03 -0.12292063350E+03  0.15792563552E+03  0.39960291354E+03  0.17200000000E+03 0. -1.
         -6    1    1    2    0  502 -0.30008082248E+03  0.12292063350E+03  0.17242941888E+04  0.17629329062E+04  0.17200000000E+03 0.  1.
</event>
<event>
 4    1  0.1259333E+000  0.1720812E+03  0.7818608E-02  0.1175695E+00
         21   -1    0    0  501  502  0.00000000000E+00  0.00000000000E+00  0.29788440726E+03  0.29788440726E+03  0.00000000000E+00 0.  1.
         21   -1    0    0  502  503 -0.00000000000E+00 -0.00000000000E+00 -0.22599026447E+03  0.22599026447E+03  0.00000000000E+00 0.  1.
          6    1    1    2  501    0 -0.49268645623E+01  0.19104355836E+01  0.23198492855E+03  0.28884066686E+03  0.17200000000E+03 0.  1.
         -6    1    1    2    0  503  0.49268645623E+01 -0.19104355836E+01 -0.16009078576E+03  0.23503400487E+03  0.17200000000E+03 0.  1.
</event>
<event>
 4    1  0.1259333E+000  0.2476660E+03  0.7818608E-02  0.1114789E+00
         21   -1    0    0  503  502  0.00000000000E+00  0.00000000000E+00  0.76880813384E+03  0.76880813384E+03  0.00000000000E+00 0.  1.
         21   -1    0    0  501  503 -0.00000000000E+00 -0.00000000000E+00 -0.80477672402E+02  0.80477672402E+02  0.00000000000E+00 0. -1.
          6    1    1    2  501    0  0.70047258864E+02 -0.16385311592E+03  0.30473632676E+03  0.39268650463E+03  0.17200000000E+03 0.  1.
         -6    1    1    2    0  502 -0.70047258864E+02  0.16385311592E+03  0.38359413469E+03  0.45659930162E+03  0.17200000000E+03 0. -1.
</event>
<event>
 4    1  0.1259333E+000  0.2253771E+03  0.7818608E-02  0.1129936E+00
         21   -1    0    0  501  502  0.00000000000E+00  0.00000000000E+00  0.20819347211E+03  0.20819347211E+03  0.00000000000E+00 0.  1.
         21   -1    0    0  502  503 -0.00000000000E+00 -0.00000000000E+00 -0.24495161045E+03  0.24495161045E+03  0.00000000000E+00 0.  1.
          6    1    1    2  501    0 -0.57702641466E+02  0.13372084108E+03 -0.41028934796E+01  0.22541448912E+03  0.17200000000E+03 0.  1.
         -6    1    1    2    0  503  0.57702641466E+02 -0.13372084108E+03 -0.32655244855E+02  0.22773059344E+03  0.17200000000E+03 0.  1.
</event>
<event>
 4    1  0.1259333E+000  0.2700571E+03  0.7818608E-02  0.1101247E+00
         21   -1    0    0  501  502  0.00000000000E+00  0.00000000000E+00  0.32666674163E+03  0.32666674163E+03  0.00000000000E+00 0.  1.
         21   -1    0    0  502  503 -0.00000000000E+00 -0.00000000000E+00 -0.49498393153E+03  0.49498393153E+03  0.00000000000E+00 0. -1.
          6    1    1    2  501    0 -0.35798210987E+02  0.20509828859E+03  0.22022943060E+03  0.34847069029E+03  0.17200000000E+03 0.  1.
         -6    1    1    2    0  503  0.35798210987E+02 -0.20509828859E+03 -0.38854662049E+03  0.47317998287E+03  0.17200000000E+03 0. -1.
</event>
<event>
 4    1  0.1259333E+000  0.2303064E+03  0.7818608E-02  0.1126424E+00
         21   -1    0    0  501  502  0.00000000000E+00  0.00000000000E+00  0.37190474150E+03  0.37190474150E+03  0.00000000000E+00 0. -1.
         21   -1    0    0  502  503 -0.00000000000E+00 -0.00000000000E+00 -0.14884405263E+03  0.14884405263E+03  0.00000000000E+00 0. -1.
          6    1    1    2  501    0 -0.35040301971E+01  0.15311679524E+03  0.16477442376E+03  0.28318128812E+03  0.17200000000E+03 0.  1.
         -6    1    1    2    0  503  0.35040301971E+01 -0.15311679524E+03  0.58286265116E+02  0.23756750601E+03  0.17200000000E+03 0.  1.
</event>
<event>
 4    1  0.1259333E+000  0.1878217E+03  0.7818608E-02  0.1160441E+00
         21   -1    0    0  503  502  0.00000000000E+00  0.00000000000E+00  0.34431863168E+02  0.34431863168E+02  0.00000000000E+00 0. -1.
         21   -1    0    0  501  503 -0.00000000000E+00 -0.00000000000E+00 -0.13498580136E+04  0.13498580136E+04  0.00000000000E+00 0. -1.
          6    1    1    2  501    0  0.65364362215E+02  0.37689231549E+02 -0.99749792931E+03  0.10150266484E+04  0.17200000000E+03 0. -1.
         -6    1    1    2    0  502 -0.65364362215E+02 -0.37689231549E+02 -0.31792822110E+03  0.36926322832E+03  0.17200000000E+03 0. -1.
</event>
<event>
 4    1  0.1259333E+000  0.2966527E+03  0.7818608E-02  0.1086926E+00
         21   -1    0    0  501  502  0.00000000000E+00  0.00000000000E+00  0.10771787202E+04  0.10771787202E+04  0.00000000000E+00 0. -1.
         21   -1    0    0  502  503 -0.00000000000E+00 -0.00000000000E+00 -0.89360674445E+02  0.89360674445E+02  0.00000000000E+00 0.  1.
          6    1    1    2  501    0 -0.19618470029E+02  0.24090239650E+03  0.66471359254E+03  0.72790590677E+03  0.17200000000E+03 0. -1.
         -6    1    1    2    0  503  0.19618470029E+02 -0.24090239650E+03  0.32310445326E+03  0.43863348792E+03  0.17200000000E+03 0.  1.
</event>
<event>
 4    1  0.1259333E+000  0.1814181E+03  0.7818608E-02  0.1166438E+00
         21   -1    0    0  503  502  0.00000000000E+00  0.00000000000E+00  0.48399134590E+03  0.48399134590E+03  0.00000000000E+00 0. -1.
         21   -1    0    0  501  503 -0.00000000000E+00 -0.00000000000E+00 -0.15660277412E+03  0.15660277412E+03  0.00000000000E+00 0. -1.
          6    1    1    2  501    0  0.35163896350E+02 -0.45738561664E+02 -0.77224849380E+02  0.19717046683E+03  0.17200000000E+03 0. -1.
         -6    1    1    2    0  502 -0.35163896350E+02  0.45738561664E+02  0.40461342115E+03  0.44342365319E+03  0.17200000000E+03 0. -1.
</event>
<event>
 4    1  0.1259333E+000  0.1827954E+03  0.7818608E-02  0.1165125E+00
         21   -1    0    0  503  502  0.00000000000E+00  0.00000000000E+00  0.51156527429E+03  0.51156527429E+03  0.00000000000E+00 0. -1.
         21   -1    0    0  501  503 -0.00000000000E+00 -0.00000000000E+00 -0.95861083710E+02  0.95861083710E+02  0.00000000000E+00 0. -1.
          6    1    1    2  501    0  0.32175893955E+02 -0.52866455407E+02  0.36415841280E+02  0.18638740235E+03  0.17200000000E+03 0. -1.
         -6    1    1    2    0  502 -0.32175893955E+02  0.52866455407E+02  0.37928834930E+03  0.42103895565E+03  0.17200000000E+03 0. -1.
</event>
<event>
 4    1  0.1259333E+000  0.2084243E+03  0.7818608E-02  0.1142820E+00
         21   -1    0    0  501  502  0.00000000000E+00  0.00000000000E+00  0.15711717812E+03  0.15711717812E+03  0.00000000000E+00 0.  1.
         21   -1    0    0  502  503 -0.00000000000E+00 -0.00000000000E+00 -0.67320488521E+03  0.67320488521E+03  0.00000000000E+00 0.  1.
          6    1    1    2  501    0 -0.11403969191E+03  0.29182654709E+02  0.60657908948E+02  0.21707155637E+03  0.17200000000E+03 0.  1.
         -6    1    1    2    0  503  0.11403969191E+03 -0.29182654709E+02 -0.57674561604E+03  0.61325050696E+03  0.17200000000E+03 0.  1.
</event>
<event>
 4    1  0.1259333E+000  0.2285115E+03  0.7818608E-02  0.1127692E+00
         21   -1    0    0  503  502  0.00000000000E+00  0.00000000000E+00  0.56681626334E+03  0.56681626334E+03  0.00000000000E+00 0. -1.
         21   -1    0    0  501  503 -0.00000000000E+00 -0.00000000000E+00 -0.13735253658E+03  0.13735253658E+03  0.00000000000E+00 0. -1.
          6    1    1    2  501    0 -0.14954379092E+03 -0.16436303651E+02  0.12693553936E+02  0.22886376688E+03  0.17200000000E+03 0.  1.
         -6    1    1    2    0  502  0.14954379092E+03  0.16436303651E+02  0.41677017283E+03  0.47530503304E+03  0.17200000000E+03 0.  1.
</event>
<event>
 4    1  0.1259333E+000  0.3049857E+03  0.7818608E-02  0.1082775E+00
         21   -1    0    0  503  502  0.00000000000E+00  0.00000000000E+00  0.23416422543E+03  0.23416422543E+03  0.00000000000E+00 0.  1.
         21   -1    0    0  501  503 -0.00000000000E+00 -0.00000000000E+00 -0.56599763200E+03  0.56599763200E+03  0.00000000000E+00 0. -1.
          6    1    1    2  501    0  0.73165550683E+02  0.24099596698E+03 -0.38438555407E+03  0.49068167694E+03  0.17200000000E+03 0.  1.
         -6    1    1    2    0  502 -0.73165550683E+02 -0.24099596698E+03  0.52552147499E+02  0.30948018049E+03  0.17200000000E+03 0.  1.
</event>
<event>
 4    1  0.1259333E+000  0.1898890E+03  0.7818608E-02  0.1158561E+00
         21   -1    0    0  503  502  0.00000000000E+00  0.00000000000E+00  0.50783464852E+03  0.50783464852E+03  0.00000000000E+00 0.  1.
         21   -1    0    0  501  503 -0.00000000000E+00 -0.00000000000E+00 -0.17374133393E+03  0.17374133393E+03  0.00000000000E+00 0.  1.
          6    1    1    2  501    0 -0.55054233460E+02 -0.58675960588E+02 -0.95012140151E+02  0.21233262526E+03  0.17200000000E+03 0.  1.
         -6    1    1    2    0  502  0.55054233460E+02  0.58675960588E+02  0.42910545474E+03  0.46924335718E+03  0.17200000000E+03 0.  1.
</event>
<event>
 4    1  0.1259333E+000  0.2184809E+03  0.7818608E-02  0.1135021E+00
         21   -1    0    0  503  502  0.00000000000E+00  0.00000000000E+00  0.46785846148E+03  0.46785846148E+03  0.00000000000E+00 0.  1.
         21   -1    0    0  501  503 -0.00000000000E+00 -0.00000000000E+00 -0.11035333261E+03  0.11035333261E+03  0.00000000000E+00 0.  1.
          6    1    1    2  501    0 -0.11499251064E+03 -0.70190060144E+02  0.99336871451E+02  0.24000361680E+03  0.17200000000E+03 0.  1.
         -6    1    1    2    0  502  0.11499251064E+03  0.70190060144E+02  0.25816825742E+03  0.33820817729E+03  0.17200000000E+03 0.  1.
</event>
<event>
 4    1  0.1259333E+000  0.2031999E+03  0.7818608E-02  0.1147067E+00
         21   -1    0    0  501  502  0.00000000000E+00  0.00000000000E+00  0.17393110082E+03  0.17393110082E+03  0.00000000000E+00 0.  1.
         21   -1    0    0  502  503 -0.00000000000E+00 -0.00000000000E+00 -0.31747887488E+03  0.31747887488E+03  0.00000000000E+00 0.  1.
          6    1    1    2  501    0 -0.59181063393E+01  0.10803313814E+03  0.51630917823E+02  0.20965670653E+03  0.17200000000E+03 0.  1.
         -6    1    1    2    0  503  0.59181063393E+01 -0.10803313814E+03 -0.19517869189E+03  0.28175326917E+03  0.17200000000E+03 0.  1.
</event>
<event>
 4    1  0.1259333E+000  0.1775235E+03  0.7818608E-02  0.1170222E+00
         21   -1    0    0  501  502  0.00000000000E+00  0.00000000000E+00  0.62092293207E+03  0.62092293207E+03  0.00000000000E+00 0. -1.
         21   -1    0    0  502  503 -0.00000000000E+00 -0.00000000000E+00 -0.65751574365E+02  0.65751574365E+02  0.00000000000E+00 0. -1.
          6    1    1    2  501    0 -0.13433049307E+02 -0.41834830173E+02  0.44155851001E+03  0.47590809784E+03  0.17200000000E+03 0. -1.
         -6    1    1    2    0  503  0.13433049307E+02  0.41834830173E+02  0.11361284769E+03  0.21076640859E+03  0.17200000000E+03 0. -1.
</event>
<event>
 4    1  0.1259333E+000  0.2262220E+03  0.7818608E-02  0.1129328E+00
         21   -1    0    0  501  502  0.00000000000E+00  0.00000000000E+00  0.81443747526E+03  0.81443747526E+03  0.00000000000E+00 0.  1.
         21   -1    0    0  502  503 -0.00000000000E+00 -0.00000000000E+00 -0.62856175600E+02  0.62856175600E+02  0.00000000000E+00 0. -1.
          6    1    1    2  501    0  0.14012823960E+03  0.44231812754E+02  0.36802415885E+03  0.43199323871E+03  0.17200000000E+03 0. -1.
         -6    1    1    2    0  503 -0.14012823960E+03 -0.44231812754E+02  0.38355714080E+03  0.44530041214E+03  0.17200000000E+03 0.  1.
</event>
<event>
 4    1  0.1259333E+000  0.1839090E+03  0.7818608E-02  0.1164073E+00
         21   -1    0    0  501  502  0.00000000000E+00  0.00000000000E+00  0.29962970308E+03  0.29962970308E+03  0.00000000000E+00 0.  1.
         21   -1    0    0  502  503 -0.00000000000E+00 -0.00000000000E+00 -0.12407445251E+03  0.12407445251E+03  0.00000000000E+00 0.  1.
          6    1    1    2  501    0 -0.45435213588E+02  0.46627911855E+02  0.24146110593E+02  0.18548734581E+03  0.17200000000E+03 0.  1.
         -6    1    1    2    0  503  0.45435213588E+02 -0.46627911855E+02  0.15140913997E+03  0.23821680979E+03  0.17200000000E+03 0.  1.
</event>
<event>
 4    1  0.1259333E+000  0.1962441E+03  0.7818608E-02  0.1152947E+00
         21   -1    0    0  503  502  0.00000000000E+00  0.00000000000E+00  0.21962663150E+04  0.21962663150E+04  0.00000000000E+00 0. -1.
         21   -1    0    0  501  503 -0.00000000000E+00 -0.00000000000E+00 -0.33297657328E+02  0.33297657328E+02  0.00000000000E+00 0. -1.
          6    1    1    2  501    0 -0.30431299987E+02  0.89452194596E+02  0.31448253200E+03  0.37068992712E+03  0.17200000000E+03 0. -1.
         -6    1    1    2    0  502  0.30431299987E+02 -0.89452194596E+02  0.18484861257E+04  0.18588740452E+04  0.17200000000E+03 0. -1.
</event>
<event>
 4    1  0.1259333E+000  0.1729049E+03  0.7818608E-02  0.1174852E+00
         21   -1    0    0  503  502  0.00000000000E+00  0.00000000000E+00  0.29329026177E+03  0.29329026177E+03  0.00000000000E+00 0. -1.
         21   -1    0    0  501  503 -0.00000000000E+00 -0.00000000000E+00 -0.22019911692E+03  0.22019911692E+03  0.00000000000E+00 0. -1.
          6    1    1    2  501    0  0.14241412859E+02  0.10453541751E+02 -0.15161255698E+03  0.22996187033E+03  0.17200000000E+03 0. -1.
         -6    1    1    2    0  502 -0.14241412859E+02 -0.10453541751E+02  0.22470370183E+03  0.28352750835E+03  0.17200000000E+03 0. -1.
</event>
<event>
 4    1  0.1259333E+000  0.2357932E+03  0.7818608E-02  0.1122627E+00
         21   -1    0    0  503  502  0.00000000000E+00  0.00000000000E+00  0.62032344535E+02  0.62032344535E+02  0.00000000000E+00 0.  1.
         21   -1    0    0  501  503 -0.00000000000E+00 -0.00000000000E+00 -0.95114869221E+03  0.95114869221E+03  0.00000000000E+00 0. -1.
          6    1    1    2  501    0  0.15016849256E+03  0.58854698141E+02 -0.56622961531E+03  0.61336321124E+03  0.17200000000E+03 0. -1.
         -6    1    1    2    0  502 -0.15016849256E+03 -0.58854698141E+02 -0.32288673236E+03  0.39981782550E+03  0.17200000000E+03 0.  1.
</event>
<event>
 4    1  0.1259333E+000  0.2045496E+03  0.7818608E-02  0.1145956E+00
         21   -1    0    0  503  502  0.00000000000E+00  0.00000000000E+00  0.83532010890E+03  0.83532010890E+03  0.00000000000E+00 0. -1.
         21   -1    0    0  501  503 -0.00000000000E+00 -0.00000000000E+00 -0.67027571291E+02  0.67027571291E+02  0.00000000000E+00 0. -1.
          6    1    1    2  501    0  0.10444978480E+03  0.36698560477E+02  0.61095125381E+03  0.64428408053E+03  0.17200000000E+03 0. -1.
         -6    1    1    2    0  502 -0.10444978480E+03 -0.36698560477E+02  0.15734128380E+03  0.25806359967E+03  0.17200000000E+03 0. -1.
</event>
<event>
 4    1  0.1259333E+000  0.2781828E+03  0.7818608E-02  0.1096686E+00
         21   -1    0    0  501  502  0.00000000000E+00  0.00000000000E+00  0.29541416096E+03  0.29541416096E+03  0.00000000000E+00 0. -1.
         21   -1    0    0  502  503 -0.00000000000E+00 -0.00000000000E+00 -0.45958243663E+03  0.45958243663E+03  0.00000000000E+00 0. -1.
          6    1    1    2  501    0  0.21736861306E+03 -0.23506165935E+02 -0.32962977673E+03  0.43132521777E+03  0.17200000000E+03 0. -1.
         -6    1    1    2    0  503 -0.21736861306E+03  0.23506165935E+02  0.16546150106E+03  0.32367137982E+03  0.17200000000E+03 0. -1.
</event>
<event>
 4    1  0.1259333E+000  0.1984091E+03  0.7818608E-02  0.1151088E+00
         21   -1    0    0  503  502  0.00000000000E+00  0.00000000000E+00  0.85284979966E+02  0.85284979966E+02  0.00000000000E+00 0.  1.
         21   -1    0    0  501  503 -0.00000000000E+00 -0.00000000000E+00 -0.56397407475E+03  0.56397407475E+03  0.00000000000E+00 0. -1.
          6    1    1    2  501    0 -0.72766395100E+01 -0.98636775459E+02 -0.37766546382E+03  0.42661149248E+03  0.17200000000E+03 0. -1.
         -6    1    1    2    0  502  0.72766395100E+01  0.98636775459E+02 -0.10102363096E+03  0.22264756223E+03  0.17200000000E+03 0.  1.
</event>
<event>
 4    1  0.1259333E+000  0.1949194E+03  0.7818608E-02  0.1154098E+00
         21   -1    0    0  503  502  0.00000000000E+00  0.00000000000E+00  0.16232087695E+03  0.16232087695E+03  0.00000000000E+00 0.  1.
         21   -1    0    0  501  503 -0.00000000000E+00 -0.00000000000E+00 -0.65735814104E+03  0.65735814104E+03  0.00000000000E+00 0.  1.
          6    1    1    2  501    0 -0.84232525838E+02 -0.36255616027E+02 -0.57639568104E+03  0.60846164154E+03  0.17200000000E+03 0.  1.
         -6    1    1    2    0  502  0.84232525838E+02  0.36255616027E+02  0.81358416963E+02  0.21121737645E+03  0.17200000000E+03 0.  1.
</event>
<event>
 4    1  0.1259333E+000  0.2842923E+03  0.7818608E-02  0.1093367E+00
         21   -1    0    0  503  502  0.00000000000E+00  0.00000000000E+00  0.23449554116E+04  0.23449554116E+04  0.00000000000E+00 0. -1.
         21   -1    0    0  501  503 -0.00000000000E+00 -0.00000000000E+00 -0.68772128854E+02  0.68772128854E+02  0.00000000000E+00 0.  1.
          6    1    1    2  501    0 -0.11986088469E+01 -0.22635518001E+03  0.28570718370E+03  0.40305173241E+03  0.17200000000E+03 0.  1.
         -6    1    1    2    0  502  0.11986088469E+01  0.22635518001E+03  0.19904760990E+04  0.20106758080E+04  0.17200000000E+03 0. -1.
</event>
<event>
 4    1  0.1259333E+000  0.2177172E+03  0.7818608E-02  0.1135597E+00
         21   -1    0    0  503  502  0.00000000000E+00  0.00000000000E+00  0.16453250163E+03  0.16453250163E+03  0.00000000000E+00 0.  1.
         21   -1    0    0  501  503 -0.00000000000E+00 -0.00000000000E+00 -0.48704733043E+03  0.48704733043E+03  0.00000000000E+00 0.  1.
          6    1    1    2  501    0  0.43744318649E+02  0.12610788402E+03 -0.36948011591E+03  0.42885466056E+03  0.17200000000E+03 0.  1.
         -6    1    1    2    0  502 -0.43744318649E+02 -0.12610788402E+03  0.46965287114E+02  0.22272517150E+03  0.17200000000E+03 0.  1.
</event>
<event>
 4    1  0.1259333E+000  0.1890923E+03  0.7818608E-02  0.1159283E+00
         21   -1    0    0  503  502  0.00000000000E+00  0.00000000000E+00  0.63047511974E+03  0.63047511974E+03  0.00000000000E+00 0. -1.
         21   -1    0    0  501  503 -0.00000000000E+00 -0.00000000000E+00 -0.66072389269E+02  0.66072389269E+02  0.00000000000E+00 0. -1.
          6    1    1    2  501    0  0.26728763478E+01 -0.78515981011E+02  0.41328335694E+03  0.45448766393E+03  0.17200000000E+03 0. -1.
         -6    1    1    2    0  502 -0.26728763478E+01  0.78515981011E+02  0.15111937353E+03  0.24205984507E+03  0.17200000000E+03 0. -1.
</event>
<event>
 4    1  0.1259333E+000  0.1724259E+03  0.7818608E-02  0.1175341E+00
         21   -1    0    0  501  502  0.00000000000E+00  0.00000000000E+00  0.14757484259E+03  0.14757484259E+03  0.00000000000E+00 0.  1.
         21   -1    0    0  502  503 -0.00000000000E+00 -0.00000000000E+00 -0.44609284800E+03  0.44609284800E+03  0.00000000000E+00 0.  1.
          6    1    1    2  501    0  0.82490752143E+01  0.88685872461E+01  0.70555600865E+02  0.18630295729E+03  0.17200000000E+03 0.  1.
         -6    1    1    2    0  503 -0.82490752143E+01 -0.88685872461E+01 -0.36907360628E+03  0.40736473330E+03  0.17200000000E+03 0.  1.
</event>
<event>
 4    1  0.1259333E+000  0.2554744E+03  0.7818608E-02  0.1109893E+00
         21   -1    0    0  501  502  0.00000000000E+00  0.00000000000E+00  0.66830296750E+03  0.66830296750E+03  0.00000000000E+00 0.  1.
         21   -1    0    0  502  503 -0.00000000000E+00 -0.00000000000E+00 -0.12725803174E+03  0.12725803174E+03  0.00000000000E+00 0.  1.
          6    1    1    2  501    0 -0.13244817973E+03 -0.13468716542E+03  0.46235611490E+03  0.52824268081E+03  0.17200000000E+03 0.  1.
         -6    1    1    2    0  503  0.13244817973E+03  0.13468716542E+03  0.78688820849E+02  0.26731831843E+03  0.17200000000E+03 0.  1.
</event>
<event>
 4    1  0.1259333E+000  0.1728802E+03  0.7818608E-02  0.1174877E+00
         21   -1    0    0  503  502  0.00000000000E+00  0.00000000000E+00  0.37045970387E+02  0.37045970387E+02  0.00000000000E+00 0.  1.
         21   -1    0    0  501  503 -0.00000000000E+00 -0.00000000000E+00 -0.10414582394E+04  0.10414582394E+04  0.00000000000E+00 0.  1.
          6    1    1    2  501    0  0.67688498136E+01 -0.16054421199E+02 -0.75819258357E+03  0.77765259310E+03  0.17200000000E+03 0.  1.
         -6    1    1    2    0  502 -0.67688498136E+01  0.16054421199E+02 -0.24621968546E+03  0.30085161671E+03  0.17200000000E+03 0.  1.
</event>
<event>
 4    1  0.1259333E+000  0.2113299E+03  0.7818608E-02  0.1140517E+00
         21   -1    0    0  503  502  0.00000000000E+00  0.00000000000E+00  0.12794518061E+04  0.12794518061E+04  0.00000000000E+00 0. -1.
         21   -1    0    0  501  503 -0.00000000000E+00 -0.00000000000E+00 -0.35133742429E+02  0.35133742429E+02  0.00000000000E+00 0.  1.
          6    1    1    2  501    0 -0.12255892667E+03  0.74586665096E+01  0.56921897554E+03  0.60718248025E+03  0.17200000000E+03 0.  1.
         -6    1    1    2    0  502  0.12255892667E+03 -0.74586665096E+01  0.67509908815E+03  0.70740306829E+03  0.17200000000E+03 0. -1.
</event>
<event>
 4    1  0.1259333E+000  0.1757499E+03  0.7818608E-02  0.1171981E+00
         21   -1    0    0  503  502  0.00000000000E+00  0.00000000000E+00  0.12580091357E+03  0.12580091357E+03  0.00000000000E+00 0. -1.
         21   -1    0    0  501  503 -0.00000000000E+00 -0.00000000000E+00 -0.45369552928E+03  0.45369552928E+03  0.00000000000E+00 0. -1.
          6    1    1    2  501    0  0.20917564220E+02 -0.29436052413E+02 -0.36021186575E+03  0.40079996744E+03  0.17200000000E+03 0. -1.
         -6    1    1    2    0  502 -0.20917564220E+02  0.29436052413E+02  0.32317250034E+02  0.17869647541E+03  0.17200000000E+03 0. -1.
</event>
<event>
 4    1  0.1259333E+000  0.2809257E+03  0.7818608E-02  0.1095184E+00
         21   -1    0    0  503  502  0.00000000000E+00  0.00000000000E+00  0.11405087942E+03  0.11405087942E+03  0.00000000000E+00 0.  1.
         21   -1    0    0  501  503 -0.00000000000E+00 -0.00000000000E+00 -0.71883773849E+03  0.71883773849E+03  0.00000000000E+00 0. -1.
          6    1    1    2  501    0 -0.12328687798E+03  0.18475818805E+03 -0.22187493445E+03  0.35797727424E+03  0.17200000000E+03 0.  1.
         -6    1    1    2    0  502  0.12328687798E+03 -0.18475818805E+03 -0.38291192462E+03  0.47491134367E+03  0.17200000000E+03 0. -1.
</event>
<event>
 4    1  0.1259333E+000  0.1918141E+03  0.7818608E-02  0.1156835E+00
         21   -1    0    0  503  502  0.00000000000E+00  0.00000000000E+00  0.53370518999E+03  0.53370518999E+03  0.00000000000E+00 0. -1.
         21   -1    0    0  501  503 -0.00000000000E+00 -0.00000000000E+00 -0.11055598473E+03  0.11055598473E+03  0.00000000000E+00 0. -1.
          6    1    1    2  501    0 -0.84697312730E+02  0.59170834756E+01  0.13931986497E+02  0.19231938776E+03  0.17200000000E+03 0. -1.
         -6    1    1    2    0  502  0.84697312730E+02 -0.59170834756E+01  0.40921721877E+03  0.45194178696E+03  0.17200000000E+03 0. -1.
</event>
<event>
 4    1  0.1259333E+000  0.3482924E+03  0.7818608E-02  0.1063318E+00
         21   -1    0    0  503  502  0.00000000000E+00  0.00000000000E+00  0.47939655761E+03  0.47939655761E+03  0.00000000000E+00 0. -1.
         21   -1    0    0  501  503 -0.00000000000E+00 -0.00000000000E+00 -0.44590960636E+03  0.44590960636E+03  0.00000000000E+00 0.  1.
          6    1    1    2  501    0 -0.30240386735E+03 -0.16598451911E+02 -0.28752807848E+03  0.45164145460E+03  0.17200000000E+03 0.  1.
         -6    1    1    2    0  502  0.30240386735E+03  0.16598451911E+02  0.32101502973E+03  0.47366470937E+03  0.17200000000E+03 0. -1.
</event>
<event>
 4    1  0.1259333E+000  0.1797234E+03  0.7818608E-02  0.1168071E+00
         21   -1    0    0  501  502  0.00000000000E+00  0.00000000000E+00  0.61540697071E+03  0.61540697071E+03  0.00000000000E+00 0.  1.
         21   -1    0    0  502  503 -0.00000000000E+00 -0.00000000000E+00 -0.96828952570E+02  0.96828952570E+02  0.00000000000E+00 0.  1.
          6    1    1    2  501    0  0.51794930691E+02  0.58137038258E+01  0.50028036591E+03  0.53158344454E+03  0.17200000000E+03 0.  1.
         -6    1    1    2    0  503 -0.51794930691E+02 -0.58137038258E+01  0.18297652234E+02  0.18065247874E+03  0.17200000000E+03 0.  1.
</event>
<event>
 4    1  0.1259333E+000  0.2317972E+03  0.7818608E-02  0.1125381E+00
         21   -1    0    0  501  502  0.00000000000E+00  0.00000000000E+00  0.84747655753E+02  0.84747655753E+02  0.00000000000E+00 0.  1.
         21   -1    0    0  502  503 -0.00000000000E+00 -0.00000000000E+00 -0.74468791103E+03  0.74468791103E+03  0.00000000000E+00 0. -1.
          6    1    1    2  501    0  0.11374696261E+03  0.10586590296E+03 -0.17008177592E+03  0.28750264592E+03  0.17200000000E+03 0.  1.
         -6    1    1    2    0  503 -0.11374696261E+03 -0.10586590296E+03 -0.48985847936E+03  0.54193292086E+03  0.17200000000E+03 0.  1.
</event>
<event>
 4    1  0.1259333E+000  0.2241388E+03  0.7818608E-02  0.1130835E+00
         21   -1    0    0  501  502  0.00000000000E+00  0.00000000000E+00  0.51543448224E+03  0.51543448224E+03  0.00000000000E+00 0. -1.
         21   -1    0    0  502  503 -0.00000000000E+00 -0.00000000000E+00 -0.20607302170E+03  0.20607302170E+03  0.00000000000E+00 0.  1.
          6    1    1    2  501    0 -0.10339467413E+03 -0.99818481536E+02  0.41657496579E+03  0.47304639309E+03  0.17200000000E+03 0. -1.
         -6    1    1    2    0  503  0.10339467413E+03  0.99818481536E+02 -0.10721350525E+03  0.24846111085E+03  0.17200000000E+03 0.  1.
</event>
<event>
 4    1  0.1259333E+000  0.2423634E+03  0.7818608E-02  0.1118228E+00
         21   -1    0    0  503  502  0.00000000000E+00  0.00000000000E+00  0.15639747071E+03  0.15639747071E+03  0.00000000000E+00 0.  1.
         21   -1    0    0  501  503 -0.00000000000E+00 -0.00000000000E+00 -0.84995076514E+03  0.84995076514E+03  0.00000000000E+00 0. -1.
          6    1    1    2  501    0 -0.13853678037E+03 -0.99817749216E+02 -0.72268294771E+03  0.76224055618E+03  0.17200000000E+03 0. -1.
         -6    1    1    2    0  502  0.13853678037E+03  0.99817749216E+02  0.29129653282E+02  0.24410767967E+03  0.17200000000E+03 0.  1.
</event>
<event>
 4    1  0.1259333E+000  0.2585485E+03  0.7818608E-02  0.1108018E+00
         21   -1    0    0  503  502  0.00000000000E+00  0.00000000000E+00  0.85729270424E+03  0.85729270424E+03  0.00000000000E+00 0.  1.
         21   -1    0    0  501  503 -0.00000000000E+00 -0.00000000000E+00 -0.79789461062E+02  0.79789461062E+02  0.00000000000E+00 0.  1.
          6    1    1    2  501    0  0.19108156489E+03  0.27406942108E+02  0.45940969910E+03  0.52716655484E+03  0.17200000000E+03 0.  1.
         -6    1    1    2    0  502 -0.19108156489E+03 -0.27406942108E+02  0.31809354407E+03  0.40991561046E+03  0.17200000000E+03 0.  1.
</event>
<event>
 4    1  0.1259333E+000  0.1744186E+03  0.7818608E-02  0.1173317E+00
         21   -1    0    0  501  502  0.00000000000E+00  0.00000000000E+00  0.44457955111E+03  0.44457955111E+03  0.00000000000E+00 0. -1.
         21   -1    0    0  502  503 -0.00000000000E+00 -0.00000000000E+00 -0.22414505175E+03  0.22414505175E+03  0.00000000000E+00 0. -1.
          6    1    1    2  501    0  0.26904985949E+02  0.10674927671E+02  0.38890659554E+03  0.42622784095E+03  0.17200000000E+03 0. -1.
         -6    1    1    2    0  503 -0.26904985949E+02 -0.10674927671E+02 -0.16847209617E+03  0.24249676191E+03  0.17200000000E+03 0. -1.
</event>
<event>
 4    1  0.1259333E+000  0.2708131E+03  0.7818608E-02  0.1100815E+00
         21   -1    0    0  503  502  0.00000000000E+00  0.00000000000E+00  0.57877305840E+03  0.57877305840E+03  0.00000000000E+00 0.  1.
         21   -1    0    0  501  503 -0.00000000000E+00 -0.00000000000E+00 -0.21357468441E+03  0.21357468441E+03  0.00000000000E+00 0.  1.
          6    1    1    2  501    0  0.15432412787E+03 -0.14120829540E+03 -0.70050023414E+02  0.27972616058E+03  0.17200000000E+03 0.  1.
         -6    1    1    2    0  502 -0.15432412787E+03  0.14120829540E+03  0.43524839740E+03  0.51262158223E+03  0.17200000000E+03 0.  1.
</event>
<event>
 4    1  0.1259333E+000  0.1779734E+03  0.7818608E-02  0.1169779E+00
         21   -1    0    0  503  502  0.00000000000E+00  0.00000000000E+00  0.26538178603E+03  0.26538178603E+03  0.00000000000E+00 0. -1.
         21   -1    0    0  501  503 -0.00000000000E+00 -0.00000000000E+00 -0.12107366929E+03  0.12107366929E+03  0.00000000000E+00 0. -1.
          6    1    1    2  501    0 -0.15957555115E+02 -0.42847316003E+02  0.95178637323E+02  0.20182544204E+03  0.17200000000E+03 0.  1.
         -6    1    1    2    0  502  0.15957555115E+02  0.42847316003E+02  0.49129479424E+02  0.18463001328E+03  0.17200000000E+03 0.  1.
</event>
<event>
 4    1  0.1259333E+000  0.2021971E+03  0.7818608E-02  0.1147898E+00
         21   -1    0    0  503  502  0.00000000000E+00  0.00000000000E+00  0.54991487447E+02  0.54991487447E+02  0.00000000000E+00 0.  1.
         21   -1    0    0  501  503 -0.00000000000E+00 -0.00000000000E+00 -0.13345086345E+04  0.13345086345E+04  0.00000000000E+00 0. -1.
          6    1    1    2  501    0  0.10008314219E+03  0.35819296202E+02 -0.11021200118E+04  0.11205142470E+04  0.17200000000E+03 0. -1.
         -6    1    1    2    0  502 -0.10008314219E+03 -0.35819296202E+02 -0.17739713530E+03  0.26898587499E+03  0.17200000000E+03 0.  1.
</event>
<event>
 4    1  0.1259333E+000  0.1971742E+03  0.7818608E-02  0.1152145E+00
         21   -1    0    0  501  502  0.00000000000E+00  0.00000000000E+00  0.15262709879E+03  0.15262709879E+03  0.00000000000E+00 0. -1.
         21   -1    0    0  502  503 -0.00000000000E+00 -0.00000000000E+00 -0.30517140536E+03  0.30517140536E+03  0.00000000000E+00 0. -1.
          6    1    1    2  501    0  0.55253614067E+02 -0.78998181087E+02  0.16794691828E+02  0.19788819105E+03  0.17200000000E+03 0.  1.
         -6    1    1    2    0  503 -0.55253614067E+02  0.78998181087E+02 -0.16933899840E+03  0.25991031311E+03  0.17200000000E+03 0.  1.
</event>
<event>
 4    1  0.1259333E+000  0.1769179E+03  0.7818608E-02  0.1170820E+00
         21   -1    0    0  501  502  0.00000000000E+00  0.00000000000E+00  0.48872490762E+03  0.48872490762E+03  0.00000000000E+00 0.  1.
         21   -1    0    0  502  503 -0.00000000000E+00 -0.00000000000E+00 -0.64260961557E+02  0.64260961557E+02  0.00000000000E+00 0.  1.
          6    1    1    2  501    0  0.26062528125E+02  0.32197706241E+02  0.22829398957E+03  0.28882190591E+03  0.17200000000E+03 0.  1.
         -6    1    1    2    0  503 -0.26062528125E+02 -0.32197706241E+02  0.19616995650E+03  0.26416396327E+03  0.17200000000E+03 0.  1.
</event>
<event>
 4    1  0.1259333E+000  0.1939984E+03  0.7818608E-02  0.1154904E+00
         21   -1    0    0  503  502  0.00000000000E+00  0.00000000000E+00  0.24653265131E+03  0.24653265131E+03  0.00000000000E+00 0.  1.
         21   -1    0    0  501  503 -0.00000000000E+00 -0.00000000000E+00 -0.22955656961E+03  0.22955656961E+03  0.00000000000E+00 0. -1.
          6    1    1    2  501    0  0.41531844079E+02  0.79539132335E+02 -0.12928698096E+03  0.23313191779E+03  0.17200000000E+03 0. -1.
         -6    1    1    2    0  502 -0.41531844079E+02 -0.79539132335E+02  0.14626306266E+03  0.24295730313E+03  0.17200000000E+03 0.  1.
</event>
<event>
 4    1  0.1259333E+000  0.1732991E+03  0.7818608E-02  0.1174450E+00
         21   -1    0    0  501  502  0.00000000000E+00  0.00000000000E+00  0.48958396558E+02  0.48958396558E+02  0.00000000000E+00 0. -1.
         21   -1    0    0  502  503 -0.00000000000E+00 -0.00000000000E+00 -0.62619408505E+03  0.62619408505E+03  0.00000000000E+00 0. -1.
          6    1    1    2  501    0  0.90114661282E+01  0.19166846271E+02 -0.33681300565E+03  0.37878169873E+03  0.17200000000E+03 0. -1.
         -6    1    1    2    0  503 -0.90114661282E+01 -0.19166846271E+02 -0.24042268283E+03  0.29637078287E+03  0.17200000000E+03 0. -1.
</event>
<event>
 4    1  0.1259333E+000  0.2143288E+03  0.7818608E-02  0.1138183E+00
         21   -1    0    0  501  502  0.00000000000E+00  0.00000000000E+00  0.52452455994E+03  0.52452455994E+03  0.00000000000E+00 0. -1.
         21   -1    0    0  502  503 -0.00000000000E+00 -0.00000000000E+00 -0.16831702335E+03  0.16831702335E+03  0.00000000000E+00 0. -1.
          6    1    1    2  501    0  0.29279384996E+02 -0.12448106494E+03  0.41803216054E+03  0.46977410014E+03  0.17200000000E+03 0. -1.
         -6    1    1    2    0  503 -0.29279384996E+02  0.12448106494E+03 -0.61824623943E+02  0.22306748315E+03  0.17200000000E+03 0. -1.
</event>
<event>
 4    1  0.1259333E+000  0.1857761E+03  0.7818608E-02  0.1162327E+00
         21   -1    0    0  501  502  0.00000000000E+00  0.00000000000E+00  0.11771993761E+04  0.11771993761E+04  0.00000000000E+00 0.  1.
         21   -1    0    0  502  503 -0.00000000000E+00 -0.00000000000E+00 -0.29321814517E+02  0.29321814517E+02  0.00000000000E+00 0.  1.
          6    1    1    2  501    0 -0.35880044088E+02 -0.60343816118E+02  0.56677467486E+03  0.59644470470E+03  0.17200000000E+03 0. -1.
         -6    1    1    2    0  503  0.35880044088E+02  0.60343816118E+02  0.58110288677E+03  0.61007648596E+03  0.17200000000E+03 0. -1.
</event>
<event>
 4    1  0.1259333E+000  0.1807407E+03  0.7818608E-02  0.1167088E+00
         21   -1    0    0  503  502  0.00000000000E+00  0.00000000000E+00  0.78559402955E+02  0.78559402955E+02  0.00000000000E+00 0. -1.
         21   -1    0    0  501  503 -0.00000000000E+00 -0.00000000000E+00 -0.46142335006E+03  0.46142335006E+03  0.00000000000E+00 0. -1.
          6    1    1    2  501    0  0.36139224535E+02 -0.42156387133E+02 -0.27630312147E+03  0.33016756270E+03  0.17200000000E+03 0. -1.
         -6    1    1    2    0  502 -0.36139224535E+02  0.42156387133E+02 -0.10656082563E+03  0.20981519031E+03  0.17200000000E+03 0. -1.
</event>
<event>
 4    1  0.1259333E+000  0.3053651E+03  0.7818608E-02  0.1082589E+00
         21   -1    0    0  501  502  0.00000000000E+00  0.00000000000E+00  0.93579989623E+03  0.93579989623E+03  0.00000000000E+00 0. -1.
         21   -1    0    0  502  503 -0.00000000000E+00 -0.00000000000E+00 -0.10835548756E+03  0.10835548756E+03  0.00000000000E+00 0.  1.
          6    1    1    2  501    0  0.16507069653E+03 -0.19082843750E+03  0.56174536321E+03  0.63937913674E+03  0.17200000000E+03 0. -1.
         -6    1    1    2    0  503 -0.16507069653E+03  0.19082843750E+03  0.26569904547E+03  0.40477624705E+03  0.17200000000E+03 0. -1.
</event>
<event>
 4    1  0.1259333E+000  0.1812337E+03  0.7818608E-02  0.1166614E+00
         21   -1    0    0  501  502  0.00000000000E+00  0.00000000000E+00  0.50830598312E+03  0.50830598312E+03  0.00000000000E+00 0. -1.
         21   -1    0    0  502  503 -0.00000000000E+00 -0.00000000000E+00 -0.75889948796E+02  0.75889948796E+02  0.00000000000E+00 0. -1.
          6    1    1    2  501    0  0.56862773588E+02 -0.53189171662E+01  0.32878194149E+03  0.37542406815E+03  0.17200000000E+03 0. -1.
         -6    1    1    2    0  503 -0.56862773588E+02  0.53189171662E+01  0.10363409283E+03  0.20877186376E+03  0.17200000000E+03 0. -1.
</event>
<event>
 4    1  0.1259333E+000  0.1961616E+03  0.7818608E-02  0.1153019E+00
         21   -1    0    0  501  502  0.00000000000E+00  0.00000000000E+00  0.35527959222E+02  0.35527959222E+02  0.00000000000E+00 0. -1.
         21   -1    0    0  502  503 -0.00000000000E+00 -0.00000000000E+00 -0.11724500028E+04  0.11724500028E+04  0.00000000000E+00 0. -1.
          6    1    1    2  501    0 -0.93543506492E+02 -0.12040442076E+02 -0.40169956977E+03  0.44703680408E+03  0.17200000000E+03 0. -1.
         -6    1    1    2    0  503  0.93543506492E+02  0.12040442076E+02 -0.73522247382E+03  0.76094115795E+03  0.17200000000E+03 0. -1.
</event>
<event>
 4    1  0.1259333E+000  0.2371237E+03  0.7818608E-02  0.1121724E+00
         21   -1    0    0  503  502  0.00000000000E+00  0.00000000000E+00  0.10610561800E+04  0.10610561800E+04  0.00000000000E+00 0.  1.
         21   -1    0    0  501  503 -0.00000000000E+00 -0.00000000000E+00 -0.22136345433E+03  0.22136345433E+03  0.00000000000E+00 0.  1.
          6    1    1    2  501    0 -0.80087309362E+02  0.14223103128E+03  0.97906449599E+03  0.10073703046E+04  0.17200000000E+03 0.  1.
         -6    1    1    2    0  502  0.80087309362E+02 -0.14223103128E+03 -0.13937177034E+03  0.27504932966E+03  0.17200000000E+03 0.  1.
</event>
<event>
 4    1  0.1259333E+000  0.1772173E+03  0.7818608E-02  0.1170524E+00
         21   -1    0    0  503  502  0.00000000000E+00  0.00000000000E+00  0.47297277897E+02  0.47297277897E+02  0.00000000000E+00 0. -1.
         21   -1    0    0  501  503 -0.00000000000E+00 -0.00000000000E+00 -0.71782145317E+03  0.71782145317E+03  0.00000000000E+00 0. -1.
          6    1    1    2  501    0  0.19037514655E+02  0.38203876494E+02 -0.44000379539E+03  0.47435145525E+03  0.17200000000E+03 0. -1.
         -6    1    1    2    0  502 -0.19037514655E+02 -0.38203876494E+02 -0.23052037988E+03  0.29076727582E+03  0.17200000000E+03 0. -1.
</event>
<event>
 4    1  0.1259333E+000  0.1869989E+03  0.7818608E-02  0.1161196E+00
         21   -1    0    0  503  502  0.00000000000E+00  0.00000000000E+00  0.90953742946E+02  0.90953742946E+02  0.00000000000E+00 0. -1.
         21   -1    0    0  501  503 -0.00000000000E+00 -0.00000000000E+00 -0.56092827742E+03  0.56092827742E+03  0.00000000000E+00 0.  1.
          6    1    1    2  501    0 -0.25810270597E+02  0.68690839160E+02 -0.41780215263E+03  0.45774145562E+03  0.17200000000E+03 0.  1.
         -6    1    1    2    0  502  0.25810270597E+02 -0.68690839160E+02 -0.52172381847E+02  0.19414056475E+03  0.17200000000E+03 0. -1.
</event>
<event>
 4    1  0.1259333E+000  0.2132178E+03  0.7818608E-02  0.1139043E+00
         21   -1    0    0  501  502  0.00000000000E+00  0.00000000000E+00  0.91026844074E+02  0.91026844074E+02  0.00000000000E+00 0.  1.
         21   -1    0    0  502  503 -0.00000000000E+00 -0.00000000000E+00 -0.10483462244E+04  0.10483462244E+04  0.00000000000E+00 0.  1.
          6    1    1    2  501    0 -0.15739044212E+01  0.12599737637E+03 -0.66433665359E+02  0.22332766940E+03  0.17200000000E+03 0.  1.
         -6    1    1    2    0  503  0.15739044212E+01 -0.12599737637E+03 -0.89088571500E+03  0.91604539911E+03  0.17200000000E+03 0.  1.
</event>
<event>
 4    1  0.1259333E+000  0.1741274E+03  0.7818608E-02  0.1173611E+00
         21   -1    0    0  501  502  0.00000000000E+00  0.00000000000E+00  0.31812683274E+03  0.31812683274E+03  0.00000000000E+00 0. -1.
         21   -1    0    0  502  503 -0.00000000000E+00 -0.00000000000E+00 -0.95416951764E+02  0.95416951764E+02  0.00000000000E+00 0. -1.
          6    1    1    2  501    0 -0.26840259573E+02 -0.39954148704E+01  0.11830861084E+03  0.21051672207E+03  0.17200000000E+03 0.  1.
         -6    1    1    2    0  503  0.26840259573E+02  0.39954148704E+01  0.10440127014E+03  0.20302706243E+03  0.17200000000E+03 0.  1.
</event>
<event>
 4    1  0.1259333E+000  0.2011096E+03  0.7818608E-02  0.1148806E+00
         21   -1    0    0  501  502  0.00000000000E+00  0.00000000000E+00  0.27426338980E+03  0.27426338980E+03  0.00000000000E+00 0.  1.
         21   -1    0    0  502  503 -0.00000000000E+00 -0.00000000000E+00 -0.20571882783E+03  0.20571882783E+03  0.00000000000E+00 0.  1.
          6    1    1    2  501    0  0.79257662074E+01  0.10391473621E+03  0.16197759135E+03  0.25822825227E+03  0.17200000000E+03 0.  1.
         -6    1    1    2    0  503 -0.79257662074E+01 -0.10391473621E+03 -0.93433029377E+02  0.22175396535E+03  0.17200000000E+03 0.  1.
</event>
<event>
 4    1  0.1259333E+000  0.2490578E+03  0.7818608E-02  0.1113902E+00
         21   -1    0    0  501  502  0.00000000000E+00  0.00000000000E+00  0.11592812533E+04  0.11592812533E+04  0.00000000000E+00 0.  1.
         21   -1    0    0  502  503 -0.00000000000E+00 -0.00000000000E+00 -0.53508163179E+02  0.53508163179E+02  0.00000000000E+00 0. -1.
          6    1    1    2  501    0  0.35019854702E+02  0.17669006996E+03  0.55017597210E+03  0.60392331576E+03  0.17200000000E+03 0. -1.
         -6    1    1    2    0  503 -0.35019854702E+02 -0.17669006996E+03  0.55559711798E+03  0.60886610068E+03  0.17200000000E+03 0. -1.
</event>
<event>
 4    1  0.1259333E+000  0.1838223E+03  0.7818608E-02  0.1164154E+00
         21   -1    0    0  503  502  0.00000000000E+00  0.00000000000E+00  0.26344384271E+04  0.26344384271E+04  0.00000000000E+00 0.  1.
         21   -1    0    0  501  503 -0.00000000000E+00 -0.00000000000E+00 -0.19036095206E+02  0.19036095206E+02  0.00000000000E+00 0.  1.
          6    1    1    2  501    0  0.55416142706E+02 -0.33700097995E+02  0.54994869942E+03  0.57985706641E+03  0.17200000000E+03 0.  1.
         -6    1    1    2    0  502 -0.55416142706E+02  0.33700097995E+02  0.20654536325E+04  0.20736174559E+04  0.17200000000E+03 0.  1.
</event>
<event>
 4    1  0.1259333E+000  0.1772729E+03  0.7818608E-02  0.1170469E+00
         21   -1    0    0  503  502  0.00000000000E+00  0.00000000000E+00  0.14319267391E+03  0.14319267391E+03  0.00000000000E+00 0.  1.
         21   -1    0    0  501  503 -0.00000000000E+00 -0.00000000000E+00 -0.22658882627E+03  0.22658882627E+03  0.00000000000E+00 0.  1.
          6    1    1    2  501    0 -0.16074860935E+02  0.39790258654E+02 -0.74483208294E+02  0.19228472159E+03  0.17200000000E+03 0.  1.
         -6    1    1    2    0  502  0.16074860935E+02 -0.39790258654E+02 -0.89129440616E+01  0.17749677859E+03  0.17200000000E+03 0.  1.
</event>
<event>
 4    1  0.1259333E+000  0.2365758E+03  0.7818608E-02  0.1122095E+00
         21   -1    0    0  501  502  0.00000000000E+00  0.00000000000E+00  0.36681841071E+03  0.36681841071E+03  0.00000000000E+00 0. -1.
         21   -1    0    0  502  503 -0.00000000000E+00 -0.00000000000E+00 -0.38377243515E+03  0.38377243515E+03  0.00000000000E+00 0. -1.
          6    1    1    2  501    0 -0.15992657212E+03 -0.28418377578E+02  0.28281317368E+03  0.36871588501E+03  0.17200000000E+03 0. -1.
         -6    1    1    2    0  503  0.15992657212E+03  0.28418377578E+02 -0.29976719812E+03  0.38187496085E+03  0.17200000000E+03 0. -1.
</event>
<event>
 4    1  0.1259333E+000  0.2561659E+03  0.7818608E-02  0.1109469E+00
         21   -1    0    0  501  502  0.00000000000E+00  0.00000000000E+00  0.10795444779E+03  0.10795444779E+03  0.00000000000E+00 0. -1.
         21   -1    0    0  502  503 -0.00000000000E+00 -0.00000000000E+00 -0.86899349149E+03  0.86899349149E+03  0.00000000000E+00 0.  1.
          6    1    1    2  501    0  0.96644798459E+02 -0.16339147887E+03 -0.11274701892E+03  0.27988012204E+03  0.17200000000E+03 0. -1.
         -6    1    1    2    0  503 -0.96644798459E+02  0.16339147887E+03 -0.64829202478E+03  0.69706781724E+03  0.17200000000E+03 0.  1.
</event>
<event>
 4    1  0.1259333E+000  0.1809507E+03  0.7818608E-02  0.1166886E+00
         21   -1    0    0  501  502  0.00000000000E+00  0.00000000000E+00  0.24248957829E+03  0.24248957829E+03  0.00000000000E+00 0. -1.
         21   -1    0    0  502  503 -0.00000000000E+00 -0.00000000000E+00 -0.18460041645E+03  0.18460041645E+03  0.00000000000E+00 0. -1.
          6    1    1    2  501    0  0.53916059719E+02 -0.15880810676E+02  0.13960401175E+03  0.22854413521E+03  0.17200000000E+03 0. -1.
         -6    1    1    2    0  503 -0.53916059719E+02  0.15880810676E+02 -0.81714849900E+02  0.19854585953E+03  0.17200000000E+03 0. -1.
</event>
<event>
 4    1  0.1259333E+000  0.2101718E+03  0.7818608E-02  0.1141430E+00
         21   -1    0    0  501  502  0.00000000000E+00  0.00000000000E+00  0.52148469402E+02  0.52148469402E+02  0.00000000000E+00 0. -1.
         21   -1    0    0  502  503 -0.00000000000E+00 -0.00000000000E+00 -0.87155529942E+03  0.87155529942E+03  0.00000000000E+00 0. -1.
          6    1    1    2  501    0  0.41734941576E+02 -0.11334183112E+03 -0.33225426025E+03  0.39314764337E+03  0.17200000000E+03 0.  1.
         -6    1    1    2    0  503 -0.41734941576E+02  0.11334183112E+03 -0.48715256977E+03  0.53055612546E+03  0.17200000000E+03 0.  1.
</event>
<event>
 4    1  0.1259333E+000  0.1926009E+03  0.7818608E-02  0.1156136E+00
         21   -1    0    0  501  502  0.00000000000E+00  0.00000000000E+00  0.11775968419E+03  0.11775968419E+03  0.00000000000E+00 0.  1.
         21   -1    0    0  502  503 -0.00000000000E+00 -0.00000000000E+00 -0.94942602172E+03  0.94942602172E+03  0.00000000000E+00 0.  1.
          6    1    1    2  501    0  0.78703130541E+02  0.36289559951E+02  0.20348656380E+02  0.19367287558E+03  0.17200000000E+03 0.  1.
         -6    1    1    2    0  503 -0.78703130541E+02 -0.36289559951E+02 -0.85201499390E+03  0.87351283033E+03  0.17200000000E+03 0.  1.
</event>
<event>
 4    1  0.1259333E+000  0.2050347E+03  0.7818608E-02  0.1145559E+00
         21   -1    0    0  503  502  0.00000000000E+00  0.00000000000E+00  0.42685785534E+03  0.42685785534E+03  0.00000000000E+00 0. -1.
         21   -1    0    0  501  503 -0.00000000000E+00 -0.00000000000E+00 -0.10715585206E+03  0.10715585206E+03  0.00000000000E+00 0. -1.
          6    1    1    2  501    0  0.66050997108E+02 -0.89958176497E+02  0.83899076223E+02  0.22153614317E+03  0.17200000000E+03 0. -1.
         -6    1    1    2    0  502 -0.66050997108E+02  0.89958176497E+02  0.23580292706E+03  0.31247756423E+03  0.17200000000E+03 0. -1.
</event>
<event>
 4    1  0.1259333E+000  0.1762705E+03  0.7818608E-02  0.1171462E+00
         21   -1    0    0  503  502  0.00000000000E+00  0.00000000000E+00  0.33364212902E+02  0.33364212902E+02  0.00000000000E+00 0.  1.
         21   -1    0    0  501  503 -0.00000000000E+00 -0.00000000000E+00 -0.15676739697E+04  0.15676739697E+04  0.00000000000E+00 0.  1.
          6    1    1    2  501    0  0.15073660771E+02  0.35497470299E+02 -0.12771996087E+04  0.12893060638E+04  0.17200000000E+03 0.  1.
         -6    1    1    2    0  502 -0.15073660771E+02 -0.35497470299E+02 -0.25711014808E+03  0.31173211880E+03  0.17200000000E+03 0.  1.
</event>
<event>
 4    1  0.1259333E+000  0.1823563E+03  0.7818608E-02  0.1165542E+00
         21   -1    0    0  501  502  0.00000000000E+00  0.00000000000E+00  0.29688587986E+03  0.29688587986E+03  0.00000000000E+00 0. -1.
         21   -1    0    0  502  503 -0.00000000000E+00 -0.00000000000E+00 -0.13014608195E+03  0.13014608195E+03  0.00000000000E+00 0. -1.
          6    1    1    2  501    0  0.17617010052E+02 -0.57960731940E+02  0.16307791019E+03  0.24463893861E+03  0.17200000000E+03 0. -1.
         -6    1    1    2    0  503 -0.17617010052E+02  0.57960731940E+02  0.36618877156E+01  0.18239302320E+03  0.17200000000E+03 0. -1.
</event>
<event>
 4    1  0.1259333E+000  0.1769549E+03  0.7818608E-02  0.1170783E+00
         21   -1    0    0  503  502  0.00000000000E+00  0.00000000000E+00  0.80932287158E+03  0.80932287158E+03  0.00000000000E+00 0. -1.
         21   -1    0    0  501  503 -0.00000000000E+00 -0.00000000000E+00 -0.46319733495E+02  0.46319733495E+02  0.00000000000E+00 0. -1.
          6    1    1    2  501    0  0.41367377216E+02 -0.42144624296E+01  0.55513079188E+03  0.58265188379E+03  0.17200000000E+03 0. -1.
         -6    1    1    2    0  502 -0.41367377216E+02  0.42144624296E+01  0.20787234621E+03  0.27299072129E+03  0.17200000000E+03 0. -1.
</event>
<event>
 4    1  0.1259333E+000  0.2335817E+03  0.7818608E-02  0.1124144E+00
         21   -1    0    0  503  502  0.00000000000E+00  0.00000000000E+00  0.99517137082E+03  0.99517137082E+03  0.00000000000E+00 0. -1.
         21   -1    0    0  501  503 -0.00000000000E+00 -0.00000000000E+00 -0.60741136628E+02  0.60741136628E+02  0.00000000000E+00 0. -1.
          6    1    1    2  501    0  0.10390183200E+03 -0.11908332367E+03  0.30244830404E+03  0.38214579062E+03  0.17200000000E+03 0. -1.
         -6    1    1    2    0  502 -0.10390183200E+03  0.11908332367E+03  0.63198193016E+03  0.67376671684E+03  0.17200000000E+03 0. -1.
</event>
<event>
 4    1  0.1259333E+000  0.1871119E+03  0.7818608E-02  0.1161092E+00
         21   -1    0    0  501  502  0.00000000000E+00  0.00000000000E+00  0.14779809301E+04  0.14779809301E+04  0.00000000000E+00 0. -1.
         21   -1    0    0  502  503 -0.00000000000E+00 -0.00000000000E+00 -0.32288450402E+02  0.32288450402E+02  0.00000000000E+00 0. -1.
          6    1    1    2  501    0 -0.65426175837E+02 -0.33856577194E+02  0.11125673231E+04  0.11281918723E+04  0.17200000000E+03 0. -1.
         -6    1    1    2    0  503  0.65426175837E+02  0.33856577194E+02  0.33312515652E+03  0.38207750812E+03  0.17200000000E+03 0. -1.
</event>
<event>
 4    1  0.1259333E+000  0.1868733E+03  0.7818608E-02  0.1161312E+00
         21   -1    0    0  503  502  0.00000000000E+00  0.00000000000E+00  0.55233537741E+03  0.55233537741E+03  0.00000000000E+00 0.  1.
         21   -1    0    0  501  503 -0.00000000000E+00 -0.00000000000E+00 -0.63397468806E+02  0.63397468806E+02  0.00000000000E+00 0.  1.
          6    1    1    2  501    0 -0.54893083158E+02 -0.48211742651E+02  0.22842974087E+03  0.29513008864E+03  0.17200000000E+03 0.  1.
         -6    1    1    2    0  502  0.54893083158E+02  0.48211742651E+02  0.26050816773E+03  0.32060275757E+03  0.17200000000E+03 0.  1.
</event>
<event>
 4    1  0.1259333E+000  0.2235545E+03  0.7818608E-02  0.1131260E+00
         21   -1    0    0  503  502  0.00000000000E+00  0.00000000000E+00  0.12113613191E+03  0.12113613191E+03  0.00000000000E+00 0.  1.
         21   -1    0    0  501  503 -0.00000000000E+00 -0.00000000000E+00 -0.46133399655E+03  0.46133399655E+03  0.00000000000E+00 0.  1.
          6    1    1    2  501    0 -0.13845828671E+03 -0.34955649731E+02 -0.26478921292E+03  0.34653992827E+03  0.17200000000E+03 0.  1.
         -6    1    1    2    0  502  0.13845828671E+03  0.34955649731E+02 -0.75408651707E+02  0.23593020019E+03  0.17200000000E+03 0.  1.
</event>
<event>
 4    1  0.1259333E+000  0.2024531E+03  0.7818608E-02  0.1147686E+00
         21   -1    0    0  503  502  0.00000000000E+00  0.00000000000E+00  0.67081063484E+03  0.67081063484E+03  0.00000000000E+00 0.  1.
         21   -1    0    0  501  503 -0.00000000000E+00 -0.00000000000E+00 -0.63752154726E+02  0.63752154726E+02  0.00000000000E+00 0.  1.
          6    1    1    2  501    0  0.17473467473E+02  0.10534671785E+03  0.37842593111E+03  0.42917763032E+03  0.17200000000E+03 0.  1.
         -6    1    1    2    0  502 -0.17473467473E+02 -0.10534671785E+03  0.22863254900E+03  0.30538515925E+03  0.17200000000E+03 0.  1.
</event>
<event>
 4    1  0.1259333E+000  0.2387716E+03  0.7818608E-02  0.1120614E+00
         21   -1    0    0  501  502  0.00000000000E+00  0.00000000000E+00  0.16404629360E+03  0.16404629360E+03  0.00000000000E+00 0. -1.
         21   -1    0    0  502  503 -0.00000000000E+00 -0.00000000000E+00 -0.34780392946E+03  0.34780392946E+03  0.00000000000E+00 0.  1.
          6    1    1    2  501    0 -0.10476066114E+03 -0.12826948704E+03 -0.98992969808E+02  0.25847913939E+03  0.17200000000E+03 0. -1.
         -6    1    1    2    0  503  0.10476066114E+03  0.12826948704E+03 -0.84764666058E+02  0.25337108367E+03  0.17200000000E+03 0. -1.
</event>
<event>
 4    1  0.1259333E+000  0.1741366E+03  0.7818608E-02  0.1173601E+00
         21   -1    0    0  503  502  0.00000000000E+00  0.00000000000E+00  0.14738655355E+04  0.14738655355E+04  0.00000000000E+00 0.  1.
         21   -1    0    0  501  503 -0.00000000000E+00 -0.00000000000E+00 -0.29490942867E+02  0.29490942867E+02  0.00000000000E+00 0.  1.
          6    1    1    2  501    0  0.26691452427E+02 -0.52066150584E+01  0.30886218445E+03  0.35456930416E+03  0.17200000000E+03 0. -1.
         -6    1    1    2    0  502 -0.26691452427E+02  0.52066150584E+01  0.11355124082E+04  0.11487871742E+04  0.17200000000E+03 0. -1.
</event>
<event>
 4    1  0.1259333E+000  0.1794758E+03  0.7818608E-02  0.1168311E+00
         21   -1    0    0  503  502  0.00000000000E+00  0.00000000000E+00  0.40212822101E+02  0.40212822101E+02  0.00000000000E+00 0.  1.
         21   -1    0    0  501  503 -0.00000000000E+00 -0.00000000000E+00 -0.85188598167E+03  0.85188598167E+03  0.00000000000E+00 0.  1.
          6    1    1    2  501    0  0.11157707273E+01  0.51247491552E+02 -0.29684908157E+03  0.34688748545E+03  0.17200000000E+03 0.  1.
         -6    1    1    2    0  502 -0.11157707273E+01 -0.51247491552E+02 -0.51482407800E+03  0.54521131832E+03  0.17200000000E+03 0.  1.
</event>
<event>
 4    1  0.1259333E+000  0.3321882E+03  0.7818608E-02  0.1070173E+00
         21   -1    0    0  501  502  0.00000000000E+00  0.00000000000E+00  0.11846495589E+04  0.11846495589E+04  0.00000000000E+00 0.  1.
         21   -1    0    0  502  503 -0.00000000000E+00 -0.00000000000E+00 -0.11394833646E+03  0.11394833646E+03  0.00000000000E+00 0. -1.
          6    1    1    2  501    0  0.20275192313E+03  0.19913982457E+03  0.81275584381E+03  0.87802111234E+03  0.17200000000E+03 0.  1.
         -6    1    1    2    0  503 -0.20275192313E+03 -0.19913982457E+03  0.25794537861E+03  0.42057678301E+03  0.17200000000E+03 0. -1.
</event>
<event>
 4    1  0.1259333E+000  0.2057311E+03  0.7818608E-02  0.1144992E+00
         21   -1    0    0  503  502  0.00000000000E+00  0.00000000000E+00  0.97637409228E+03  0.97637409228E+03  0.00000000000E+00 0. -1.
         21   -1    0    0  501  503 -0.00000000000E+00 -0.00000000000E+00 -0.21329532500E+03  0.21329532500E+03  0.00000000000E+00 0. -1.
          6    1    1    2  501    0 -0.27530690377E+02  0.10946843629E+03 -0.14941957196E+03  0.25426656473E+03  0.17200000000E+03 0. -1.
         -6    1    1    2    0  502  0.27530690377E+02 -0.10946843629E+03  0.91249833923E+03  0.93540285255E+03  0.17200000000E+03 0. -1.
</event>
<event>
 4    1  0.1259333E+000  0.1998114E+03  0.7818608E-02  0.1149898E+00
         21   -1    0    0  503  502  0.00000000000E+00  0.00000000000E+00  0.12533383880E+02  0.12533383880E+02  0.00000000000E+00 0. -1.
         21   -1    0    0  501  503 -0.00000000000E+00 -0.00000000000E+00 -0.32400336273E+04  0.32400336273E+04  0.00000000000E+00 0. -1.
          6    1    1    2  501    0  0.95832258602E+02  0.34011220656E+02 -0.18248147603E+04  0.18357215188E+04  0.17200000000E+03 0.  1.
         -6    1    1    2    0  502 -0.95832258602E+02 -0.34011220656E+02 -0.14026854831E+04  0.14168454924E+04  0.17200000000E+03 0.  1.
</event>
<event>
 4    1  0.1259333E+000  0.1977775E+03  0.7818608E-02  0.1151628E+00
         21   -1    0    0  501  502  0.00000000000E+00  0.00000000000E+00  0.10222022457E+04  0.10222022457E+04  0.00000000000E+00 0.  1.
         21   -1    0    0  502  503 -0.00000000000E+00 -0.00000000000E+00 -0.69244476501E+02  0.69244476501E+02  0.00000000000E+00 0. -1.
          6    1    1    2  501    0  0.58890707947E+02  0.77870530985E+02  0.84149130823E+03  0.86442093733E+03  0.17200000000E+03 0.  1.
         -6    1    1    2    0  503 -0.58890707947E+02 -0.77870530985E+02  0.11146646100E+03  0.22702578489E+03  0.17200000000E+03 0. -1.
</event>
<event>
 4    1  0.1259333E+000  0.2170697E+03  0.7818608E-02  0.1136087E+00
         21   -1    0    0  503  502  0.00000000000E+00  0.00000000000E+00  0.27339151662E+02  0.27339151662E+02  0.00000000000E+00 0. -1.
         21   -1    0    0  501  503 -0.00000000000E+00 -0.00000000000E+00 -0.18732652800E+04  0.18732652800E+04  0.00000000000E+00 0. -1.
          6    1    1    2  501    0  0.10190396375E+03  0.84562611081E+02 -0.11916556800E+04  0.12112648401E+04  0.17200000000E+03 0. -1.
         -6    1    1    2    0  502 -0.10190396375E+03 -0.84562611081E+02 -0.65427044835E+03  0.68933959165E+03  0.17200000000E+03 0. -1.
</event>
<event>
 4    1  0.1259333E+000  0.2619515E+03  0.7818608E-02  0.1105976E+00
         21   -1    0    0  503  502  0.00000000000E+00  0.00000000000E+00  0.76144535626E+02  0.76144535626E+02  0.00000000000E+00 0. -1.
         21   -1    0    0  501  503 -0.00000000000E+00 -0.00000000000E+00 -0.10688304182E+04  0.10688304182E+04  0.00000000000E+00 0.  1.
          6    1    1    2  501    0 -0.10752412008E+03  0.16575029914E+03 -0.72308736168E+03  0.76907342347E+03  0.17200000000E+03 0. -1.
         -6    1    1    2    0  502  0.10752412008E+03 -0.16575029914E+03 -0.26959852093E+03  0.37590153039E+03  0.17200000000E+03 0. -1.
</event>
<event>
 4    1  0.1259333E+000  0.2297912E+03  0.7818608E-02  0.1126787E+00
         21   -1    0    0  503  502  0.00000000000E+00  0.00000000000E+00  0.43212264499E+02  0.43212264499E+02  0.00000000000E+00 0.  1.
         21   -1    0    0  501  503 -0.00000000000E+00 -0.00000000000E+00 -0.12425303711E+04  0.12425303711E+04  0.00000000000E+00 0. -1.
          6    1    1    2  501    0 -0.15080673255E+03  0.21848286564E+02 -0.51695938429E+03  0.56573052173E+03  0.17200000000E+03 0.  1.
         -6    1    1    2    0  502  0.15080673255E+03 -0.21848286564E+02 -0.68235872227E+03  0.72001211384E+03  0.17200000000E+03 0.  1.
</event>
<event>
 4    1  0.1259333E+000  0.2090639E+03  0.7818608E-02  0.1142309E+00
         21   -1    0    0  503  502  0.00000000000E+00  0.00000000000E+00  0.42834788294E+03  0.42834788294E+03  0.00000000000E+00 0.  1.
         21   -1    0    0  501  503 -0.00000000000E+00 -0.00000000000E+00 -0.12454998679E+03  0.12454998679E+03  0.00000000000E+00 0.  1.
          6    1    1    2  501    0 -0.10753954894E+03 -0.50586329217E+02  0.34368425808E+02  0.21187005447E+03  0.17200000000E+03 0. -1.
         -6    1    1    2    0  502  0.10753954894E+03  0.50586329217E+02  0.26942947034E+03  0.34102781525E+03  0.17200000000E+03 0. -1.
</event>
<event>
 4    1  0.1259333E+000  0.2177724E+03  0.7818608E-02  0.1135555E+00
         21   -1    0    0  501  502  0.00000000000E+00  0.00000000000E+00  0.17452508032E+04  0.17452508032E+04  0.00000000000E+00 0.  1.
         21   -1    0    0  502  503 -0.00000000000E+00 -0.00000000000E+00 -0.50813280820E+02  0.50813280820E+02  0.00000000000E+00 0.  1.
          6    1    1    2  501    0 -0.56473991605E+02  0.12104344787E+03  0.14597434432E+04  0.14758982851E+04  0.17200000000E+03 0.  1.
         -6    1    1    2    0  503  0.56473991605E+02 -0.12104344787E+03  0.23469407921E+03  0.32016579895E+03  0.17200000000E+03 0.  1.
</event>
<event>
 4    1  0.1259333E+000  0.1954519E+03  0.7818608E-02  0.1153634E+00
         21   -1    0    0  503  502  0.00000000000E+00  0.00000000000E+00  0.59703677829E+03  0.59703677829E+03  0.00000000000E+00 0. -1.
         21   -1    0    0  501  503 -0.00000000000E+00 -0.00000000000E+00 -0.14703850791E+03  0.14703850791E+03  0.00000000000E+00 0. -1.
          6    1    1    2  501    0  0.74226912096E+02  0.55747649061E+02 -0.54609236777E+02  0.20293743764E+03  0.17200000000E+03 0. -1.
         -6    1    1    2    0  502 -0.74226912096E+02 -0.55747649061E+02  0.50460750717E+03  0.54113784856E+03  0.17200000000E+03 0. -1.
</event>
<event>
 4    1  0.1259333E+000  0.1732588E+03  0.7818608E-02  0.1174491E+00
         21   -1    0    0  503  502  0.00000000000E+00  0.00000000000E+00  0.80675264650E+03  0.80675264650E+03  0.00000000000E+00 0.  1.
         21   -1    0    0  501  503 -0.00000000000E+00 -0.00000000000E+00 -0.75609270216E+02  0.75609270216E+02  0.00000000000E+00 0.  1.
          6    1    1    2  501    0 -0.30729539023E+01 -0.20619932012E+02  0.51162508545E+02  0.18065499418E+03  0.17200000000E+03 0.  1.
         -6    1    1    2    0  502  0.30729539023E+01  0.20619932012E+02  0.67998086773E+03  0.70170692253E+03  0.17200000000E+03 0.  1.
</event>
<event>
 4    1  0.1259333E+000  0.2000002E+03  0.7818608E-02  0.1149739E+00
         21   -1    0    0  503  502  0.00000000000E+00  0.00000000000E+00  0.60979647163E+02  0.60979647163E+02  0.00000000000E+00 0.  1.
         21   -1    0    0  501  503 -0.00000000000E+00 -0.00000000000E+00 -0.81398318658E+03  0.81398318658E+03  0.00000000000E+00 0.  1.
          6    1    1    2  501    0  0.39599656748E+02 -0.94063475126E+02 -0.56926111250E+03  0.60337242593E+03  0.17200000000E+03 0. -1.
         -6    1    1    2    0  502 -0.39599656748E+02  0.94063475126E+02 -0.18374242692E+03  0.27159040781E+03  0.17200000000E+03 0. -1.
</event>
<event>
 4    1  0.1259333E+000  0.1738274E+03  0.7818608E-02  0.1173914E+00
         21   -1    0    0  501  502  0.00000000000E+00  0.00000000000E+00  0.18254648500E+03  0.18254648500E+03  0.00000000000E+00 0. -1.
         21   -1    0    0  502  503 -0.00000000000E+00 -0.00000000000E+00 -0.17121143051E+03  0.17121143051E+03  0.00000000000E+00 0. -1.
          6    1    1    2  501    0 -0.22412139953E+02  0.11386468895E+02  0.37903470248E+02  0.17791185668E+03  0.17200000000E+03 0. -1.
         -6    1    1    2    0  503  0.22412139953E+02 -0.11386468895E+02 -0.26568415756E+02  0.17584605883E+03  0.17200000000E+03 0. -1.
</event>
<event>
 4    1  0.1259333E+000  0.1814257E+03  0.7818608E-02  0.1166430E+00
         21   -1    0    0  501  502  0.00000000000E+00  0.00000000000E+00  0.15437819548E+03  0.15437819548E+03  0.00000000000E+00 0. -1.
         21   -1    0    0  502  503 -0.00000000000E+00 -0.00000000000E+00 -0.31057697130E+03  0.31057697130E+03  0.00000000000E+00 0. -1.
          6    1    1    2  501    0  0.55712249563E+02  0.15080893715E+02  0.52066673866E+02  0.18874911029E+03  0.17200000000E+03 0. -1.
         -6    1    1    2    0  503 -0.55712249563E+02 -0.15080893715E+02 -0.20826544969E+03  0.27620605649E+03  0.17200000000E+03 0. -1.
</event>
<event>
 4    1  0.1259333E+000  0.1974871E+03  0.7818608E-02  0.1151877E+00
         21   -1    0    0  501  502  0.00000000000E+00  0.00000000000E+00  0.13779482335E+03  0.13779482335E+03  0.00000000000E+00 0. -1.
         21   -1    0    0  502  503 -0.00000000000E+00 -0.00000000000E+00 -0.87738099387E+03  0.87738099387E+03  0.00000000000E+00 0. -1.
          6    1    1    2  501    0  0.88429925712E+02  0.39966254927E+02  0.47975498842E+02  0.20323090755E+03  0.17200000000E+03 0. -1.
         -6    1    1    2    0  503 -0.88429925712E+02 -0.39966254927E+02 -0.78756166936E+03  0.81194490967E+03  0.17200000000E+03 0. -1.
</event>
<event>
 4    1  0.1259333E+000  0.2381540E+03  0.7818608E-02  0.1121029E+00
         21   -1    0    0  503  502  0.00000000000E+00  0.00000000000E+00  0.21143848305E+03  0.21143848305E+03  0.00000000000E+00 0.  1.
         21   -1    0    0  501  503 -0.00000000000E+00 -0.00000000000E+00 -0.75551638112E+03  0.75551638112E+03  0.00000000000E+00 0.  1.
          6    1    1    2  501    0 -0.37824005451E+01 -0.16467854638E+03 -0.66031417971E+03  0.70194882016E+03  0.17200000000E+03 0.  1.
         -6    1    1    2    0  502  0.37824005451E+01  0.16467854638E+03  0.11623628164E+03  0.26500604401E+03  0.17200000000E+03 0.  1.
</event>
<event>
 4    1  0.1259333E+000  0.2097909E+03  0.7818608E-02  0.1141732E+00
         21   -1    0    0  503  502  0.00000000000E+00  0.00000000000E+00  0.31645217343E+02  0.31645217343E+02  0.00000000000E+00 0.  1.
         21   -1    0    0  501  503 -0.00000000000E+00 -0.00000000000E+00 -0.24458703467E+04  0.24458703467E+04  0.00000000000E+00 0.  1.
          6    1    1    2  501    0 -0.48475623162E+01 -0.12001964811E+03 -0.20207109649E+04  0.20315720560E+04  0.17200000000E+03 0.  1.
         -6    1    1    2    0  502  0.48475623162E+01  0.12001964811E+03 -0.39351416444E+03  0.44594350809E+03  0.17200000000E+03 0.  1.
</event>
<event>
 4    1  0.1259333E+000  0.2158766E+03  0.7818608E-02  0.1136995E+00
         21   -1    0    0  501  502  0.00000000000E+00  0.00000000000E+00  0.17395620170E+03  0.17395620170E+03  0.00000000000E+00 0.  1.
         21   -1    0    0  502  503 -0.00000000000E+00 -0.00000000000E+00 -0.33331261066E+03  0.33331261066E+03  0.00000000000E+00 0.  1.
          6    1    1    2  501    0 -0.17361401930E+02  0.12929543258E+03  0.32682820628E+02  0.21833665273E+03  0.17200000000E+03 0.  1.
         -6    1    1    2    0  503  0.17361401930E+02 -0.12929543258E+03 -0.19203922959E+03  0.28893215962E+03  0.17200000000E+03 0.  1.
</event>
<event>
 4    1  0.1259333E+000  0.1903186E+03  0.7818608E-02  0.1158174E+00
         21   -1    0    0  503  502  0.00000000000E+00  0.00000000000E+00  0.19163822533E+03  0.19163822533E+03  0.00000000000E+00 0. -1.
         21   -1    0    0  501  503 -0.00000000000E+00 -0.00000000000E+00 -0.19097953711E+03  0.19097953711E+03  0.00000000000E+00 0. -1.
          6    1    1    2  501    0 -0.55219996886E+02  0.59899116209E+02  0.19767155372E+02  0.19134234401E+03  0.17200000000E+03 0.  1.
         -6    1    1    2    0  502  0.55219996886E+02 -0.59899116209E+02 -0.19108467157E+02  0.19127541843E+03  0.17200000000E+03 0.  1.
</event>
<event>
 4    1  0.1259333E+000  0.1891616E+03  0.7818608E-02  0.1159220E+00
         21   -1    0    0  501  502  0.00000000000E+00  0.00000000000E+00  0.30542509167E+03  0.30542509167E+03  0.00000000000E+00 0. -1.
         21   -1    0    0  502  503 -0.00000000000E+00 -0.00000000000E+00 -0.21621816781E+03  0.21621816781E+03  0.00000000000E+00 0.  1.
          6    1    1    2  501    0 -0.77200974771E+02 -0.15431545007E+02  0.22114759316E+03  0.29101268193E+03  0.17200000000E+03 0. -1.
         -6    1    1    2    0  503  0.77200974771E+02  0.15431545007E+02 -0.13194066929E+03  0.23063057755E+03  0.17200000000E+03 0.  1.
</event>
<event>
 4    1  0.1259333E+000  0.3025422E+03  0.7818608E-02  0.1083977E+00
         21   -1    0    0  501  502  0.00000000000E+00  0.00000000000E+00  0.27158509873E+03  0.27158509873E+03  0.00000000000E+00 0. -1.
         21   -1    0    0  502  503 -0.00000000000E+00 -0.00000000000E+00 -0.41292044750E+03  0.41292044750E+03  0.00000000000E+00 0. -1.
          6    1    1    2  501    0 -0.24731949995E+03 -0.27943303168E+02 -0.21739576462E+03  0.37254889843E+03  0.17200000000E+03 0. -1.
         -6    1    1    2    0  503  0.24731949995E+03  0.27943303168E+02  0.76060415850E+02  0.31195664780E+03  0.17200000000E+03 0. -1.
</event>
<event>
 4    1  0.1259333E+000  0.1738969E+03  0.7818608E-02  0.1173844E+00
         21   -1    0    0  501  502  0.00000000000E+00  0.00000000000E+00  0.54666483018E+03  0.54666483018E+03  0.00000000000E+00 0. -1.
         21   -1    0    0  502  503 -0.00000000000E+00 -0.00000000000E+00 -0.64653088671E+02  0.64653088671E+02  0.00000000000E+00 0. -1.
          6    1    1    2  501    0 -0.90907081177E+01  0.23947306965E+02  0.35715449770E+03  0.39723978868E+03  0.17200000000E+03 0. -1.
         -6    1    1    2    0  503  0.90907081177E+01 -0.23947306965E+02  0.12485724381E+03  0.21407813017E+03  0.17200000000E+03 0. -1.
</event>
<event>
 4    1  0.1259333E+000  0.1916168E+03  0.7818608E-02  0.1157011E+00
         21   -1    0    0  501  502  0.00000000000E+00  0.00000000000E+00  0.80719930975E+02  0.80719930975E+02  0.00000000000E+00 0.  1.
         21   -1    0    0  502  503 -0.00000000000E+00 -0.00000000000E+00 -0.65592086342E+03  0.65592086342E+03  0.00000000000E+00 0.  1.
          6    1    1    2  501    0  0.64255630067E+02  0.54810524262E+02 -0.83683061117E+02  0.20909288434E+03  0.17200000000E+03 0. -1.
         -6    1    1    2    0  503 -0.64255630067E+02 -0.54810524262E+02 -0.49151787132E+03  0.52754791005E+03  0.17200000000E+03 0. -1.
</event>
<event>
 4    1  0.1259333E+000  0.2217651E+03  0.7818608E-02  0.1132574E+00
         21   -1    0    0  503  502  0.00000000000E+00  0.00000000000E+00  0.59962357249E+02  0.59962357249E+02  0.00000000000E+00 0. -1.
         21   -1    0    0  501  503 -0.00000000000E+00 -0.00000000000E+00 -0.83761596893E+03  0.83761596893E+03  0.00000000000E+00 0. -1.
          6    1    1    2  501    0 -0.13755080034E+03 -0.25991252645E+02 -0.32407143391E+03  0.39268570405E+03  0.17200000000E+03 0. -1.
         -6    1    1    2    0  502  0.13755080034E+03  0.25991252645E+02 -0.45358217777E+03  0.50489262213E+03  0.17200000000E+03 0. -1.
</event>
<event>
 4    1  0.1259333E+000  0.1917769E+03  0.7818608E-02  0.1156868E+00
         21   -1    0    0  503  502  0.00000000000E+00  0.00000000000E+00  0.10454425010E+03  0.10454425010E+03  0.00000000000E+00 0.  1.
         21   -1    0    0  501  503 -0.00000000000E+00 -0.00000000000E+00 -0.36561401762E+03  0.36561401762E+03  0.00000000000E+00 0.  1.
          6    1    1    2  501    0  0.73284121099E+02 -0.42706257381E+02 -0.17623368592E+03  0.26045479239E+03  0.17200000000E+03 0.  1.
         -6    1    1    2    0  502 -0.73284121099E+02  0.42706257381E+02 -0.84836081599E+02  0.20970347533E+03  0.17200000000E+03 0.  1.
</event>
<event>
 4    1  0.1259333E+000  0.2181218E+03  0.7818608E-02  0.1135291E+00
         21   -1    0    0  503  502  0.00000000000E+00  0.00000000000E+00  0.53284531421E+02  0.53284531421E+02  0.00000000000E+00 0.  1.
         21   -1    0    0  501  503 -0.00000000000E+00 -0.00000000000E+00 -0.94381707987E+03  0.94381707987E+03  0.00000000000E+00 0. -1.
          6    1    1    2  501    0  0.31828500265E+02 -0.13030762496E+03 -0.32945589811E+03  0.39511810811E+03  0.17200000000E+03 0.  1.
         -6    1    1    2    0  502 -0.31828500265E+02  0.13030762496E+03 -0.56107665034E+03  0.60198350319E+03  0.17200000000E+03 0.  1.
</event>
<event>
 4    1  0.1259333E+000  0.2423340E+03  0.7818608E-02  0.1118248E+00
         21   -1    0    0  503  502  0.00000000000E+00  0.00000000000E+00  0.87084778436E+03  0.87084778436E+03  0.00000000000E+00 0.  1.
         21   -1    0    0  501  503 -0.00000000000E+00 -0.00000000000E+00 -0.68009684242E+02  0.68009684242E+02  0.00000000000E+00 0.  1.
          6    1    1    2  501    0  0.17015131272E+03 -0.13795379407E+02  0.35827420591E+03  0.43253460941E+03  0.17200000000E+03 0. -1.
         -6    1    1    2    0  502 -0.17015131272E+03  0.13795379407E+02  0.44456389420E+03  0.50632285919E+03  0.17200000000E+03 0. -1.
</event>
<event>
 4    1  0.1259333E+000  0.2119076E+03  0.7818608E-02  0.1140064E+00
         21   -1    0    0  501  502  0.00000000000E+00  0.00000000000E+00  0.75840416544E+02  0.75840416544E+02  0.00000000000E+00 0.  1.
         21   -1    0    0  502  503 -0.00000000000E+00 -0.00000000000E+00 -0.60193902795E+03  0.60193902795E+03  0.00000000000E+00 0. -1.
          6    1    1    2  501    0  0.86536386652E+02  0.88500257259E+02 -0.21971453758E+03  0.30525287841E+03  0.17200000000E+03 0. -1.
         -6    1    1    2    0  503 -0.86536386652E+02 -0.88500257259E+02 -0.30638407383E+03  0.37252656609E+03  0.17200000000E+03 0.  1.
</event>
<event>
 4    1  0.1259333E+000  0.2091178E+03  0.7818608E-02  0.1142267E+00
         21   -1    0    0  503  502  0.00000000000E+00  0.00000000000E+00  0.18347910840E+03  0.18347910840E+03  0.00000000000E+00 0. -1.
         21   -1    0    0  501  503 -0.00000000000E+00 -0.00000000000E+00 -0.25746852738E+03  0.25746852738E+03  0.00000000000E+00 0.  1.
          6    1    1    2  501    0  0.11792499530E+03  0.15490344399E+02 -0.97090677038E+02  0.23055770396E+03  0.17200000000E+03 0.  1.
         -6    1    1    2    0  502 -0.11792499530E+03 -0.15490344399E+02  0.23101258062E+02  0.21038993182E+03  0.17200000000E+03 0. -1.
</event>
<event>
 4    1  0.1259333E+000  0.2115601E+03  0.7818608E-02  0.1140336E+00
         21   -1    0    0  503  502  0.00000000000E+00  0.00000000000E+00  0.87062706922E+02  0.87062706922E+02  0.00000000000E+00 0. -1.
         21   -1    0    0  501  503 -0.00000000000E+00 -0.00000000000E+00 -0.51440429367E+03  0.51440429367E+03  0.00000000000E+00 0. -1.
          6    1    1    2  501    0  0.69189516194E+02 -0.10191406886E+03 -0.20618303318E+03  0.29541345561E+03  0.17200000000E+03 0.  1.
         -6    1    1    2    0  502 -0.69189516194E+02  0.10191406886E+03 -0.22115855357E+03  0.30605354498E+03  0.17200000000E+03 0.  1.
</event>
<event>
 4    1  0.1259333E+000  0.1720032E+03  0.7818608E-02  0.1175775E+00
         21   -1    0    0  501  502  0.00000000000E+00  0.00000000000E+00  0.17975702804E+03  0.17975702804E+03  0.00000000000E+00 0. -1.
         21   -1    0    0  502  503 -0.00000000000E+00 -0.00000000000E+00 -0.42843676787E+03  0.42843676787E+03  0.00000000000E+00 0. -1.
          6    1    1    2  501    0 -0.93086801095E+00  0.47977162686E+00  0.11430362780E+03  0.20651977151E+03  0.17200000000E+03 0.  1.
         -6    1    1    2    0  503  0.93086801095E+00 -0.47977162686E+00 -0.36298336764E+03  0.40167402440E+03  0.17200000000E+03 0.  1.
</event>
<event>
 4    1  0.1259333E+000  0.1767544E+03  0.7818608E-02  0.1170982E+00
         21   -1    0    0  503  502  0.00000000000E+00  0.00000000000E+00  0.67336585232E+02  0.67336585232E+02  0.00000000000E+00 0.  1.
         21   -1    0    0  501  503 -0.00000000000E+00 -0.00000000000E+00 -0.61021257995E+03  0.61021257995E+03  0.00000000000E+00 0.  1.
          6    1    1    2  501    0 -0.26705717941E+02  0.30739557512E+02 -0.43728515608E+03  0.47165710372E+03  0.17200000000E+03 0.  1.
         -6    1    1    2    0  502  0.26705717941E+02 -0.30739557512E+02 -0.10559083864E+03  0.20589206146E+03  0.17200000000E+03 0.  1.
</event>
<event>
 4    1  0.1259333E+000  0.1779341E+03  0.7818608E-02  0.1169817E+00
         21   -1    0    0  501  502  0.00000000000E+00  0.00000000000E+00  0.26599444861E+03  0.26599444861E+03  0.00000000000E+00 0.  1.
         21   -1    0    0  502  503 -0.00000000000E+00 -0.00000000000E+00 -0.20502667883E+03  0.20502667883E+03  0.00000000000E+00 0.  1.
          6    1    1    2  501    0 -0.38668553439E+02  0.24110235740E+02  0.18301317382E+03  0.25525356469E+03  0.17200000000E+03 0. -1.
         -6    1    1    2    0  503  0.38668553439E+02 -0.24110235740E+02 -0.12204540404E+03  0.21576756276E+03  0.17200000000E+03 0. -1.
</event>
<event>
 4    1  0.1259333E+000  0.2531590E+03  0.7818608E-02  0.1111325E+00
         21   -1    0    0  503  502  0.00000000000E+00  0.00000000000E+00  0.27012704379E+04  0.27012704379E+04  0.00000000000E+00 0.  1.
         21   -1    0    0  501  503 -0.00000000000E+00 -0.00000000000E+00 -0.24158350593E+02  0.24158350593E+02  0.00000000000E+00 0. -1.
          6    1    1    2  501    0  0.18485036013E+03  0.18325491563E+02  0.11561876153E+04  0.11835790134E+04  0.17200000000E+03 0.  1.
         -6    1    1    2    0  502 -0.18485036013E+03 -0.18325491563E+02  0.15209244721E+04  0.15418497751E+04  0.17200000000E+03 0. -1.
</event>
<event>
 4    1  0.1259333E+000  0.1740502E+03  0.7818608E-02  0.1173689E+00
         21   -1    0    0  503  502  0.00000000000E+00  0.00000000000E+00  0.56491053336E+02  0.56491053336E+02  0.00000000000E+00 0. -1.
         21   -1    0    0  501  503 -0.00000000000E+00 -0.00000000000E+00 -0.94532236997E+03  0.94532236997E+03  0.00000000000E+00 0. -1.
          6    1    1    2  501    0 -0.26604899248E+02 -0.12840828380E+01 -0.77392339851E+03  0.79325336198E+03  0.17200000000E+03 0. -1.
         -6    1    1    2    0  502  0.26604899248E+02  0.12840828380E+01 -0.11490791812E+03  0.20856006133E+03  0.17200000000E+03 0. -1.
</event>
<event>
 4    1  0.1259333E+000  0.2036353E+03  0.7818608E-02  0.1146708E+00
         21   -1    0    0  501  502  0.00000000000E+00  0.00000000000E+00  0.86200085223E+03  0.86200085223E+03  0.00000000000E+00 0. -1.
         21   -1    0    0  502  503 -0.00000000000E+00 -0.00000000000E+00 -0.20645309644E+03  0.20645309644E+03  0.00000000000E+00 0.  1.
          6    1    1    2  501    0  0.13831066428E+01 -0.10900185090E+03  0.79563861958E+03  0.82128443882E+03  0.17200000000E+03 0. -1.
         -6    1    1    2    0  503 -0.13831066428E+01  0.10900185090E+03 -0.14009086379E+03  0.24716950985E+03  0.17200000000E+03 0.  1.
</event>
<event>
 4    1  0.1259333E+000  0.2385432E+03  0.7818608E-02  0.1120767E+00
         21   -1    0    0  501  502  0.00000000000E+00  0.00000000000E+00  0.15034000167E+03  0.15034000167E+03  0.00000000000E+00 0.  1.
         21   -1    0    0  502  503 -0.00000000000E+00 -0.00000000000E+00 -0.41154123573E+03  0.41154123573E+03  0.00000000000E+00 0.  1.
          6    1    1    2  501    0 -0.66174491110E+02 -0.15145882569E+03 -0.50989592102E+02  0.24393191193E+03  0.17200000000E+03 0.  1.
         -6    1    1    2    0  503  0.66174491110E+02  0.15145882569E+03 -0.21021164196E+03  0.31794932547E+03  0.17200000000E+03 0.  1.
</event>
<event>
 4    1  0.1259333E+000  0.2551029E+03  0.7818608E-02  0.1110122E+00
         21   -1    0    0  501  502  0.00000000000E+00  0.00000000000E+00  0.52747256168E+02  0.52747256168E+02  0.00000000000E+00 0.  1.
         21   -1    0    0  502  503 -0.00000000000E+00 -0.00000000000E+00 -0.13397862929E+04  0.13397862929E+04  0.00000000000E+00 0.  1.
          6    1    1    2  501    0  0.12760234237E+03  0.13860431112E+03 -0.44765199136E+03  0.51523763276E+03  0.17200000000E+03 0. -1.
         -6    1    1    2    0  503 -0.12760234237E+03 -0.13860431112E+03 -0.83938704537E+03  0.87729591631E+03  0.17200000000E+03 0. -1.
</event>
<event>
 4    1  0.1259333E+000  0.1780489E+03  0.7818608E-02  0.1169705E+00
         21   -1    0    0  501  502  0.00000000000E+00  0.00000000000E+00  0.40360894030E+03  0.40360894030E+03  0.00000000000E+00 0.  1.
         21   -1    0    0  502  503 -0.00000000000E+00 -0.00000000000E+00 -0.12388308799E+03  0.12388308799E+03  0.00000000000E+00 0.  1.
          6    1    1    2  501    0 -0.44714970326E+02  0.10861969967E+02  0.29941855368E+03  0.34835740447E+03  0.17200000000E+03 0.  1.
         -6    1    1    2    0  503  0.44714970326E+02 -0.10861969967E+02 -0.19692701372E+02  0.17913462382E+03  0.17200000000E+03 0.  1.
</event>
<event>
 4    1  0.1259333E+000  0.2897007E+03  0.7818608E-02  0.1090505E+00
         21   -1    0    0  501  502  0.00000000000E+00  0.00000000000E+00  0.13100618046E+03  0.13100618046E+03  0.00000000000E+00 0. -1.
         21   -1    0    0  502  503 -0.00000000000E+00 -0.00000000000E+00 -0.64875109682E+03  0.64875109682E+03  0.00000000000E+00 0.  1.
          6    1    1    2  501    0 -0.20444997799E+03 -0.11199432476E+03 -0.30249299633E+03  0.41884189751E+03  0.17200000000E+03 0.  1.
         -6    1    1    2    0  503  0.20444997799E+03  0.11199432476E+03 -0.21525192002E+03  0.36091537977E+03  0.17200000000E+03 0.  1.
</event>
<event>
 4    1  0.1259333E+000  0.2274135E+03  0.7818608E-02  0.1128474E+00
         21   -1    0    0  503  502  0.00000000000E+00  0.00000000000E+00  0.76454600128E+02  0.76454600128E+02  0.00000000000E+00 0. -1.
         21   -1    0    0  501  503 -0.00000000000E+00 -0.00000000000E+00 -0.72367158602E+03  0.72367158602E+03  0.00000000000E+00 0. -1.
          6    1    1    2  501    0 -0.13117463940E+03 -0.70186440172E+02 -0.22140267118E+03  0.31738945353E+03  0.17200000000E+03 0. -1.
         -6    1    1    2    0  502  0.13117463940E+03  0.70186440172E+02 -0.42581431471E+03  0.48273673262E+03  0.17200000000E+03 0. -1.
</event>
<event>
 4    1  0.1259333E+000  0.1764404E+03  0.7818608E-02  0.1171293E+00
         21   -1    0    0  503  502  0.00000000000E+00  0.00000000000E+00  0.90495964838E+02  0.90495964838E+02  0.00000000000E+00 0. -1.
         21   -1    0    0  501  503 -0.00000000000E+00 -0.00000000000E+00 -0.38895304930E+03  0.38895304930E+03  0.00000000000E+00 0. -1.
          6    1    1    2  501    0  0.24111161430E+02 -0.31078202949E+02 -0.23071996094E+03  0.29045292765E+03  0.17200000000E+03 0.  1.
         -6    1    1    2    0  502 -0.24111161430E+02  0.31078202949E+02 -0.67737123517E+02  0.18899608648E+03  0.17200000000E+03 0.  1.
</event>
<event>
 4    1  0.1259333E+000  0.1868760E+03  0.7818608E-02  0.1161310E+00
         21   -1    0    0  503  502  0.00000000000E+00  0.00000000000E+00  0.41452308972E+03  0.41452308972E+03  0.00000000000E+00 0. -1.
         21   -1    0    0  501  503 -0.00000000000E+00 -0.00000000000E+00 -0.85402647950E+02  0.85402647950E+02  0.00000000000E+00 0. -1.
          6    1    1    2  501    0  0.14944364949E+02  0.71521312573E+02  0.13549229107E+03  0.23082632678E+03  0.17200000000E+03 0. -1.
         -6    1    1    2    0  502 -0.14944364949E+02 -0.71521312573E+02  0.19362815070E+03  0.26909941088E+03  0.17200000000E+03 0. -1.
</event>
<event>
 4    1  0.1259333E+000  0.2513943E+03  0.7818608E-02  0.1112427E+00
         21   -1    0    0  503  502  0.00000000000E+00  0.00000000000E+00  0.32961280675E+03  0.32961280675E+03  0.00000000000E+00 0.  1.
         21   -1    0    0  501  503 -0.00000000000E+00 -0.00000000000E+00 -0.20990567590E+03  0.20990567590E+03  0.00000000000E+00 0.  1.
          6    1    1    2  501    0  0.15716068697E+03 -0.94422479170E+02 -0.19510096056E+02  0.25215021307E+03  0.17200000000E+03 0.  1.
         -6    1    1    2    0  502 -0.15716068697E+03  0.94422479170E+02  0.13921722691E+03  0.28736826959E+03  0.17200000000E+03 0.  1.
</event>
<event>
 4    1  0.1259333E+000  0.2040805E+03  0.7818608E-02  0.1146341E+00
         21   -1    0    0  503  502  0.00000000000E+00  0.00000000000E+00  0.80761173764E+02  0.80761173764E+02  0.00000000000E+00 0.  1.
         21   -1    0    0  501  503 -0.00000000000E+00 -0.00000000000E+00 -0.51648956249E+03  0.51648956249E+03  0.00000000000E+00 0.  1.
          6    1    1    2  501    0 -0.10548257300E+03  0.30631043440E+02 -0.20621552332E+03  0.29012699993E+03  0.17200000000E+03 0.  1.
         -6    1    1    2    0  502  0.10548257300E+03 -0.30631043440E+02 -0.22951286540E+03  0.30712373632E+03  0.17200000000E+03 0.  1.
</event>
<event>
 4    1  0.1259333E+000  0.1937213E+03  0.7818608E-02  0.1155147E+00
         21   -1    0    0  501  502  0.00000000000E+00  0.00000000000E+00  0.11363922146E+03  0.11363922146E+03  0.00000000000E+00 0. -1.
         21   -1    0    0  502  503 -0.00000000000E+00 -0.00000000000E+00 -0.43690830901E+03  0.43690830901E+03  0.00000000000E+00 0.  1.
          6    1    1    2  501    0  0.82454351146E+02 -0.33841115286E+02 -0.25617820076E+02  0.19540781410E+03  0.17200000000E+03 0.  1.
         -6    1    1    2    0  503 -0.82454351146E+02  0.33841115286E+02 -0.29765126748E+03  0.35513971637E+03  0.17200000000E+03 0.  1.
</event>
<event>
 4    1  0.1259333E+000  0.1871543E+03  0.7818608E-02  0.1161053E+00
         21   -1    0    0  503  502  0.00000000000E+00  0.00000000000E+00  0.73930091713E+03  0.73930091713E+03  0.00000000000E+00 0. -1.
         21   -1    0    0  501  503 -0.00000000000E+00 -0.00000000000E+00 -0.47390978137E+02  0.47390978137E+02  0.00000000000E+00 0. -1.
          6    1    1    2  501    0 -0.63658897252E+01  0.73499779831E+02  0.33949449245E+03  0.38766383967E+03  0.17200000000E+03 0. -1.
         -6    1    1    2    0  502  0.63658897252E+01 -0.73499779831E+02  0.35241544654E+03  0.39902805559E+03  0.17200000000E+03 0. -1.
</event>
<event>
 4    1  0.1259333E+000  0.3446064E+03  0.7818608E-02  0.1064851E+00
         21   -1    0    0  501  502  0.00000000000E+00  0.00000000000E+00  0.35873087384E+03  0.35873087384E+03  0.00000000000E+00 0.  1.
         21   -1    0    0  502  503 -0.00000000000E+00 -0.00000000000E+00 -0.44933079236E+03  0.44933079236E+03  0.00000000000E+00 0. -1.
          6    1    1    2  501    0 -0.17667160863E+03 -0.24074198324E+03  0.16200539310E+03  0.38078774558E+03  0.17200000000E+03 0.  1.
         -6    1    1    2    0  503  0.17667160863E+03  0.24074198324E+03 -0.25260531162E+03  0.42727392063E+03  0.17200000000E+03 0. -1.
</event>
<event>
 4    1  0.1259333E+000  0.1861548E+03  0.7818608E-02  0.1161976E+00
         21   -1    0    0  503  502  0.00000000000E+00  0.00000000000E+00  0.50541668785E+02  0.50541668785E+02  0.00000000000E+00 0. -1.
         21   -1    0    0  501  503 -0.00000000000E+00 -0.00000000000E+00 -0.77201183509E+03  0.77201183509E+03  0.00000000000E+00 0. -1.
          6    1    1    2  501    0  0.62911359403E+02 -0.33343225209E+02 -0.49829671227E+03  0.53193347636E+03  0.17200000000E+03 0.  1.
         -6    1    1    2    0  502 -0.62911359403E+02  0.33343225209E+02 -0.22317345403E+03  0.29062002752E+03  0.17200000000E+03 0.  1.
</event>
<event>
 4    1  0.1259333E+000  0.1753328E+03  0.7818608E-02  0.1172398E+00
         21   -1    0    0  503  502  0.00000000000E+00  0.00000000000E+00  0.15697317979E+03  0.15697317979E+03  0.00000000000E+00 0.  1.
         21   -1    0    0  501  503 -0.00000000000E+00 -0.00000000000E+00 -0.26608375062E+03  0.26608375062E+03  0.00000000000E+00 0.  1.
          6    1    1    2  501    0 -0.21255710425E+02  0.26566340879E+02 -0.16323900881E+03  0.23955907349E+03  0.17200000000E+03 0. -1.
         -6    1    1    2    0  502  0.21255710425E+02 -0.26566340879E+02  0.54128437983E+02  0.18349785691E+03  0.17200000000E+03 0. -1.
</event>
<event>
 4    1  0.1259333E+000  0.1910546E+03  0.7818608E-02  0.1157514E+00
         21   -1    0    0  503  502  0.00000000000E+00  0.00000000000E+00  0.46361785879E+03  0.46361785879E+03  0.00000000000E+00 0.  1.
         21   -1    0    0  501  503 -0.00000000000E+00 -0.00000000000E+00 -0.81838162230E+02  0.81838162230E+02  0.00000000000E+00 0.  1.
          6    1    1    2  501    0 -0.59379801804E+02 -0.58239868706E+02  0.13776210554E+03  0.23554243968E+03  0.17200000000E+03 0. -1.
         -6    1    1    2    0  502  0.59379801804E+02  0.58239868706E+02  0.24401759102E+03  0.30991358134E+03  0.17200000000E+03 0. -1.
</event>
<event>
 4    1  0.1259333E+000  0.2369939E+03  0.7818608E-02  0.1121812E+00
         21   -1    0    0  503  502  0.00000000000E+00  0.00000000000E+00  0.14003927280E+03  0.14003927280E+03  0.00000000000E+00 0. -1.
         21   -1    0    0  501  503 -0.00000000000E+00 -0.00000000000E+00 -0.99239991974E+03  0.99239991974E+03  0.00000000000E+00 0. -1.
          6    1    1    2  501    0  0.14201527898E+03 -0.80085880781E+02 -0.86325440662E+03  0.89519509511E+03  0.17200000000E+03 0. -1.
         -6    1    1    2    0  502 -0.14201527898E+03  0.80085880781E+02  0.10893759674E+02  0.23724409743E+03  0.17200000000E+03 0. -1.
</event>
<event>
 4    1  0.1259333E+000  0.2273151E+03  0.7818608E-02  0.1128544E+00
         21   -1    0    0  503  502  0.00000000000E+00  0.00000000000E+00  0.17293048884E+03  0.17293048884E+03  0.00000000000E+00 0. -1.
         21   -1    0    0  501  503 -0.00000000000E+00 -0.00000000000E+00 -0.33949628308E+03  0.33949628308E+03  0.00000000000E+00 0. -1.
          6    1    1    2  501    0 -0.51201278665E+02 -0.13952266124E+03 -0.17198743151E+03  0.28504704968E+03  0.17200000000E+03 0.  1.
         -6    1    1    2    0  502  0.51201278665E+02  0.13952266124E+03  0.54216372675E+01  0.22737972224E+03  0.17200000000E+03 0.  1.
</event>
<event>
 4    1  0.1259333E+000  0.2139593E+03  0.7818608E-02  0.1138468E+00
         21   -1    0    0  503  502  0.00000000000E+00  0.00000000000E+00  0.81994630330E+02  0.81994630330E+02  0.00000000000E+00 0. -1.
         21   -1    0    0  501  503 -0.00000000000E+00 -0.00000000000E+00 -0.82679363706E+03  0.82679363706E+03  0.00000000000E+00 0.  1.
          6    1    1    2  501    0  0.96692570520E+02 -0.82735180200E+02 -0.63133504841E+03  0.66660521044E+03  0.17200000000E+03 0.  1.
         -6    1    1    2    0  502 -0.96692570520E+02  0.82735180200E+02 -0.11346395833E+03  0.24218305695E+03  0.17200000000E+03 0.  1.
</event>
<event>
 4    1  0.1259333E+000  0.1818350E+03  0.7818608E-02  0.1166039E+00
         21   -1    0    0  503  502  0.00000000000E+00  0.00000000000E+00  0.89359440686E+02  0.89359440686E+02  0.00000000000E+00 0.  1.
         21   -1    0    0  501  503 -0.00000000000E+00 -0.00000000000E+00 -0.37414592086E+03  0.37414592086E+03  0.00000000000E+00 0.  1.
          6    1    1    2  501    0 -0.46366284395E+02  0.36470936126E+02 -0.16675711605E+03  0.24672230800E+03  0.17200000000E+03 0. -1.
         -6    1    1    2    0  502  0.46366284395E+02 -0.36470936126E+02 -0.11802936412E+03  0.21678305355E+03  0.17200000000E+03 0. -1.
</event>
<event>
 4    1  0.1259333E+000  0.1848405E+03  0.7818608E-02  0.1163199E+00
         21   -1    0    0  503  502  0.00000000000E+00  0.00000000000E+00  0.63946656970E+02  0.63946656970E+02  0.00000000000E+00 0.  1.
         21   -1    0    0  501  503 -0.00000000000E+00 -0.00000000000E+00 -0.53438396611E+03  0.53438396611E+03  0.00000000000E+00 0.  1.
          6    1    1    2  501    0 -0.44712492850E+02  0.50821359041E+02 -0.23123780726E+03  0.29603537130E+03  0.17200000000E+03 0.  1.
         -6    1    1    2    0  502  0.44712492850E+02 -0.50821359041E+02 -0.23919950188E+03  0.30229525179E+03  0.17200000000E+03 0.  1.
</event>
<event>
 4    1  0.1259333E+000  0.1723340E+03  0.7818608E-02  0.1175436E+00
         21   -1    0    0  501  502  0.00000000000E+00  0.00000000000E+00  0.35451352101E+02  0.35451352101E+02  0.00000000000E+00 0.  1.
         21   -1    0    0  502  503 -0.00000000000E+00 -0.00000000000E+00 -0.87021206059E+03  0.87021206059E+03  0.00000000000E+00 0.  1.
          6    1    1    2  501    0 -0.51672243250E+01  0.93967848660E+01 -0.32990570516E+03  0.37220528485E+03  0.17200000000E+03 0. -1.
         -6    1    1    2    0  503  0.51672243250E+01 -0.93967848660E+01 -0.50485500333E+03  0.53345812784E+03  0.17200000000E+03 0. -1.
</event>
<event>
 4    1  0.1259333E+000  0.1833351E+03  0.7818608E-02  0.1164614E+00
         21   -1    0    0  503  502  0.00000000000E+00  0.00000000000E+00  0.42149827223E+03  0.42149827223E+03  0.00000000000E+00 0.  1.
         21   -1    0    0  501  503 -0.00000000000E+00 -0.00000000000E+00 -0.79748547274E+02  0.79748547274E+02  0.00000000000E+00 0.  1.
          6    1    1    2  501    0 -0.26643028009E+02  0.57601353012E+02  0.17285961220E+03  0.25197661070E+03  0.17200000000E+03 0.  1.
         -6    1    1    2    0  502  0.26643028009E+02 -0.57601353012E+02  0.16889011276E+03  0.24927020880E+03  0.17200000000E+03 0.  1.
</event>
<event>
 4    1  0.1259333E+000  0.2301466E+03  0.7818608E-02  0.1126537E+00
         21   -1    0    0  501  502  0.00000000000E+00  0.00000000000E+00  0.47738613794E+03  0.47738613794E+03  0.00000000000E+00 0.  1.
         21   -1    0    0  502  503 -0.00000000000E+00 -0.00000000000E+00 -0.11515213409E+03  0.11515213409E+03  0.00000000000E+00 0.  1.
          6    1    1    2  501    0  0.15218934376E+03  0.14894992400E+02  0.12454172176E+03  0.26168320086E+03  0.17200000000E+03 0.  1.
         -6    1    1    2    0  503 -0.15218934376E+03 -0.14894992400E+02  0.23769228210E+03  0.33085507117E+03  0.17200000000E+03 0.  1.
</event>
<event>
 4    1  0.1259333E+000  0.1865981E+03  0.7818608E-02  0.1161566E+00
         21   -1    0    0  503  502  0.00000000000E+00  0.00000000000E+00  0.25839426523E+02  0.25839426523E+02  0.00000000000E+00 0.  1.
         21   -1    0    0  501  503 -0.00000000000E+00 -0.00000000000E+00 -0.21580651645E+04  0.21580651645E+04  0.00000000000E+00 0.  1.
          6    1    1    2  501    0  0.49270971176E+02  0.52983160498E+02 -0.17353239287E+04  0.17453274712E+04  0.17200000000E+03 0.  1.
         -6    1    1    2    0  502 -0.49270971176E+02 -0.52983160498E+02 -0.39690180921E+03  0.43857711985E+03  0.17200000000E+03 0.  1.
</event>
<event>
 4    1  0.1259333E+000  0.1886523E+03  0.7818608E-02  0.1159683E+00
         21   -1    0    0  501  502  0.00000000000E+00  0.00000000000E+00  0.98566877910E+03  0.98566877910E+03  0.00000000000E+00 0.  1.
         21   -1    0    0  502  503 -0.00000000000E+00 -0.00000000000E+00 -0.99742347086E+02  0.99742347086E+02  0.00000000000E+00 0.  1.
          6    1    1    2  501    0  0.70765372124E+02  0.31590226083E+02  0.87644735716E+03  0.89652085874E+03  0.17200000000E+03 0.  1.
         -6    1    1    2    0  503 -0.70765372124E+02 -0.31590226083E+02  0.94790748502E+01  0.18889026745E+03  0.17200000000E+03 0.  1.
</event>
<event>
 4    1  0.1259333E+000  0.1939386E+03  0.7818608E-02  0.1154956E+00
         21   -1    0    0  501  502  0.00000000000E+00  0.00000000000E+00  0.31705133871E+02  0.31705133871E+02  0.00000000000E+00 0.  1.
         21   -1    0    0  502  503 -0.00000000000E+00 -0.00000000000E+00 -0.13607871611E+04  0.13607871611E+04  0.00000000000E+00 0.  1.
          6    1    1    2  501    0 -0.80901991873E+02  0.38510481923E+02 -0.91384783685E+03  0.93420022395E+03  0.17200000000E+03 0.  1.
         -6    1    1    2    0  503  0.80901991873E+02 -0.38510481923E+02 -0.41523419041E+03  0.45829207106E+03  0.17200000000E+03 0.  1.
</event>
<event>
 4    1  0.1259333E+000  0.1951576E+03  0.7818608E-02  0.1153890E+00
         21   -1    0    0  501  502  0.00000000000E+00  0.00000000000E+00  0.23076222356E+03  0.23076222356E+03  0.00000000000E+00 0.  1.
         21   -1    0    0  502  503 -0.00000000000E+00 -0.00000000000E+00 -0.25447643666E+03  0.25447643666E+03  0.00000000000E+00 0.  1.
          6    1    1    2  501    0 -0.73266052942E+02  0.55987428224E+02  0.13197073916E+03  0.23559028551E+03  0.17200000000E+03 0.  1.
         -6    1    1    2    0  503  0.73266052942E+02 -0.55987428224E+02 -0.15568495226E+03  0.24964837471E+03  0.17200000000E+03 0.  1.
</event>
<event>
 4    1  0.1259333E+000  0.2442691E+03  0.7818608E-02  0.1116981E+00
         21   -1    0    0  503  502  0.00000000000E+00  0.00000000000E+00  0.50011081708E+03  0.50011081708E+03  0.00000000000E+00 0. -1.
         21   -1    0    0  501  503 -0.00000000000E+00 -0.00000000000E+00 -0.12601777941E+03  0.12601777941E+03  0.00000000000E+00 0. -1.
          6    1    1    2  501    0 -0.92682096128E+02  0.14660639866E+03  0.11480951311E+03  0.26990485615E+03  0.17200000000E+03 0. -1.
         -6    1    1    2    0  502  0.92682096128E+02 -0.14660639866E+03  0.25928352457E+03  0.35622374034E+03  0.17200000000E+03 0. -1.
</event>
<event>
 4    1  0.1259333E+000  0.3477982E+03  0.7818608E-02  0.1063522E+00
         21   -1    0    0  501  502  0.00000000000E+00  0.00000000000E+00  0.15818208772E+04  0.15818208772E+04  0.00000000000E+00 0.  1.
         21   -1    0    0  502  503 -0.00000000000E+00 -0.00000000000E+00 -0.22948863536E+03  0.22948863536E+03  0.00000000000E+00 0. -1.
          6    1    1    2  501    0 -0.41311140262E+01  0.30226233351E+03  0.14156908145E+04  0.14577873873E+04  0.17200000000E+03 0.  1.
         -6    1    1    2    0  503  0.41311140262E+01 -0.30226233351E+03 -0.63358572586E+02  0.35352212531E+03  0.17200000000E+03 0. -1.
</event>
<event>
 4    1  0.1259333E+000  0.2499401E+03  0.7818608E-02  0.1113343E+00
         21   -1    0    0  503  502  0.00000000000E+00  0.00000000000E+00  0.72359704211E+02  0.72359704211E+02  0.00000000000E+00 0. -1.
         21   -1    0    0  501  503 -0.00000000000E+00 -0.00000000000E+00 -0.88120120530E+03  0.88120120530E+03  0.00000000000E+00 0.  1.
          6    1    1    2  501    0  0.54423196183E+02 -0.17298597320E+03 -0.47232602871E+03  0.53437992908E+03  0.17200000000E+03 0.  1.
         -6    1    1    2    0  502 -0.54423196183E+02  0.17298597320E+03 -0.33651547238E+03  0.41918098043E+03  0.17200000000E+03 0.  1.
</event>
<event>
 4    1  0.1259333E+000  0.2308494E+03  0.7818608E-02  0.1126043E+00
         21   -1    0    0  501  502  0.00000000000E+00  0.00000000000E+00  0.19462219145E+04  0.19462219145E+04  0.00000000000E+00 0.  1.
         21   -1    0    0  502  503 -0.00000000000E+00 -0.00000000000E+00 -0.59438306744E+02  0.59438306744E+02  0.00000000000E+00 0.  1.
          6    1    1    2  501    0  0.14214851910E+03  0.59171464212E+02  0.16798546478E+04  0.16956423861E+04  0.17200000000E+03 0.  1.
         -6    1    1    2    0  503 -0.14214851910E+03 -0.59171464212E+02  0.20692895992E+03  0.31001783515E+03  0.17200000000E+03 0.  1.
</event>
<event>
 4    1  0.1259333E+000  0.1726957E+03  0.7818608E-02  0.1175065E+00
         21   -1    0    0  501  502  0.00000000000E+00  0.00000000000E+00  0.45338415374E+02  0.45338415374E+02  0.00000000000E+00 0.  1.
         21   -1    0    0  502  503 -0.00000000000E+00 -0.00000000000E+00 -0.17126475394E+04  0.17126475394E+04  0.00000000000E+00 0.  1.
          6    1    1    2  501    0  0.94223358737E+01  0.12289864804E+02 -0.14381945226E+03  0.22473952932E+03  0.17200000000E+03 0.  1.
         -6    1    1    2    0  503 -0.94223358737E+01 -0.12289864804E+02 -0.15234896718E+04  0.15332464255E+04  0.17200000000E+03 0.  1.
</event>
<event>
 4    1  0.1259333E+000  0.2425450E+03  0.7818608E-02  0.1118109E+00
         21   -1    0    0  501  502  0.00000000000E+00  0.00000000000E+00  0.12729940279E+03  0.12729940279E+03  0.00000000000E+00 0. -1.
         21   -1    0    0  502  503 -0.00000000000E+00 -0.00000000000E+00 -0.47679008604E+03  0.47679008604E+03  0.00000000000E+00 0.  1.
          6    1    1    2  501    0 -0.23740354990E+02 -0.16935305358E+03 -0.22772026929E+03  0.33269292487E+03  0.17200000000E+03 0.  1.
         -6    1    1    2    0  503  0.23740354990E+02  0.16935305358E+03 -0.12177041396E+03  0.27139656396E+03  0.17200000000E+03 0.  1.
</event>
<event>
 4    1  0.1259333E+000  0.1811391E+03  0.7818608E-02  0.1166705E+00
         21   -1    0    0  501  502  0.00000000000E+00  0.00000000000E+00  0.24577850606E+02  0.24577850606E+02  0.00000000000E+00 0.  1.
         21   -1    0    0  502  503 -0.00000000000E+00 -0.00000000000E+00 -0.14058866220E+04  0.14058866220E+04  0.00000000000E+00 0.  1.
          6    1    1    2  501    0 -0.23192682646E+02 -0.51860001871E+02 -0.53004799380E+03  0.56014483489E+03  0.17200000000E+03 0.  1.
         -6    1    1    2    0  503  0.23192682646E+02  0.51860001871E+02 -0.85126077755E+03  0.87031963767E+03  0.17200000000E+03 0.  1.
</event>
<event>
 4    1  0.1259333E+000  0.1881035E+03  0.7818608E-02  0.1160183E+00
         21   -1    0    0  501  502  0.00000000000E+00  0.00000000000E+00  0.12773386573E+03  0.12773386573E+03  0.00000000000E+00 0. -1.
         21   -1    0    0  502  503 -0.00000000000E+00 -0.00000000000E+00 -0.28833040271E+03  0.28833040271E+03  0.00000000000E+00 0. -1.
          6    1    1    2  501    0  0.36698806456E+02 -0.66724373670E+02 -0.39068747857E+02  0.19211796245E+03  0.17200000000E+03 0. -1.
         -6    1    1    2    0  503 -0.36698806456E+02  0.66724373670E+02 -0.12152778913E+03  0.22394630599E+03  0.17200000000E+03 0. -1.
</event>
<event>
 4    1  0.1259333E+000  0.1756119E+03  0.7818608E-02  0.1172119E+00
         21   -1    0    0  503  502  0.00000000000E+00  0.00000000000E+00  0.15016319074E+04  0.15016319074E+04  0.00000000000E+00 0.  1.
         21   -1    0    0  501  503 -0.00000000000E+00 -0.00000000000E+00 -0.73056517566E+02  0.73056517566E+02  0.00000000000E+00 0.  1.
          6    1    1    2  501    0  0.29285128329E+02 -0.19947566703E+02  0.46721837103E+02  0.18172081395E+03  0.17200000000E+03 0.  1.
         -6    1    1    2    0  502 -0.29285128329E+02  0.19947566703E+02  0.13818535528E+04  0.13929676111E+04  0.17200000000E+03 0.  1.
</event>
<event>
 4    1  0.1259333E+000  0.1739328E+03  0.7818608E-02  0.1173807E+00
         21   -1    0    0  501  502  0.00000000000E+00  0.00000000000E+00  0.17098475792E+03  0.17098475792E+03  0.00000000000E+00 0. -1.
         21   -1    0    0  502  503 -0.00000000000E+00 -0.00000000000E+00 -0.28101506159E+03  0.28101506159E+03  0.00000000000E+00 0. -1.
          6    1    1    2  501    0 -0.40972527373E+00 -0.25854644535E+02  0.82526438389E+02  0.19251816421E+03  0.17200000000E+03 0.  1.
         -6    1    1    2    0  503  0.40972527373E+00  0.25854644535E+02 -0.19255674206E+03  0.25948165529E+03  0.17200000000E+03 0.  1.
</event>
<event>
 4    1  0.1259333E+000  0.3448253E+03  0.7818608E-02  0.1064759E+00
         21   -1    0    0  503  502  0.00000000000E+00  0.00000000000E+00  0.93462037235E+03  0.93462037235E+03  0.00000000000E+00 0.  1.
         21   -1    0    0  501  503 -0.00000000000E+00 -0.00000000000E+00 -0.24176093166E+03  0.24176093166E+03  0.00000000000E+00 0.  1.
          6    1    1    2  501    0  0.29862367075E+03 -0.12015823148E+02 -0.58426865629E+02  0.34974015406E+03  0.17200000000E+03 0.  1.
         -6    1    1    2    0  502 -0.29862367075E+03  0.12015823148E+02  0.75128630632E+03  0.82664114995E+03  0.17200000000E+03 0.  1.
</event>
<event>
 4    1  0.1259333E+000  0.2115574E+03  0.7818608E-02  0.1140339E+00
         21   -1    0    0  501  502  0.00000000000E+00  0.00000000000E+00  0.85752730536E+03  0.85752730536E+03  0.00000000000E+00 0.  1.
         21   -1    0    0  502  503 -0.00000000000E+00 -0.00000000000E+00 -0.72125119135E+02  0.72125119135E+02  0.00000000000E+00 0. -1.
          6    1    1    2  501    0 -0.22445615182E+02 -0.12111459659E+03  0.63706034993E+03  0.67126927577E+03  0.17200000000E+03 0.  1.
         -6    1    1    2    0  503  0.22445615182E+02  0.12111459659E+03  0.14834183630E+03  0.25838314872E+03  0.17200000000E+03 0.  1.
</event>
<event>
 4    1  0.1259333E+000  0.1996356E+03  0.7818608E-02  0.1150047E+00
         21   -1    0    0  503  502  0.00000000000E+00  0.00000000000E+00  0.26789846642E+02  0.26789846642E+02  0.00000000000E+00 0.  1.
         21   -1    0    0  501  503 -0.00000000000E+00 -0.00000000000E+00 -0.14901742895E+04  0.14901742895E+04  0.00000000000E+00 0.  1.
          6    1    1    2  501    0 -0.69234133908E+02  0.74006870500E+02 -0.70058278203E+03  0.72847142474E+03  0.17200000000E+03 0.  1.
         -6    1    1    2    0  502  0.69234133908E+02 -0.74006870500E+02 -0.76280166080E+03  0.78849271138E+03  0.17200000000E+03 0.  1.
</event>
<event>
 4    1  0.1259333E+000  0.1779556E+03  0.7818608E-02  0.1169796E+00
         21   -1    0    0  501  502  0.00000000000E+00  0.00000000000E+00  0.11136895019E+04  0.11136895019E+04  0.00000000000E+00 0.  1.
         21   -1    0    0  502  503 -0.00000000000E+00 -0.00000000000E+00 -0.30681256727E+02  0.30681256727E+02  0.00000000000E+00 0.  1.
          6    1    1    2  501    0  0.45422390738E+02  0.45825151895E+01  0.69631175702E+03  0.71869204531E+03  0.17200000000E+03 0. -1.
         -6    1    1    2    0  503 -0.45422390738E+02 -0.45825151895E+01  0.38669648820E+03  0.42567871337E+03  0.17200000000E+03 0. -1.
</event>
<event>
 4    1  0.1259333E+000  0.2023828E+03  0.7818608E-02  0.1147744E+00
         21   -1    0    0  501  502  0.00000000000E+00  0.00000000000E+00  0.35973738946E+03  0.35973738946E+03  0.00000000000E+00 0. -1.
         21   -1    0    0  502  503 -0.00000000000E+00 -0.00000000000E+00 -0.12057442529E+03  0.12057442529E+03  0.00000000000E+00 0. -1.
          6    1    1    2  501    0 -0.86908198367E+02 -0.61820537246E+02  0.62898893033E+02  0.21193179213E+03  0.17200000000E+03 0. -1.
         -6    1    1    2    0  503  0.86908198367E+02  0.61820537246E+02  0.17626407114E+03  0.26838002262E+03  0.17200000000E+03 0. -1.
</event>
<event>
 4    1  0.1259333E+000  0.1864980E+03  0.7818608E-02  0.1161658E+00
         21   -1    0    0  501  502  0.00000000000E+00  0.00000000000E+00  0.29427435570E+03  0.29427435570E+03  0.00000000000E+00 0. -1.
         21   -1    0    0  502  503 -0.00000000000E+00 -0.00000000000E+00 -0.14565099197E+03  0.14565099197E+03  0.00000000000E+00 0. -1.
          6    1    1    2  501    0 -0.59439587443E+02 -0.40797748734E+02  0.16981472177E+03  0.25222720033E+03  0.17200000000E+03 0. -1.
         -6    1    1    2    0  503  0.59439587443E+02  0.40797748734E+02 -0.21191358036E+02  0.18769814733E+03  0.17200000000E+03 0. -1.
</event>
<event>
 4    1  0.1259333E+000  0.1825865E+03  0.7818608E-02  0.1165323E+00
         21   -1    0    0  501  502  0.00000000000E+00  0.00000000000E+00  0.45086815136E+03  0.45086815136E+03  0.00000000000E+00 0. -1.
         21   -1    0    0  502  503 -0.00000000000E+00 -0.00000000000E+00 -0.12522818072E+03  0.12522818072E+03  0.00000000000E+00 0. -1.
          6    1    1    2  501    0  0.53432980319E+02  0.29978930422E+02  0.34715881397E+03  0.39224617496E+03  0.17200000000E+03 0. -1.
         -6    1    1    2    0  503 -0.53432980319E+02 -0.29978930422E+02 -0.21518843320E+02  0.18385015712E+03  0.17200000000E+03 0. -1.
</event>
<event>
 4    1  0.1259333E+000  0.2073972E+03  0.7818608E-02  0.1143644E+00
         21   -1    0    0  501  502  0.00000000000E+00  0.00000000000E+00  0.93223300642E+03  0.93223300642E+03  0.00000000000E+00 0. -1.
         21   -1    0    0  502  503 -0.00000000000E+00 -0.00000000000E+00 -0.48301735158E+02  0.48301735158E+02  0.00000000000E+00 0. -1.
          6    1    1    2  501    0  0.10828124431E+03 -0.41288720913E+02  0.54567418641E+03  0.58375842954E+03  0.17200000000E+03 0. -1.
         -6    1    1    2    0  503 -0.10828124431E+03  0.41288720913E+02  0.33825708485E+03  0.39677631204E+03  0.17200000000E+03 0. -1.
</event>
<event>
 4    1  0.1259333E+000  0.1752089E+03  0.7818608E-02  0.1172522E+00
         21   -1    0    0  501  502  0.00000000000E+00  0.00000000000E+00  0.13112673525E+03  0.13112673525E+03  0.00000000000E+00 0. -1.
         21   -1    0    0  502  503 -0.00000000000E+00 -0.00000000000E+00 -0.23893237964E+03  0.23893237964E+03  0.00000000000E+00 0. -1.
          6    1    1    2  501    0 -0.33102468347E+01  0.33214325994E+02 -0.27617667304E+02  0.17737216448E+03  0.17200000000E+03 0. -1.
         -6    1    1    2    0  503  0.33102468347E+01 -0.33214325994E+02 -0.80187977086E+02  0.19268695040E+03  0.17200000000E+03 0. -1.
</event>
<event>
 4    1  0.1259333E+000  0.2328715E+03  0.7818608E-02  0.1124635E+00
         21   -1    0    0  501  502  0.00000000000E+00  0.00000000000E+00  0.13093848130E+03  0.13093848130E+03  0.00000000000E+00 0. -1.
         21   -1    0    0  502  503 -0.00000000000E+00 -0.00000000000E+00 -0.41444683341E+03  0.41444683341E+03  0.00000000000E+00 0. -1.
          6    1    1    2  501    0 -0.13895075235E+03 -0.73060307664E+02 -0.13454587757E+03  0.26894555825E+03  0.17200000000E+03 0. -1.
         -6    1    1    2    0  503  0.13895075235E+03  0.73060307664E+02 -0.14896247454E+03  0.27643975646E+03  0.17200000000E+03 0. -1.
</event>
<event>
 4    1  0.1259333E+000  0.1894625E+03  0.7818608E-02  0.1158947E+00
         21   -1    0    0  503  502  0.00000000000E+00  0.00000000000E+00  0.35172902860E+03  0.35172902860E+03  0.00000000000E+00 0.  1.
         21   -1    0    0  501  503 -0.00000000000E+00 -0.00000000000E+00 -0.20113349842E+03  0.20113349842E+03  0.00000000000E+00 0.  1.
          6    1    1    2  501    0  0.78511623546E+02 -0.12164723650E+02 -0.11871597379E+03  0.22358340271E+03  0.17200000000E+03 0.  1.
         -6    1    1    2    0  502 -0.78511623546E+02  0.12164723650E+02  0.26931150398E+03  0.32927912431E+03  0.17200000000E+03 0.  1.
</event>
<event>
 4    1  0.1259333E+000  0.1794215E+03  0.7818608E-02  0.1168364E+00
         21   -1    0    0  501  502  0.00000000000E+00  0.00000000000E+00  0.10601764729E+04  0.10601764729E+04  0.00000000000E+00 0. -1.
         21   -1    0    0  502  503 -0.00000000000E+00 -0.00000000000E+00 -0.31789579839E+02  0.31789579839E+02  0.00000000000E+00 0. -1.
          6    1    1    2  501    0  0.26526947341E+01 -0.51000455528E+02  0.62977947827E+03  0.65483912109E+03  0.17200000000E+03 0. -1.
         -6    1    1    2    0  503 -0.26526947341E+01  0.51000455528E+02  0.39860741483E+03  0.43712693169E+03  0.17200000000E+03 0. -1.
</event>
<event>
 4    1  0.1259333E+000  0.2063244E+03  0.7818608E-02  0.1144510E+00
         21   -1    0    0  501  502  0.00000000000E+00  0.00000000000E+00  0.17029941069E+03  0.17029941069E+03  0.00000000000E+00 0. -1.
         21   -1    0    0  502  503 -0.00000000000E+00 -0.00000000000E+00 -0.28739397758E+03  0.28739397758E+03  0.00000000000E+00 0.  1.
          6    1    1    2  501    0  0.90245264611E+02 -0.69581255521E+02  0.24033740832E+02  0.20771947334E+03  0.17200000000E+03 0. -1.
         -6    1    1    2    0  503 -0.90245264611E+02  0.69581255521E+02 -0.14112830773E+03  0.24997391493E+03  0.17200000000E+03 0. -1.
</event>
<event>
 4    1  0.1259333E+000  0.2483588E+03  0.7818608E-02  0.1114346E+00
         21   -1    0    0  503  502  0.00000000000E+00  0.00000000000E+00  0.32602992751E+03  0.32602992751E+03  0.00000000000E+00 0.  1.
         21   -1    0    0  501  503 -0.00000000000E+00 -0.00000000000E+00 -0.20390045876E+03  0.20390045876E+03  0.00000000000E+00 0.  1.
          6    1    1    2  501    0  0.86242511161E+02  0.15703610480E+03 -0.10100827012E+02  0.24856414796E+03  0.17200000000E+03 0.  1.
         -6    1    1    2    0  502 -0.86242511161E+02 -0.15703610480E+03  0.13223029576E+03  0.28136623831E+03  0.17200000000E+03 0.  1.
</event>
<event>
 4    1  0.1259333E+000  0.2051745E+03  0.7818608E-02  0.1145445E+00
         21   -1    0    0  503  502  0.00000000000E+00  0.00000000000E+00  0.37029971657E+03  0.37029971657E+03  0.00000000000E+00 0. -1.
         21   -1    0    0  501  503 -0.00000000000E+00 -0.00000000000E+00 -0.11556469922E+03  0.11556469922E+03  0.00000000000E+00 0. -1.
          6    1    1    2  501    0 -0.52214509900E+02 -0.98925376275E+02  0.96364120117E+02  0.22667736711E+03  0.17200000000E+03 0. -1.
         -6    1    1    2    0  502  0.52214509900E+02  0.98925376275E+02  0.15837089723E+03  0.25918704868E+03  0.17200000000E+03 0. -1.
</event>
<event>
 4    1  0.1259333E+000  0.2622498E+03  0.7818608E-02  0.1105799E+00
         21   -1    0    0  501  502  0.00000000000E+00  0.00000000000E+00  0.37127623013E+03  0.37127623013E+03  0.00000000000E+00 0.  1.
         21   -1    0    0  502  503 -0.00000000000E+00 -0.00000000000E+00 -0.18609657058E+03  0.18609657058E+03  0.00000000000E+00 0. -1.
          6    1    1    2  501    0 -0.11001413777E+03 -0.16458381593E+03  0.11150497345E+03  0.28497070390E+03  0.17200000000E+03 0.  1.
         -6    1    1    2    0  503  0.11001413777E+03  0.16458381593E+03  0.73674686090E+02  0.27240209681E+03  0.17200000000E+03 0.  1.
</event>
<event>
 4    1  0.1259333E+000  0.1813847E+03  0.7818608E-02  0.1166470E+00
         21   -1    0    0  503  502  0.00000000000E+00  0.00000000000E+00  0.19257022006E+02  0.19257022006E+02  0.00000000000E+00 0. -1.
         21   -1    0    0  501  503 -0.00000000000E+00 -0.00000000000E+00 -0.22521983602E+04  0.22521983602E+04  0.00000000000E+00 0. -1.
          6    1    1    2  501    0 -0.53043245368E+02 -0.22423708443E+02 -0.16744965422E+04  0.16842918626E+04  0.17200000000E+03 0. -1.
         -6    1    1    2    0  502  0.53043245368E+02  0.22423708443E+02 -0.55844479593E+03  0.58716351954E+03  0.17200000000E+03 0. -1.
</event>
<event>
 4    1  0.1259333E+000  0.2419327E+03  0.7818608E-02  0.1118512E+00
         21   -1    0    0  501  502  0.00000000000E+00  0.00000000000E+00  0.11525707362E+04  0.11525707362E+04  0.00000000000E+00 0. -1.
         21   -1    0    0  502  503 -0.00000000000E+00 -0.00000000000E+00 -0.71630612190E+02  0.71630612190E+02  0.00000000000E+00 0.  1.
          6    1    1    2  501    0  0.82902638541E+02  0.14857521014E+03  0.21025437387E+03  0.32052822383E+03  0.17200000000E+03 0.  1.
         -6    1    1    2    0  503 -0.82902638541E+02 -0.14857521014E+03  0.87068575016E+03  0.90367312458E+03  0.17200000000E+03 0. -1.
</event>
<event>
 4    1  0.1259333E+000  0.2405855E+03  0.7818608E-02  0.1119403E+00
         21   -1    0    0  503  502  0.00000000000E+00  0.00000000000E+00  0.13890749764E+04  0.13890749764E+04  0.00000000000E+00 0.  1.
         21   -1    0    0  501  503 -0.00000000000E+00 -0.00000000000E+00 -0.42471048366E+02  0.42471048366E+02  0.00000000000E+00 0.  1.
          6    1    1    2  501    0  0.48755338484E+02  0.16099775723E+03  0.77166455307E+03  0.80829916697E+03  0.17200000000E+03 0. -1.
         -6    1    1    2    0  502 -0.48755338484E+02 -0.16099775723E+03  0.57493937495E+03  0.62324685778E+03  0.17200000000E+03 0. -1.
</event>
<event>
 4    1  0.1259333E+000  0.1827192E+03  0.7818608E-02  0.1165197E+00
         21   -1    0    0  501  502  0.00000000000E+00  0.00000000000E+00  0.45399278390E+02  0.45399278390E+02  0.00000000000E+00 0.  1.
         21   -1    0    0  502  503 -0.00000000000E+00 -0.00000000000E+00 -0.78211448604E+03  0.78211448604E+03  0.00000000000E+00 0.  1.
          6    1    1    2  501    0  0.50863767151E+02  0.34859560335E+02 -0.46948489326E+03  0.50378802760E+03  0.17200000000E+03 0.  1.
         -6    1    1    2    0  503 -0.50863767151E+02 -0.34859560335E+02 -0.26723031438E+03  0.32372573682E+03  0.17200000000E+03 0.  1.
</event>
<event>
 4    1  0.1259333E+000  0.2017385E+03  0.7818608E-02  0.1148281E+00
         21   -1    0    0  501  502  0.00000000000E+00  0.00000000000E+00  0.38195383076E+03  0.38195383076E+03  0.00000000000E+00 0. -1.
         21   -1    0    0  502  503 -0.00000000000E+00 -0.00000000000E+00 -0.11547111607E+03  0.11547111607E+03  0.00000000000E+00 0. -1.
          6    1    1    2  501    0 -0.19213150581E+02  0.10365934895E+03  0.20235955308E+03  0.28574078201E+03  0.17200000000E+03 0.  1.
         -6    1    1    2    0  503  0.19213150581E+02 -0.10365934895E+03  0.64123161599E+02  0.21168416482E+03  0.17200000000E+03 0.  1.
</event>
<event>
 4    1  0.1259333E+000  0.2820858E+03  0.7818608E-02  0.1094555E+00
         21   -1    0    0  501  502  0.00000000000E+00  0.00000000000E+00  0.11186154769E+04  0.11186154769E+04  0.00000000000E+00 0. -1.
         21   -1    0    0  502  503 -0.00000000000E+00 -0.00000000000E+00 -0.83161933139E+02  0.83161933139E+02  0.00000000000E+00 0.  1.
          6    1    1    2  501    0  0.21446134240E+03  0.63204030634E+02  0.74624137757E+03  0.79777729378E+03  0.17200000000E+03 0. -1.
         -6    1    1    2    0  503 -0.21446134240E+03 -0.63204030634E+02  0.28921216623E+03  0.40400011630E+03  0.17200000000E+03 0.  1.
</event>
<event>
 4    1  0.1259333E+000  0.2029239E+03  0.7818608E-02  0.1147295E+00
         21   -1    0    0  501  502  0.00000000000E+00  0.00000000000E+00  0.23451027578E+03  0.23451027578E+03  0.00000000000E+00 0.  1.
         21   -1    0    0  502  503 -0.00000000000E+00 -0.00000000000E+00 -0.17650493428E+03  0.17650493428E+03  0.00000000000E+00 0. -1.
          6    1    1    2  501    0  0.61739492188E+02  0.88217661889E+02  0.43782755244E+02  0.20759347394E+03  0.17200000000E+03 0.  1.
         -6    1    1    2    0  503 -0.61739492188E+02 -0.88217661889E+02  0.14222586254E+02  0.20342173612E+03  0.17200000000E+03 0. -1.
</event>
<event>
 4    1  0.1259333E+000  0.1805055E+03  0.7818608E-02  0.1167315E+00
         21   -1    0    0  501  502  0.00000000000E+00  0.00000000000E+00  0.27594507666E+04  0.27594507666E+04  0.00000000000E+00 0.  1.
         21   -1    0    0  502  503 -0.00000000000E+00 -0.00000000000E+00 -0.11873199136E+02  0.11873199136E+02  0.00000000000E+00 0.  1.
          6    1    1    2  501    0  0.45023604684E+02 -0.31162448315E+02  0.12707161467E+04  0.12834725352E+04  0.17200000000E+03 0.  1.
         -6    1    1    2    0  503 -0.45023604684E+02  0.31162448315E+02  0.14768614207E+04  0.14878514305E+04  0.17200000000E+03 0.  1.
</event>
<event>
 4    1  0.1259333E+000  0.1985392E+03  0.7818608E-02  0.1150977E+00
         21   -1    0    0  501  502  0.00000000000E+00  0.00000000000E+00  0.15787363421E+03  0.15787363421E+03  0.00000000000E+00 0. -1.
         21   -1    0    0  502  503 -0.00000000000E+00 -0.00000000000E+00 -0.25042337652E+03  0.25042337652E+03  0.00000000000E+00 0.  1.
          6    1    1    2  501    0  0.79350267952E+01 -0.98847674482E+02 -0.35149177043E+02  0.20162661542E+03  0.17200000000E+03 0. -1.
         -6    1    1    2    0  503 -0.79350267952E+01  0.98847674482E+02 -0.57400565269E+02  0.20667039530E+03  0.17200000000E+03 0. -1.
</event>
<event>
 4    1  0.1259333E+000  0.1995712E+03  0.7818608E-02  0.1150101E+00
         21   -1    0    0  503  502  0.00000000000E+00  0.00000000000E+00  0.31747315484E+03  0.31747315484E+03  0.00000000000E+00 0.  1.
         21   -1    0    0  501  503 -0.00000000000E+00 -0.00000000000E+00 -0.16466340767E+03  0.16466340767E+03  0.00000000000E+00 0.  1.
          6    1    1    2  501    0  0.86665249217E+02  0.52285735451E+02  0.19403807660E+03  0.27835128655E+03  0.17200000000E+03 0.  1.
         -6    1    1    2    0  502 -0.86665249217E+02 -0.52285735451E+02 -0.41228329418E+02  0.20378527596E+03  0.17200000000E+03 0.  1.
</event>
<event>
 4    1  0.1259333E+000  0.2119209E+03  0.7818608E-02  0.1140054E+00
         21   -1    0    0  503  502  0.00000000000E+00  0.00000000000E+00  0.19925429255E+02  0.19925429255E+02  0.00000000000E+00 0. -1.
         21   -1    0    0  501  503 -0.00000000000E+00 -0.00000000000E+00 -0.22769000707E+04  0.22769000707E+04  0.00000000000E+00 0. -1.
          6    1    1    2  501    0 -0.11969774732E+03  0.31605784835E+02 -0.12438404033E+04  0.12617644096E+04  0.17200000000E+03 0. -1.
         -6    1    1    2    0  502  0.11969774732E+03 -0.31605784835E+02 -0.10131342381E+04  0.10350610904E+04  0.17200000000E+03 0. -1.
</event>
<event>
 4    1  0.1259333E+000  0.2183249E+03  0.7818608E-02  0.1135138E+00
         21   -1    0    0  503  502  0.00000000000E+00  0.00000000000E+00  0.16538988850E+04  0.16538988850E+04  0.00000000000E+00 0. -1.
         21   -1    0    0  501  503 -0.00000000000E+00 -0.00000000000E+00 -0.30736689927E+02  0.30736689927E+02  0.00000000000E+00 0.  1.
          6    1    1    2  501    0 -0.94009901432E+01 -0.13413941419E+03  0.60125349000E+03  0.63966516264E+03  0.17200000000E+03 0. -1.
         -6    1    1    2    0  502  0.94009901432E+01  0.13413941419E+03  0.10219087051E+04  0.10449704123E+04  0.17200000000E+03 0.  1.
</event>
<event>
 4    1  0.1259333E+000  0.2186546E+03  0.7818608E-02  0.1134890E+00
         21   -1    0    0  501  502  0.00000000000E+00  0.00000000000E+00  0.50454210068E+03  0.50454210068E+03  0.00000000000E+00 0.  1.
         21   -1    0    0  502  503 -0.00000000000E+00 -0.00000000000E+00 -0.11135310927E+03  0.11135310927E+03  0.00000000000E+00 0. -1.
          6    1    1    2  501    0 -0.11525895374E+03 -0.70293592045E+02  0.31547344244E+03  0.38384021205E+03  0.17200000000E+03 0. -1.
         -6    1    1    2    0  503  0.11525895374E+03  0.70293592045E+02  0.77715548968E+02  0.23205499790E+03  0.17200000000E+03 0. -1.
</event>
<event>
 4    1  0.1259333E+000  0.2002930E+03  0.7818608E-02  0.1149492E+00
         21   -1    0    0  501  502  0.00000000000E+00  0.00000000000E+00  0.56455021458E+03  0.56455021458E+03  0.00000000000E+00 0. -1.
         21   -1    0    0  502  503 -0.00000000000E+00 -0.00000000000E+00 -0.12138342847E+03  0.12138342847E+03  0.00000000000E+00 0. -1.
          6    1    1    2  501    0  0.10249553061E+03 -0.52868974311E+01  0.44241176383E+03  0.48563922191E+03  0.17200000000E+03 0. -1.
         -6    1    1    2    0  503 -0.10249553061E+03  0.52868974311E+01  0.75502227970E+00  0.20029442114E+03  0.17200000000E+03 0. -1.
</event>
<event>
 4    1  0.1259333E+000  0.1963793E+03  0.7818608E-02  0.1152830E+00
         21   -1    0    0  501  502  0.00000000000E+00  0.00000000000E+00  0.41870771295E+03  0.41870771295E+03  0.00000000000E+00 0.  1.
         21   -1    0    0  502  503 -0.00000000000E+00 -0.00000000000E+00 -0.11398526001E+03  0.11398526001E+03  0.00000000000E+00 0. -1.
          6    1    1    2  501    0  0.77241167606E+02 -0.54905808881E+02  0.26905676976E+03  0.33310117258E+03  0.17200000000E+03 0.  1.
         -6    1    1    2    0  503 -0.77241167606E+02  0.54905808881E+02  0.35665683172E+02  0.19959180038E+03  0.17200000000E+03 0. -1.
</event>
<event>
 4    1  0.1259333E+000  0.1721163E+03  0.7818608E-02  0.1175659E+00
         21   -1    0    0  503  502  0.00000000000E+00  0.00000000000E+00  0.42591289149E+02  0.42591289149E+02  0.00000000000E+00 0. -1.
         21   -1    0    0  501  503 -0.00000000000E+00 -0.00000000000E+00 -0.12715611733E+04  0.12715611733E+04  0.00000000000E+00 0. -1.
          6    1    1    2  501    0 -0.28461010000E+01  0.56511858218E+01 -0.10567326056E+04  0.10706576651E+04  0.17200000000E+03 0. -1.
         -6    1    1    2    0  502  0.28461010000E+01 -0.56511858218E+01 -0.17223727855E+03  0.24349479731E+03  0.17200000000E+03 0. -1.
</event>
<event>
 4    1  0.1259333E+000  0.1721406E+03  0.7818608E-02  0.1175634E+00
         21   -1    0    0  501  502  0.00000000000E+00  0.00000000000E+00  0.57730202558E+02  0.57730202558E+02  0.00000000000E+00 0.  1.
         21   -1    0    0  502  503 -0.00000000000E+00 -0.00000000000E+00 -0.53439379033E+03  0.53439379033E+03  0.00000000000E+00 0.  1.
          6    1    1    2  501    0  0.20512669447E+01  0.66455395605E+01 -0.29716546061E+03  0.34342347309E+03  0.17200000000E+03 0. -1.
         -6    1    1    2    0  503 -0.20512669447E+01 -0.66455395605E+01 -0.17949812717E+03  0.24870051980E+03  0.17200000000E+03 0. -1.
</event>
<event>
 4    1  0.1259333E+000  0.2127664E+03  0.7818608E-02  0.1139394E+00
         21   -1    0    0  501  502  0.00000000000E+00  0.00000000000E+00  0.36684604444E+02  0.36684604444E+02  0.00000000000E+00 0.  1.
         21   -1    0    0  502  503 -0.00000000000E+00 -0.00000000000E+00 -0.12573612892E+04  0.12573612892E+04  0.00000000000E+00 0. -1.
          6    1    1    2  501    0  0.87229814899E+02  0.89869403833E+02 -0.52218306562E+03  0.56386585672E+03  0.17200000000E+03 0.  1.
         -6    1    1    2    0  503 -0.87229814899E+02 -0.89869403833E+02 -0.69849361918E+03  0.73018003696E+03  0.17200000000E+03 0. -1.
</event>
<event>
 4    1  0.1259333E+000  0.2112838E+03  0.7818608E-02  0.1140553E+00
         21   -1    0    0  503  502  0.00000000000E+00  0.00000000000E+00  0.15816649856E+02  0.15816649856E+02  0.00000000000E+00 0.  1.
         21   -1    0    0  501  503 -0.00000000000E+00 -0.00000000000E+00 -0.28574303688E+04  0.28574303688E+04  0.00000000000E+00 0.  1.
          6    1    1    2  501    0 -0.10968519248E+03  0.55008929685E+02 -0.12617280693E+04  0.12792961130E+04  0.17200000000E+03 0. -1.
         -6    1    1    2    0  502  0.10968519248E+03 -0.55008929685E+02 -0.15798856496E+04  0.15939509057E+04  0.17200000000E+03 0. -1.
</event>
<event>
 4    1  0.1259333E+000  0.3603783E+03  0.7818608E-02  0.1058434E+00
         21   -1    0    0  501  502  0.00000000000E+00  0.00000000000E+00  0.18530482477E+03  0.18530482477E+03  0.00000000000E+00 0. -1.
         21   -1    0    0  502  503 -0.00000000000E+00 -0.00000000000E+00 -0.79098471503E+03  0.79098471503E+03  0.00000000000E+00 0.  1.
          6    1    1    2  501    0  0.30073156566E+03  0.99242376942E+02 -0.13806569288E+03  0.38592053523E+03  0.17200000000E+03 0. -1.
         -6    1    1    2    0  503 -0.30073156566E+03 -0.99242376942E+02 -0.46761419738E+03  0.59036900457E+03  0.17200000000E+03 0. -1.
</event>
<event>
 4    1  0.1259333E+000  0.1938966E+03  0.7818608E-02  0.1154993E+00
         21   -1    0    0  503  502  0.00000000000E+00  0.00000000000E+00  0.68270686635E+02  0.68270686635E+02  0.00000000000E+00 0.  1.
         21   -1    0    0  501  503 -0.00000000000E+00 -0.00000000000E+00 -0.55653426222E+03  0.55653426222E+03  0.00000000000E+00 0.  1.
          6    1    1    2  501    0  0.29506019137E+02  0.84506141836E+02 -0.27614896318E+03  0.33742279567E+03  0.17200000000E+03 0. -1.
         -6    1    1    2    0  502 -0.29506019137E+02 -0.84506141836E+02 -0.21211461241E+03  0.28738215319E+03  0.17200000000E+03 0. -1.
</event>
<event>
 4    1  0.1259333E+000  0.2263808E+03  0.7818608E-02  0.1129213E+00
         21   -1    0    0  503  502  0.00000000000E+00  0.00000000000E+00  0.37062547252E+03  0.37062547252E+03  0.00000000000E+00 0. -1.
         21   -1    0    0  501  503 -0.00000000000E+00 -0.00000000000E+00 -0.14273071791E+03  0.14273071791E+03  0.00000000000E+00 0. -1.
          6    1    1    2  501    0  0.12498164785E+03  0.77742323132E+02  0.68596764997E+02  0.23654555010E+03  0.17200000000E+03 0. -1.
         -6    1    1    2    0  502 -0.12498164785E+03 -0.77742323132E+02  0.15929798961E+03  0.27681064033E+03  0.17200000000E+03 0. -1.
</event>
<event>
 4    1  0.1259333E+000  0.1744469E+03  0.7818608E-02  0.1173288E+00
         21   -1    0    0  503  502  0.00000000000E+00  0.00000000000E+00  0.75774176327E+03  0.75774176327E+03  0.00000000000E+00 0.  1.
         21   -1    0    0  501  503 -0.00000000000E+00 -0.00000000000E+00 -0.51321052140E+02  0.51321052140E+02  0.00000000000E+00 0.  1.
          6    1    1    2  501    0  0.28096370225E+02 -0.76361709884E+01  0.16456926714E+03  0.23982235262E+03  0.17200000000E+03 0.  1.
         -6    1    1    2    0  502 -0.28096370225E+02  0.76361709884E+01  0.54185144399E+03  0.56924046280E+03  0.17200000000E+03 0.  1.
</event>
<event>
 4    1  0.1259333E+000  0.1857893E+03  0.7818608E-02  0.1162315E+00
         21   -1    0    0  503  502  0.00000000000E+00  0.00000000000E+00  0.33095742710E+03  0.33095742710E+03  0.00000000000E+00 0.  1.
         21   -1    0    0  501  503 -0.00000000000E+00 -0.00000000000E+00 -0.27510924515E+03  0.27510924515E+03  0.00000000000E+00 0. -1.
          6    1    1    2  501    0 -0.63191979540E+02  0.30666712410E+02 -0.21085596916E+03  0.28103009316E+03  0.17200000000E+03 0. -1.
         -6    1    1    2    0  502  0.63191979540E+02 -0.30666712410E+02  0.26670415112E+03  0.32503657910E+03  0.17200000000E+03 0.  1.
</event>
<event>
 4    1  0.1259333E+000  0.2154248E+03  0.7818608E-02  0.1137341E+00
         21   -1    0    0  503  502  0.00000000000E+00  0.00000000000E+00  0.26069123478E+03  0.26069123478E+03  0.00000000000E+00 0. -1.
         21   -1    0    0  501  503 -0.00000000000E+00 -0.00000000000E+00 -0.18967398118E+03  0.18967398118E+03  0.00000000000E+00 0.  1.
          6    1    1    2  501    0 -0.18620364565E+02  0.12836327704E+03  0.91329554289E+02  0.23398490626E+03  0.17200000000E+03 0. -1.
         -6    1    1    2    0  502  0.18620364565E+02 -0.12836327704E+03 -0.20312300682E+02  0.21638030971E+03  0.17200000000E+03 0.  1.
</event>
<event>
 4    1  0.1259333E+000  0.2915729E+03  0.7818608E-02  0.1089531E+00
         21   -1    0    0  501  502  0.00000000000E+00  0.00000000000E+00  0.13115348260E+04  0.13115348260E+04  0.00000000000E+00 0.  1.
         21   -1    0    0  502  503 -0.00000000000E+00 -0.00000000000E+00 -0.89746145494E+02  0.89746145494E+02  0.00000000000E+00 0. -1.
          6    1    1    2  501    0 -0.16556176980E+03  0.16739192774E+03  0.98013352551E+03  0.10225832411E+04  0.17200000000E+03 0.  1.
         -6    1    1    2    0  503  0.16556176980E+03 -0.16739192774E+03  0.24165515499E+03  0.37869773042E+03  0.17200000000E+03 0. -1.
</event>
<event>
 4    1  0.1259333E+000  0.1949435E+03  0.7818608E-02  0.1154077E+00
         21   -1    0    0  503  502  0.00000000000E+00  0.00000000000E+00  0.32699173820E+03  0.32699173820E+03  0.00000000000E+00 0. -1.
         21   -1    0    0  501  503 -0.00000000000E+00 -0.00000000000E+00 -0.12197887530E+03  0.12197887530E+03  0.00000000000E+00 0. -1.
          6    1    1    2  501    0  0.67346408431E+02  0.62317064416E+02  0.15128367770E+03  0.24675839679E+03  0.17200000000E+03 0. -1.
         -6    1    1    2    0  502 -0.67346408431E+02 -0.62317064416E+02  0.53729185187E+02  0.20221221671E+03  0.17200000000E+03 0. -1.
</event>
<event>
 4    1  0.1259333E+000  0.1840677E+03  0.7818608E-02  0.1163923E+00
         21   -1    0    0  501  502  0.00000000000E+00  0.00000000000E+00  0.47841646289E+03  0.47841646289E+03  0.00000000000E+00 0.  1.
         21   -1    0    0  502  503 -0.00000000000E+00 -0.00000000000E+00 -0.84675047737E+02  0.84675047737E+02  0.00000000000E+00 0.  1.
          6    1    1    2  501    0 -0.46166729765E+02 -0.46535485585E+02  0.82978813396E+02  0.20190691377E+03  0.17200000000E+03 0.  1.
         -6    1    1    2    0  503  0.46166729765E+02  0.46535485585E+02  0.31076260176E+03  0.36118459686E+03  0.17200000000E+03 0.  1.
</event>
<event>
 4    1  0.1259333E+000  0.2417360E+03  0.7818608E-02  0.1118642E+00
         21   -1    0    0  501  502  0.00000000000E+00  0.00000000000E+00  0.49819814427E+02  0.49819814427E+02  0.00000000000E+00 0.  1.
         21   -1    0    0  502  503 -0.00000000000E+00 -0.00000000000E+00 -0.13976805128E+04  0.13976805128E+04  0.00000000000E+00 0. -1.
          6    1    1    2  501    0 -0.16308009875E+03  0.47509816883E+02 -0.96414065609E+03  0.99398365481E+03  0.17200000000E+03 0. -1.
         -6    1    1    2    0  503  0.16308009875E+03 -0.47509816883E+02 -0.38372004228E+03  0.45351667242E+03  0.17200000000E+03 0.  1.
</event>
<event>
 4    1  0.1259333E+000  0.2410667E+03  0.7818608E-02  0.1119084E+00
         21   -1    0    0  503  502  0.00000000000E+00  0.00000000000E+00  0.16981036952E+03  0.16981036952E+03  0.00000000000E+00 0. -1.
         21   -1    0    0  501  503 -0.00000000000E+00 -0.00000000000E+00 -0.52989486656E+03  0.52989486656E+03  0.00000000000E+00 0.  1.
          6    1    1    2  501    0  0.14129402023E+03  0.92548109665E+02 -0.38824617424E+03  0.45699917349E+03  0.17200000000E+03 0.  1.
         -6    1    1    2    0  502 -0.14129402023E+03 -0.92548109665E+02  0.28161677207E+02  0.24270606259E+03  0.17200000000E+03 0. -1.
</event>
<event>
 4    1  0.1259333E+000  0.1720101E+03  0.7818608E-02  0.1175768E+00
         21   -1    0    0  501  502  0.00000000000E+00  0.00000000000E+00  0.96782725823E+02  0.96782725823E+02  0.00000000000E+00 0.  1.
         21   -1    0    0  502  503 -0.00000000000E+00 -0.00000000000E+00 -0.10151683194E+04  0.10151683194E+04  0.00000000000E+00 0.  1.
          6    1    1    2  501    0 -0.16194740696E+01 -0.91479096295E+00  0.55900024719E+01  0.17210086480E+03  0.17200000000E+03 0.  1.
         -6    1    1    2    0  503  0.16194740696E+01  0.91479096295E+00 -0.92397559609E+03  0.93985018046E+03  0.17200000000E+03 0.  1.
</event>
<event>
 4    1  0.1259333E+000  0.1887035E+03  0.7818608E-02  0.1159636E+00
         21   -1    0    0  501  502  0.00000000000E+00  0.00000000000E+00  0.12687731410E+04  0.12687731410E+04  0.00000000000E+00 0. -1.
         21   -1    0    0  502  503 -0.00000000000E+00 -0.00000000000E+00 -0.63434713889E+02  0.63434713889E+02  0.00000000000E+00 0.  1.
          6    1    1    2  501    0  0.68512071711E+02 -0.36484126640E+02  0.11000511743E+04  0.11161189818E+04  0.17200000000E+03 0. -1.
         -6    1    1    2    0  503 -0.68512071711E+02  0.36484126640E+02  0.10528725282E+03  0.21608887309E+03  0.17200000000E+03 0.  1.
</event>
<event>
 4    1  0.1259333E+000  0.1746970E+03  0.7818608E-02  0.1173036E+00
         21   -1    0    0  503  502  0.00000000000E+00  0.00000000000E+00  0.34581201426E+03  0.34581201426E+03  0.00000000000E+00 0.  1.
         21   -1    0    0  501  503 -0.00000000000E+00 -0.00000000000E+00 -0.11956240646E+03  0.11956240646E+03  0.00000000000E+00 0.  1.
          6    1    1    2  501    0 -0.30342903073E+02  0.37868255373E+01 -0.59475445843E+01  0.17479818392E+03  0.17200000000E+03 0.  1.
         -6    1    1    2    0  502  0.30342903073E+02 -0.37868255373E+01  0.23219715239E+03  0.29057623680E+03  0.17200000000E+03 0.  1.
</event>
<event>
 4    1  0.1259333E+000  0.3999304E+03  0.7818608E-02  0.1043804E+00
         21   -1    0    0  501  502  0.00000000000E+00  0.00000000000E+00  0.13068623005E+04  0.13068623005E+04  0.00000000000E+00 0.  1.
         21   -1    0    0  502  503 -0.00000000000E+00 -0.00000000000E+00 -0.12942209855E+03  0.12942209855E+03  0.00000000000E+00 0. -1.
          6    1    1    2  501    0 -0.36052117677E+03 -0.19616614503E+02  0.75614068967E+03  0.85539059677E+03  0.17200000000E+03 0. -1.
         -6    1    1    2    0  503  0.36052117677E+03  0.19616614503E+02  0.42129951224E+03  0.58089380223E+03  0.17200000000E+03 0. -1.
</event>
<event>
 4    1  0.1259333E+000  0.1829259E+03  0.7818608E-02  0.1165001E+00
         21   -1    0    0  501  502  0.00000000000E+00  0.00000000000E+00  0.19750060811E+03  0.19750060811E+03  0.00000000000E+00 0. -1.
         21   -1    0    0  502  503 -0.00000000000E+00 -0.00000000000E+00 -0.23823272177E+03  0.23823272177E+03  0.00000000000E+00 0.  1.
          6    1    1    2  501    0 -0.62017818450E+02  0.56284953430E+01  0.96719435887E+02  0.20692157704E+03  0.17200000000E+03 0. -1.
         -6    1    1    2    0  503  0.62017818450E+02 -0.56284953430E+01 -0.13745154954E+03  0.22881175284E+03  0.17200000000E+03 0.  1.
</event>
<event>
 4    1  0.1259333E+000  0.1737232E+03  0.7818608E-02  0.1174020E+00
         21   -1    0    0  503  502  0.00000000000E+00  0.00000000000E+00  0.99650379764E+03  0.99650379764E+03  0.00000000000E+00 0.  1.
         21   -1    0    0  501  503 -0.00000000000E+00 -0.00000000000E+00 -0.12951025542E+03  0.12951025542E+03  0.00000000000E+00 0. -1.
          6    1    1    2  501    0  0.24148094242E+02  0.35516078103E+01 -0.59304104932E+02  0.18356666701E+03  0.17200000000E+03 0. -1.
         -6    1    1    2    0  502 -0.24148094242E+02 -0.35516078103E+01  0.92629764715E+03  0.94244738606E+03  0.17200000000E+03 0.  1.
</event>
<event>
 4    1  0.1259333E+000  0.1917432E+03  0.7818608E-02  0.1156898E+00
         21   -1    0    0  501  502  0.00000000000E+00  0.00000000000E+00  0.21930584044E+02  0.21930584044E+02  0.00000000000E+00 0. -1.
         21   -1    0    0  502  503 -0.00000000000E+00 -0.00000000000E+00 -0.24297469342E+04  0.24297469342E+04  0.00000000000E+00 0. -1.
          6    1    1    2  501    0  0.47414108693E+01  0.84610724278E+02 -0.52135439900E+03  0.55549605309E+03  0.17200000000E+03 0. -1.
         -6    1    1    2    0  503 -0.47414108693E+01 -0.84610724278E+02 -0.18864619512E+04  0.18961814652E+04  0.17200000000E+03 0. -1.
</event>
<event>
 4    1  0.1259333E+000  0.1944205E+03  0.7818608E-02  0.1154534E+00
         21   -1    0    0  501  502  0.00000000000E+00  0.00000000000E+00  0.78407079344E+02  0.78407079344E+02  0.00000000000E+00 0. -1.
         21   -1    0    0  502  503 -0.00000000000E+00 -0.00000000000E+00 -0.97771412881E+03  0.97771412881E+03  0.00000000000E+00 0. -1.
          6    1    1    2  501    0  0.64785823560E+02 -0.63388825312E+02 -0.73683161727E+02  0.20791477685E+03  0.17200000000E+03 0. -1.
         -6    1    1    2    0  503 -0.64785823560E+02  0.63388825312E+02 -0.82562388774E+03  0.84820643131E+03  0.17200000000E+03 0. -1.
</event>
<event>
 4    1  0.1259333E+000  0.2076115E+03  0.7818608E-02  0.1143472E+00
         21   -1    0    0  503  502  0.00000000000E+00  0.00000000000E+00  0.53999770443E+03  0.53999770443E+03  0.00000000000E+00 0. -1.
         21   -1    0    0  501  503 -0.00000000000E+00 -0.00000000000E+00 -0.85392253424E+02  0.85392253424E+02  0.00000000000E+00 0.  1.
          6    1    1    2  501    0  0.93476170660E+02  0.69142773506E+02  0.14742342445E+03  0.25462950278E+03  0.17200000000E+03 0.  1.
         -6    1    1    2    0  502 -0.93476170660E+02 -0.69142773506E+02  0.30718202655E+03  0.37076045507E+03  0.17200000000E+03 0. -1.
</event>
<event>
 4    1  0.1259333E+000  0.2463103E+03  0.7818608E-02  0.1115659E+00
         21   -1    0    0  501  502  0.00000000000E+00  0.00000000000E+00  0.38159253736E+03  0.38159253736E+03  0.00000000000E+00 0. -1.
         21   -1    0    0  502  503 -0.00000000000E+00 -0.00000000000E+00 -0.16075276655E+03  0.16075276655E+03  0.00000000000E+00 0.  1.
          6    1    1    2  501    0 -0.43252379921E+01 -0.17625561203E+03  0.82009737849E+02  0.25960420944E+03  0.17200000000E+03 0.  1.
         -6    1    1    2    0  503  0.43252379921E+01  0.17625561203E+03  0.13883003296E+03  0.28274109448E+03  0.17200000000E+03 0. -1.
</event>
<event>
 4    1  0.1259333E+000  0.1995577E+03  0.7818608E-02  0.1150113E+00
         21   -1    0    0  503  502  0.00000000000E+00  0.00000000000E+00  0.70264658028E+03  0.70264658028E+03  0.00000000000E+00 0.  1.
         21   -1    0    0  501  503 -0.00000000000E+00 -0.00000000000E+00 -0.60524715853E+02  0.60524715853E+02  0.00000000000E+00 0.  1.
          6    1    1    2  501    0 -0.10058804817E+03  0.11013878622E+02  0.22483802197E+03  0.30062501074E+03  0.17200000000E+03 0. -1.
         -6    1    1    2    0  502  0.10058804817E+03 -0.11013878622E+02  0.41728384246E+03  0.46254628539E+03  0.17200000000E+03 0. -1.
</event>
<event>
 4    1  0.1259333E+000  0.2048628E+03  0.7818608E-02  0.1145700E+00
         21   -1    0    0  503  502  0.00000000000E+00  0.00000000000E+00  0.19014415567E+03  0.19014415567E+03  0.00000000000E+00 0.  1.
         21   -1    0    0  501  503 -0.00000000000E+00 -0.00000000000E+00 -0.22330391692E+03  0.22330391692E+03  0.00000000000E+00 0.  1.
          6    1    1    2  501    0  0.19009287645E+01  0.11127058940E+03 -0.38814023390E+02  0.20850728046E+03  0.17200000000E+03 0.  1.
         -6    1    1    2    0  502 -0.19009287645E+01 -0.11127058940E+03  0.56542621432E+01  0.20494079212E+03  0.17200000000E+03 0.  1.
</event>
<event>
 4    1  0.1259333E+000  0.1786973E+03  0.7818608E-02  0.1169070E+00
         21   -1    0    0  503  502  0.00000000000E+00  0.00000000000E+00  0.38296877152E+03  0.38296877152E+03  0.00000000000E+00 0.  1.
         21   -1    0    0  501  503 -0.00000000000E+00 -0.00000000000E+00 -0.20249016870E+03  0.20249016870E+03  0.00000000000E+00 0.  1.
          6    1    1    2  501    0  0.25176834813E+02 -0.41410735769E+02 -0.13427042170E+03  0.22352017402E+03  0.17200000000E+03 0.  1.
         -6    1    1    2    0  502 -0.25176834813E+02  0.41410735769E+02  0.31474902452E+03  0.36193876621E+03  0.17200000000E+03 0.  1.
</event>
<event>
 4    1  0.1259333E+000  0.2062623E+03  0.7818608E-02  0.1144560E+00
         21   -1    0    0  501  502  0.00000000000E+00  0.00000000000E+00  0.53034360001E+02  0.53034360001E+02  0.00000000000E+00 0. -1.
         21   -1    0    0  502  503 -0.00000000000E+00 -0.00000000000E+00 -0.83877595594E+03  0.83877595594E+03  0.00000000000E+00 0. -1.
          6    1    1    2  501    0  0.11350187321E+03 -0.88012924994E+01 -0.48598592084E+03  0.52794550214E+03  0.17200000000E+03 0. -1.
         -6    1    1    2    0  503 -0.11350187321E+03  0.88012924994E+01 -0.29975567509E+03  0.36386481380E+03  0.17200000000E+03 0. -1.
</event>
<event>
 4    1  0.1259333E+000  0.1944736E+03  0.7818608E-02  0.1154487E+00
         21   -1    0    0  503  502  0.00000000000E+00  0.00000000000E+00  0.89154712769E+02  0.89154712769E+02  0.00000000000E+00 0. -1.
         21   -1    0    0  501  503 -0.00000000000E+00 -0.00000000000E+00 -0.49084359684E+03  0.49084359684E+03  0.00000000000E+00 0. -1.
          6    1    1    2  501    0 -0.52350297840E+02 -0.74131048897E+02 -0.30769695911E+03  0.36400190211E+03  0.17200000000E+03 0. -1.
         -6    1    1    2    0  502  0.52350297840E+02  0.74131048897E+02 -0.93991924961E+02  0.21599640750E+03  0.17200000000E+03 0. -1.
</event>
<event>
 4    1  0.1259333E+000  0.2052505E+03  0.7818608E-02  0.1145383E+00
         21   -1    0    0  503  502  0.00000000000E+00  0.00000000000E+00  0.23393291990E+03  0.23393291990E+03  0.00000000000E+00 0.  1.
         21   -1    0    0  501  503 -0.00000000000E+00 -0.00000000000E+00 -0.18133888718E+03  0.18133888718E+03  0.00000000000E+00 0. -1.
          6    1    1    2  501    0  0.18714377636E+02 -0.11042443146E+03  0.90304447786E+01  0.20544909814E+03  0.17200000000E+03 0.  1.
         -6    1    1    2    0  502 -0.18714377636E+02  0.11042443146E+03  0.43563587949E+02  0.20982270894E+03  0.17200000000E+03 0. -1.
</event>
<event>
 4    1  0.1259333E+000  0.2062892E+03  0.7818608E-02  0.1144539E+00
         21   -1    0    0  503  502  0.00000000000E+00  0.00000000000E+00  0.16639795813E+03  0.16639795813E+03  0.00000000000E+00 0.  1.
         21   -1    0    0  501  503 -0.00000000000E+00 -0.00000000000E+00 -0.29736157199E+03  0.29736157199E+03  0.00000000000E+00 0. -1.
          6    1    1    2  501    0 -0.12024044151E+02 -0.11325474947E+03 -0.15223007048E+03  0.25637708609E+03  0.17200000000E+03 0.  1.
         -6    1    1    2    0  502  0.12024044151E+02  0.11325474947E+03  0.21266456614E+02  0.20738244403E+03  0.17200000000E+03 0.  1.
</event>
<event>
 4    1  0.1259333E+000  0.1970425E+03  0.7818608E-02  0.1152259E+00
         21   -1    0    0  503  502  0.00000000000E+00  0.00000000000E+00  0.26907402263E+03  0.26907402263E+03  0.00000000000E+00 0.  1.
         21   -1    0    0  501  503 -0.00000000000E+00 -0.00000000000E+00 -0.14874162225E+03  0.14874162225E+03  0.00000000000E+00 0.  1.
          6    1    1    2  501    0 -0.18866669657E+01  0.96115430262E+02  0.24041178070E+02  0.19850368684E+03  0.17200000000E+03 0.  1.
         -6    1    1    2    0  502  0.18866669657E+01 -0.96115430262E+02  0.96291222304E+02  0.21931195804E+03  0.17200000000E+03 0.  1.
</event>
<event>
 4    1  0.1259333E+000  0.2019000E+03  0.7818608E-02  0.1148146E+00
         21   -1    0    0  501  502  0.00000000000E+00  0.00000000000E+00  0.49714591747E+02  0.49714591747E+02  0.00000000000E+00 0. -1.
         21   -1    0    0  502  503 -0.00000000000E+00 -0.00000000000E+00 -0.98834641098E+03  0.98834641098E+03  0.00000000000E+00 0. -1.
          6    1    1    2  501    0 -0.71739794303E+02  0.77672586839E+02 -0.25507577733E+03  0.32531105271E+03  0.17200000000E+03 0. -1.
         -6    1    1    2    0  503  0.71739794303E+02 -0.77672586839E+02 -0.68355604190E+03  0.71274995002E+03  0.17200000000E+03 0. -1.
</event>
<event>
 4    1  0.1259333E+000  0.1963954E+03  0.7818608E-02  0.1152816E+00
         21   -1    0    0  501  502  0.00000000000E+00  0.00000000000E+00  0.31181924447E+03  0.31181924447E+03  0.00000000000E+00 0. -1.
         21   -1    0    0  502  503 -0.00000000000E+00 -0.00000000000E+00 -0.15569428811E+03  0.15569428811E+03  0.00000000000E+00 0. -1.
          6    1    1    2  501    0 -0.10724682656E+02  0.94191995488E+02  0.18403260179E+03  0.26914521982E+03  0.17200000000E+03 0. -1.
         -6    1    1    2    0  503  0.10724682656E+02 -0.94191995488E+02 -0.27907645430E+02  0.19836831276E+03  0.17200000000E+03 0. -1.
</event>
<event>
 4    1  0.1259333E+000  0.2167310E+03  0.7818608E-02  0.1136344E+00
         21   -1    0    0  501  502  0.00000000000E+00  0.00000000000E+00  0.37450345185E+02  0.37450345185E+02  0.00000000000E+00 0. -1.
         21   -1    0    0  502  503 -0.00000000000E+00 -0.00000000000E+00 -0.12556556233E+04  0.12556556233E+04  0.00000000000E+00 0. -1.
          6    1    1    2  501    0 -0.37597383222E+02 -0.12639128551E+03 -0.58751655345E+03  0.62621723137E+03  0.17200000000E+03 0. -1.
         -6    1    1    2    0  503  0.37597383222E+02  0.12639128551E+03 -0.63068872464E+03  0.66688873710E+03  0.17200000000E+03 0. -1.
</event>
<event>
 4    1  0.1259333E+000  0.1789363E+03  0.7818608E-02  0.1168836E+00
         21   -1    0    0  501  502  0.00000000000E+00  0.00000000000E+00  0.24683855016E+03  0.24683855016E+03  0.00000000000E+00 0.  1.
         21   -1    0    0  502  503 -0.00000000000E+00 -0.00000000000E+00 -0.13457905093E+03  0.13457905093E+03  0.00000000000E+00 0.  1.
          6    1    1    2  501    0 -0.81601409769E+01 -0.48658051842E+02  0.92392922467E+02  0.20138184137E+03  0.17200000000E+03 0.  1.
         -6    1    1    2    0  503  0.81601409769E+01  0.48658051842E+02  0.19866576761E+02  0.18003575973E+03  0.17200000000E+03 0.  1.
</event>
<event>
 4    1  0.1259333E+000  0.1893865E+03  0.7818608E-02  0.1159016E+00
         21   -1    0    0  501  502  0.00000000000E+00  0.00000000000E+00  0.78768883215E+02  0.78768883215E+02  0.00000000000E+00 0. -1.
         21   -1    0    0  502  503 -0.00000000000E+00 -0.00000000000E+00 -0.70876500369E+03  0.70876500369E+03  0.00000000000E+00 0. -1.
          6    1    1    2  501    0 -0.12723180906E+02  0.78239152976E+02 -0.79544047683E+02  0.20541299840E+03  0.17200000000E+03 0. -1.
         -6    1    1    2    0  503  0.12723180906E+02 -0.78239152976E+02 -0.55045207280E+03  0.58212088851E+03  0.17200000000E+03 0. -1.
</event>
<event>
 4    1  0.1259333E+000  0.2385390E+03  0.7818608E-02  0.1120770E+00
         21   -1    0    0  501  502  0.00000000000E+00  0.00000000000E+00  0.13243776656E+04  0.13243776656E+04  0.00000000000E+00 0.  1.
         21   -1    0    0  502  503 -0.00000000000E+00 -0.00000000000E+00 -0.43503937161E+02  0.43503937161E+02  0.00000000000E+00 0.  1.
          6    1    1    2  501    0  0.16784150632E+02 -0.16442372647E+03  0.71661536796E+03  0.75527376172E+03  0.17200000000E+03 0.  1.
         -6    1    1    2    0  503 -0.16784150632E+02  0.16442372647E+03  0.56425836047E+03  0.61260784104E+03  0.17200000000E+03 0.  1.
</event>
<event>
 4    1  0.1259333E+000  0.1764115E+03  0.7818608E-02  0.1171322E+00
         21   -1    0    0  503  502  0.00000000000E+00  0.00000000000E+00  0.59203790691E+03  0.59203790691E+03  0.00000000000E+00 0.  1.
         21   -1    0    0  501  503 -0.00000000000E+00 -0.00000000000E+00 -0.14939162181E+03  0.14939162181E+03  0.00000000000E+00 0.  1.
          6    1    1    2  501    0  0.91601671164E+00  0.39194178504E+02 -0.77127190552E+02  0.19253474034E+03  0.17200000000E+03 0.  1.
         -6    1    1    2    0  502 -0.91601671164E+00 -0.39194178504E+02  0.51977347566E+03  0.54889478838E+03  0.17200000000E+03 0.  1.
</event>
<event>
 4    1  0.1259333E+000  0.2155226E+03  0.7818608E-02  0.1137266E+00
         21   -1    0    0  501  502  0.00000000000E+00  0.00000000000E+00  0.23701033285E+03  0.23701033285E+03  0.00000000000E+00 0.  1.
         21   -1    0    0  502  503 -0.00000000000E+00 -0.00000000000E+00 -0.22795210395E+03  0.22795210395E+03  0.00000000000E+00 0.  1.
          6    1    1    2  501    0 -0.11693722501E+03 -0.56495000845E+02  0.91591627284E+02  0.23417733858E+03  0.17200000000E+03 0.  1.
         -6    1    1    2    0  503  0.11693722501E+03  0.56495000845E+02 -0.82533398384E+02  0.23078509822E+03  0.17200000000E+03 0.  1.
</event>
<event>
 4    1  0.1259333E+000  0.1833528E+03  0.7818608E-02  0.1164597E+00
         21   -1    0    0  503  502  0.00000000000E+00  0.00000000000E+00  0.10244965994E+04  0.10244965994E+04  0.00000000000E+00 0. -1.
         21   -1    0    0  501  503 -0.00000000000E+00 -0.00000000000E+00 -0.63625419011E+02  0.63625419011E+02  0.00000000000E+00 0. -1.
          6    1    1    2  501    0  0.59740293855E+02  0.21571870894E+02  0.10183153870E+03  0.20973295067E+03  0.17200000000E+03 0. -1.
         -6    1    1    2    0  502 -0.59740293855E+02 -0.21571870894E+02  0.85903964170E+03  0.87838906775E+03  0.17200000000E+03 0. -1.
</event>
<event>
 4    1  0.1259333E+000  0.1744309E+03  0.7818608E-02  0.1173304E+00
         21   -1    0    0  501  502  0.00000000000E+00  0.00000000000E+00  0.39120803710E+02  0.39120803710E+02  0.00000000000E+00 0. -1.
         21   -1    0    0  502  503 -0.00000000000E+00 -0.00000000000E+00 -0.19305175213E+04  0.19305175213E+04  0.00000000000E+00 0. -1.
          6    1    1    2  501    0  0.26064597427E+02 -0.12757947200E+02 -0.18468750373E+03  0.25403858464E+03  0.17200000000E+03 0. -1.
         -6    1    1    2    0  503 -0.26064597427E+02  0.12757947200E+02 -0.17067092139E+04  0.17155997404E+04  0.17200000000E+03 0. -1.
</event>
<event>
 4    1  0.1259333E+000  0.1796226E+03  0.7818608E-02  0.1168169E+00
         21   -1    0    0  501  502  0.00000000000E+00  0.00000000000E+00  0.22790507146E+03  0.22790507146E+03  0.00000000000E+00 0.  1.
         21   -1    0    0  502  503 -0.00000000000E+00 -0.00000000000E+00 -0.14157800407E+03  0.14157800407E+03  0.00000000000E+00 0.  1.
          6    1    1    2  501    0  0.47389188148E+02 -0.20845621942E+02  0.41683819614E+02  0.18439581320E+03  0.17200000000E+03 0.  1.
         -6    1    1    2    0  503 -0.47389188148E+02  0.20845621942E+02  0.44643247773E+02  0.18508726234E+03  0.17200000000E+03 0.  1.
</event>
<event>
 4    1  0.1259333E+000  0.1924879E+03  0.7818608E-02  0.1156236E+00
         21   -1    0    0  501  502  0.00000000000E+00  0.00000000000E+00  0.93022098243E+03  0.93022098243E+03  0.00000000000E+00 0. -1.
         21   -1    0    0  502  503 -0.00000000000E+00 -0.00000000000E+00 -0.39875038671E+02  0.39875038671E+02  0.00000000000E+00 0. -1.
          6    1    1    2  501    0  0.37928610674E+02  0.77646836397E+02  0.42904930425E+03  0.47024984444E+03  0.17200000000E+03 0. -1.
         -6    1    1    2    0  503 -0.37928610674E+02 -0.77646836397E+02  0.46129663950E+03  0.49984617667E+03  0.17200000000E+03 0. -1.
</event>
<event>
 4    1  0.1259333E+000  0.1935019E+03  0.7818608E-02  0.1155340E+00
         21   -1    0    0  503  502  0.00000000000E+00  0.00000000000E+00  0.78671062468E+02  0.78671062468E+02  0.00000000000E+00 0.  1.
         21   -1    0    0  501  503 -0.00000000000E+00 -0.00000000000E+00 -0.90231575425E+03  0.90231575425E+03  0.00000000000E+00 0.  1.
          6    1    1    2  501    0 -0.71447159209E+02 -0.52481260591E+02 -0.74899192449E+03  0.77358379134E+03  0.17200000000E+03 0. -1.
         -6    1    1    2    0  502  0.71447159209E+02  0.52481260591E+02 -0.74652767294E+02  0.20740302538E+03  0.17200000000E+03 0. -1.
</event>
<event>
 4    1  0.1259333E+000  0.2129220E+03  0.7818608E-02  0.1139273E+00
         21   -1    0    0  503  502  0.00000000000E+00  0.00000000000E+00  0.52960555085E+03  0.52960555085E+03  0.00000000000E+00 0. -1.
         21   -1    0    0  501  503 -0.00000000000E+00 -0.00000000000E+00 -0.13095060214E+03  0.13095060214E+03  0.00000000000E+00 0. -1.
          6    1    1    2  501    0 -0.76728866006E+02  0.99319918888E+02  0.49689056041E+01  0.21297994081E+03  0.17200000000E+03 0. -1.
         -6    1    1    2    0  502  0.76728866006E+02 -0.99319918888E+02  0.39368604310E+03  0.44757621217E+03  0.17200000000E+03 0. -1.
</event>
<event>
 4    1  0.1259333E+000  0.3097474E+03  0.7818608E-02  0.1080467E+00
         21   -1    0    0  501  502  0.00000000000E+00  0.00000000000E+00  0.11321565854E+04  0.11321565854E+04  0.00000000000E+00 0.  1.
         21   -1    0    0  502  503 -0.00000000000E+00 -0.00000000000E+00 -0.11718057022E+03  0.11718057022E+03  0.00000000000E+00 0. -1.
          6    1    1    2  501    0  0.25520565975E+03  0.35064828993E+02  0.17883367662E+03  0.35766598230E+03  0.17200000000E+03 0.  1.
         -6    1    1    2    0  503 -0.25520565975E+03 -0.35064828993E+02  0.83614233854E+03  0.89167117330E+03  0.17200000000E+03 0.  1.
</event>
<event>
 4    1  0.1259333E+000  0.3165857E+03  0.7818608E-02  0.1077231E+00
         21   -1    0    0  503  502  0.00000000000E+00  0.00000000000E+00  0.24964988140E+03  0.24964988140E+03  0.00000000000E+00 0.  1.
         21   -1    0    0  501  503 -0.00000000000E+00 -0.00000000000E+00 -0.53485871840E+03  0.53485871840E+03  0.00000000000E+00 0.  1.
          6    1    1    2  501    0 -0.19952833842E+03 -0.17558736747E+03 -0.33849371188E+03  0.46347003617E+03  0.17200000000E+03 0.  1.
         -6    1    1    2    0  502  0.19952833842E+03  0.17558736747E+03  0.53284874874E+02  0.32103856363E+03  0.17200000000E+03 0.  1.
</event>
<event>
 4    1  0.1259333E+000  0.2375969E+03  0.7818608E-02  0.1121404E+00
         21   -1    0    0  501  502  0.00000000000E+00  0.00000000000E+00  0.11746415702E+04  0.11746415702E+04  0.00000000000E+00 0.  1.
         21   -1    0    0  502  503 -0.00000000000E+00 -0.00000000000E+00 -0.88436584925E+02  0.88436584925E+02  0.00000000000E+00 0. -1.
          6    1    1    2  501    0 -0.25029075393E+02  0.16199326952E+03  0.96983292547E+03  0.99851298305E+03  0.17200000000E+03 0.  1.
         -6    1    1    2    0  503  0.25029075393E+02 -0.16199326952E+03  0.11637205985E+03  0.26456517212E+03  0.17200000000E+03 0. -1.
</event>
<event>
 4    1  0.1259333E+000  0.3086352E+03  0.7818608E-02  0.1081002E+00
         21   -1    0    0  503  502  0.00000000000E+00  0.00000000000E+00  0.77115418835E+03  0.77115418835E+03  0.00000000000E+00 0. -1.
         21   -1    0    0  501  503 -0.00000000000E+00 -0.00000000000E+00 -0.12352772639E+03  0.12352772639E+03  0.00000000000E+00 0.  1.
          6    1    1    2  501    0  0.24245126763E+03 -0.83000452873E+02  0.32641860270E+03  0.44922688760E+03  0.17200000000E+03 0. -1.
         -6    1    1    2    0  502 -0.24245126763E+03  0.83000452873E+02  0.32120785926E+03  0.44545502714E+03  0.17200000000E+03 0. -1.
</event>
<event>
 4    1  0.1259333E+000  0.1961941E+03  0.7818608E-02  0.1152990E+00
         21   -1    0    0  501  502  0.00000000000E+00  0.00000000000E+00  0.77790838005E+02  0.77790838005E+02  0.00000000000E+00 0. -1.
         21   -1    0    0  502  503 -0.00000000000E+00 -0.00000000000E+00 -0.59999258095E+03  0.59999258095E+03  0.00000000000E+00 0. -1.
          6    1    1    2  501    0 -0.55419669505E+02 -0.76398982079E+02 -0.40298954099E+03  0.44821056924E+03  0.17200000000E+03 0. -1.
         -6    1    1    2    0  503  0.55419669505E+02  0.76398982079E+02 -0.11921220195E+03  0.22957284971E+03  0.17200000000E+03 0. -1.
</event>
<event>
 4    1  0.1259333E+000  0.1967418E+03  0.7818608E-02  0.1152517E+00
         21   -1    0    0  501  502  0.00000000000E+00  0.00000000000E+00  0.31577787761E+03  0.31577787761E+03  0.00000000000E+00 0.  1.
         21   -1    0    0  502  503 -0.00000000000E+00 -0.00000000000E+00 -0.16439268616E+03  0.16439268616E+03  0.00000000000E+00 0.  1.
          6    1    1    2  501    0 -0.85529478264E+02 -0.42521003338E+02  0.19677756789E+03  0.27826019946E+03  0.17200000000E+03 0.  1.
         -6    1    1    2    0  503  0.85529478264E+02  0.42521003338E+02 -0.45392376438E+02  0.20191036431E+03  0.17200000000E+03 0.  1.
</event>
<event>
 4    1  0.1259333E+000  0.1808840E+03  0.7818608E-02  0.1166950E+00
         21   -1    0    0  503  502  0.00000000000E+00  0.00000000000E+00  0.67992545012E+03  0.67992545012E+03  0.00000000000E+00 0. -1.
         21   -1    0    0  501  503 -0.00000000000E+00 -0.00000000000E+00 -0.11666665351E+03  0.11666665351E+03  0.00000000000E+00 0. -1.
          6    1    1    2  501    0  0.33357860957E+01 -0.55891650711E+02 -0.23666620090E+02  0.18242563689E+03  0.17200000000E+03 0. -1.
         -6    1    1    2    0  502 -0.33357860957E+01  0.55891650711E+02  0.58692541670E+03  0.61416646673E+03  0.17200000000E+03 0. -1.
</event>
<event>
 4    1  0.1259333E+000  0.2159378E+03  0.7818608E-02  0.1136948E+00
         21   -1    0    0  501  502  0.00000000000E+00  0.00000000000E+00  0.26374433609E+03  0.26374433609E+03  0.00000000000E+00 0. -1.
         21   -1    0    0  502  503 -0.00000000000E+00 -0.00000000000E+00 -0.21275984452E+03  0.21275984452E+03  0.00000000000E+00 0. -1.
          6    1    1    2  501    0  0.84694307094E+02 -0.99358065653E+02  0.12344580008E+03  0.24873282136E+03  0.17200000000E+03 0.  1.
         -6    1    1    2    0  503 -0.84694307094E+02  0.99358065653E+02 -0.72461308509E+02  0.22777135925E+03  0.17200000000E+03 0.  1.
</event>
<event>
 4    1  0.1259333E+000  0.1961886E+03  0.7818608E-02  0.1152995E+00
         21   -1    0    0  501  502  0.00000000000E+00  0.00000000000E+00  0.26601449600E+03  0.26601449600E+03  0.00000000000E+00 0.  1.
         21   -1    0    0  502  503 -0.00000000000E+00 -0.00000000000E+00 -0.22082777781E+03  0.22082777781E+03  0.00000000000E+00 0.  1.
          6    1    1    2  501    0  0.22841373669E+02 -0.91565591387E+02  0.16552480862E+03  0.25668745226E+03  0.17200000000E+03 0.  1.
         -6    1    1    2    0  503 -0.22841373669E+02  0.91565591387E+02 -0.12033809043E+03  0.23015482156E+03  0.17200000000E+03 0.  1.
</event>
<event>
 4    1  0.1259333E+000  0.2063042E+03  0.7818608E-02  0.1144527E+00
         21   -1    0    0  501  502  0.00000000000E+00  0.00000000000E+00  0.81513971215E+02  0.81513971215E+02  0.00000000000E+00 0. -1.
         21   -1    0    0  502  503 -0.00000000000E+00 -0.00000000000E+00 -0.52970942546E+03  0.52970942546E+03  0.00000000000E+00 0. -1.
          6    1    1    2  501    0 -0.65719007536E+02  0.93050698445E+02 -0.18755653739E+03  0.27881692049E+03  0.17200000000E+03 0. -1.
         -6    1    1    2    0  503  0.65719007536E+02 -0.93050698445E+02 -0.26063891685E+03  0.33240647619E+03  0.17200000000E+03 0. -1.
</event>
<event>
 4    1  0.1259333E+000  0.2394462E+03  0.7818608E-02  0.1120162E+00
         21   -1    0    0  503  502  0.00000000000E+00  0.00000000000E+00  0.11359345617E+03  0.11359345617E+03  0.00000000000E+00 0.  1.
         21   -1    0    0  501  503 -0.00000000000E+00 -0.00000000000E+00 -0.12341254715E+04  0.12341254715E+04  0.00000000000E+00 0. -1.
          6    1    1    2  501    0  0.16492488503E+03  0.23457497027E+02 -0.10783140473E+04  0.11045794025E+04  0.17200000000E+03 0. -1.
         -6    1    1    2    0  502 -0.16492488503E+03 -0.23457497027E+02 -0.42217968026E+02  0.24313952515E+03  0.17200000000E+03 0.  1.
</event>
<event>
 4    1  0.1259333E+000  0.2685197E+03  0.7818608E-02  0.1102130E+00
         21   -1    0    0  503  502  0.00000000000E+00  0.00000000000E+00  0.49278961691E+03  0.49278961691E+03  0.00000000000E+00 0. -1.
         21   -1    0    0  501  503 -0.00000000000E+00 -0.00000000000E+00 -0.32705952651E+03  0.32705952651E+03  0.00000000000E+00 0.  1.
          6    1    1    2  501    0  0.19695475264E+03 -0.61054528098E+02 -0.22186996613E+03  0.34832328642E+03  0.17200000000E+03 0.  1.
         -6    1    1    2    0  502 -0.19695475264E+03  0.61054528098E+02  0.38760005654E+03  0.47152585700E+03  0.17200000000E+03 0. -1.
</event>
<event>
 4    1  0.1259333E+000  0.2549123E+03  0.7818608E-02  0.1110239E+00
         21   -1    0    0  503  502  0.00000000000E+00  0.00000000000E+00  0.10030671077E+04  0.10030671077E+04  0.00000000000E+00 0.  1.
         21   -1    0    0  501  503 -0.00000000000E+00 -0.00000000000E+00 -0.21737152516E+03  0.21737152516E+03  0.00000000000E+00 0. -1.
          6    1    1    2  501    0  0.40015563030E+02 -0.18383426354E+03 -0.11841898235E+03  0.28107532285E+03  0.17200000000E+03 0. -1.
         -6    1    1    2    0  502 -0.40015563030E+02  0.18383426354E+03  0.90411456484E+03  0.93936330996E+03  0.17200000000E+03 0.  1.
</event>
<event>
 4    1  0.1259333E+000  0.1730587E+03  0.7818608E-02  0.1174695E+00
         21   -1    0    0  503  502  0.00000000000E+00  0.00000000000E+00  0.79070621772E+02  0.79070621772E+02  0.00000000000E+00 0. -1.
         21   -1    0    0  501  503 -0.00000000000E+00 -0.00000000000E+00 -0.42469518805E+03  0.42469518805E+03  0.00000000000E+00 0. -1.
          6    1    1    2  501    0  0.18960863171E+02  0.24091631106E+01 -0.25564484664E+03  0.30871282127E+03  0.17200000000E+03 0.  1.
         -6    1    1    2    0  502 -0.18960863171E+02 -0.24091631106E+01 -0.89979719635E+02  0.19505298856E+03  0.17200000000E+03 0.  1.
</event>
<event>
 4    1  0.1259333E+000  0.1912980E+03  0.7818608E-02  0.1157296E+00
         21   -1    0    0  501  502  0.00000000000E+00  0.00000000000E+00  0.11321730855E+03  0.11321730855E+03  0.00000000000E+00 0.  1.
         21   -1    0    0  502  503 -0.00000000000E+00 -0.00000000000E+00 -0.43720275932E+03  0.43720275932E+03  0.00000000000E+00 0.  1.
          6    1    1    2  501    0  0.50267524462E+02  0.66963491258E+02 -0.21475892083E+02  0.19249973277E+03  0.17200000000E+03 0.  1.
         -6    1    1    2    0  503 -0.50267524462E+02 -0.66963491258E+02 -0.30250955869E+03  0.35792033509E+03  0.17200000000E+03 0.  1.
</event>
<event>
 4    1  0.1259333E+000  0.2104392E+03  0.7818608E-02  0.1141219E+00
         21   -1    0    0  501  502  0.00000000000E+00  0.00000000000E+00  0.89234274073E+02  0.89234274073E+02  0.00000000000E+00 0. -1.
         21   -1    0    0  502  503 -0.00000000000E+00 -0.00000000000E+00 -0.51524875486E+03  0.51524875486E+03  0.00000000000E+00 0. -1.
          6    1    1    2  501    0  0.24187767516E+02 -0.11880919256E+03 -0.15500685482E+03  0.26136525664E+03  0.17200000000E+03 0. -1.
         -6    1    1    2    0  503 -0.24187767516E+02  0.11880919256E+03 -0.27100762597E+03  0.34311777230E+03  0.17200000000E+03 0. -1.
</event>
<event>
 4    1  0.1259333E+000  0.1897022E+03  0.7818608E-02  0.1158730E+00
         21   -1    0    0  503  502  0.00000000000E+00  0.00000000000E+00  0.15860860303E+04  0.15860860303E+04  0.00000000000E+00 0.  1.
         21   -1    0    0  501  503 -0.00000000000E+00 -0.00000000000E+00 -0.75335514445E+02  0.75335514445E+02  0.00000000000E+00 0. -1.
          6    1    1    2  501    0  0.52336911587E+02 -0.60528977446E+02  0.60936029948E+02  0.19924886241E+03  0.17200000000E+03 0. -1.
         -6    1    1    2    0  502 -0.52336911587E+02  0.60528977446E+02  0.14498144859E+04  0.14621726823E+04  0.17200000000E+03 0.  1.
</event>
<event>
 4    1  0.1259333E+000  0.1922873E+03  0.7818608E-02  0.1156414E+00
         21   -1    0    0  501  502  0.00000000000E+00  0.00000000000E+00  0.19102448159E+04  0.19102448159E+04  0.00000000000E+00 0.  1.
         21   -1    0    0  502  503 -0.00000000000E+00 -0.00000000000E+00 -0.21994466672E+02  0.21994466672E+02  0.00000000000E+00 0.  1.
          6    1    1    2  501    0  0.52539569020E+02 -0.68044000436E+02  0.12787538839E+04  0.12931302672E+04  0.17200000000E+03 0. -1.
         -6    1    1    2    0  503 -0.52539569020E+02  0.68044000436E+02  0.60949646531E+03  0.63910901537E+03  0.17200000000E+03 0. -1.
</event>
<event>
 4    1  0.1259333E+000  0.2461652E+03  0.7818608E-02  0.1115753E+00
         21   -1    0    0  501  502  0.00000000000E+00  0.00000000000E+00  0.80419680821E+03  0.80419680821E+03  0.00000000000E+00 0. -1.
         21   -1    0    0  502  503 -0.00000000000E+00 -0.00000000000E+00 -0.93751673900E+02  0.93751673900E+02  0.00000000000E+00 0. -1.
          6    1    1    2  501    0  0.23602299605E+02 -0.17451719837E+03  0.55412704344E+03  0.60634486998E+03  0.17200000000E+03 0. -1.
         -6    1    1    2    0  503 -0.23602299605E+02  0.17451719837E+03  0.15631809087E+03  0.29160361213E+03  0.17200000000E+03 0. -1.
</event>
<event>
 4    1  0.1259333E+000  0.1913886E+03  0.7818608E-02  0.1157215E+00
         21   -1    0    0  501  502  0.00000000000E+00  0.00000000000E+00  0.26970872941E+03  0.26970872941E+03  0.00000000000E+00 0. -1.
         21   -1    0    0  502  503 -0.00000000000E+00 -0.00000000000E+00 -0.14291586175E+03  0.14291586175E+03  0.00000000000E+00 0. -1.
          6    1    1    2  501    0 -0.52883790091E+02 -0.65183623579E+02  0.10939469661E+03  0.22044681827E+03  0.17200000000E+03 0. -1.
         -6    1    1    2    0  503  0.52883790091E+02  0.65183623579E+02  0.17398171053E+02  0.19217777289E+03  0.17200000000E+03 0. -1.
</event>
<event>
 4    1  0.1259333E+000  0.1825873E+03  0.7818608E-02  0.1165322E+00
         21   -1    0    0  503  502  0.00000000000E+00  0.00000000000E+00  0.11148489812E+03  0.11148489812E+03  0.00000000000E+00 0.  1.
         21   -1    0    0  501  503 -0.00000000000E+00 -0.00000000000E+00 -0.58517229419E+03  0.58517229419E+03  0.00000000000E+00 0. -1.
          6    1    1    2  501    0  0.43151907752E+02  0.43497479897E+02 -0.48041880927E+03  0.51394586310E+03  0.17200000000E+03 0. -1.
         -6    1    1    2    0  502 -0.43151907752E+02 -0.43497479897E+02  0.67314132007E+01  0.18271132922E+03  0.17200000000E+03 0.  1.
</event>
<event>
 4    1  0.1259333E+000  0.2056734E+03  0.7818608E-02  0.1145039E+00
         21   -1    0    0  503  502  0.00000000000E+00  0.00000000000E+00  0.27011984249E+03  0.27011984249E+03  0.00000000000E+00 0.  1.
         21   -1    0    0  501  503 -0.00000000000E+00 -0.00000000000E+00 -0.16227380671E+03  0.16227380671E+03  0.00000000000E+00 0.  1.
          6    1    1    2  501    0 -0.11194499860E+03  0.13632489878E+02  0.94339139668E+02  0.22627726524E+03  0.17200000000E+03 0.  1.
         -6    1    1    2    0  502  0.11194499860E+03 -0.13632489878E+02  0.13506896112E+02  0.20611638395E+03  0.17200000000E+03 0.  1.
</event>
<event>
 4    1  0.1259333E+000  0.1852123E+03  0.7818608E-02  0.1162852E+00
         21   -1    0    0  501  502  0.00000000000E+00  0.00000000000E+00  0.36339219729E+03  0.36339219729E+03  0.00000000000E+00 0.  1.
         21   -1    0    0  502  503 -0.00000000000E+00 -0.00000000000E+00 -0.94638846521E+02  0.94638846521E+02  0.00000000000E+00 0.  1.
          6    1    1    2  501    0 -0.31568692218E+02 -0.61016587286E+02  0.12283076289E+03  0.22224086610E+03  0.17200000000E+03 0. -1.
         -6    1    1    2    0  503  0.31568692218E+02  0.61016587286E+02  0.14592258788E+03  0.23579017772E+03  0.17200000000E+03 0. -1.
</event>
<event>
 4    1  0.1259333E+000  0.2305599E+03  0.7818608E-02  0.1126246E+00
         21   -1    0    0  501  502  0.00000000000E+00  0.00000000000E+00  0.17469774797E+03  0.17469774797E+03  0.00000000000E+00 0.  1.
         21   -1    0    0  502  503 -0.00000000000E+00 -0.00000000000E+00 -0.31066382501E+03  0.31066382501E+03  0.00000000000E+00 0. -1.
          6    1    1    2  501    0  0.13708705898E+03 -0.69144709293E+02 -0.10275830485E+03  0.25242250648E+03  0.17200000000E+03 0. -1.
         -6    1    1    2    0  503 -0.13708705898E+03  0.69144709293E+02 -0.33207772194E+02  0.23293906649E+03  0.17200000000E+03 0.  1.
</event>
<event>
 4    1  0.1259333E+000  0.3050799E+03  0.7818608E-02  0.1082728E+00
         21   -1    0    0  501  502  0.00000000000E+00  0.00000000000E+00  0.16499305530E+03  0.16499305530E+03  0.00000000000E+00 0. -1.
         21   -1    0    0  502  503 -0.00000000000E+00 -0.00000000000E+00 -0.10704526761E+04  0.10704526761E+04  0.00000000000E+00 0.  1.
          6    1    1    2  501    0  0.25063147655E+03 -0.25953987414E+02 -0.27881915446E+02  0.30635134684E+03  0.17200000000E+03 0. -1.
         -6    1    1    2    0  503 -0.25063147655E+03  0.25953987414E+02 -0.87757770536E+03  0.92909438457E+03  0.17200000000E+03 0.  1.
</event>
<event>
 4    1  0.1259333E+000  0.1948391E+03  0.7818608E-02  0.1154168E+00
         21   -1    0    0  503  502  0.00000000000E+00  0.00000000000E+00  0.11039884538E+04  0.11039884538E+04  0.00000000000E+00 0.  1.
         21   -1    0    0  501  503 -0.00000000000E+00 -0.00000000000E+00 -0.53207647763E+02  0.53207647763E+02  0.00000000000E+00 0.  1.
          6    1    1    2  501    0  0.29772887083E+02  0.86555406183E+02  0.18126767043E+03  0.26612070849E+03  0.17200000000E+03 0.  1.
         -6    1    1    2    0  502 -0.29772887083E+02 -0.86555406183E+02  0.86951313559E+03  0.89107539305E+03  0.17200000000E+03 0.  1.
</event>
<event>
 4    1  0.1259333E+000  0.1873866E+03  0.7818608E-02  0.1160840E+00
         21   -1    0    0  501  502  0.00000000000E+00  0.00000000000E+00  0.13092073739E+04  0.13092073739E+04  0.00000000000E+00 0. -1.
         21   -1    0    0  502  503 -0.00000000000E+00 -0.00000000000E+00 -0.27534990986E+02  0.27534990986E+02  0.00000000000E+00 0. -1.
          6    1    1    2  501    0  0.73933271762E+02 -0.79764030724E+01  0.74849202510E+03  0.77159190206E+03  0.17200000000E+03 0. -1.
         -6    1    1    2    0  503 -0.73933271762E+02  0.79764030724E+01  0.53318035783E+03  0.56515046285E+03  0.17200000000E+03 0. -1.
</event>
<event>
 4    1  0.1259333E+000  0.1914490E+03  0.7818608E-02  0.1157161E+00
         21   -1    0    0  501  502  0.00000000000E+00  0.00000000000E+00  0.21772988583E+03  0.21772988583E+03  0.00000000000E+00 0.  1.
         21   -1    0    0  502  503 -0.00000000000E+00 -0.00000000000E+00 -0.20317465074E+03  0.20317465074E+03  0.00000000000E+00 0.  1.
          6    1    1    2  501    0 -0.25849419401E+02  0.80003233922E+02  0.94418676959E+02  0.21346567986E+03  0.17200000000E+03 0.  1.
         -6    1    1    2    0  503  0.25849419401E+02 -0.80003233922E+02 -0.79863441869E+02  0.20743885670E+03  0.17200000000E+03 0.  1.
</event>
<event>
 4    1  0.1259333E+000  0.1871340E+03  0.7818608E-02  0.1161072E+00
         21   -1    0    0  503  502  0.00000000000E+00  0.00000000000E+00  0.14794176592E+04  0.14794176592E+04  0.00000000000E+00 0.  1.
         21   -1    0    0  501  503 -0.00000000000E+00 -0.00000000000E+00 -0.23913109128E+02  0.23913109128E+02  0.00000000000E+00 0.  1.
          6    1    1    2  501    0 -0.73193827753E+02 -0.88198857117E+01  0.80340321062E+03  0.82490959847E+03  0.17200000000E+03 0. -1.
         -6    1    1    2    0  502  0.73193827753E+02  0.88198857117E+01  0.65210133949E+03  0.67842116990E+03  0.17200000000E+03 0. -1.
</event>
<event>
 4    1  0.1259333E+000  0.2033936E+03  0.7818608E-02  0.1146907E+00
         21   -1    0    0  501  502  0.00000000000E+00  0.00000000000E+00  0.34421759626E+03  0.34421759626E+03  0.00000000000E+00 0.  1.
         21   -1    0    0  502  503 -0.00000000000E+00 -0.00000000000E+00 -0.12200076707E+03  0.12200076707E+03  0.00000000000E+00 0. -1.
          6    1    1    2  501    0  0.69311734182E+02  0.83551320971E+02  0.13956638989E+03  0.24667329997E+03  0.17200000000E+03 0.  1.
         -6    1    1    2    0  503 -0.69311734182E+02 -0.83551320971E+02  0.82650439301E+02  0.21954506337E+03  0.17200000000E+03 0.  1.
</event>
<event>
 4    1  0.1259333E+000  0.2185411E+03  0.7818608E-02  0.1134975E+00
         21   -1    0    0  501  502  0.00000000000E+00  0.00000000000E+00  0.91589734056E+03  0.91589734056E+03  0.00000000000E+00 0.  1.
         21   -1    0    0  502  503 -0.00000000000E+00 -0.00000000000E+00 -0.54342332139E+02  0.54342332139E+02  0.00000000000E+00 0.  1.
          6    1    1    2  501    0 -0.96576817645E+02 -0.94069824186E+02  0.52830951278E+03  0.57172646853E+03  0.17200000000E+03 0. -1.
         -6    1    1    2    0  503  0.96576817645E+02  0.94069824186E+02  0.33324549565E+03  0.39851320417E+03  0.17200000000E+03 0. -1.
</event>
<event>
 4    1  0.1259333E+000  0.2004434E+03  0.7818608E-02  0.1149365E+00
         21   -1    0    0  503  502  0.00000000000E+00  0.00000000000E+00  0.37677427438E+03  0.37677427438E+03  0.00000000000E+00 0. -1.
         21   -1    0    0  501  503 -0.00000000000E+00 -0.00000000000E+00 -0.49505917957E+03  0.49505917957E+03  0.00000000000E+00 0. -1.
          6    1    1    2  501    0 -0.96851345140E+02  0.34833652057E+02 -0.44526729603E+03  0.48830372852E+03  0.17200000000E+03 0. -1.
         -6    1    1    2    0  502  0.96851345140E+02 -0.34833652057E+02  0.32698239084E+03  0.38352972543E+03  0.17200000000E+03 0. -1.
</event>
<event>
 4    1  0.1259333E+000  0.2697136E+03  0.7818608E-02  0.1101444E+00
         21   -1    0    0  501  502  0.00000000000E+00  0.00000000000E+00  0.62736621633E+02  0.62736621633E+02  0.00000000000E+00 0. -1.
         21   -1    0    0  502  503 -0.00000000000E+00 -0.00000000000E+00 -0.13259706606E+04  0.13259706606E+04  0.00000000000E+00 0.  1.
          6    1    1    2  501    0 -0.13122126163E+03 -0.16106648474E+03 -0.38561742864E+03  0.47058074045E+03  0.17200000000E+03 0. -1.
         -6    1    1    2    0  503  0.13122126163E+03  0.16106648474E+03 -0.87761661028E+03  0.91812654174E+03  0.17200000000E+03 0.  1.
</event>
<event>
 4    1  0.1259333E+000  0.1765774E+03  0.7818608E-02  0.1171157E+00
         21   -1    0    0  501  502  0.00000000000E+00  0.00000000000E+00  0.53773954941E+03  0.53773954941E+03  0.00000000000E+00 0. -1.
         21   -1    0    0  502  503 -0.00000000000E+00 -0.00000000000E+00 -0.10718487804E+03  0.10718487804E+03  0.00000000000E+00 0. -1.
          6    1    1    2  501    0  0.26543240483E+02  0.29850192826E+02  0.43375364246E+03  0.46831805429E+03  0.17200000000E+03 0. -1.
         -6    1    1    2    0  503 -0.26543240483E+02 -0.29850192826E+02 -0.31989710910E+01  0.17660637317E+03  0.17200000000E+03 0. -1.
</event>
<event>
 4    1  0.1259333E+000  0.1734637E+03  0.7818608E-02  0.1174283E+00
         21   -1    0    0  501  502  0.00000000000E+00  0.00000000000E+00  0.10582592193E+03  0.10582592193E+03  0.00000000000E+00 0.  1.
         21   -1    0    0  502  503 -0.00000000000E+00 -0.00000000000E+00 -0.34350224574E+03  0.34350224574E+03  0.00000000000E+00 0.  1.
          6    1    1    2  501    0 -0.48355476977E+00 -0.22481882295E+02 -0.25594034813E+02  0.17534173341E+03  0.17200000000E+03 0.  1.
         -6    1    1    2    0  503  0.48355476977E+00  0.22481882295E+02 -0.21208228899E+03  0.27398643426E+03  0.17200000000E+03 0.  1.
</event>
<event>
 4    1  0.1259333E+000  0.1796492E+03  0.7818608E-02  0.1168143E+00
         21   -1    0    0  501  502  0.00000000000E+00  0.00000000000E+00  0.25579304402E+03  0.25579304402E+03  0.00000000000E+00 0.  1.
         21   -1    0    0  502  503 -0.00000000000E+00 -0.00000000000E+00 -0.21866551260E+03  0.21866551260E+03  0.00000000000E+00 0.  1.
          6    1    1    2  501    0  0.19725376928E+02  0.47966133382E+02  0.17285260345E+03  0.24930275363E+03  0.17200000000E+03 0.  1.
         -6    1    1    2    0  503 -0.19725376928E+02 -0.47966133382E+02 -0.13572507203E+03  0.22515580300E+03  0.17200000000E+03 0.  1.
</event>
<event>
 4    1  0.1259333E+000  0.2300346E+03  0.7818608E-02  0.1126615E+00
         21   -1    0    0  501  502  0.00000000000E+00  0.00000000000E+00  0.60550519292E+03  0.60550519292E+03  0.00000000000E+00 0.  1.
         21   -1    0    0  502  503 -0.00000000000E+00 -0.00000000000E+00 -0.95036056068E+02  0.95036056068E+02  0.00000000000E+00 0.  1.
          6    1    1    2  501    0 -0.15067078562E+03  0.25104607880E+02  0.35457805693E+03  0.42266005895E+03  0.17200000000E+03 0. -1.
         -6    1    1    2    0  503  0.15067078562E+03 -0.25104607880E+02  0.15589107992E+03  0.27788119004E+03  0.17200000000E+03 0. -1.
</event>
<event>
 4    1  0.1259333E+000  0.2076592E+03  0.7818608E-02  0.1143433E+00
         21   -1    0    0  501  502  0.00000000000E+00  0.00000000000E+00  0.75464640919E+03  0.75464640919E+03  0.00000000000E+00 0.  1.
         21   -1    0    0  502  503 -0.00000000000E+00 -0.00000000000E+00 -0.59059590909E+02  0.59059590909E+02  0.00000000000E+00 0.  1.
          6    1    1    2  501    0  0.15905052362E+00 -0.11635436642E+03  0.27449130447E+03  0.34419157472E+03  0.17200000000E+03 0.  1.
         -6    1    1    2    0  503 -0.15905052362E+00  0.11635436642E+03  0.42109551381E+03  0.46951442537E+03  0.17200000000E+03 0.  1.
</event>
<event>
 4    1  0.1259333E+000  0.2824679E+03  0.7818608E-02  0.1094349E+00
         21   -1    0    0  503  502  0.00000000000E+00  0.00000000000E+00  0.12592386831E+03  0.12592386831E+03  0.00000000000E+00 0. -1.
         21   -1    0    0  501  503 -0.00000000000E+00 -0.00000000000E+00 -0.63972823074E+03  0.63972823074E+03  0.00000000000E+00 0. -1.
          6    1    1    2  501    0 -0.21135831074E+03 -0.74375843547E+02 -0.29430456411E+03  0.40792557909E+03  0.17200000000E+03 0. -1.
         -6    1    1    2    0  502  0.21135831074E+03  0.74375843547E+02 -0.21949979831E+03  0.35772651996E+03  0.17200000000E+03 0. -1.
</event>
<event>
 4    1  0.1259333E+000  0.2093209E+03  0.7818608E-02  0.1142105E+00
         21   -1    0    0  503  502  0.00000000000E+00  0.00000000000E+00  0.15711969469E+03  0.15711969469E+03  0.00000000000E+00 0.  1.
         21   -1    0    0  501  503 -0.00000000000E+00 -0.00000000000E+00 -0.32693111566E+03  0.32693111566E+03  0.00000000000E+00 0.  1.
          6    1    1    2  501    0  0.51725647478E+02 -0.10749744748E+03 -0.17770627355E+03  0.27458106905E+03  0.17200000000E+03 0.  1.
         -6    1    1    2    0  502 -0.51725647478E+02  0.10749744748E+03  0.78948525774E+01  0.20946974130E+03  0.17200000000E+03 0.  1.
</event>
<event>
 4    1  0.1259333E+000  0.1952720E+03  0.7818608E-02  0.1153790E+00
         21   -1    0    0  501  502  0.00000000000E+00  0.00000000000E+00  0.85802779819E+02  0.85802779819E+02  0.00000000000E+00 0. -1.
         21   -1    0    0  502  503 -0.00000000000E+00 -0.00000000000E+00 -0.45713770453E+03  0.45713770453E+03  0.00000000000E+00 0. -1.
          6    1    1    2  501    0  0.14557690322E+01  0.92439374817E+02 -0.14036055453E+03  0.24048335192E+03  0.17200000000E+03 0.  1.
         -6    1    1    2    0  503 -0.14557690322E+01 -0.92439374817E+02 -0.23097437017E+03  0.30245713243E+03  0.17200000000E+03 0.  1.
</event>
<event>
 4    1  0.1259333E+000  0.1985332E+03  0.7818608E-02  0.1150982E+00
         21   -1    0    0  501  502  0.00000000000E+00  0.00000000000E+00  0.21431095467E+04  0.21431095467E+04  0.00000000000E+00 0.  1.
         21   -1    0    0  502  503 -0.00000000000E+00 -0.00000000000E+00 -0.27549242769E+02  0.27549242769E+02  0.00000000000E+00 0. -1.
          6    1    1    2  501    0 -0.76214768464E+02  0.63425094386E+02  0.16835233644E+04  0.16951891788E+04  0.17200000000E+03 0.  1.
         -6    1    1    2    0  503  0.76214768464E+02 -0.63425094386E+02  0.43203693958E+03  0.47546961069E+03  0.17200000000E+03 0. -1.
</event>
<event>
 4    1  0.1259333E+000  0.3706309E+03  0.7818608E-02  0.1054452E+00
         21   -1    0    0  501  502  0.00000000000E+00  0.00000000000E+00  0.41789712433E+03  0.41789712433E+03  0.00000000000E+00 0.  1.
         21   -1    0    0  502  503 -0.00000000000E+00 -0.00000000000E+00 -0.42962289597E+03  0.42962289597E+03  0.00000000000E+00 0.  1.
          6    1    1    2  501    0 -0.24863816939E+00 -0.32830350908E+03  0.19951235780E+03  0.42091856316E+03  0.17200000000E+03 0.  1.
         -6    1    1    2    0  503  0.24863816939E+00  0.32830350908E+03 -0.21123812945E+03  0.42660145713E+03  0.17200000000E+03 0.  1.
</event>
<event>
 4    1  0.1259333E+000  0.2429739E+03  0.7818608E-02  0.1117827E+00
         21   -1    0    0  503  502  0.00000000000E+00  0.00000000000E+00  0.15586519456E+04  0.15586519456E+04  0.00000000000E+00 0. -1.
         21   -1    0    0  501  503 -0.00000000000E+00 -0.00000000000E+00 -0.41693415486E+02  0.41693415486E+02  0.00000000000E+00 0. -1.
          6    1    1    2  501    0 -0.10023517098E+03  0.13930260878E+03  0.51637340046E+03  0.57068186849E+03  0.17200000000E+03 0. -1.
         -6    1    1    2    0  502  0.10023517098E+03 -0.13930260878E+03  0.10005851296E+04  0.10296634926E+04  0.17200000000E+03 0. -1.
</event>
<event>
 4    1  0.1259333E+000  0.2188354E+03  0.7818608E-02  0.1134754E+00
         21   -1    0    0  501  502  0.00000000000E+00  0.00000000000E+00  0.18727672710E+04  0.18727672710E+04  0.00000000000E+00 0. -1.
         21   -1    0    0  502  503 -0.00000000000E+00 -0.00000000000E+00 -0.48492871129E+02  0.48492871129E+02  0.00000000000E+00 0.  1.
          6    1    1    2  501    0  0.90701286943E+02  0.10039022410E+03  0.15725877337E+04  0.15877408796E+04  0.17200000000E+03 0. -1.
         -6    1    1    2    0  503 -0.90701286943E+02 -0.10039022410E+03  0.25168666613E+03  0.33351926250E+03  0.17200000000E+03 0.  1.
</event>
<event>
 4    1  0.1259333E+000  0.1728747E+03  0.7818608E-02  0.1174883E+00
         21   -1    0    0  501  502  0.00000000000E+00  0.00000000000E+00  0.10660173277E+03  0.10660173277E+03  0.00000000000E+00 0. -1.
         21   -1    0    0  502  503 -0.00000000000E+00 -0.00000000000E+00 -0.28846348193E+03  0.28846348193E+03  0.00000000000E+00 0. -1.
          6    1    1    2  501    0 -0.14971796280E+02  0.88039953036E+01 -0.57800233473E+02  0.18228146369E+03  0.17200000000E+03 0. -1.
         -6    1    1    2    0  503  0.14971796280E+02 -0.88039953036E+01 -0.12406151568E+03  0.21278375100E+03  0.17200000000E+03 0. -1.
</event>
<event>
 4    1  0.1259333E+000  0.2155473E+03  0.7818608E-02  0.1137247E+00
         21   -1    0    0  501  502  0.00000000000E+00  0.00000000000E+00  0.37714056353E+03  0.37714056353E+03  0.00000000000E+00 0. -1.
         21   -1    0    0  502  503 -0.00000000000E+00 -0.00000000000E+00 -0.15220875607E+03  0.15220875607E+03  0.00000000000E+00 0. -1.
          6    1    1    2  501    0  0.80292335942E+02 -0.10212623495E+03  0.22802880262E+03  0.31377979843E+03  0.17200000000E+03 0. -1.
         -6    1    1    2    0  503 -0.80292335942E+02  0.10212623495E+03 -0.30969951660E+01  0.21556952116E+03  0.17200000000E+03 0. -1.
</event>
<event>
 4    1  0.1259333E+000  0.1978990E+03  0.7818608E-02  0.1151524E+00
         21   -1    0    0  503  502  0.00000000000E+00  0.00000000000E+00  0.96350426574E+03  0.96350426574E+03  0.00000000000E+00 0.  1.
         21   -1    0    0  501  503 -0.00000000000E+00 -0.00000000000E+00 -0.41811448462E+02  0.41811448462E+02  0.00000000000E+00 0.  1.
          6    1    1    2  501    0  0.67360416387E+02  0.71011290312E+02  0.37697888966E+03  0.42576649974E+03  0.17200000000E+03 0.  1.
         -6    1    1    2    0  502 -0.67360416387E+02 -0.71011290312E+02  0.54471392761E+03  0.57954921446E+03  0.17200000000E+03 0.  1.
</event>
<event>
 4    1  0.1259333E+000  0.2465312E+03  0.7818608E-02  0.1115517E+00
         21   -1    0    0  501  502  0.00000000000E+00  0.00000000000E+00  0.32836295485E+03  0.32836295485E+03  0.00000000000E+00 0.  1.
         21   -1    0    0  502  503 -0.00000000000E+00 -0.00000000000E+00 -0.33365126280E+03  0.33365126280E+03  0.00000000000E+00 0.  1.
          6    1    1    2  501    0  0.39437276329E+02  0.17215785436E+03  0.21822730627E+03  0.32924274143E+03  0.17200000000E+03 0.  1.
         -6    1    1    2    0  503 -0.39437276329E+02 -0.17215785436E+03 -0.22351561422E+03  0.33277147622E+03  0.17200000000E+03 0.  1.
</event>
<event>
 4    1  0.1259333E+000  0.1839303E+03  0.7818608E-02  0.1164053E+00
         21   -1    0    0  501  502  0.00000000000E+00  0.00000000000E+00  0.41506902107E+02  0.41506902107E+02  0.00000000000E+00 0.  1.
         21   -1    0    0  502  503 -0.00000000000E+00 -0.00000000000E+00 -0.82371830242E+03  0.82371830242E+03  0.00000000000E+00 0.  1.
          6    1    1    2  501    0  0.24596036935E+02  0.60344031521E+02 -0.34673704575E+03  0.39250088671E+03  0.17200000000E+03 0. -1.
         -6    1    1    2    0  503 -0.24596036935E+02 -0.60344031521E+02 -0.43547435457E+03  0.47272431782E+03  0.17200000000E+03 0. -1.
</event>
<event>
 4    1  0.1259333E+000  0.1874475E+03  0.7818608E-02  0.1160784E+00
         21   -1    0    0  501  502  0.00000000000E+00  0.00000000000E+00  0.15006154430E+03  0.15006154430E+03  0.00000000000E+00 0.  1.
         21   -1    0    0  502  503 -0.00000000000E+00 -0.00000000000E+00 -0.33060076020E+03  0.33060076020E+03  0.00000000000E+00 0.  1.
          6    1    1    2  501    0  0.38794029779E+02  0.63620619412E+02  0.39542808018E+02  0.19157294597E+03  0.17200000000E+03 0.  1.
         -6    1    1    2    0  503 -0.38794029779E+02 -0.63620619412E+02 -0.22008202392E+03  0.28908935853E+03  0.17200000000E+03 0.  1.
</event>
<event>
 4    1  0.1259333E+000  0.2450443E+03  0.7818608E-02  0.1116477E+00
         21   -1    0    0  503  502  0.00000000000E+00  0.00000000000E+00  0.18351941587E+03  0.18351941587E+03  0.00000000000E+00 0.  1.
         21   -1    0    0  501  503 -0.00000000000E+00 -0.00000000000E+00 -0.33719652329E+03  0.33719652329E+03  0.00000000000E+00 0.  1.
          6    1    1    2  501    0  0.15006202859E+03  0.89129737323E+02 -0.12167715825E+03  0.27359103300E+03  0.17200000000E+03 0.  1.
         -6    1    1    2    0  502 -0.15006202859E+03 -0.89129737323E+02 -0.31999949169E+02  0.24712490616E+03  0.17200000000E+03 0.  1.
</event>
<event>
 4    1  0.1259333E+000  0.2197258E+03  0.7818608E-02  0.1134088E+00
         21   -1    0    0  501  502  0.00000000000E+00  0.00000000000E+00  0.51894843610E+02  0.51894843610E+02  0.00000000000E+00 0.  1.
         21   -1    0    0  502  503 -0.00000000000E+00 -0.00000000000E+00 -0.10418210815E+04  0.10418210815E+04  0.00000000000E+00 0.  1.
          6    1    1    2  501    0 -0.37341561695E+02  0.13153340480E+03 -0.31606971831E+03  0.38494089890E+03  0.17200000000E+03 0.  1.
         -6    1    1    2    0  503  0.37341561695E+02 -0.13153340480E+03 -0.67385651963E+03  0.70877502626E+03  0.17200000000E+03 0.  1.
</event>
<event>
 4    1  0.1259333E+000  0.1857802E+03  0.7818608E-02  0.1162323E+00
         21   -1    0    0  501  502  0.00000000000E+00  0.00000000000E+00  0.27867818341E+02  0.27867818341E+02  0.00000000000E+00 0. -1.
         21   -1    0    0  502  503 -0.00000000000E+00 -0.00000000000E+00 -0.13438429286E+04  0.13438429286E+04  0.00000000000E+00 0. -1.
          6    1    1    2  501    0 -0.68636160469E+02 -0.14811094538E+02 -0.46596107112E+03  0.50163134954E+03  0.17200000000E+03 0. -1.
         -6    1    1    2    0  503  0.68636160469E+02  0.14811094538E+02 -0.85001403918E+03  0.87007939744E+03  0.17200000000E+03 0. -1.
</event>
<event>
 4    1  0.1259333E+000  0.1883550E+03  0.7818608E-02  0.1159953E+00
         21   -1    0    0  501  502  0.00000000000E+00  0.00000000000E+00  0.34473038276E+03  0.34473038276E+03  0.00000000000E+00 0. -1.
         21   -1    0    0  502  503 -0.00000000000E+00 -0.00000000000E+00 -0.22633409458E+03  0.22633409458E+03  0.00000000000E+00 0. -1.
          6    1    1    2  501    0  0.71698700199E+02 -0.27439109771E+02  0.27004783382E+03  0.32924677812E+03  0.17200000000E+03 0. -1.
         -6    1    1    2    0  503 -0.71698700199E+02  0.27439109771E+02 -0.15165154564E+03  0.24181769921E+03  0.17200000000E+03 0. -1.
</event>
<event>
 4    1  0.1259333E+000  0.2039963E+03  0.7818608E-02  0.1146410E+00
         21   -1    0    0  503  502  0.00000000000E+00  0.00000000000E+00  0.32876012586E+02  0.32876012586E+02  0.00000000000E+00 0.  1.
         21   -1    0    0  501  503 -0.00000000000E+00 -0.00000000000E+00 -0.12751344095E+04  0.12751344095E+04  0.00000000000E+00 0. -1.
          6    1    1    2  501    0 -0.46558239047E+02  0.99311696876E+02 -0.67708282416E+03  0.70714611894E+03  0.17200000000E+03 0. -1.
         -6    1    1    2    0  502  0.46558239047E+02 -0.99311696876E+02 -0.56517557278E+03  0.60086430318E+03  0.17200000000E+03 0.  1.
</event>
<event>
 4    1  0.1259333E+000  0.1807068E+03  0.7818608E-02  0.1167121E+00
         21   -1    0    0  503  502  0.00000000000E+00  0.00000000000E+00  0.97457793517E+02  0.97457793517E+02  0.00000000000E+00 0.  1.
         21   -1    0    0  501  503 -0.00000000000E+00 -0.00000000000E+00 -0.74855463897E+03  0.74855463897E+03  0.00000000000E+00 0.  1.
          6    1    1    2  501    0  0.55125267453E+02 -0.56711720581E+01 -0.63993638009E+03  0.66496129803E+03  0.17200000000E+03 0.  1.
         -6    1    1    2    0  502 -0.55125267453E+02  0.56711720581E+01 -0.11160465364E+02  0.18105113447E+03  0.17200000000E+03 0.  1.
</event>
<event>
 4    1  0.1259333E+000  0.1755922E+03  0.7818608E-02  0.1172138E+00
         21   -1    0    0  503  502  0.00000000000E+00  0.00000000000E+00  0.70751810038E+02  0.70751810038E+02  0.00000000000E+00 0. -1.
         21   -1    0    0  501  503 -0.00000000000E+00 -0.00000000000E+00 -0.43953355390E+03  0.43953355390E+03  0.00000000000E+00 0. -1.
          6    1    1    2  501    0 -0.24436331395E+02 -0.25524532501E+02 -0.20795064297E+03  0.27216925977E+03  0.17200000000E+03 0. -1.
         -6    1    1    2    0  502  0.24436331395E+02  0.25524532501E+02 -0.16083110090E+03  0.23811610417E+03  0.17200000000E+03 0. -1.
</event>
<event>
 4    1  0.1259333E+000  0.1722173E+03  0.7818608E-02  0.1175555E+00
         21   -1    0    0  503  502  0.00000000000E+00  0.00000000000E+00  0.44143139782E+03  0.44143139782E+03  0.00000000000E+00 0.  1.
         21   -1    0    0  501  503 -0.00000000000E+00 -0.00000000000E+00 -0.99471642215E+02  0.99471642215E+02  0.00000000000E+00 0.  1.
          6    1    1    2  501    0 -0.85052670365E+01 -0.15662812956E+01  0.16904738709E+02  0.17304497391E+03  0.17200000000E+03 0.  1.
         -6    1    1    2    0  502  0.85052670365E+01  0.15662812956E+01  0.32505501690E+03  0.36785806613E+03  0.17200000000E+03 0.  1.
</event>
<event>
 4    1  0.1259333E+000  0.2190814E+03  0.7818608E-02  0.1134570E+00
         21   -1    0    0  501  502  0.00000000000E+00  0.00000000000E+00  0.25120313325E+03  0.25120313325E+03  0.00000000000E+00 0.  1.
         21   -1    0    0  502  503 -0.00000000000E+00 -0.00000000000E+00 -0.22625106572E+03  0.22625106572E+03  0.00000000000E+00 0.  1.
          6    1    1    2  501    0  0.76135620481E+02 -0.11232103793E+03  0.10661706350E+03  0.24364697104E+03  0.17200000000E+03 0.  1.
         -6    1    1    2    0  503 -0.76135620481E+02  0.11232103793E+03 -0.81664995968E+02  0.23380722794E+03  0.17200000000E+03 0.  1.
</event>
<event>
 4    1  0.1259333E+000  0.1809785E+03  0.7818608E-02  0.1166859E+00
         21   -1    0    0  501  502  0.00000000000E+00  0.00000000000E+00  0.13702305682E+03  0.13702305682E+03  0.00000000000E+00 0.  1.
         21   -1    0    0  502  503 -0.00000000000E+00 -0.00000000000E+00 -0.24320891035E+03  0.24320891035E+03  0.00000000000E+00 0.  1.
          6    1    1    2  501    0  0.39518301732E+02  0.40093735231E+02 -0.28184895379E+02  0.18316001776E+03  0.17200000000E+03 0.  1.
         -6    1    1    2    0  503 -0.39518301732E+02 -0.40093735231E+02 -0.78000958148E+02  0.19707194942E+03  0.17200000000E+03 0.  1.
</event>
<event>
 4    1  0.1259333E+000  0.1931090E+03  0.7818608E-02  0.1155687E+00
         21   -1    0    0  503  502  0.00000000000E+00  0.00000000000E+00  0.14220846761E+03  0.14220846761E+03  0.00000000000E+00 0. -1.
         21   -1    0    0  501  503 -0.00000000000E+00 -0.00000000000E+00 -0.39409988525E+03  0.39409988525E+03  0.00000000000E+00 0. -1.
          6    1    1    2  501    0 -0.76621491374E+02  0.42851310888E+02  0.29170431188E+02  0.19529977430E+03  0.17200000000E+03 0. -1.
         -6    1    1    2    0  502  0.76621491374E+02 -0.42851310888E+02 -0.28106184883E+03  0.34100857856E+03  0.17200000000E+03 0. -1.
</event>
<event>
 4    1  0.1259333E+000  0.1738101E+03  0.7818608E-02  0.1173932E+00
         21   -1    0    0  503  502  0.00000000000E+00  0.00000000000E+00  0.66466560589E+02  0.66466560589E+02  0.00000000000E+00 0.  1.
         21   -1    0    0  501  503 -0.00000000000E+00 -0.00000000000E+00 -0.45454538330E+03  0.45454538330E+03  0.00000000000E+00 0.  1.
          6    1    1    2  501    0  0.93323992333E+01  0.23213351093E+02 -0.19185982572E+03  0.25888249472E+03  0.17200000000E+03 0.  1.
         -6    1    1    2    0  502 -0.93323992333E+01 -0.23213351093E+02 -0.19621899700E+03  0.26212944918E+03  0.17200000000E+03 0.  1.
</event>
<event>
 4    1  0.1259333E+000  0.2412469E+03  0.7818608E-02  0.1118965E+00
         21   -1    0    0  501  502  0.00000000000E+00  0.00000000000E+00  0.18647159017E+03  0.18647159017E+03  0.00000000000E+00 0.  1.
         21   -1    0    0  502  503 -0.00000000000E+00 -0.00000000000E+00 -0.32630676843E+03  0.32630676843E+03  0.00000000000E+00 0. -1.
          6    1    1    2  501    0  0.15685236453E+03  0.63351485777E+02 -0.16443133477E+02  0.24180664103E+03  0.17200000000E+03 0.  1.
         -6    1    1    2    0  503 -0.15685236453E+03 -0.63351485777E+02 -0.12339204478E+03  0.27097171757E+03  0.17200000000E+03 0.  1.
</event>
<event>
 4    1  0.1259333E+000  0.3294701E+03  0.7818608E-02  0.1071372E+00
         21   -1    0    0  503  502  0.00000000000E+00  0.00000000000E+00  0.65965711326E+03  0.65965711326E+03  0.00000000000E+00 0.  1.
         21   -1    0    0  501  503 -0.00000000000E+00 -0.00000000000E+00 -0.18629419917E+03  0.18629419917E+03  0.00000000000E+00 0.  1.
          6    1    1    2  501    0  0.23555627965E+03  0.15323122938E+03  0.92195059010E+02  0.34212643781E+03  0.17200000000E+03 0.  1.
         -6    1    1    2    0  502 -0.23555627965E+03 -0.15323122938E+03  0.38116785508E+03  0.50382487462E+03  0.17200000000E+03 0.  1.
</event>
<event>
 4    1  0.1259333E+000  0.2371622E+03  0.7818608E-02  0.1121698E+00
         21   -1    0    0  503  502  0.00000000000E+00  0.00000000000E+00  0.10596631622E+03  0.10596631622E+03  0.00000000000E+00 0.  1.
         21   -1    0    0  501  503 -0.00000000000E+00 -0.00000000000E+00 -0.63552014387E+03  0.63552014387E+03  0.00000000000E+00 0. -1.
          6    1    1    2  501    0 -0.16099018988E+03  0.27277400220E+02 -0.41527940850E+03  0.47822890431E+03  0.17200000000E+03 0. -1.
         -6    1    1    2    0  502  0.16099018988E+03 -0.27277400220E+02 -0.11427441915E+03  0.26325755578E+03  0.17200000000E+03 0.  1.
</event>
<event>
 4    1  0.1259333E+000  0.1781265E+03  0.7818608E-02  0.1169629E+00
         21   -1    0    0  501  502  0.00000000000E+00  0.00000000000E+00  0.86671956414E+02  0.86671956414E+02  0.00000000000E+00 0.  1.
         21   -1    0    0  502  503 -0.00000000000E+00 -0.00000000000E+00 -0.73565451394E+03  0.73565451394E+03  0.00000000000E+00 0.  1.
          6    1    1    2  501    0  0.24016565511E+02 -0.39601296142E+02 -0.33066112174E+02  0.18116960520E+03  0.17200000000E+03 0.  1.
         -6    1    1    2    0  503 -0.24016565511E+02  0.39601296142E+02 -0.61591644535E+03  0.64115686515E+03  0.17200000000E+03 0.  1.
</event>
<event>
 4    1  0.1259333E+000  0.2592893E+03  0.7818608E-02  0.1107571E+00
         21   -1    0    0  501  502  0.00000000000E+00  0.00000000000E+00  0.13589763057E+03  0.13589763057E+03  0.00000000000E+00 0.  1.
         21   -1    0    0  502  503 -0.00000000000E+00 -0.00000000000E+00 -0.74949520287E+03  0.74949520287E+03  0.00000000000E+00 0. -1.
          6    1    1    2  501    0  0.80442093777E+02  0.17656736340E+03 -0.48690403306E+02  0.26382137829E+03  0.17200000000E+03 0.  1.
         -6    1    1    2    0  503 -0.80442093777E+02 -0.17656736340E+03 -0.56490716899E+03  0.62157145514E+03  0.17200000000E+03 0. -1.
</event>
<event>
 4    1  0.1259333E+000  0.1733188E+03  0.7818608E-02  0.1174430E+00
         21   -1    0    0  501  502  0.00000000000E+00  0.00000000000E+00  0.77432395455E+02  0.77432395455E+02  0.00000000000E+00 0.  1.
         21   -1    0    0  502  503 -0.00000000000E+00 -0.00000000000E+00 -0.46898658014E+03  0.46898658014E+03  0.00000000000E+00 0.  1.
          6    1    1    2  501    0 -0.10325976714E+02 -0.18675424355E+02 -0.82204525100E+02  0.19182539252E+03  0.17200000000E+03 0.  1.
         -6    1    1    2    0  503  0.10325976714E+02  0.18675424355E+02 -0.30934965959E+03  0.35459358308E+03  0.17200000000E+03 0.  1.
</event>
<event>
 4    1  0.1259333E+000  0.1880163E+03  0.7818608E-02  0.1160263E+00
         21   -1    0    0  503  502  0.00000000000E+00  0.00000000000E+00  0.51527899265E+02  0.51527899265E+02  0.00000000000E+00 0.  1.
         21   -1    0    0  501  503 -0.00000000000E+00 -0.00000000000E+00 -0.12159391532E+04  0.12159391532E+04  0.00000000000E+00 0.  1.
          6    1    1    2  501    0 -0.20625461779E+02 -0.73080243567E+02 -0.10005634725E+04  0.10180753382E+04  0.17200000000E+03 0.  1.
         -6    1    1    2    0  502  0.20625461779E+02  0.73080243567E+02 -0.16384778139E+03  0.24939171426E+03  0.17200000000E+03 0.  1.
</event>
<event>
 4    1  0.1259333E+000  0.2359235E+03  0.7818608E-02  0.1122539E+00
         21   -1    0    0  501  502  0.00000000000E+00  0.00000000000E+00  0.49964968852E+03  0.49964968852E+03  0.00000000000E+00 0. -1.
         21   -1    0    0  502  503 -0.00000000000E+00 -0.00000000000E+00 -0.14519334069E+03  0.14519334069E+03  0.00000000000E+00 0. -1.
          6    1    1    2  501    0 -0.14535642964E+03  0.70337685438E+02  0.33278185502E+03  0.40792602841E+03  0.17200000000E+03 0.  1.
         -6    1    1    2    0  503  0.14535642964E+03 -0.70337685438E+02  0.21674492808E+02  0.23691700080E+03  0.17200000000E+03 0.  1.
</event>
<event>
 4    1  0.1259333E+000  0.1786717E+03  0.7818608E-02  0.1169095E+00
         21   -1    0    0  503  502  0.00000000000E+00  0.00000000000E+00  0.49412659780E+02  0.49412659780E+02  0.00000000000E+00 0. -1.
         21   -1    0    0  501  503 -0.00000000000E+00 -0.00000000000E+00 -0.74804804693E+03  0.74804804693E+03  0.00000000000E+00 0. -1.
          6    1    1    2  501    0 -0.34923566961E+02 -0.33465372711E+02 -0.49654463994E+03  0.52771220012E+03  0.17200000000E+03 0. -1.
         -6    1    1    2    0  502  0.34923566961E+02  0.33465372711E+02 -0.20209074720E+03  0.26974850659E+03  0.17200000000E+03 0. -1.
</event>
<event>
 4    1  0.1259333E+000  0.1831246E+03  0.7818608E-02  0.1164813E+00
         21   -1    0    0  501  502  0.00000000000E+00  0.00000000000E+00  0.23914017743E+02  0.23914017743E+02  0.00000000000E+00 0. -1.
         21   -1    0    0  502  503 -0.00000000000E+00 -0.00000000000E+00 -0.14094440030E+04  0.14094440030E+04  0.00000000000E+00 0. -1.
          6    1    1    2  501    0  0.77539098152E+01 -0.62373957764E+02 -0.74378765788E+03  0.76599916040E+03  0.17200000000E+03 0.  1.
         -6    1    1    2    0  503 -0.77539098152E+01  0.62373957764E+02 -0.64174232733E+03  0.66735886029E+03  0.17200000000E+03 0.  1.
</event>
<event>
 4    1  0.1259333E+000  0.2761360E+03  0.7818608E-02  0.1097818E+00
         21   -1    0    0  501  502  0.00000000000E+00  0.00000000000E+00  0.31559985159E+03  0.31559985159E+03  0.00000000000E+00 0.  1.
         21   -1    0    0  502  503 -0.00000000000E+00 -0.00000000000E+00 -0.28026352909E+03  0.28026352909E+03  0.00000000000E+00 0. -1.
          6    1    1    2  501    0 -0.18085342929E+03 -0.11814869532E+03 -0.92980416763E+02  0.29136992809E+03  0.17200000000E+03 0. -1.
         -6    1    1    2    0  503  0.18085342929E+03  0.11814869532E+03  0.12831673927E+03  0.30449345259E+03  0.17200000000E+03 0. -1.
</event>
<event>
 4    1  0.1259333E+000  0.1914638E+03  0.7818608E-02  0.1157148E+00
         21   -1    0    0  501  502  0.00000000000E+00  0.00000000000E+00  0.10950500268E+04  0.10950500268E+04  0.00000000000E+00 0. -1.
         21   -1    0    0  502  503 -0.00000000000E+00 -0.00000000000E+00 -0.47283854592E+02  0.47283854592E+02  0.00000000000E+00 0. -1.
          6    1    1    2  501    0  0.65852521505E+02  0.52324167214E+02  0.83253065336E+03  0.85426322749E+03  0.17200000000E+03 0. -1.
         -6    1    1    2    0  503 -0.65852521505E+02 -0.52324167214E+02  0.21523551884E+03  0.28807065389E+03  0.17200000000E+03 0. -1.
</event>
<event>
 4    1  0.1259333E+000  0.2253677E+03  0.7818608E-02  0.1129943E+00
         21   -1    0    0  501  502  0.00000000000E+00  0.00000000000E+00  0.40016305632E+03  0.40016305632E+03  0.00000000000E+00 0. -1.
         21   -1    0    0  502  503 -0.00000000000E+00 -0.00000000000E+00 -0.14742466308E+03  0.14742466308E+03  0.00000000000E+00 0.  1.
          6    1    1    2  501    0  0.51446383022E+02 -0.13623463124E+03  0.24271863355E+02  0.22667096953E+03  0.17200000000E+03 0.  1.
         -6    1    1    2    0  503 -0.51446383022E+02  0.13623463124E+03  0.22846652988E+03  0.32091674987E+03  0.17200000000E+03 0. -1.
</event>
<event>
 4    1  0.1259333E+000  0.1786972E+03  0.7818608E-02  0.1169070E+00
         21   -1    0    0  503  502  0.00000000000E+00  0.00000000000E+00  0.20441900811E+02  0.20441900811E+02  0.00000000000E+00 0. -1.
         21   -1    0    0  501  503 -0.00000000000E+00 -0.00000000000E+00 -0.16604528109E+04  0.16604528109E+04  0.00000000000E+00 0. -1.
          6    1    1    2  501    0  0.42351077505E+02  0.23559843738E+02 -0.10245316127E+04  0.10399988969E+04  0.17200000000E+03 0.  1.
         -6    1    1    2    0  502 -0.42351077505E+02 -0.23559843738E+02 -0.61547929731E+03  0.64089581479E+03  0.17200000000E+03 0.  1.
</event>
<event>
 4    1  0.1259333E+000  0.2044932E+03  0.7818608E-02  0.1146003E+00
         21   -1    0    0  503  502  0.00000000000E+00  0.00000000000E+00  0.10903062122E+03  0.10903062122E+03  0.00000000000E+00 0.  1.
         21   -1    0    0  501  503 -0.00000000000E+00 -0.00000000000E+00 -0.95189858992E+03  0.95189858992E+03  0.00000000000E+00 0.  1.
          6    1    1    2  501    0 -0.76554655424E+02  0.79830038105E+02 -0.83132917647E+03  0.85611076964E+03  0.17200000000E+03 0.  1.
         -6    1    1    2    0  502  0.76554655424E+02 -0.79830038105E+02 -0.11538792233E+02  0.20481844150E+03  0.17200000000E+03 0.  1.
</event>
<event>
 4    1  0.1259333E+000  0.1744392E+03  0.7818608E-02  0.1173296E+00
         21   -1    0    0  503  502  0.00000000000E+00  0.00000000000E+00  0.68131074450E+02  0.68131074450E+02  0.00000000000E+00 0.  1.
         21   -1    0    0  501  503 -0.00000000000E+00 -0.00000000000E+00 -0.44686667072E+03  0.44686667072E+03  0.00000000000E+00 0.  1.
          6    1    1    2  501    0 -0.26734686673E+02 -0.11414898040E+02 -0.18337997737E+03  0.25309535647E+03  0.17200000000E+03 0.  1.
         -6    1    1    2    0  502  0.26734686673E+02  0.11414898040E+02 -0.19535561890E+03  0.26190238870E+03  0.17200000000E+03 0.  1.
</event>
<event>
 4    1  0.1259333E+000  0.2495360E+03  0.7818608E-02  0.1113598E+00
         21   -1    0    0  501  502  0.00000000000E+00  0.00000000000E+00  0.46116057507E+03  0.46116057507E+03  0.00000000000E+00 0.  1.
         21   -1    0    0  502  503 -0.00000000000E+00 -0.00000000000E+00 -0.16997818327E+03  0.16997818327E+03  0.00000000000E+00 0.  1.
          6    1    1    2  501    0 -0.18031196777E+03  0.13107301719E+02  0.28869185205E+03  0.38159034647E+03  0.17200000000E+03 0.  1.
         -6    1    1    2    0  503  0.18031196777E+03 -0.13107301719E+02  0.24905397449E+01  0.24954841187E+03  0.17200000000E+03 0.  1.
</event>
<event>
 4    1  0.1259333E+000  0.2015470E+03  0.7818608E-02  0.1148440E+00
         21   -1    0    0  501  502  0.00000000000E+00  0.00000000000E+00  0.32571680212E+03  0.32571680212E+03  0.00000000000E+00 0. -1.
         21   -1    0    0  502  503 -0.00000000000E+00 -0.00000000000E+00 -0.13989899789E+03  0.13989899789E+03  0.00000000000E+00 0. -1.
          6    1    1    2  501    0  0.10381090291E+03  0.16139276422E+02  0.16961138696E+03  0.26341830307E+03  0.17200000000E+03 0. -1.
         -6    1    1    2    0  503 -0.10381090291E+03 -0.16139276422E+02  0.16206417277E+02  0.20219749694E+03  0.17200000000E+03 0. -1.
</event>
<event>
 4    1  0.1259333E+000  0.3463113E+03  0.7818608E-02  0.1064139E+00
         21   -1    0    0  501  502  0.00000000000E+00  0.00000000000E+00  0.41611766411E+03  0.41611766411E+03  0.00000000000E+00 0. -1.
         21   -1    0    0  502  503 -0.00000000000E+00 -0.00000000000E+00 -0.39839287002E+03  0.39839287002E+03  0.00000000000E+00 0.  1.
          6    1    1    2  501    0 -0.22583679078E+03  0.19835639921E+03  0.22303175640E+03  0.41191586707E+03  0.17200000000E+03 0. -1.
         -6    1    1    2    0  503  0.22583679078E+03 -0.19835639921E+03 -0.20530696231E+03  0.40259466707E+03  0.17200000000E+03 0.  1.
</event>
<event>
 4    1  0.1259333E+000  0.2510809E+03  0.7818608E-02  0.1112624E+00
         21   -1    0    0  501  502  0.00000000000E+00  0.00000000000E+00  0.14958660188E+03  0.14958660188E+03  0.00000000000E+00 0.  1.
         21   -1    0    0  502  503 -0.00000000000E+00 -0.00000000000E+00 -0.47313707701E+03  0.47313707701E+03  0.00000000000E+00 0. -1.
          6    1    1    2  501    0 -0.13516839485E+03 -0.12323598032E+03 -0.26469761758E+03  0.36483753996E+03  0.17200000000E+03 0. -1.
         -6    1    1    2    0  503  0.13516839485E+03  0.12323598032E+03 -0.58852857554E+02  0.25788613893E+03  0.17200000000E+03 0.  1.
</event>
<event>
 4    1  0.1259333E+000  0.2589879E+03  0.7818608E-02  0.1107753E+00
         21   -1    0    0  503  502  0.00000000000E+00  0.00000000000E+00  0.58433674870E+03  0.58433674870E+03  0.00000000000E+00 0.  1.
         21   -1    0    0  501  503 -0.00000000000E+00 -0.00000000000E+00 -0.39291165153E+03  0.39291165153E+03  0.00000000000E+00 0. -1.
          6    1    1    2  501    0 -0.11139639298E+03 -0.15837157312E+03 -0.31538667880E+03  0.40809737650E+03  0.17200000000E+03 0. -1.
         -6    1    1    2    0  502  0.11139639298E+03  0.15837157312E+03  0.50681177597E+03  0.56915102373E+03  0.17200000000E+03 0.  1.
</event>
<event>
 4    1  0.1259333E+000  0.1969781E+03  0.7818608E-02  0.1152314E+00
         21   -1    0    0  503  502  0.00000000000E+00  0.00000000000E+00  0.22731375698E+03  0.22731375698E+03  0.00000000000E+00 0.  1.
         21   -1    0    0  501  503 -0.00000000000E+00 -0.00000000000E+00 -0.22456707723E+03  0.22456707723E+03  0.00000000000E+00 0.  1.
          6    1    1    2  501    0  0.46091543842E+01 -0.95891159383E+02 -0.10929408874E+03  0.22526774422E+03  0.17200000000E+03 0.  1.
         -6    1    1    2    0  502 -0.46091543842E+01  0.95891159383E+02  0.11204076849E+03  0.22661308999E+03  0.17200000000E+03 0.  1.
</event>
<event>
 4    1  0.1259333E+000  0.1871462E+03  0.7818608E-02  0.1161061E+00
         21   -1    0    0  501  502  0.00000000000E+00  0.00000000000E+00  0.96321653447E+02  0.96321653447E+02  0.00000000000E+00 0. -1.
         21   -1    0    0  502  503 -0.00000000000E+00 -0.00000000000E+00 -0.38440520845E+03  0.38440520845E+03  0.00000000000E+00 0. -1.
          6    1    1    2  501    0  0.50355943537E+02  0.53888548307E+02 -0.88138681943E+02  0.20686257260E+03  0.17200000000E+03 0.  1.
         -6    1    1    2    0  503 -0.50355943537E+02 -0.53888548307E+02 -0.19994487306E+03  0.27386428929E+03  0.17200000000E+03 0.  1.
</event>
<event>
 4    1  0.1259333E+000  0.1753643E+03  0.7818608E-02  0.1172366E+00
         21   -1    0    0  503  502  0.00000000000E+00  0.00000000000E+00  0.29708214711E+03  0.29708214711E+03  0.00000000000E+00 0. -1.
         21   -1    0    0  501  503 -0.00000000000E+00 -0.00000000000E+00 -0.11364333365E+03  0.11364333365E+03  0.00000000000E+00 0. -1.
          6    1    1    2  501    0 -0.21487995099E+02 -0.26587718449E+02  0.30413048917E+02  0.17798200541E+03  0.17200000000E+03 0. -1.
         -6    1    1    2    0  502  0.21487995099E+02  0.26587718449E+02  0.15302576454E+03  0.23274347535E+03  0.17200000000E+03 0. -1.
</event>
<event>
 4    1  0.1259333E+000  0.2166882E+03  0.7818608E-02  0.1136376E+00
         21   -1    0    0  501  502  0.00000000000E+00  0.00000000000E+00  0.32230826465E+03  0.32230826465E+03  0.00000000000E+00 0.  1.
         21   -1    0    0  502  503 -0.00000000000E+00 -0.00000000000E+00 -0.16475461568E+03  0.16475461568E+03  0.00000000000E+00 0.  1.
          6    1    1    2  501    0  0.11477049292E+03 -0.64788337418E+02 -0.40873348072E+01  0.21672678888E+03  0.17200000000E+03 0. -1.
         -6    1    1    2    0  503 -0.11477049292E+03  0.64788337418E+02  0.16164098378E+03  0.27033609146E+03  0.17200000000E+03 0. -1.
</event>
<event>
 4    1  0.1259333E+000  0.1886851E+03  0.7818608E-02  0.1159653E+00
         21   -1    0    0  501  502  0.00000000000E+00  0.00000000000E+00  0.38763771742E+03  0.38763771742E+03  0.00000000000E+00 0.  1.
         21   -1    0    0  502  503 -0.00000000000E+00 -0.00000000000E+00 -0.99007856225E+02  0.99007856225E+02  0.00000000000E+00 0.  1.
          6    1    1    2  501    0  0.77539584894E+02 -0.23794721665E+01  0.78861401672E+02  0.20450224886E+03  0.17200000000E+03 0.  1.
         -6    1    1    2    0  503 -0.77539584894E+02  0.23794721665E+01  0.20976845953E+03  0.28214332479E+03  0.17200000000E+03 0.  1.
</event>
<event>
 4    1  0.1259333E+000  0.3104196E+03  0.7818608E-02  0.1080145E+00
         21   -1    0    0  503  502  0.00000000000E+00  0.00000000000E+00  0.70298192726E+02  0.70298192726E+02  0.00000000000E+00 0.  1.
         21   -1    0    0  501  503 -0.00000000000E+00 -0.00000000000E+00 -0.14648842390E+04  0.14648842390E+04  0.00000000000E+00 0. -1.
          6    1    1    2  501    0 -0.10933547147E+03 -0.23414115262E+03 -0.89188836340E+03  0.94436495987E+03  0.17200000000E+03 0.  1.
         -6    1    1    2    0  502  0.10933547147E+03  0.23414115262E+03 -0.50269768286E+03  0.59081747183E+03  0.17200000000E+03 0.  1.
</event>
<event>
 4    1  0.1259333E+000  0.2084489E+03  0.7818608E-02  0.1142800E+00
         21   -1    0    0  501  502  0.00000000000E+00  0.00000000000E+00  0.20850979665E+03  0.20850979665E+03  0.00000000000E+00 0.  1.
         21   -1    0    0  502  503 -0.00000000000E+00 -0.00000000000E+00 -0.30395414791E+03  0.30395414791E+03  0.00000000000E+00 0.  1.
          6    1    1    2  501    0  0.11627013671E+03 -0.18659572091E+02 -0.19139726904E+03  0.28299088133E+03  0.17200000000E+03 0.  1.
         -6    1    1    2    0  503 -0.11627013671E+03  0.18659572091E+02  0.95952917778E+02  0.22947306324E+03  0.17200000000E+03 0.  1.
</event>
<event>
 4    1  0.1259333E+000  0.2338760E+03  0.7818608E-02  0.1123941E+00
         21   -1    0    0  501  502  0.00000000000E+00  0.00000000000E+00  0.41837085400E+02  0.41837085400E+02  0.00000000000E+00 0.  1.
         21   -1    0    0  502  503 -0.00000000000E+00 -0.00000000000E+00 -0.14812860139E+04  0.14812860139E+04  0.00000000000E+00 0. -1.
          6    1    1    2  501    0  0.12241261646E+03  0.10064369094E+03 -0.98064726464E+03  0.10081503156E+04  0.17200000000E+03 0. -1.
         -6    1    1    2    0  503 -0.12241261646E+03 -0.10064369094E+03 -0.45880166387E+03  0.51497278371E+03  0.17200000000E+03 0. -1.
</event>
<event>
 4    1  0.1259333E+000  0.1908859E+03  0.7818608E-02  0.1157665E+00
         21   -1    0    0  501  502  0.00000000000E+00  0.00000000000E+00  0.44126883916E+03  0.44126883916E+03  0.00000000000E+00 0.  1.
         21   -1    0    0  502  503 -0.00000000000E+00 -0.00000000000E+00 -0.10957562915E+03  0.10957562915E+03  0.00000000000E+00 0.  1.
          6    1    1    2  501    0  0.80515094820E+02 -0.19254518186E+02  0.30256768067E+03  0.35774937924E+03  0.17200000000E+03 0. -1.
         -6    1    1    2    0  503 -0.80515094820E+02  0.19254518186E+02  0.29125529340E+02  0.19309508907E+03  0.17200000000E+03 0. -1.
</event>
<event>
 4    1  0.1259333E+000  0.1957427E+03  0.7818608E-02  0.1153381E+00
         21   -1    0    0  501  502  0.00000000000E+00  0.00000000000E+00  0.82275804911E+03  0.82275804911E+03  0.00000000000E+00 0.  1.
         21   -1    0    0  502  503 -0.00000000000E+00 -0.00000000000E+00 -0.61373916377E+02  0.61373916377E+02  0.00000000000E+00 0.  1.
          6    1    1    2  501    0 -0.91294414091E+02 -0.19913236601E+02  0.59780955957E+03  0.62904012316E+03  0.17200000000E+03 0. -1.
         -6    1    1    2    0  503  0.91294414091E+02  0.19913236601E+02  0.16357457317E+03  0.25509184233E+03  0.17200000000E+03 0. -1.
</event>
<event>
 4    1  0.1259333E+000  0.1784906E+03  0.7818608E-02  0.1169272E+00
         21   -1    0    0  503  502  0.00000000000E+00  0.00000000000E+00  0.36296544051E+03  0.36296544051E+03  0.00000000000E+00 0.  1.
         21   -1    0    0  501  503 -0.00000000000E+00 -0.00000000000E+00 -0.88798938020E+02  0.88798938020E+02  0.00000000000E+00 0.  1.
          6    1    1    2  501    0 -0.45271277846E+02  0.15013821265E+02  0.11281482673E+03  0.21115418196E+03  0.17200000000E+03 0. -1.
         -6    1    1    2    0  502  0.45271277846E+02 -0.15013821265E+02  0.16135167576E+03  0.24061019658E+03  0.17200000000E+03 0. -1.
</event>
<event>
 4    1  0.1259333E+000  0.1871849E+03  0.7818608E-02  0.1161025E+00
         21   -1    0    0  503  502  0.00000000000E+00  0.00000000000E+00  0.72159523283E+02  0.72159523283E+02  0.00000000000E+00 0.  1.
         21   -1    0    0  501  503 -0.00000000000E+00 -0.00000000000E+00 -0.52615417630E+03  0.52615417630E+03  0.00000000000E+00 0. -1.
          6    1    1    2  501    0 -0.17108829265E+02  0.71843279715E+02 -0.31008667209E+03  0.36220424223E+03  0.17200000000E+03 0. -1.
         -6    1    1    2    0  502  0.17108829265E+02 -0.71843279715E+02 -0.14390798093E+03  0.23610945736E+03  0.17200000000E+03 0. -1.
</event>
<event>
 4    1  0.1259333E+000  0.2766522E+03  0.7818608E-02  0.1097532E+00
         21   -1    0    0  501  502  0.00000000000E+00  0.00000000000E+00  0.20479331576E+03  0.20479331576E+03  0.00000000000E+00 0. -1.
         21   -1    0    0  502  503 -0.00000000000E+00 -0.00000000000E+00 -0.45141769646E+03  0.45141769646E+03  0.00000000000E+00 0. -1.
          6    1    1    2  501    0  0.21623321237E+03 -0.13987224035E+02 -0.25942953581E+03  0.37926261168E+03  0.17200000000E+03 0. -1.
         -6    1    1    2    0  503 -0.21623321237E+03  0.13987224035E+02  0.12805155100E+02  0.27694840054E+03  0.17200000000E+03 0. -1.
</event>
<event>
 4    1  0.1259333E+000  0.1990415E+03  0.7818608E-02  0.1150550E+00
         21   -1    0    0  501  502  0.00000000000E+00  0.00000000000E+00  0.10913876213E+04  0.10913876213E+04  0.00000000000E+00 0.  1.
         21   -1    0    0  502  503 -0.00000000000E+00 -0.00000000000E+00 -0.41637061205E+02  0.41637061205E+02  0.00000000000E+00 0.  1.
          6    1    1    2  501    0  0.87635440559E+02 -0.48513568428E+02  0.72769689651E+03  0.75442714026E+03  0.17200000000E+03 0.  1.
         -6    1    1    2    0  503 -0.87635440559E+02  0.48513568428E+02  0.32205366354E+03  0.37859754220E+03  0.17200000000E+03 0.  1.
</event>
<event>
 4    1  0.1259333E+000  0.1795146E+03  0.7818608E-02  0.1168274E+00
         21   -1    0    0  501  502  0.00000000000E+00  0.00000000000E+00  0.59978281416E+03  0.59978281416E+03  0.00000000000E+00 0.  1.
         21   -1    0    0  502  503 -0.00000000000E+00 -0.00000000000E+00 -0.54918618902E+02  0.54918618902E+02  0.00000000000E+00 0.  1.
          6    1    1    2  501    0  0.52676162500E+01  0.51124750097E+02  0.32061925991E+03  0.36745366739E+03  0.17200000000E+03 0.  1.
         -6    1    1    2    0  503 -0.52676162500E+01 -0.51124750097E+02  0.22424493534E+03  0.28724776567E+03  0.17200000000E+03 0.  1.
</event>
<event>
 4    1  0.1259333E+000  0.1758674E+03  0.7818608E-02  0.1171864E+00
         21   -1    0    0  501  502  0.00000000000E+00  0.00000000000E+00  0.22570630290E+04  0.22570630290E+04  0.00000000000E+00 0.  1.
         21   -1    0    0  502  503 -0.00000000000E+00 -0.00000000000E+00 -0.17055671842E+02  0.17055671842E+02  0.00000000000E+00 0.  1.
          6    1    1    2  501    0 -0.18281860095E+02  0.31797887189E+02  0.61589826688E+03  0.64051542307E+03  0.17200000000E+03 0. -1.
         -6    1    1    2    0  503  0.18281860095E+02 -0.31797887189E+02  0.16241090903E+04  0.16336032778E+04  0.17200000000E+03 0. -1.
</event>
<event>
 4    1  0.1259333E+000  0.1838396E+03  0.7818608E-02  0.1164138E+00
         21   -1    0    0  503  502  0.00000000000E+00  0.00000000000E+00  0.12993998251E+03  0.12993998251E+03  0.00000000000E+00 0. -1.
         21   -1    0    0  501  503 -0.00000000000E+00 -0.00000000000E+00 -0.48085941149E+03  0.48085941149E+03  0.00000000000E+00 0. -1.
          6    1    1    2  501    0  0.50977010513E+02  0.40178927750E+02  0.31469633601E+02  0.18651364474E+03  0.17200000000E+03 0. -1.
         -6    1    1    2    0  502 -0.50977010513E+02 -0.40178927750E+02 -0.38238906259E+03  0.42428574925E+03  0.17200000000E+03 0. -1.
</event>
<event>
 4    1  0.1259333E+000  0.1771703E+03  0.7818608E-02  0.1170570E+00
         21   -1    0    0  501  502  0.00000000000E+00  0.00000000000E+00  0.12992184830E+04  0.12992184830E+04  0.00000000000E+00 0.  1.
         21   -1    0    0  502  503 -0.00000000000E+00 -0.00000000000E+00 -0.29436114101E+02  0.29436114101E+02  0.00000000000E+00 0.  1.
          6    1    1    2  501    0 -0.41123687955E+02 -0.10684145895E+02  0.35364092852E+03  0.39553914472E+03  0.17200000000E+03 0.  1.
         -6    1    1    2    0  503  0.41123687955E+02  0.10684145895E+02  0.91614144039E+03  0.93311545239E+03  0.17200000000E+03 0.  1.
</event>
<event>
 4    1  0.1259333E+000  0.1914947E+03  0.7818608E-02  0.1157120E+00
         21   -1    0    0  503  502  0.00000000000E+00  0.00000000000E+00  0.91833710200E+03  0.91833710200E+03  0.00000000000E+00 0. -1.
         21   -1    0    0  501  503 -0.00000000000E+00 -0.00000000000E+00 -0.77151651901E+02  0.77151651901E+02  0.00000000000E+00 0.  1.
          6    1    1    2  501    0  0.65041122874E+02  0.53440450847E+02  0.74872304440E+02  0.20561150606E+03  0.17200000000E+03 0.  1.
         -6    1    1    2    0  502 -0.65041122874E+02 -0.53440450847E+02  0.76631314565E+03  0.78987724784E+03  0.17200000000E+03 0. -1.
</event>
<event>
 4    1  0.1259333E+000  0.1991446E+03  0.7818608E-02  0.1150463E+00
         21   -1    0    0  501  502  0.00000000000E+00  0.00000000000E+00  0.29299281974E+04  0.29299281974E+04  0.00000000000E+00 0.  1.
         21   -1    0    0  502  503 -0.00000000000E+00 -0.00000000000E+00 -0.16759000360E+02  0.16759000360E+02  0.00000000000E+00 0.  1.
          6    1    1    2  501    0 -0.49335263619E+02 -0.87410545680E+02  0.21027321351E+04  0.21121413313E+04  0.17200000000E+03 0.  1.
         -6    1    1    2    0  503  0.49335263619E+02  0.87410545680E+02  0.81043706201E+03  0.83454586646E+03  0.17200000000E+03 0.  1.
</event>
<event>
 4    1  0.1259333E+000  0.1909124E+03  0.7818608E-02  0.1157641E+00
         21   -1    0    0  501  502  0.00000000000E+00  0.00000000000E+00  0.45157549981E+03  0.45157549981E+03  0.00000000000E+00 0.  1.
         21   -1    0    0  502  503 -0.00000000000E+00 -0.00000000000E+00 -0.81500911892E+02  0.81500911892E+02  0.00000000000E+00 0. -1.
          6    1    1    2  501    0 -0.64301247046E+02 -0.52238946133E+02  0.21126104720E+03  0.28474337205E+03  0.17200000000E+03 0.  1.
         -6    1    1    2    0  503  0.64301247046E+02  0.52238946133E+02  0.15881354072E+03  0.24833303965E+03  0.17200000000E+03 0. -1.
</event>
<event>
 4    1  0.1259333E+000  0.2698332E+03  0.7818608E-02  0.1101375E+00
         21   -1    0    0  501  502  0.00000000000E+00  0.00000000000E+00  0.70968622085E+03  0.70968622085E+03  0.00000000000E+00 0.  1.
         21   -1    0    0  502  503 -0.00000000000E+00 -0.00000000000E+00 -0.10727561182E+03  0.10727561182E+03  0.00000000000E+00 0. -1.
          6    1    1    2  501    0 -0.10181346251E+03  0.18127324043E+03  0.38653328649E+03  0.47139998982E+03  0.17200000000E+03 0.  1.
         -6    1    1    2    0  503  0.10181346251E+03 -0.18127324043E+03  0.21587732254E+03  0.34556184285E+03  0.17200000000E+03 0.  1.
</event>
<event>
 4    1  0.1259333E+000  0.2314673E+03  0.7818608E-02  0.1125611E+00
         21   -1    0    0  503  502  0.00000000000E+00  0.00000000000E+00  0.20639100509E+03  0.20639100509E+03  0.00000000000E+00 0. -1.
         21   -1    0    0  501  503 -0.00000000000E+00 -0.00000000000E+00 -0.45746872127E+03  0.45746872127E+03  0.00000000000E+00 0.  1.
          6    1    1    2  501    0  0.11592870926E+03  0.10273096431E+03 -0.34384440445E+03  0.41449498324E+03  0.17200000000E+03 0.  1.
         -6    1    1    2    0  502 -0.11592870926E+03 -0.10273096431E+03  0.92766688273E+02  0.24936474312E+03  0.17200000000E+03 0. -1.
</event>
<event>
 4    1  0.1259333E+000  0.2856258E+03  0.7818608E-02  0.1092655E+00
         21   -1    0    0  501  502  0.00000000000E+00  0.00000000000E+00  0.31668095008E+03  0.31668095008E+03  0.00000000000E+00 0.  1.
         21   -1    0    0  502  503 -0.00000000000E+00 -0.00000000000E+00 -0.59883290823E+03  0.59883290823E+03  0.00000000000E+00 0. -1.
          6    1    1    2  501    0  0.50516729476E+02  0.22236498126E+03  0.20446318530E+03  0.35126531140E+03  0.17200000000E+03 0.  1.
         -6    1    1    2    0  503 -0.50516729476E+02 -0.22236498126E+03 -0.48661514346E+03  0.56424854691E+03  0.17200000000E+03 0. -1.
</event>
<event>
 4    1  0.1259333E+000  0.2140744E+03  0.7818608E-02  0.1138380E+00
         21   -1    0    0  503  502  0.00000000000E+00  0.00000000000E+00  0.26374998740E+03  0.26374998740E+03  0.00000000000E+00 0.  1.
         21   -1    0    0  501  503 -0.00000000000E+00 -0.00000000000E+00 -0.17376436197E+03  0.17376436197E+03  0.00000000000E+00 0. -1.
          6    1    1    2  501    0 -0.69583126030E+01  0.12726119040E+03  0.46614810557E+02  0.21909077858E+03  0.17200000000E+03 0. -1.
         -6    1    1    2    0  502  0.69583126030E+01 -0.12726119040E+03  0.43370814873E+02  0.21842357079E+03  0.17200000000E+03 0. -1.
</event>
<event>
 4    1  0.1259333E+000  0.1776800E+03  0.7818608E-02  0.1170067E+00
         21   -1    0    0  501  502  0.00000000000E+00  0.00000000000E+00  0.25198692739E+03  0.25198692739E+03  0.00000000000E+00 0.  1.
         21   -1    0    0  502  503 -0.00000000000E+00 -0.00000000000E+00 -0.17518236155E+03  0.17518236155E+03  0.00000000000E+00 0.  1.
          6    1    1    2  501    0  0.41255757461E+02 -0.16856817725E+02  0.15239142815E+03  0.23407976675E+03  0.17200000000E+03 0.  1.
         -6    1    1    2    0  503 -0.41255757461E+02  0.16856817725E+02 -0.75586862314E+02  0.19308952220E+03  0.17200000000E+03 0.  1.
</event>
<event>
 4    1  0.1259333E+000  0.2344298E+03  0.7818608E-02  0.1123560E+00
         21   -1    0    0  501  502  0.00000000000E+00  0.00000000000E+00  0.20965975150E+03  0.20965975150E+03  0.00000000000E+00 0. -1.
         21   -1    0    0  502  503 -0.00000000000E+00 -0.00000000000E+00 -0.39374195973E+03  0.39374195973E+03  0.00000000000E+00 0. -1.
          6    1    1    2  501    0  0.97285736675E+02 -0.12613011263E+03 -0.26647247480E+03  0.35491534159E+03  0.17200000000E+03 0. -1.
         -6    1    1    2    0  503 -0.97285736675E+02  0.12613011263E+03  0.82390266565E+02  0.24848636964E+03  0.17200000000E+03 0. -1.
</event>
<event>
 4    1  0.1259333E+000  0.2651436E+03  0.7818608E-02  0.1104092E+00
         21   -1    0    0  503  502  0.00000000000E+00  0.00000000000E+00  0.22657730977E+03  0.22657730977E+03  0.00000000000E+00 0.  1.
         21   -1    0    0  501  503 -0.00000000000E+00 -0.00000000000E+00 -0.49625652034E+03  0.49625652034E+03  0.00000000000E+00 0. -1.
          6    1    1    2  501    0  0.87626652319E+02 -0.18176554357E+03 -0.35609350665E+03  0.44396365674E+03  0.17200000000E+03 0. -1.
         -6    1    1    2    0  502 -0.87626652319E+02  0.18176554357E+03  0.86414296079E+02  0.27887017337E+03  0.17200000000E+03 0.  1.
</event>
<event>
 4    1  0.1259333E+000  0.1880815E+03  0.7818608E-02  0.1160203E+00
         21   -1    0    0  503  502  0.00000000000E+00  0.00000000000E+00  0.58021764604E+03  0.58021764604E+03  0.00000000000E+00 0. -1.
         21   -1    0    0  501  503 -0.00000000000E+00 -0.00000000000E+00 -0.93451405209E+02  0.93451405209E+02  0.00000000000E+00 0. -1.
          6    1    1    2  501    0  0.12878504700E+02 -0.74998616777E+02  0.44794133429E+02  0.19334208748E+03  0.17200000000E+03 0. -1.
         -6    1    1    2    0  502 -0.12878504700E+02  0.74998616777E+02  0.44197210740E+03  0.48032696377E+03  0.17200000000E+03 0. -1.
</event>
<event>
 4    1  0.1259333E+000  0.2663254E+03  0.7818608E-02  0.1103401E+00
         21   -1    0    0  501  502  0.00000000000E+00  0.00000000000E+00  0.54714792575E+03  0.54714792575E+03  0.00000000000E+00 0. -1.
         21   -1    0    0  502  503 -0.00000000000E+00 -0.00000000000E+00 -0.25440670045E+03  0.25440670045E+03  0.00000000000E+00 0.  1.
          6    1    1    2  501    0 -0.38751867692E+01 -0.20329832946E+03  0.42704180345E+03  0.50328315065E+03  0.17200000000E+03 0. -1.
         -6    1    1    2    0  503  0.38751867692E+01  0.20329832946E+03 -0.13430057815E+03  0.29827147555E+03  0.17200000000E+03 0.  1.
</event>
<event>
 4    1  0.1259333E+000  0.1722250E+03  0.7818608E-02  0.1175547E+00
         21   -1    0    0  501  502  0.00000000000E+00  0.00000000000E+00  0.12170635735E+04  0.12170635735E+04  0.00000000000E+00 0. -1.
         21   -1    0    0  502  503 -0.00000000000E+00 -0.00000000000E+00 -0.60730389476E+02  0.60730389476E+02  0.00000000000E+00 0. -1.
          6    1    1    2  501    0  0.29811383395E+00 -0.87954827604E+01  0.10725161675E+04  0.10862561295E+04  0.17200000000E+03 0. -1.
         -6    1    1    2    0  503 -0.29811383395E+00  0.87954827604E+01  0.83817016553E+02  0.19153783348E+03  0.17200000000E+03 0. -1.
</event>
<event>
 4    1  0.1259333E+000  0.1750134E+03  0.7818608E-02  0.1172718E+00
         21   -1    0    0  501  502  0.00000000000E+00  0.00000000000E+00  0.14872414869E+03  0.14872414869E+03  0.00000000000E+00 0.  1.
         21   -1    0    0  502  503 -0.00000000000E+00 -0.00000000000E+00 -0.38727679603E+03  0.38727679603E+03  0.00000000000E+00 0.  1.
          6    1    1    2  501    0 -0.31521300735E+02  0.72169146062E+01  0.64105511952E+02  0.18638452972E+03  0.17200000000E+03 0.  1.
         -6    1    1    2    0  503  0.31521300735E+02 -0.72169146062E+01 -0.30265815929E+03  0.34961641500E+03  0.17200000000E+03 0.  1.
</event>
<event>
 4    1  0.1259333E+000  0.1920168E+03  0.7818608E-02  0.1156655E+00
         21   -1    0    0  501  502  0.00000000000E+00  0.00000000000E+00  0.16731025812E+03  0.16731025812E+03  0.00000000000E+00 0.  1.
         21   -1    0    0  502  503 -0.00000000000E+00 -0.00000000000E+00 -0.24199448362E+03  0.24199448362E+03  0.00000000000E+00 0.  1.
          6    1    1    2  501    0 -0.89420164892E+01 -0.84891086252E+02  0.23832219517E+02  0.19349013120E+03  0.17200000000E+03 0.  1.
         -6    1    1    2    0  503  0.89420164892E+01  0.84891086252E+02 -0.98516445012E+02  0.21581461054E+03  0.17200000000E+03 0.  1.
</event>
<event>
 4    1  0.1259333E+000  0.2520060E+03  0.7818608E-02  0.1112044E+00
         21   -1    0    0  501  502  0.00000000000E+00  0.00000000000E+00  0.16790609082E+03  0.16790609082E+03  0.00000000000E+00 0. -1.
         21   -1    0    0  502  503 -0.00000000000E+00 -0.00000000000E+00 -0.39864353908E+03  0.39864353908E+03  0.00000000000E+00 0.  1.
          6    1    1    2  501    0  0.10568988589E+03 -0.15083983683E+03 -0.17947224315E+03  0.30938211716E+03  0.17200000000E+03 0. -1.
         -6    1    1    2    0  503 -0.10568988589E+03  0.15083983683E+03 -0.51265205110E+02  0.25716751274E+03  0.17200000000E+03 0. -1.
</event>
<event>
 4    1  0.1259333E+000  0.1798847E+03  0.7818608E-02  0.1167915E+00
         21   -1    0    0  501  502  0.00000000000E+00  0.00000000000E+00  0.77266543884E+03  0.77266543884E+03  0.00000000000E+00 0.  1.
         21   -1    0    0  502  503 -0.00000000000E+00 -0.00000000000E+00 -0.58862938338E+02  0.58862938338E+02  0.00000000000E+00 0.  1.
          6    1    1    2  501    0 -0.52633124419E+02  0.20638881108E+01  0.58022992734E+03  0.60747450481E+03  0.17200000000E+03 0.  1.
         -6    1    1    2    0  503  0.52633124419E+02 -0.20638881108E+01  0.13357257317E+03  0.22405387237E+03  0.17200000000E+03 0.  1.
</event>
<event>
 4    1  0.1259333E+000  0.2006408E+03  0.7818608E-02  0.1149200E+00
         21   -1    0    0  503  502  0.00000000000E+00  0.00000000000E+00  0.47444984147E+02  0.47444984147E+02  0.00000000000E+00 0.  1.
         21   -1    0    0  501  503 -0.00000000000E+00 -0.00000000000E+00 -0.11778827633E+04  0.11778827633E+04  0.00000000000E+00 0. -1.
          6    1    1    2  501    0  0.99175116357E+02 -0.28931266955E+02 -0.24123270078E+03  0.31376733074E+03  0.17200000000E+03 0.  1.
         -6    1    1    2    0  502 -0.99175116357E+02  0.28931266955E+02 -0.88920507841E+03  0.91156041675E+03  0.17200000000E+03 0. -1.
</event>
<event>
 4    1  0.1259333E+000  0.1755209E+03  0.7818608E-02  0.1172210E+00
         21   -1    0    0  503  502  0.00000000000E+00  0.00000000000E+00  0.58043928930E+03  0.58043928930E+03  0.00000000000E+00 0.  1.
         21   -1    0    0  501  503 -0.00000000000E+00 -0.00000000000E+00 -0.58235274255E+02  0.58235274255E+02  0.00000000000E+00 0.  1.
          6    1    1    2  501    0 -0.15888092520E+02  0.31163303047E+02  0.16605525284E+03  0.24162352935E+03  0.17200000000E+03 0.  1.
         -6    1    1    2    0  502  0.15888092520E+02 -0.31163303047E+02  0.35614876220E+03  0.39705103420E+03  0.17200000000E+03 0.  1.
</event>
<event>
 4    1  0.1259333E+000  0.2903806E+03  0.7818608E-02  0.1090151E+00
         21   -1    0    0  501  502  0.00000000000E+00  0.00000000000E+00  0.11866162619E+04  0.11866162619E+04  0.00000000000E+00 0. -1.
         21   -1    0    0  502  503 -0.00000000000E+00 -0.00000000000E+00 -0.72619803428E+02  0.72619803428E+02  0.00000000000E+00 0.  1.
          6    1    1    2  501    0  0.19523191223E+03 -0.12892392620E+03  0.46472129551E+03  0.54798427058E+03  0.17200000000E+03 0.  1.
         -6    1    1    2    0  503 -0.19523191223E+03  0.12892392620E+03  0.64927516299E+03  0.71125179478E+03  0.17200000000E+03 0.  1.
</event>
<event>
 4    1  0.1259333E+000  0.2092629E+03  0.7818608E-02  0.1142151E+00
         21   -1    0    0  501  502  0.00000000000E+00  0.00000000000E+00  0.13737910975E+03  0.13737910975E+03  0.00000000000E+00 0.  1.
         21   -1    0    0  502  503 -0.00000000000E+00 -0.00000000000E+00 -0.57719238894E+03  0.57719238894E+03  0.00000000000E+00 0. -1.
          6    1    1    2  501    0  0.11560376703E+03 -0.29029707973E+02  0.19165478647E+02  0.21013869341E+03  0.17200000000E+03 0.  1.
         -6    1    1    2    0  503 -0.11560376703E+03  0.29029707973E+02 -0.45897875783E+03  0.50443280528E+03  0.17200000000E+03 0. -1.
</event>
<event>
 4    1  0.1259333E+000  0.1881293E+03  0.7818608E-02  0.1160160E+00
         21   -1    0    0  503  502  0.00000000000E+00  0.00000000000E+00  0.21834891046E+03  0.21834891046E+03  0.00000000000E+00 0. -1.
         21   -1    0    0  501  503 -0.00000000000E+00 -0.00000000000E+00 -0.20645190949E+03  0.20645190949E+03  0.00000000000E+00 0. -1.
          6    1    1    2  501    0  0.53742808123E+02 -0.54040068257E+02  0.10440424751E+03  0.21515776840E+03  0.17200000000E+03 0. -1.
         -6    1    1    2    0  502 -0.53742808123E+02  0.54040068257E+02 -0.92507246546E+02  0.20964305156E+03  0.17200000000E+03 0. -1.
</event>
<event>
 4    1  0.1259333E+000  0.1822031E+03  0.7818608E-02  0.1165688E+00
         21   -1    0    0  501  502  0.00000000000E+00  0.00000000000E+00  0.14545219727E+04  0.14545219727E+04  0.00000000000E+00 0.  1.
         21   -1    0    0  502  503 -0.00000000000E+00 -0.00000000000E+00 -0.28443084717E+02  0.28443084717E+02  0.00000000000E+00 0.  1.
          6    1    1    2  501    0  0.59909896077E+01  0.59816917704E+02  0.10426087800E+04  0.10584096673E+04  0.17200000000E+03 0.  1.
         -6    1    1    2    0  503 -0.59909896077E+01 -0.59816917704E+02  0.38347010796E+03  0.42455539014E+03  0.17200000000E+03 0.  1.
</event>
<event>
 4    1  0.1259333E+000  0.1981163E+03  0.7818608E-02  0.1151338E+00
         21   -1    0    0  501  502  0.00000000000E+00  0.00000000000E+00  0.46575724986E+02  0.46575724986E+02  0.00000000000E+00 0. -1.
         21   -1    0    0  502  503 -0.00000000000E+00 -0.00000000000E+00 -0.87889685918E+03  0.87889685918E+03  0.00000000000E+00 0. -1.
          6    1    1    2  501    0  0.94229838145E+02 -0.28050016443E+02 -0.32227268037E+03  0.37829848841E+03  0.17200000000E+03 0. -1.
         -6    1    1    2    0  503 -0.94229838145E+02  0.28050016443E+02 -0.51004845383E+03  0.54717409576E+03  0.17200000000E+03 0. -1.
</event>
<event>
 4    1  0.1259333E+000  0.1846525E+03  0.7818608E-02  0.1163375E+00
         21   -1    0    0  501  502  0.00000000000E+00  0.00000000000E+00  0.10932345488E+03  0.10932345488E+03  0.00000000000E+00 0.  1.
         21   -1    0    0  502  503 -0.00000000000E+00 -0.00000000000E+00 -0.59371903348E+03  0.59371903348E+03  0.00000000000E+00 0.  1.
          6    1    1    2  501    0 -0.21104353196E+02 -0.63774304613E+02 -0.77211602025E-02  0.18465252696E+03  0.17200000000E+03 0.  1.
         -6    1    1    2    0  503  0.21104353196E+02  0.63774304613E+02 -0.48438785744E+03  0.51838996141E+03  0.17200000000E+03 0.  1.
</event>
<event>
 4    1  0.1259333E+000  0.2062068E+03  0.7818608E-02  0.1144606E+00
         21   -1    0    0  501  502  0.00000000000E+00  0.00000000000E+00  0.82463607482E+02  0.82463607482E+02  0.00000000000E+00 0. -1.
         21   -1    0    0  502  503 -0.00000000000E+00 -0.00000000000E+00 -0.93445545850E+03  0.93445545850E+03  0.00000000000E+00 0.  1.
          6    1    1    2  501    0 -0.11166411847E+03 -0.21641686337E+02 -0.85595332392E+02  0.22326620629E+03  0.17200000000E+03 0. -1.
         -6    1    1    2    0  503  0.11166411847E+03  0.21641686337E+02 -0.76639651863E+03  0.79365285970E+03  0.17200000000E+03 0.  1.
</event>
<event>
 4    1  0.1259333E+000  0.2051649E+03  0.7818608E-02  0.1145453E+00
         21   -1    0    0  501  502  0.00000000000E+00  0.00000000000E+00  0.55446985218E+03  0.55446985218E+03  0.00000000000E+00 0.  1.
         21   -1    0    0  502  503 -0.00000000000E+00 -0.00000000000E+00 -0.78654956036E+02  0.78654956036E+02  0.00000000000E+00 0.  1.
          6    1    1    2  501    0  0.11066697764E+03 -0.16169096652E+02  0.29699040943E+03  0.36096526553E+03  0.17200000000E+03 0. -1.
         -6    1    1    2    0  503 -0.11066697764E+03  0.16169096652E+02  0.17882448671E+03  0.27215954269E+03  0.17200000000E+03 0. -1.
</event>
<event>
 4    1  0.1259333E+000  0.2167973E+03  0.7818608E-02  0.1136294E+00
         21   -1    0    0  503  502  0.00000000000E+00  0.00000000000E+00  0.65958692240E+03  0.65958692240E+03  0.00000000000E+00 0. -1.
         21   -1    0    0  501  503 -0.00000000000E+00 -0.00000000000E+00 -0.72478425242E+02  0.72478425242E+02  0.00000000000E+00 0. -1.
          6    1    1    2  501    0  0.77659615936E+02  0.10670544380E+03  0.24606328630E+03  0.32794543532E+03  0.17200000000E+03 0. -1.
         -6    1    1    2    0  502 -0.77659615936E+02 -0.10670544380E+03  0.34104521086E+03  0.40411991232E+03  0.17200000000E+03 0. -1.
</event>
<event>
 4    1  0.1259333E+000  0.2281417E+03  0.7818608E-02  0.1127955E+00
         21   -1    0    0  501  502  0.00000000000E+00  0.00000000000E+00  0.99280936415E+02  0.99280936415E+02  0.00000000000E+00 0. -1.
         21   -1    0    0  502  503 -0.00000000000E+00 -0.00000000000E+00 -0.64427926812E+03  0.64427926812E+03  0.00000000000E+00 0.  1.
          6    1    1    2  501    0  0.30016894722E+01  0.14985200054E+03 -0.11203366127E+03  0.25416564178E+03  0.17200000000E+03 0. -1.
         -6    1    1    2    0  503 -0.30016894722E+01 -0.14985200054E+03 -0.43296467044E+03  0.48939456275E+03  0.17200000000E+03 0.  1.
</event>
<event>
 4    1  0.1259333E+000  0.1937635E+03  0.7818608E-02  0.1155110E+00
         21   -1    0    0  503  502  0.00000000000E+00  0.00000000000E+00  0.27820111547E+03  0.27820111547E+03  0.00000000000E+00 0.  1.
         21   -1    0    0  501  503 -0.00000000000E+00 -0.00000000000E+00 -0.13665723895E+03  0.13665723895E+03  0.00000000000E+00 0.  1.
          6    1    1    2  501    0  0.47739990936E+02 -0.75373609343E+02  0.93931022468E+02  0.21533073330E+03  0.17200000000E+03 0. -1.
         -6    1    1    2    0  502 -0.47739990936E+02  0.75373609343E+02  0.47612854051E+02  0.19952762112E+03  0.17200000000E+03 0. -1.
</event>
<event>
 4    1  0.1259333E+000  0.2339406E+03  0.7818608E-02  0.1123897E+00
         21   -1    0    0  501  502  0.00000000000E+00  0.00000000000E+00  0.98194860785E+03  0.98194860785E+03  0.00000000000E+00 0. -1.
         21   -1    0    0  502  503 -0.00000000000E+00 -0.00000000000E+00 -0.57308567168E+02  0.57308567168E+02  0.00000000000E+00 0.  1.
          6    1    1    2  501    0  0.89064163358E+02 -0.13119362396E+03  0.54844440870E+03  0.59625452753E+03  0.17200000000E+03 0. -1.
         -6    1    1    2    0  503 -0.89064163358E+02  0.13119362396E+03  0.37619563198E+03  0.44300264749E+03  0.17200000000E+03 0.  1.
</event>
<event>
 4    1  0.1259333E+000  0.1863881E+03  0.7818608E-02  0.1161760E+00
         21   -1    0    0  503  502  0.00000000000E+00  0.00000000000E+00  0.23539296626E+03  0.23539296626E+03  0.00000000000E+00 0.  1.
         21   -1    0    0  501  503 -0.00000000000E+00 -0.00000000000E+00 -0.45049806901E+03  0.45049806901E+03  0.00000000000E+00 0.  1.
          6    1    1    2  501    0 -0.41792916079E+02 -0.58394117119E+02 -0.38876692693E+03  0.43113831218E+03  0.17200000000E+03 0.  1.
         -6    1    1    2    0  502  0.41792916079E+02  0.58394117119E+02  0.17366182418E+03  0.25475272310E+03  0.17200000000E+03 0.  1.
</event>
<event>
 4    1  0.1259333E+000  0.2138580E+03  0.7818608E-02  0.1138547E+00
         21   -1    0    0  503  502  0.00000000000E+00  0.00000000000E+00  0.29948601398E+03  0.29948601398E+03  0.00000000000E+00 0. -1.
         21   -1    0    0  501  503 -0.00000000000E+00 -0.00000000000E+00 -0.15357224735E+03  0.15357224735E+03  0.00000000000E+00 0. -1.
          6    1    1    2  501    0 -0.92289345592E+02 -0.87372327680E+02  0.89906596393E+02  0.23198802346E+03  0.17200000000E+03 0. -1.
         -6    1    1    2    0  502  0.92289345592E+02  0.87372327680E+02  0.56007170242E+02  0.22107023787E+03  0.17200000000E+03 0. -1.
</event>
<event>
 4    1  0.1259333E+000  0.1958815E+03  0.7818608E-02  0.1153261E+00
         21   -1    0    0  503  502  0.00000000000E+00  0.00000000000E+00  0.24429031123E+03  0.24429031123E+03  0.00000000000E+00 0. -1.
         21   -1    0    0  501  503 -0.00000000000E+00 -0.00000000000E+00 -0.21526318659E+03  0.21526318659E+03  0.00000000000E+00 0. -1.
          6    1    1    2  501    0  0.93507629768E+02  0.64722948627E+01 -0.10496067003E+03  0.22223030774E+03  0.17200000000E+03 0. -1.
         -6    1    1    2    0  502 -0.93507629768E+02 -0.64722948627E+01  0.13398779467E+03  0.23732319007E+03  0.17200000000E+03 0. -1.
</event>
<event>
 4    1  0.1259333E+000  0.2062013E+03  0.7818608E-02  0.1144610E+00
         21   -1    0    0  501  502  0.00000000000E+00  0.00000000000E+00  0.65843883947E+02  0.65843883947E+02  0.00000000000E+00 0. -1.
         21   -1    0    0  502  503 -0.00000000000E+00 -0.00000000000E+00 -0.74327929928E+03  0.74327929928E+03  0.00000000000E+00 0.  1.
          6    1    1    2  501    0  0.14789333457E+02 -0.11276642975E+03 -0.19217442953E+03  0.28186876987E+03  0.17200000000E+03 0.  1.
         -6    1    1    2    0  503 -0.14789333457E+02  0.11276642975E+03 -0.48526098580E+03  0.52725441336E+03  0.17200000000E+03 0.  1.
</event>
<event>
 4    1  0.1259333E+000  0.1890276E+03  0.7818608E-02  0.1159341E+00
         21   -1    0    0  501  502  0.00000000000E+00  0.00000000000E+00  0.14037746169E+04  0.14037746169E+04  0.00000000000E+00 0.  1.
         21   -1    0    0  502  503 -0.00000000000E+00 -0.00000000000E+00 -0.25467221112E+02  0.25467221112E+02  0.00000000000E+00 0.  1.
          6    1    1    2  501    0  0.65730029391E+02 -0.42743463584E+02  0.67276692548E+03  0.69881812831E+03  0.17200000000E+03 0. -1.
         -6    1    1    2    0  503 -0.65730029391E+02  0.42743463584E+02  0.70554047029E+03  0.73042370968E+03  0.17200000000E+03 0. -1.
</event>
<event>
 4    1  0.1259333E+000  0.1833523E+03  0.7818608E-02  0.1164598E+00
         21   -1    0    0  503  502  0.00000000000E+00  0.00000000000E+00  0.64208343060E+03  0.64208343060E+03  0.00000000000E+00 0. -1.
         21   -1    0    0  501  503 -0.00000000000E+00 -0.00000000000E+00 -0.58018696161E+02  0.58018696161E+02  0.00000000000E+00 0. -1.
          6    1    1    2  501    0 -0.29153945575E+02  0.56427973711E+02  0.18268950543E+03  0.25883107262E+03  0.17200000000E+03 0.  1.
         -6    1    1    2    0  502  0.29153945575E+02 -0.56427973711E+02  0.40137522901E+03  0.44127105414E+03  0.17200000000E+03 0.  1.
</event>
<event>
 4    1  0.1259333E+000  0.2040072E+03  0.7818608E-02  0.1146401E+00
         21   -1    0    0  503  502  0.00000000000E+00  0.00000000000E+00  0.57676038132E+02  0.57676038132E+02  0.00000000000E+00 0. -1.
         21   -1    0    0  501  503 -0.00000000000E+00 -0.00000000000E+00 -0.72175600930E+03  0.72175600930E+03  0.00000000000E+00 0. -1.
          6    1    1    2  501    0  0.10080750555E+03  0.43275881628E+02 -0.32628681760E+03  0.38481429606E+03  0.17200000000E+03 0. -1.
         -6    1    1    2    0  502 -0.10080750555E+03 -0.43275881628E+02 -0.33779315356E+03  0.39461775137E+03  0.17200000000E+03 0. -1.
</event>
<event>
 4    1  0.1259333E+000  0.1768709E+03  0.7818608E-02  0.1170866E+00
         21   -1    0    0  501  502  0.00000000000E+00  0.00000000000E+00  0.37164344307E+02  0.37164344307E+02  0.00000000000E+00 0. -1.
         21   -1    0    0  502  503 -0.00000000000E+00 -0.00000000000E+00 -0.84994250545E+03  0.84994250545E+03  0.00000000000E+00 0. -1.
          6    1    1    2  501    0 -0.27646653111E+02  0.30577609093E+02 -0.44991898723E+03  0.48343605852E+03  0.17200000000E+03 0. -1.
         -6    1    1    2    0  503  0.27646653111E+02 -0.30577609093E+02 -0.36285917391E+03  0.40367079123E+03  0.17200000000E+03 0. -1.
</event>
<event>
 4    1  0.1259333E+000  0.2143591E+03  0.7818608E-02  0.1138160E+00
         21   -1    0    0  503  502  0.00000000000E+00  0.00000000000E+00  0.12201862789E+03  0.12201862789E+03  0.00000000000E+00 0.  1.
         21   -1    0    0  501  503 -0.00000000000E+00 -0.00000000000E+00 -0.86867559158E+03  0.86867559158E+03  0.00000000000E+00 0.  1.
          6    1    1    2  501    0 -0.11583873931E+01 -0.12792377266E+03 -0.74615375894E+03  0.77633450616E+03  0.17200000000E+03 0. -1.
         -6    1    1    2    0  502  0.11583873931E+01  0.12792377266E+03 -0.50320474514E+00  0.21435971330E+03  0.17200000000E+03 0. -1.
</event>
<event>
 4    1  0.1259333E+000  0.2127100E+03  0.7818608E-02  0.1139438E+00
         21   -1    0    0  501  502  0.00000000000E+00  0.00000000000E+00  0.36484895868E+03  0.36484895868E+03  0.00000000000E+00 0.  1.
         21   -1    0    0  502  503 -0.00000000000E+00 -0.00000000000E+00 -0.28837995550E+03  0.28837995550E+03  0.00000000000E+00 0.  1.
          6    1    1    2  501    0  0.88822326314E+02 -0.88159714822E+02  0.28481676628E+03  0.35548014195E+03  0.17200000000E+03 0.  1.
         -6    1    1    2    0  503 -0.88822326314E+02  0.88159714822E+02 -0.20834776310E+03  0.29774877222E+03  0.17200000000E+03 0.  1.
</event>
<event>
 4    1  0.1259333E+000  0.1879432E+03  0.7818608E-02  0.1160330E+00
         21   -1    0    0  501  502  0.00000000000E+00  0.00000000000E+00  0.24270831581E+03  0.24270831581E+03  0.00000000000E+00 0.  1.
         21   -1    0    0  502  503 -0.00000000000E+00 -0.00000000000E+00 -0.27234215287E+03  0.27234215287E+03  0.00000000000E+00 0.  1.
          6    1    1    2  501    0  0.73746447255E+02 -0.17323460209E+02  0.16090811178E+03  0.24741475541E+03  0.17200000000E+03 0.  1.
         -6    1    1    2    0  503 -0.73746447255E+02  0.17323460209E+02 -0.19054194883E+03  0.26763571327E+03  0.17200000000E+03 0.  1.
</event>
<event>
 4    1  0.1259333E+000  0.2235366E+03  0.7818608E-02  0.1131274E+00
         21   -1    0    0  503  502  0.00000000000E+00  0.00000000000E+00  0.10178116928E+03  0.10178116928E+03  0.00000000000E+00 0. -1.
         21   -1    0    0  501  503 -0.00000000000E+00 -0.00000000000E+00 -0.49302259897E+03  0.49302259897E+03  0.00000000000E+00 0. -1.
          6    1    1    2  501    0  0.28879925620E+02 -0.13982334032E+03 -0.21494215807E+03  0.31011086392E+03  0.17200000000E+03 0. -1.
         -6    1    1    2    0  502 -0.28879925620E+02  0.13982334032E+03 -0.17629927162E+03  0.28469290433E+03  0.17200000000E+03 0. -1.
</event>
<event>
 4    1  0.1259333E+000  0.2320157E+03  0.7818608E-02  0.1125229E+00
         21   -1    0    0  501  502  0.00000000000E+00  0.00000000000E+00  0.85016825129E+03  0.85016825129E+03  0.00000000000E+00 0. -1.
         21   -1    0    0  502  503 -0.00000000000E+00 -0.00000000000E+00 -0.63887010119E+02  0.63887010119E+02  0.00000000000E+00 0.  1.
          6    1    1    2  501    0 -0.58534123910E+02 -0.14429500667E+03  0.43625715260E+03  0.49411698596E+03  0.17200000000E+03 0. -1.
         -6    1    1    2    0  503  0.58534123910E+02  0.14429500667E+03  0.35002408857E+03  0.41993827545E+03  0.17200000000E+03 0.  1.
</event>
<event>
 4    1  0.1259333E+000  0.1805137E+03  0.7818608E-02  0.1167307E+00
         21   -1    0    0  503  502  0.00000000000E+00  0.00000000000E+00  0.26572142294E+02  0.26572142294E+02  0.00000000000E+00 0. -1.
         21   -1    0    0  501  503 -0.00000000000E+00 -0.00000000000E+00 -0.12289651986E+04  0.12289651986E+04  0.00000000000E+00 0. -1.
          6    1    1    2  501    0 -0.54782578812E+02  0.26082647042E+00 -0.63047615061E+03  0.65580894738E+03  0.17200000000E+03 0.  1.
         -6    1    1    2    0  502  0.54782578812E+02 -0.26082647042E+00 -0.57191690574E+03  0.59972839356E+03  0.17200000000E+03 0.  1.
</event>
<event>
 4    1  0.1259333E+000  0.2013354E+03  0.7818608E-02  0.1148617E+00
         21   -1    0    0  501  502  0.00000000000E+00  0.00000000000E+00  0.30190354788E+02  0.30190354788E+02  0.00000000000E+00 0. -1.
         21   -1    0    0  502  503 -0.00000000000E+00 -0.00000000000E+00 -0.13439632413E+04  0.13439632413E+04  0.00000000000E+00 0. -1.
          6    1    1    2  501    0  0.33652107431E+02  0.99093198147E+02 -0.63563942678E+03  0.66676338166E+03  0.17200000000E+03 0. -1.
         -6    1    1    2    0  503 -0.33652107431E+02 -0.99093198147E+02 -0.67813345977E+03  0.70739021446E+03  0.17200000000E+03 0. -1.
</event>
<event>
 4    1  0.1259333E+000  0.1738134E+03  0.7818608E-02  0.1173928E+00
         21   -1    0    0  501  502  0.00000000000E+00  0.00000000000E+00  0.31660935853E+03  0.31660935853E+03  0.00000000000E+00 0.  1.
         21   -1    0    0  502  503 -0.00000000000E+00 -0.00000000000E+00 -0.14872536116E+03  0.14872536116E+03  0.00000000000E+00 0.  1.
          6    1    1    2  501    0  0.24379843460E+02 -0.57216290972E+01  0.22323368282E+03  0.28292117445E+03  0.17200000000E+03 0.  1.
         -6    1    1    2    0  503 -0.24379843460E+02  0.57216290972E+01 -0.55349685459E+02  0.18241354524E+03  0.17200000000E+03 0.  1.
</event>
<event>
 4    1  0.1259333E+000  0.2272648E+03  0.7818608E-02  0.1128580E+00
         21   -1    0    0  503  502  0.00000000000E+00  0.00000000000E+00  0.14604772559E+03  0.14604772559E+03  0.00000000000E+00 0.  1.
         21   -1    0    0  501  503 -0.00000000000E+00 -0.00000000000E+00 -0.47089552527E+03  0.47089552527E+03  0.00000000000E+00 0.  1.
          6    1    1    2  501    0 -0.36134812445E+02 -0.14408174298E+03 -0.31634830367E+03  0.38951960485E+03  0.17200000000E+03 0.  1.
         -6    1    1    2    0  502  0.36134812445E+02  0.14408174298E+03 -0.84994960117E+01  0.22742364601E+03  0.17200000000E+03 0.  1.
</event>
<event>
 4    1  0.1259333E+000  0.1728658E+03  0.7818608E-02  0.1174892E+00
         21   -1    0    0  503  502  0.00000000000E+00  0.00000000000E+00  0.76270373549E+02  0.76270373549E+02  0.00000000000E+00 0. -1.
         21   -1    0    0  501  503 -0.00000000000E+00 -0.00000000000E+00 -0.48108868648E+03  0.48108868648E+03  0.00000000000E+00 0. -1.
          6    1    1    2  501    0  0.26024668940E+01  0.17082775361E+02 -0.32246826785E+03  0.36588027799E+03  0.17200000000E+03 0. -1.
         -6    1    1    2    0  502 -0.26024668940E+01 -0.17082775361E+02 -0.82350045079E+02  0.19147878204E+03  0.17200000000E+03 0. -1.
</event>
<event>
 4    1  0.1259333E+000  0.2405868E+03  0.7818608E-02  0.1119403E+00
         21   -1    0    0  503  502  0.00000000000E+00  0.00000000000E+00  0.39249017258E+03  0.39249017258E+03  0.00000000000E+00 0.  1.
         21   -1    0    0  501  503 -0.00000000000E+00 -0.00000000000E+00 -0.24500715443E+03  0.24500715443E+03  0.00000000000E+00 0.  1.
          6    1    1    2  501    0  0.32650920363E+02  0.16502104939E+03 -0.12736934066E+03  0.27222229571E+03  0.17200000000E+03 0.  1.
         -6    1    1    2    0  502 -0.32650920363E+02 -0.16502104939E+03  0.27485235881E+03  0.36527503129E+03  0.17200000000E+03 0.  1.
</event>
<event>
 4    1  0.1259333E+000  0.2236613E+03  0.7818608E-02  0.1131182E+00
         21   -1    0    0  501  502  0.00000000000E+00  0.00000000000E+00  0.70216904479E+02  0.70216904479E+02  0.00000000000E+00 0.  1.
         21   -1    0    0  502  503 -0.00000000000E+00 -0.00000000000E+00 -0.10947157481E+04  0.10947157481E+04  0.00000000000E+00 0. -1.
          6    1    1    2  501    0  0.87692840185E+02  0.11291738932E+03 -0.16804512878E+03  0.27975620876E+03  0.17200000000E+03 0.  1.
         -6    1    1    2    0  503 -0.87692840185E+02 -0.11291738932E+03 -0.85645371479E+03  0.88517644377E+03  0.17200000000E+03 0. -1.
</event>
<event>
 4    1  0.1259333E+000  0.2159304E+03  0.7818608E-02  0.1136954E+00
         21   -1    0    0  503  502  0.00000000000E+00  0.00000000000E+00  0.10466487231E+04  0.10466487231E+04  0.00000000000E+00 0. -1.
         21   -1    0    0  501  503 -0.00000000000E+00 -0.00000000000E+00 -0.44975997551E+02  0.44975997551E+02  0.00000000000E+00 0.  1.
          6    1    1    2  501    0  0.10890352823E+03  0.71985972853E+02  0.44758317479E+03  0.49694733836E+03  0.17200000000E+03 0.  1.
         -6    1    1    2    0  502 -0.10890352823E+03 -0.71985972853E+02  0.55408955075E+03  0.59467738228E+03  0.17200000000E+03 0. -1.
</event>
<event>
 4    1  0.1259333E+000  0.2161707E+03  0.7818608E-02  0.1136771E+00
         21   -1    0    0  501  502  0.00000000000E+00  0.00000000000E+00  0.20997312436E+03  0.20997312436E+03  0.00000000000E+00 0.  1.
         21   -1    0    0  502  503 -0.00000000000E+00 -0.00000000000E+00 -0.22391069331E+03  0.22391069331E+03  0.00000000000E+00 0.  1.
          6    1    1    2  501    0 -0.88386938021E+02  0.96610259004E+02 -0.23872326471E+02  0.21748489816E+03  0.17200000000E+03 0.  1.
         -6    1    1    2    0  503  0.88386938021E+02 -0.96610259004E+02  0.99347575154E+01  0.21639891951E+03  0.17200000000E+03 0.  1.
</event>
<event>
 4    1  0.1259333E+000  0.2147959E+03  0.7818608E-02  0.1137823E+00
         21   -1    0    0  503  502  0.00000000000E+00  0.00000000000E+00  0.13336670970E+04  0.13336670970E+04  0.00000000000E+00 0.  1.
         21   -1    0    0  501  503 -0.00000000000E+00 -0.00000000000E+00 -0.34618819732E+02  0.34618819732E+02  0.00000000000E+00 0.  1.
          6    1    1    2  501    0  0.12665282834E+03 -0.22634872968E+02  0.66773247145E+03  0.70142991797E+03  0.17200000000E+03 0.  1.
         -6    1    1    2    0  502 -0.12665282834E+03  0.22634872968E+02  0.63131580578E+03  0.66685599872E+03  0.17200000000E+03 0.  1.
</event>
<event>
 4    1  0.1259333E+000  0.3626431E+03  0.7818608E-02  0.1057542E+00
         21   -1    0    0  503  502  0.00000000000E+00  0.00000000000E+00  0.15740470572E+03  0.15740470572E+03  0.00000000000E+00 0.  1.
         21   -1    0    0  501  503 -0.00000000000E+00 -0.00000000000E+00 -0.13758721333E+04  0.13758721333E+04  0.00000000000E+00 0. -1.
          6    1    1    2  501    0 -0.31922014351E+03  0.49504071199E+01 -0.10896881011E+04  0.11484468486E+04  0.17200000000E+03 0. -1.
         -6    1    1    2    0  502  0.31922014351E+03 -0.49504071199E+01 -0.12877932650E+03  0.38482999036E+03  0.17200000000E+03 0.  1.
</event>
<event>
 4    1  0.1259333E+000  0.2342192E+03  0.7818608E-02  0.1123705E+00
         21   -1    0    0  501  502  0.00000000000E+00  0.00000000000E+00  0.80212986870E+03  0.80212986870E+03  0.00000000000E+00 0. -1.
         21   -1    0    0  502  503 -0.00000000000E+00 -0.00000000000E+00 -0.79713421987E+02  0.79713421987E+02  0.00000000000E+00 0. -1.
          6    1    1    2  501    0 -0.13852821452E+03  0.78003569720E+02  0.52738164158E+03  0.57705287365E+03  0.17200000000E+03 0.  1.
         -6    1    1    2    0  503  0.13852821452E+03 -0.78003569720E+02  0.19503480513E+03  0.30479041704E+03  0.17200000000E+03 0.  1.
</event>
<event>
 4    1  0.1259333E+000  0.3246063E+03  0.7818608E-02  0.1073549E+00
         21   -1    0    0  503  502  0.00000000000E+00  0.00000000000E+00  0.22307279039E+03  0.22307279039E+03  0.00000000000E+00 0.  1.
         21   -1    0    0  501  503 -0.00000000000E+00 -0.00000000000E+00 -0.48206443657E+03  0.48206443657E+03  0.00000000000E+00 0.  1.
          6    1    1    2  501    0  0.63378777001E+01  0.27521820358E+03 -0.79455493890E+02  0.33418917365E+03  0.17200000000E+03 0.  1.
         -6    1    1    2    0  502 -0.63378777001E+01 -0.27521820358E+03 -0.17953615228E+03  0.37094805331E+03  0.17200000000E+03 0.  1.
</event>
<event>
 4    1  0.1259333E+000  0.1978928E+03  0.7818608E-02  0.1151529E+00
         21   -1    0    0  501  502  0.00000000000E+00  0.00000000000E+00  0.21543581231E+03  0.21543581231E+03  0.00000000000E+00 0.  1.
         21   -1    0    0  502  503 -0.00000000000E+00 -0.00000000000E+00 -0.18543442569E+03  0.18543442569E+03  0.00000000000E+00 0.  1.
          6    1    1    2  501    0 -0.32020097452E+02 -0.92478503874E+02  0.43144829763E+02  0.20254144429E+03  0.17200000000E+03 0. -1.
         -6    1    1    2    0  503  0.32020097452E+02  0.92478503874E+02 -0.13143443141E+02  0.19832879372E+03  0.17200000000E+03 0. -1.
</event>
<event>
 4    1  0.1259333E+000  0.1903321E+03  0.7818608E-02  0.1158162E+00
         21   -1    0    0  503  502  0.00000000000E+00  0.00000000000E+00  0.84673344082E+03  0.84673344082E+03  0.00000000000E+00 0. -1.
         21   -1    0    0  501  503 -0.00000000000E+00 -0.00000000000E+00 -0.12147425112E+03  0.12147425112E+03  0.00000000000E+00 0.  1.
          6    1    1    2  501    0  0.76883531341E+02  0.27041619595E+02 -0.27005364501E+02  0.19223843605E+03  0.17200000000E+03 0.  1.
         -6    1    1    2    0  502 -0.76883531341E+02 -0.27041619595E+02  0.75226455420E+03  0.77596925589E+03  0.17200000000E+03 0. -1.
</event>
<event>
 4    1  0.1259333E+000  0.1885660E+03  0.7818608E-02  0.1159761E+00
         21   -1    0    0  503  502  0.00000000000E+00  0.00000000000E+00  0.39620415552E+03  0.39620415552E+03  0.00000000000E+00 0.  1.
         21   -1    0    0  501  503 -0.00000000000E+00 -0.00000000000E+00 -0.23181104020E+03  0.23181104020E+03  0.00000000000E+00 0.  1.
          6    1    1    2  501    0 -0.55381119506E+02  0.53907962439E+02 -0.16362446881E+03  0.24965997598E+03  0.17200000000E+03 0.  1.
         -6    1    1    2    0  502  0.55381119506E+02 -0.53907962439E+02  0.32801758413E+03  0.37835521974E+03  0.17200000000E+03 0.  1.
</event>
<event>
 4    1  0.1259333E+000  0.2606947E+03  0.7818608E-02  0.1106727E+00
         21   -1    0    0  501  502  0.00000000000E+00  0.00000000000E+00  0.11223845770E+04  0.11223845770E+04  0.00000000000E+00 0.  1.
         21   -1    0    0  502  503 -0.00000000000E+00 -0.00000000000E+00 -0.73636375709E+02  0.73636375709E+02  0.00000000000E+00 0. -1.
          6    1    1    2  501    0  0.80461075889E+02 -0.17861622680E+03  0.77646214432E+03  0.81905750883E+03  0.17200000000E+03 0.  1.
         -6    1    1    2    0  503 -0.80461075889E+02  0.17861622680E+03  0.27228605702E+03  0.37696344393E+03  0.17200000000E+03 0. -1.
</event>
<event>
 4    1  0.1259333E+000  0.1893710E+03  0.7818608E-02  0.1159030E+00
         21   -1    0    0  503  502  0.00000000000E+00  0.00000000000E+00  0.27269940607E+03  0.27269940607E+03  0.00000000000E+00 0. -1.
         21   -1    0    0  501  503 -0.00000000000E+00 -0.00000000000E+00 -0.13163124701E+03  0.13163124701E+03  0.00000000000E+00 0. -1.
          6    1    1    2  501    0  0.63653718117E+02  0.47176118085E+02  0.76790758968E+02  0.20434823858E+03  0.17200000000E+03 0.  1.
         -6    1    1    2    0  502 -0.63653718117E+02 -0.47176118085E+02  0.64277400095E+02  0.19998241450E+03  0.17200000000E+03 0.  1.
</event>
<event>
 4    1  0.1259333E+000  0.2356182E+03  0.7818608E-02  0.1122747E+00
         21   -1    0    0  503  502  0.00000000000E+00  0.00000000000E+00  0.96471819307E+03  0.96471819307E+03  0.00000000000E+00 0.  1.
         21   -1    0    0  501  503 -0.00000000000E+00 -0.00000000000E+00 -0.64249925347E+02  0.64249925347E+02  0.00000000000E+00 0. -1.
          6    1    1    2  501    0  0.28644218030E+02 -0.15846584444E+03  0.61641922921E+03  0.65991558644E+03  0.17200000000E+03 0. -1.
         -6    1    1    2    0  502 -0.28644218030E+02  0.15846584444E+03  0.28404903851E+03  0.36905253198E+03  0.17200000000E+03 0. -1.
</event>
<event>
 4    1  0.1259333E+000  0.1886358E+03  0.7818608E-02  0.1159698E+00
         21   -1    0    0  501  502  0.00000000000E+00  0.00000000000E+00  0.17997346336E+04  0.17997346336E+04  0.00000000000E+00 0. -1.
         21   -1    0    0  502  503 -0.00000000000E+00 -0.00000000000E+00 -0.19936895716E+02  0.19936895716E+02  0.00000000000E+00 0. -1.
          6    1    1    2  501    0 -0.54539381053E+02 -0.54999356941E+02  0.97276589341E+03  0.99088695457E+03  0.17200000000E+03 0. -1.
         -6    1    1    2    0  503  0.54539381053E+02  0.54999356941E+02  0.80703184451E+03  0.82878457478E+03  0.17200000000E+03 0. -1.
</event>
<event>
 4    1  0.1259333E+000  0.2838534E+03  0.7818608E-02  0.1093603E+00
         21   -1    0    0  501  502  0.00000000000E+00  0.00000000000E+00  0.16017599279E+03  0.16017599279E+03  0.00000000000E+00 0. -1.
         21   -1    0    0  502  503 -0.00000000000E+00 -0.00000000000E+00 -0.61348771907E+03  0.61348771907E+03  0.00000000000E+00 0.  1.
          6    1    1    2  501    0 -0.19806387963E+03  0.10844109682E+03 -0.62512179442E+02  0.29065537062E+03  0.17200000000E+03 0. -1.
         -6    1    1    2    0  503  0.19806387963E+03 -0.10844109682E+03 -0.39079954684E+03  0.48300834124E+03  0.17200000000E+03 0.  1.
</event>
<event>
 4    1  0.1259333E+000  0.1895097E+03  0.7818608E-02  0.1158904E+00
         21   -1    0    0  501  502  0.00000000000E+00  0.00000000000E+00  0.14444810188E+03  0.14444810188E+03  0.00000000000E+00 0.  1.
         21   -1    0    0  502  503 -0.00000000000E+00 -0.00000000000E+00 -0.39786433891E+03  0.39786433891E+03  0.00000000000E+00 0.  1.
          6    1    1    2  501    0  0.26402720535E+02 -0.75052079600E+02  0.39360891147E+02  0.19355412177E+03  0.17200000000E+03 0.  1.
         -6    1    1    2    0  503 -0.26402720535E+02  0.75052079600E+02 -0.29277712818E+03  0.34875831902E+03  0.17200000000E+03 0.  1.
</event>
<event>
 4    1  0.1259333E+000  0.2133857E+03  0.7818608E-02  0.1138913E+00
         21   -1    0    0  503  502  0.00000000000E+00  0.00000000000E+00  0.34508769822E+03  0.34508769822E+03  0.00000000000E+00 0.  1.
         21   -1    0    0  501  503 -0.00000000000E+00 -0.00000000000E+00 -0.30028969531E+03  0.30028969531E+03  0.00000000000E+00 0. -1.
          6    1    1    2  501    0 -0.12342721277E+03  0.26742705497E+02 -0.21920830780E+03  0.30591785067E+03  0.17200000000E+03 0. -1.
         -6    1    1    2    0  502  0.12342721277E+03 -0.26742705497E+02  0.26400631071E+03  0.33945954287E+03  0.17200000000E+03 0.  1.
</event>
<event>
 4    1  0.1259333E+000  0.1780660E+03  0.7818608E-02  0.1169688E+00
         21   -1    0    0  501  502  0.00000000000E+00  0.00000000000E+00  0.24579941508E+03  0.24579941508E+03  0.00000000000E+00 0.  1.
         21   -1    0    0  502  503 -0.00000000000E+00 -0.00000000000E+00 -0.28075715864E+03  0.28075715864E+03  0.00000000000E+00 0.  1.
          6    1    1    2  501    0 -0.33397677176E+02  0.31750249216E+02  0.17608662703E+03  0.25042760109E+03  0.17200000000E+03 0.  1.
         -6    1    1    2    0  503  0.33397677176E+02 -0.31750249216E+02 -0.21104437059E+03  0.27612897263E+03  0.17200000000E+03 0.  1.
</event>
<event>
 4    1  0.1259333E+000  0.2216063E+03  0.7818608E-02  0.1132691E+00
         21   -1    0    0  501  502  0.00000000000E+00  0.00000000000E+00  0.20270007210E+04  0.20270007210E+04  0.00000000000E+00 0.  1.
         21   -1    0    0  502  503 -0.00000000000E+00 -0.00000000000E+00 -0.26478970653E+02  0.26478970653E+02  0.00000000000E+00 0. -1.
          6    1    1    2  501    0 -0.13853639343E+03  0.18249122259E+02  0.12996481677E+04  0.13184061296E+04  0.17200000000E+03 0.  1.
         -6    1    1    2    0  503  0.13853639343E+03 -0.18249122259E+02  0.70087358257E+03  0.73507356198E+03  0.17200000000E+03 0. -1.
</event>
<event>
 4    1  0.1259333E+000  0.2326539E+03  0.7818608E-02  0.1124786E+00
         21   -1    0    0  503  502  0.00000000000E+00  0.00000000000E+00  0.13038949821E+03  0.13038949821E+03  0.00000000000E+00 0.  1.
         21   -1    0    0  501  503 -0.00000000000E+00 -0.00000000000E+00 -0.51583709213E+03  0.51583709213E+03  0.00000000000E+00 0.  1.
          6    1    1    2  501    0 -0.79257812703E+01  0.15646418704E+03 -0.33549502214E+03  0.40827046148E+03  0.17200000000E+03 0.  1.
         -6    1    1    2    0  502  0.79257812703E+01 -0.15646418704E+03 -0.49952571777E+02  0.23795612886E+03  0.17200000000E+03 0.  1.
</event>
<event>
 4    1  0.1259333E+000  0.2155251E+03  0.7818608E-02  0.1137264E+00
         21   -1    0    0  501  502  0.00000000000E+00  0.00000000000E+00  0.84495536623E+03  0.84495536623E+03  0.00000000000E+00 0. -1.
         21   -1    0    0  502  503 -0.00000000000E+00 -0.00000000000E+00 -0.67587546644E+02  0.67587546644E+02  0.00000000000E+00 0. -1.
          6    1    1    2  501    0 -0.35556422074E+02  0.12491120557E+03  0.19157850118E+03  0.28836329611E+03  0.17200000000E+03 0. -1.
         -6    1    1    2    0  503  0.35556422074E+02 -0.12491120557E+03  0.58578931841E+03  0.62417961677E+03  0.17200000000E+03 0. -1.
</event>
<event>
 4    1  0.1259333E+000  0.1789871E+03  0.7818608E-02  0.1168787E+00
         21   -1    0    0  503  502  0.00000000000E+00  0.00000000000E+00  0.39374939098E+03  0.39374939098E+03  0.00000000000E+00 0. -1.
         21   -1    0    0  501  503 -0.00000000000E+00 -0.00000000000E+00 -0.83771378463E+02  0.83771378463E+02  0.00000000000E+00 0. -1.
          6    1    1    2  501    0  0.10059527719E+02  0.48489230317E+02  0.19547734498E+03  0.26504300020E+03  0.17200000000E+03 0.  1.
         -6    1    1    2    0  502 -0.10059527719E+02 -0.48489230317E+02  0.11450066753E+03  0.21247776924E+03  0.17200000000E+03 0.  1.
</event>
<event>
 4    1  0.1259333E+000  0.1815640E+03  0.7818608E-02  0.1166298E+00
         21   -1    0    0  503  502  0.00000000000E+00  0.00000000000E+00  0.13860906261E+03  0.13860906261E+03  0.00000000000E+00 0. -1.
         21   -1    0    0  501  503 -0.00000000000E+00 -0.00000000000E+00 -0.24156342086E+03  0.24156342086E+03  0.00000000000E+00 0. -1.
          6    1    1    2  501    0  0.54224887119E+02  0.21003794630E+02 -0.27848211006E+02  0.18368729033E+03  0.17200000000E+03 0.  1.
         -6    1    1    2    0  502 -0.54224887119E+02 -0.21003794630E+02 -0.75106147236E+02  0.19648519314E+03  0.17200000000E+03 0.  1.
</event>
<event>
 4    1  0.1259333E+000  0.2200716E+03  0.7818608E-02  0.1133830E+00
         21   -1    0    0  503  502  0.00000000000E+00  0.00000000000E+00  0.30613758525E+03  0.30613758525E+03  0.00000000000E+00 0. -1.
         21   -1    0    0  501  503 -0.00000000000E+00 -0.00000000000E+00 -0.21753593930E+03  0.21753593930E+03  0.00000000000E+00 0. -1.
          6    1    1    2  501    0 -0.12562888062E+01 -0.13728045866E+03 -0.92446114710E+02  0.23870020259E+03  0.17200000000E+03 0.  1.
         -6    1    1    2    0  502  0.12562888062E+01  0.13728045866E+03  0.18104776066E+03  0.28497332196E+03  0.17200000000E+03 0.  1.
</event>
<event>
 4    1  0.1259333E+000  0.2467183E+03  0.7818608E-02  0.1115396E+00
         21   -1    0    0  501  502  0.00000000000E+00  0.00000000000E+00  0.56200085421E+02  0.56200085421E+02  0.00000000000E+00 0.  1.
         21   -1    0    0  502  503 -0.00000000000E+00 -0.00000000000E+00 -0.12362565092E+04  0.12362565092E+04  0.00000000000E+00 0. -1.
          6    1    1    2  501    0  0.15669373583E+03  0.82054942104E+02 -0.36256624330E+03  0.43854785503E+03  0.17200000000E+03 0.  1.
         -6    1    1    2    0  503 -0.15669373583E+03 -0.82054942104E+02 -0.81749018049E+03  0.85390873960E+03  0.17200000000E+03 0.  1.
</event>
<event>
 4    1  0.1259333E+000  0.1746813E+03  0.7818608E-02  0.1173052E+00
         21   -1    0    0  501  502  0.00000000000E+00  0.00000000000E+00  0.14128721460E+04  0.14128721460E+04  0.00000000000E+00 0. -1.
         21   -1    0    0  502  503 -0.00000000000E+00 -0.00000000000E+00 -0.23172983773E+02  0.23172983773E+02  0.00000000000E+00 0. -1.
          6    1    1    2  501    0  0.26969162538E+02  0.14220752596E+02  0.88210992804E+03  0.89923939564E+03  0.17200000000E+03 0. -1.
         -6    1    1    2    0  503 -0.26969162538E+02 -0.14220752596E+02  0.50758923420E+03  0.53680573414E+03  0.17200000000E+03 0. -1.
</event>
<event>
 4    1  0.1259333E+000  0.2355920E+03  0.7818608E-02  0.1122765E+00
         21   -1    0    0  501  502  0.00000000000E+00  0.00000000000E+00  0.25759646264E+03  0.25759646264E+03  0.00000000000E+00 0.  1.
         21   -1    0    0  502  503 -0.00000000000E+00 -0.00000000000E+00 -0.50465779424E+03  0.50465779424E+03  0.00000000000E+00 0.  1.
          6    1    1    2  501    0  0.15302578448E+03  0.50027216810E+02  0.16498100132E+03  0.28761492300E+03  0.17200000000E+03 0.  1.
         -6    1    1    2    0  503 -0.15302578448E+03 -0.50027216810E+02 -0.41204233292E+03  0.47463933387E+03  0.17200000000E+03 0.  1.
</event>
<event>
 4    1  0.1259333E+000  0.2002663E+03  0.7818608E-02  0.1149515E+00
         21   -1    0    0  501  502  0.00000000000E+00  0.00000000000E+00  0.45584159262E+03  0.45584159262E+03  0.00000000000E+00 0.  1.
         21   -1    0    0  502  503 -0.00000000000E+00 -0.00000000000E+00 -0.12259262428E+03  0.12259262428E+03  0.00000000000E+00 0. -1.
          6    1    1    2  501    0 -0.98124737434E+02 -0.29901802699E+02  0.12955393866E+02  0.20068488765E+03  0.17200000000E+03 0. -1.
         -6    1    1    2    0  503  0.98124737434E+02  0.29901802699E+02  0.32029357448E+03  0.37774932925E+03  0.17200000000E+03 0.  1.
</event>
<event>
 4    1  0.1259333E+000  0.2342276E+03  0.7818608E-02  0.1123699E+00
         21   -1    0    0  501  502  0.00000000000E+00  0.00000000000E+00  0.64045599475E+02  0.64045599475E+02  0.00000000000E+00 0.  1.
         21   -1    0    0  502  503 -0.00000000000E+00 -0.00000000000E+00 -0.86115768000E+03  0.86115768000E+03  0.00000000000E+00 0. -1.
          6    1    1    2  501    0 -0.94352698376E+02  0.12796930660E+03 -0.36496627394E+03  0.43366226056E+03  0.17200000000E+03 0.  1.
         -6    1    1    2    0  503  0.94352698376E+02 -0.12796930660E+03 -0.43214580658E+03  0.49154101891E+03  0.17200000000E+03 0. -1.
</event>
<event>
 4    1  0.1259333E+000  0.1838422E+03  0.7818608E-02  0.1164136E+00
         21   -1    0    0  503  502  0.00000000000E+00  0.00000000000E+00  0.96253157951E+02  0.96253157951E+02  0.00000000000E+00 0. -1.
         21   -1    0    0  501  503 -0.00000000000E+00 -0.00000000000E+00 -0.39605415286E+03  0.39605415286E+03  0.00000000000E+00 0. -1.
          6    1    1    2  501    0 -0.50670908102E+02  0.40576004084E+02 -0.23279767401E+03  0.29663565204E+03  0.17200000000E+03 0.  1.
         -6    1    1    2    0  502  0.50670908102E+02 -0.40576004084E+02 -0.67003320897E+02  0.19567165877E+03  0.17200000000E+03 0.  1.
</event>
<event>
 4    1  0.1259333E+000  0.1957990E+03  0.7818608E-02  0.1153333E+00
         21   -1    0    0  503  502  0.00000000000E+00  0.00000000000E+00  0.13876101734E+03  0.13876101734E+03  0.00000000000E+00 0.  1.
         21   -1    0    0  501  503 -0.00000000000E+00 -0.00000000000E+00 -0.54481107849E+03  0.54481107849E+03  0.00000000000E+00 0.  1.
          6    1    1    2  501    0  0.91604615007E+02 -0.19022571486E+02 -0.44297819851E+03  0.48432112082E+03  0.17200000000E+03 0.  1.
         -6    1    1    2    0  502 -0.91604615007E+02  0.19022571486E+02  0.36928137355E+02  0.19925097502E+03  0.17200000000E+03 0.  1.
</event>
<event>
 4    1  0.1259333E+000  0.2290412E+03  0.7818608E-02  0.1127316E+00
         21   -1    0    0  503  502  0.00000000000E+00  0.00000000000E+00  0.16975337839E+04  0.16975337839E+04  0.00000000000E+00 0.  1.
         21   -1    0    0  501  503 -0.00000000000E+00 -0.00000000000E+00 -0.32159928255E+02  0.32159928255E+02  0.00000000000E+00 0.  1.
          6    1    1    2  501    0  0.12756423750E+03  0.81260322617E+02  0.66174982992E+03  0.70026617233E+03  0.17200000000E+03 0.  1.
         -6    1    1    2    0  502 -0.12756423750E+03 -0.81260322617E+02  0.10036240257E+04  0.10294275398E+04  0.17200000000E+03 0.  1.
</event>
<event>
 4    1  0.1259333E+000  0.2153611E+03  0.7818608E-02  0.1137390E+00
         21   -1    0    0  501  502  0.00000000000E+00  0.00000000000E+00  0.24541760484E+03  0.24541760484E+03  0.00000000000E+00 0. -1.
         21   -1    0    0  502  503 -0.00000000000E+00 -0.00000000000E+00 -0.24564363560E+03  0.24564363560E+03  0.00000000000E+00 0.  1.
          6    1    1    2  501    0 -0.11672559870E+03 -0.56316239163E+02  0.11780598841E+03  0.24547634324E+03  0.17200000000E+03 0. -1.
         -6    1    1    2    0  503  0.11672559870E+03  0.56316239163E+02 -0.11803201917E+03  0.24558489720E+03  0.17200000000E+03 0. -1.
</event>
<event>
 4    1  0.1259333E+000  0.1761744E+03  0.7818608E-02  0.1171558E+00
         21   -1    0    0  501  502  0.00000000000E+00  0.00000000000E+00  0.51050493934E+02  0.51050493934E+02  0.00000000000E+00 0. -1.
         21   -1    0    0  502  503 -0.00000000000E+00 -0.00000000000E+00 -0.62744238592E+03  0.62744238592E+03  0.00000000000E+00 0. -1.
          6    1    1    2  501    0  0.22577762532E+02 -0.30719199308E+02 -0.34795202301E+03  0.39001030099E+03  0.17200000000E+03 0.  1.
         -6    1    1    2    0  503 -0.22577762532E+02  0.30719199308E+02 -0.22843986898E+03  0.28848257886E+03  0.17200000000E+03 0.  1.
</event>
<event>
 4    1  0.1259333E+000  0.2147480E+03  0.7818608E-02  0.1137860E+00
         21   -1    0    0  501  502  0.00000000000E+00  0.00000000000E+00  0.24880888459E+03  0.24880888459E+03  0.00000000000E+00 0.  1.
         21   -1    0    0  502  503 -0.00000000000E+00 -0.00000000000E+00 -0.25689797914E+03  0.25689797914E+03  0.00000000000E+00 0.  1.
          6    1    1    2  501    0 -0.44755507975E+02  0.12053895898E+03  0.12939592429E+03  0.25071896886E+03  0.17200000000E+03 0.  1.
         -6    1    1    2    0  503  0.44755507975E+02 -0.12053895898E+03 -0.13748501883E+03  0.25498789487E+03  0.17200000000E+03 0.  1.
</event>
<event>
 4    1  0.1259333E+000  0.2572136E+03  0.7818608E-02  0.1108829E+00
         21   -1    0    0  503  502  0.00000000000E+00  0.00000000000E+00  0.56980766596E+03  0.56980766596E+03  0.00000000000E+00 0.  1.
         21   -1    0    0  501  503 -0.00000000000E+00 -0.00000000000E+00 -0.12060075466E+03  0.12060075466E+03  0.00000000000E+00 0. -1.
          6    1    1    2  501    0 -0.70573792106E+02 -0.17774752045E+03  0.29123659489E+03  0.38855835516E+03  0.17200000000E+03 0.  1.
         -6    1    1    2    0  502  0.70573792106E+02  0.17774752045E+03  0.15797031641E+03  0.30185006547E+03  0.17200000000E+03 0. -1.
</event>
<event>
 4    1  0.1259333E+000  0.1748981E+03  0.7818608E-02  0.1172834E+00
         21   -1    0    0  503  502  0.00000000000E+00  0.00000000000E+00  0.76862055287E+03  0.76862055287E+03  0.00000000000E+00 0. -1.
         21   -1    0    0  501  503 -0.00000000000E+00 -0.00000000000E+00 -0.52105303997E+02  0.52105303997E+02  0.00000000000E+00 0. -1.
          6    1    1    2  501    0 -0.31519761076E+02  0.34447045768E+01  0.15881719741E+03  0.23624619261E+03  0.17200000000E+03 0. -1.
         -6    1    1    2    0  502  0.31519761076E+02 -0.34447045768E+01  0.55769805146E+03  0.58447966426E+03  0.17200000000E+03 0. -1.
</event>
<event>
 4    1  0.1259333E+000  0.2296863E+03  0.7818608E-02  0.1126861E+00
         21   -1    0    0  501  502  0.00000000000E+00  0.00000000000E+00  0.19845948421E+04  0.19845948421E+04  0.00000000000E+00 0.  1.
         21   -1    0    0  502  503 -0.00000000000E+00 -0.00000000000E+00 -0.28255591094E+02  0.28255591094E+02  0.00000000000E+00 0.  1.
          6    1    1    2  501    0 -0.15001139205E+03  0.25853079896E+02  0.12230584805E+04  0.12444387675E+04  0.17200000000E+03 0.  1.
         -6    1    1    2    0  503  0.15001139205E+03 -0.25853079896E+02  0.73328077049E+03  0.76841166561E+03  0.17200000000E+03 0.  1.
</event>
<event>
 4    1  0.1259333E+000  0.1813291E+03  0.7818608E-02  0.1166523E+00
         21   -1    0    0  503  502  0.00000000000E+00  0.00000000000E+00  0.17108845890E+04  0.17108845890E+04  0.00000000000E+00 0. -1.
         21   -1    0    0  501  503 -0.00000000000E+00 -0.00000000000E+00 -0.19305643502E+02  0.19305643502E+02  0.00000000000E+00 0. -1.
          6    1    1    2  501    0  0.55495378001E+02 -0.14713975161E+02  0.78759023552E+03  0.80819466536E+03  0.17200000000E+03 0. -1.
         -6    1    1    2    0  502 -0.55495378001E+02  0.14713975161E+02  0.90398870995E+03  0.92199556711E+03  0.17200000000E+03 0. -1.
</event>
<event>
 4    1  0.1259333E+000  0.1933268E+03  0.7818608E-02  0.1155495E+00
         21   -1    0    0  501  502  0.00000000000E+00  0.00000000000E+00  0.11012621555E+04  0.11012621555E+04  0.00000000000E+00 0. -1.
         21   -1    0    0  502  503 -0.00000000000E+00 -0.00000000000E+00 -0.33939029887E+02  0.33939029887E+02  0.00000000000E+00 0. -1.
          6    1    1    2  501    0 -0.15224880742E+02  0.86945078996E+02  0.53153335218E+03  0.56559963599E+03  0.17200000000E+03 0. -1.
         -6    1    1    2    0  503  0.15224880742E+02 -0.86945078996E+02  0.53578977341E+03  0.56960154937E+03  0.17200000000E+03 0. -1.
</event>
<event>
 4    1  0.1259333E+000  0.2347079E+03  0.7818608E-02  0.1123369E+00
         21   -1    0    0  503  502  0.00000000000E+00  0.00000000000E+00  0.13234386791E+03  0.13234386791E+03  0.00000000000E+00 0. -1.
         21   -1    0    0  501  503 -0.00000000000E+00 -0.00000000000E+00 -0.43347165892E+03  0.43347165892E+03  0.00000000000E+00 0. -1.
          6    1    1    2  501    0 -0.79696079500E+02 -0.13839200132E+03 -0.20695789037E+03  0.31292072399E+03  0.17200000000E+03 0. -1.
         -6    1    1    2    0  502  0.79696079500E+02  0.13839200132E+03 -0.94169900647E+02  0.25289480284E+03  0.17200000000E+03 0. -1.
</event>
<event>
 4    1  0.1259333E+000  0.2018790E+03  0.7818608E-02  0.1148163E+00
         21   -1    0    0  501  502  0.00000000000E+00  0.00000000000E+00  0.31376436213E+03  0.31376436213E+03  0.00000000000E+00 0. -1.
         21   -1    0    0  502  503 -0.00000000000E+00 -0.00000000000E+00 -0.12989091487E+03  0.12989091487E+03  0.00000000000E+00 0. -1.
          6    1    1    2  501    0  0.26779454862E+02  0.10224467222E+03  0.91753347999E+02  0.22175163826E+03  0.17200000000E+03 0.  1.
         -6    1    1    2    0  503 -0.26779454862E+02 -0.10224467222E+03  0.92120099262E+02  0.22190363874E+03  0.17200000000E+03 0.  1.
</event>
<event>
 4    1  0.1259333E+000  0.1732638E+03  0.7818608E-02  0.1174486E+00
         21   -1    0    0  501  502  0.00000000000E+00  0.00000000000E+00  0.60629252945E+03  0.60629252945E+03  0.00000000000E+00 0. -1.
         21   -1    0    0  502  503 -0.00000000000E+00 -0.00000000000E+00 -0.50910040469E+02  0.50910040469E+02  0.00000000000E+00 0. -1.
          6    1    1    2  501    0 -0.20828568739E+02  0.15908715075E+01  0.33209338511E+03  0.37457492786E+03  0.17200000000E+03 0. -1.
         -6    1    1    2    0  503  0.20828568739E+02 -0.15908715075E+01  0.22328910387E+03  0.28262764205E+03  0.17200000000E+03 0. -1.
</event>
<event>
 4    1  0.1259333E+000  0.1925234E+03  0.7818608E-02  0.1156205E+00
         21   -1    0    0  503  502  0.00000000000E+00  0.00000000000E+00  0.84479979665E+03  0.84479979665E+03  0.00000000000E+00 0. -1.
         21   -1    0    0  501  503 -0.00000000000E+00 -0.00000000000E+00 -0.46233947369E+02  0.46233947369E+02  0.00000000000E+00 0.  1.
          6    1    1    2  501    0 -0.46229526621E+02  0.73103374856E+02  0.29864133222E+03  0.35531945888E+03  0.17200000000E+03 0.  1.
         -6    1    1    2    0  502  0.46229526621E+02 -0.73103374856E+02  0.49992451706E+03  0.53571428514E+03  0.17200000000E+03 0. -1.
</event>
<event>
 4    1  0.1259333E+000  0.2345454E+03  0.7818608E-02  0.1123481E+00
         21   -1    0    0  501  502  0.00000000000E+00  0.00000000000E+00  0.26955019575E+03  0.26955019575E+03  0.00000000000E+00 0.  1.
         21   -1    0    0  502  503 -0.00000000000E+00 -0.00000000000E+00 -0.20717489307E+03  0.20717489307E+03  0.00000000000E+00 0.  1.
          6    1    1    2  501    0 -0.52190731614E+02  0.15067734372E+03  0.60290894114E+02  0.24217044884E+03  0.17200000000E+03 0.  1.
         -6    1    1    2    0  503  0.52190731614E+02 -0.15067734372E+03  0.20844085666E+01  0.23455463998E+03  0.17200000000E+03 0.  1.
</event>
<event>
 4    1  0.1259333E+000  0.3800810E+03  0.7818608E-02  0.1050904E+00
         21   -1    0    0  503  502  0.00000000000E+00  0.00000000000E+00  0.12498416216E+04  0.12498416216E+04  0.00000000000E+00 0.  1.
         21   -1    0    0  501  503 -0.00000000000E+00 -0.00000000000E+00 -0.11592036790E+03  0.11592036790E+03  0.00000000000E+00 0. -1.
          6    1    1    2  501    0 -0.32914790431E+03 -0.80865241040E+02  0.53016831743E+03  0.65233425093E+03  0.17200000000E+03 0. -1.
         -6    1    1    2    0  502  0.32914790431E+03  0.80865241040E+02  0.60375293623E+03  0.71342773855E+03  0.17200000000E+03 0.  1.
</event>
<event>
 4    1  0.1259333E+000  0.3001751E+03  0.7818608E-02  0.1085153E+00
         21   -1    0    0  503  502  0.00000000000E+00  0.00000000000E+00  0.57107474945E+03  0.57107474945E+03  0.00000000000E+00 0. -1.
         21   -1    0    0  501  503 -0.00000000000E+00 -0.00000000000E+00 -0.15871555737E+03  0.15871555737E+03  0.00000000000E+00 0.  1.
          6    1    1    2  501    0 -0.21069522521E+03  0.12699842798E+03  0.23417105638E+03  0.38071138975E+03  0.17200000000E+03 0. -1.
         -6    1    1    2    0  502  0.21069522521E+03 -0.12699842798E+03  0.17818813570E+03  0.34907891707E+03  0.17200000000E+03 0. -1.
</event>
<event>
 4    1  0.1259333E+000  0.1982950E+03  0.7818608E-02  0.1151186E+00
         21   -1    0    0  503  502  0.00000000000E+00  0.00000000000E+00  0.12915863983E+03  0.12915863983E+03  0.00000000000E+00 0.  1.
         21   -1    0    0  501  503 -0.00000000000E+00 -0.00000000000E+00 -0.37227899099E+03  0.37227899099E+03  0.00000000000E+00 0.  1.
          6    1    1    2  501    0 -0.29758369101E+02 -0.94081506617E+02 -0.14532408666E+02  0.19882676208E+03  0.17200000000E+03 0.  1.
         -6    1    1    2    0  502  0.29758369101E+02  0.94081506617E+02 -0.22858794250E+03  0.30261086873E+03  0.17200000000E+03 0.  1.
</event>
<event>
 4    1  0.1259333E+000  0.2451724E+03  0.7818608E-02  0.1116394E+00
         21   -1    0    0  501  502  0.00000000000E+00  0.00000000000E+00  0.92477751201E+03  0.92477751201E+03  0.00000000000E+00 0. -1.
         21   -1    0    0  502  503 -0.00000000000E+00 -0.00000000000E+00 -0.10950597266E+03  0.10950597266E+03  0.00000000000E+00 0. -1.
          6    1    1    2  501    0 -0.16372954635E+03 -0.60976699872E+02  0.73732533313E+03  0.77701877015E+03  0.17200000000E+03 0. -1.
         -6    1    1    2    0  503  0.16372954635E+03  0.60976699872E+02  0.77946206209E+02  0.25726471452E+03  0.17200000000E+03 0. -1.
</event>
<event>
 4    1  0.1259333E+000  0.3775987E+03  0.7818608E-02  0.1051825E+00
         21   -1    0    0  501  502  0.00000000000E+00  0.00000000000E+00  0.26785697601E+03  0.26785697601E+03  0.00000000000E+00 0. -1.
         21   -1    0    0  502  503 -0.00000000000E+00 -0.00000000000E+00 -0.53230736682E+03  0.53230736682E+03  0.00000000000E+00 0. -1.
          6    1    1    2  501    0  0.33129290510E+03 -0.56936712717E+02 -0.13094347692E+03  0.39965856974E+03  0.17200000000E+03 0. -1.
         -6    1    1    2    0  503 -0.33129290510E+03  0.56936712717E+02 -0.13350691388E+03  0.40050577309E+03  0.17200000000E+03 0. -1.
</event>
<event>
 4    1  0.1259333E+000  0.1933800E+03  0.7818608E-02  0.1155448E+00
         21   -1    0    0  501  502  0.00000000000E+00  0.00000000000E+00  0.22096727586E+03  0.22096727586E+03  0.00000000000E+00 0. -1.
         21   -1    0    0  502  503 -0.00000000000E+00 -0.00000000000E+00 -0.17035340287E+03  0.17035340287E+03  0.00000000000E+00 0.  1.
          6    1    1    2  501    0  0.84807265663E+02  0.24891083466E+02  0.41146321888E+02  0.19770902395E+03  0.17200000000E+03 0. -1.
         -6    1    1    2    0  503 -0.84807265663E+02 -0.24891083466E+02  0.94675510971E+01  0.19361165479E+03  0.17200000000E+03 0.  1.
</event>
<event>
 4    1  0.1259333E+000  0.1764685E+03  0.7818608E-02  0.1171265E+00
         21   -1    0    0  501  502  0.00000000000E+00  0.00000000000E+00  0.55672084370E+02  0.55672084370E+02  0.00000000000E+00 0. -1.
         21   -1    0    0  502  503 -0.00000000000E+00 -0.00000000000E+00 -0.12556343029E+04  0.12556343029E+04  0.00000000000E+00 0. -1.
          6    1    1    2  501    0 -0.26574530731E+02 -0.29170690327E+02 -0.11174426428E+03  0.20887296488E+03  0.17200000000E+03 0. -1.
         -6    1    1    2    0  503  0.26574530731E+02  0.29170690327E+02 -0.10882179543E+04  0.11024334224E+04  0.17200000000E+03 0. -1.
</event>
<event>
 4    1  0.1259333E+000  0.2213285E+03  0.7818608E-02  0.1132896E+00
         21   -1    0    0  503  502  0.00000000000E+00  0.00000000000E+00  0.47716183601E+03  0.47716183601E+03  0.00000000000E+00 0. -1.
         21   -1    0    0  501  503 -0.00000000000E+00 -0.00000000000E+00 -0.24921314894E+03  0.24921314894E+03  0.00000000000E+00 0.  1.
          6    1    1    2  501    0 -0.35754833131E+02 -0.13462505470E+03  0.39248399768E+03  0.45058850616E+03  0.17200000000E+03 0. -1.
         -6    1    1    2    0  502  0.35754833131E+02  0.13462505470E+03 -0.16453531061E+03  0.27578647879E+03  0.17200000000E+03 0.  1.
</event>
<event>
 4    1  0.1259333E+000  0.2080586E+03  0.7818608E-02  0.1143113E+00
         21   -1    0    0  503  502  0.00000000000E+00  0.00000000000E+00  0.31704856703E+03  0.31704856703E+03  0.00000000000E+00 0.  1.
         21   -1    0    0  501  503 -0.00000000000E+00 -0.00000000000E+00 -0.13821977069E+03  0.13821977069E+03  0.00000000000E+00 0.  1.
          6    1    1    2  501    0  0.51137102642E+02 -0.10530604727E+03  0.64285957611E+02  0.21776375090E+03  0.17200000000E+03 0. -1.
         -6    1    1    2    0  502 -0.51137102642E+02  0.10530604727E+03  0.11454283873E+03  0.23750458683E+03  0.17200000000E+03 0. -1.
</event>
<event>
 4    1  0.1259333E+000  0.1990081E+03  0.7818608E-02  0.1150579E+00
         21   -1    0    0  503  502  0.00000000000E+00  0.00000000000E+00  0.68197145025E+02  0.68197145025E+02  0.00000000000E+00 0.  1.
         21   -1    0    0  501  503 -0.00000000000E+00 -0.00000000000E+00 -0.61062313855E+03  0.61062313855E+03  0.00000000000E+00 0.  1.
          6    1    1    2  501    0 -0.82739043176E+02 -0.56342652489E+02 -0.34630809974E+03  0.39941650404E+03  0.17200000000E+03 0.  1.
         -6    1    1    2    0  502  0.82739043176E+02  0.56342652489E+02 -0.19611789379E+03  0.27940377954E+03  0.17200000000E+03 0.  1.
</event>
<event>
 4    1  0.1259333E+000  0.1982855E+03  0.7818608E-02  0.1151194E+00
         21   -1    0    0  501  502  0.00000000000E+00  0.00000000000E+00  0.41676657054E+03  0.41676657054E+03  0.00000000000E+00 0.  1.
         21   -1    0    0  502  503 -0.00000000000E+00 -0.00000000000E+00 -0.12230441020E+03  0.12230441020E+03  0.00000000000E+00 0.  1.
          6    1    1    2  501    0  0.86134629133E+02  0.48103690500E+02  0.27611812370E+03  0.33993875568E+03  0.17200000000E+03 0.  1.
         -6    1    1    2    0  503 -0.86134629133E+02 -0.48103690500E+02  0.18344036632E+02  0.19913222506E+03  0.17200000000E+03 0.  1.
</event>
<event>
 4    1  0.1259333E+000  0.2218396E+03  0.7818608E-02  0.1132519E+00
         21   -1    0    0  501  502  0.00000000000E+00  0.00000000000E+00  0.16560171455E+03  0.16560171455E+03  0.00000000000E+00 0. -1.
         21   -1    0    0  502  503 -0.00000000000E+00 -0.00000000000E+00 -0.33400277409E+03  0.33400277409E+03  0.00000000000E+00 0.  1.
          6    1    1    2  501    0 -0.13529081912E+03  0.36403586807E+02 -0.12528688298E+01  0.22184318009E+03  0.17200000000E+03 0. -1.
         -6    1    1    2    0  503  0.13529081912E+03 -0.36403586807E+02 -0.16714819071E+03  0.27776130855E+03  0.17200000000E+03 0.  1.
</event>
<event>
 4    1  0.1259333E+000  0.2062161E+03  0.7818608E-02  0.1144598E+00
         21   -1    0    0  501  502  0.00000000000E+00  0.00000000000E+00  0.75305948741E+03  0.75305948741E+03  0.00000000000E+00 0. -1.
         21   -1    0    0  502  503 -0.00000000000E+00 -0.00000000000E+00 -0.58540306006E+02  0.58540306006E+02  0.00000000000E+00 0.  1.
          6    1    1    2  501    0  0.18307343489E+02 -0.11227615775E+03  0.42357742854E+03  0.47110819606E+03  0.17200000000E+03 0.  1.
         -6    1    1    2    0  503 -0.18307343489E+02  0.11227615775E+03  0.27094175287E+03  0.34049159736E+03  0.17200000000E+03 0.  1.
</event>
<event>
 4    1  0.1259333E+000  0.1732181E+03  0.7818608E-02  0.1174533E+00
         21   -1    0    0  503  502  0.00000000000E+00  0.00000000000E+00  0.79221690845E+03  0.79221690845E+03  0.00000000000E+00 0. -1.
         21   -1    0    0  501  503 -0.00000000000E+00 -0.00000000000E+00 -0.62571653875E+02  0.62571653875E+02  0.00000000000E+00 0. -1.
          6    1    1    2  501    0 -0.18575068300E+02 -0.86880614387E+01  0.96308763304E+02  0.19819155750E+03  0.17200000000E+03 0.  1.
         -6    1    1    2    0  502  0.18575068300E+02  0.86880614387E+01  0.63333649127E+03  0.65659700483E+03  0.17200000000E+03 0.  1.
</event>
<event>
 4    1  0.1259333E+000  0.2906010E+03  0.7818608E-02  0.1090036E+00
         21   -1    0    0  501  502  0.00000000000E+00  0.00000000000E+00  0.69182632704E+03  0.69182632704E+03  0.00000000000E+00 0.  1.
         21   -1    0    0  502  503 -0.00000000000E+00 -0.00000000000E+00 -0.20078269200E+03  0.20078269200E+03  0.00000000000E+00 0. -1.
          6    1    1    2  501    0 -0.12679019978E+03 -0.19694977661E+03  0.52496889696E+03  0.60003442571E+03  0.17200000000E+03 0.  1.
         -6    1    1    2    0  503  0.12679019978E+03  0.19694977661E+03 -0.33925261917E+02  0.29257459333E+03  0.17200000000E+03 0. -1.
</event>
<event>
 4    1  0.1259333E+000  0.2185277E+03  0.7818608E-02  0.1134985E+00
         21   -1    0    0  501  502  0.00000000000E+00  0.00000000000E+00  0.53711859102E+02  0.53711859102E+02  0.00000000000E+00 0.  1.
         21   -1    0    0  502  503 -0.00000000000E+00 -0.00000000000E+00 -0.14870098760E+04  0.14870098760E+04  0.00000000000E+00 0. -1.
          6    1    1    2  501    0 -0.10599989358E+03  0.83272889473E+02 -0.22815304264E+03  0.31592429857E+03  0.17200000000E+03 0.  1.
         -6    1    1    2    0  503  0.10599989358E+03 -0.83272889473E+02 -0.12051449743E+04  0.12247974365E+04  0.17200000000E+03 0. -1.
</event>
<event>
 4    1  0.1259333E+000  0.3531485E+03  0.7818608E-02  0.1061330E+00
         21   -1    0    0  501  502  0.00000000000E+00  0.00000000000E+00  0.70152210886E+03  0.70152210886E+03  0.00000000000E+00 0.  1.
         21   -1    0    0  502  503 -0.00000000000E+00 -0.00000000000E+00 -0.18214037624E+03  0.18214037624E+03  0.00000000000E+00 0. -1.
          6    1    1    2  501    0  0.26390106243E+03 -0.15964362387E+03  0.32808359527E+03  0.48202977385E+03  0.17200000000E+03 0.  1.
         -6    1    1    2    0  503 -0.26390106243E+03  0.15964362387E+03  0.19129813734E+03  0.40163271125E+03  0.17200000000E+03 0. -1.
</event>
<event>
 4    1  0.1259333E+000  0.2150700E+03  0.7818608E-02  0.1137613E+00
         21   -1    0    0  503  502  0.00000000000E+00  0.00000000000E+00  0.21614335497E+03  0.21614335497E+03  0.00000000000E+00 0.  1.
         21   -1    0    0  501  503 -0.00000000000E+00 -0.00000000000E+00 -0.23647606817E+03  0.23647606817E+03  0.00000000000E+00 0.  1.
          6    1    1    2  501    0 -0.12345170468E+03  0.37825789976E+02 -0.79933394179E+02  0.22944380855E+03  0.17200000000E+03 0.  1.
         -6    1    1    2    0  502  0.12345170468E+03 -0.37825789976E+02  0.59600680982E+02  0.22317561460E+03  0.17200000000E+03 0.  1.
</event>
<event>
 4    1  0.1259333E+000  0.1795768E+03  0.7818608E-02  0.1168213E+00
         21   -1    0    0  503  502  0.00000000000E+00  0.00000000000E+00  0.24441919767E+04  0.24441919767E+04  0.00000000000E+00 0.  1.
         21   -1    0    0  501  503 -0.00000000000E+00 -0.00000000000E+00 -0.26143056604E+02  0.26143056604E+02  0.00000000000E+00 0.  1.
          6    1    1    2  501    0 -0.50343957687E+02  0.11371818721E+02  0.20783300745E+04  0.20860737597E+04  0.17200000000E+03 0. -1.
         -6    1    1    2    0  502  0.50343957687E+02 -0.11371818721E+02  0.33971884558E+03  0.38426127358E+03  0.17200000000E+03 0. -1.
</event>
<event>
 4    1  0.1259333E+000  0.1891475E+03  0.7818608E-02  0.1159233E+00
         21   -1    0    0  503  502  0.00000000000E+00  0.00000000000E+00  0.59531958626E+02  0.59531958626E+02  0.00000000000E+00 0.  1.
         21   -1    0    0  501  503 -0.00000000000E+00 -0.00000000000E+00 -0.60633807528E+03  0.60633807528E+03  0.00000000000E+00 0.  1.
          6    1    1    2  501    0 -0.33386644912E+02 -0.71260739598E+02 -0.30473736716E+03  0.35866645231E+03  0.17200000000E+03 0.  1.
         -6    1    1    2    0  502  0.33386644912E+02  0.71260739598E+02 -0.24206874950E+03  0.30720358161E+03  0.17200000000E+03 0.  1.
</event>
<event>
 4    1  0.1259333E+000  0.1838327E+03  0.7818608E-02  0.1164144E+00
         21   -1    0    0  501  502  0.00000000000E+00  0.00000000000E+00  0.68520088322E+03  0.68520088322E+03  0.00000000000E+00 0. -1.
         21   -1    0    0  502  503 -0.00000000000E+00 -0.00000000000E+00 -0.71786227384E+02  0.71786227384E+02  0.00000000000E+00 0. -1.
          6    1    1    2  501    0  0.30969338962E+02  0.57020621684E+02  0.51844500819E+03  0.55007242957E+03  0.17200000000E+03 0. -1.
         -6    1    1    2    0  503 -0.30969338962E+02 -0.57020621684E+02  0.94969647640E+02  0.20691468103E+03  0.17200000000E+03 0. -1.
</event>
<event>
 4    1  0.1259333E+000  0.1789498E+03  0.7818608E-02  0.1168823E+00
         21   -1    0    0  501  502  0.00000000000E+00  0.00000000000E+00  0.34440414746E+03  0.34440414746E+03  0.00000000000E+00 0. -1.
         21   -1    0    0  502  503 -0.00000000000E+00 -0.00000000000E+00 -0.96846372397E+02  0.96846372397E+02  0.00000000000E+00 0. -1.
          6    1    1    2  501    0  0.21918915601E+02  0.44255889408E+02  0.79701850270E+02  0.19589642045E+03  0.17200000000E+03 0. -1.
         -6    1    1    2    0  503 -0.21918915601E+02 -0.44255889408E+02  0.16785592480E+03  0.24535409941E+03  0.17200000000E+03 0. -1.
</event>
<event>
 4    1  0.1259333E+000  0.1766491E+03  0.7818608E-02  0.1171086E+00
         21   -1    0    0  501  502  0.00000000000E+00  0.00000000000E+00  0.37914312643E+03  0.37914312643E+03  0.00000000000E+00 0.  1.
         21   -1    0    0  502  503 -0.00000000000E+00 -0.00000000000E+00 -0.93646980758E+02  0.93646980758E+02  0.00000000000E+00 0.  1.
          6    1    1    2  501    0  0.30525620198E+02 -0.26250642770E+02  0.22502147228E+03  0.28607616594E+03  0.17200000000E+03 0.  1.
         -6    1    1    2    0  503 -0.30525620198E+02  0.26250642770E+02  0.60474673396E+02  0.18671394125E+03  0.17200000000E+03 0.  1.
</event>
<event>
 4    1  0.1259333E+000  0.1746154E+03  0.7818608E-02  0.1173118E+00
         21   -1    0    0  501  502  0.00000000000E+00  0.00000000000E+00  0.41011059933E+03  0.41011059933E+03  0.00000000000E+00 0.  1.
         21   -1    0    0  502  503 -0.00000000000E+00 -0.00000000000E+00 -0.36187491336E+03  0.36187491336E+03  0.00000000000E+00 0.  1.
          6    1    1    2  501    0  0.24933195351E+02 -0.16878164287E+02  0.36818232425E+03  0.40749081039E+03  0.17200000000E+03 0.  1.
         -6    1    1    2    0  503 -0.24933195351E+02  0.16878164287E+02 -0.31994663828E+03  0.36449470230E+03  0.17200000000E+03 0.  1.
</event>
<event>
 4    1  0.1259333E+000  0.1832064E+03  0.7818608E-02  0.1164735E+00
         21   -1    0    0  501  502  0.00000000000E+00  0.00000000000E+00  0.24623693339E+04  0.24623693339E+04  0.00000000000E+00 0.  1.
         21   -1    0    0  502  503 -0.00000000000E+00 -0.00000000000E+00 -0.54882817779E+02  0.54882817779E+02  0.00000000000E+00 0.  1.
          6    1    1    2  501    0  0.74460124758E+01 -0.62650880500E+02  0.22949323811E+04  0.23022335264E+04  0.17200000000E+03 0.  1.
         -6    1    1    2    0  503 -0.74460124758E+01  0.62650880500E+02  0.11255413498E+03  0.21501862531E+03  0.17200000000E+03 0.  1.
</event>
<event>
 4    1  0.1259333E+000  0.2731951E+03  0.7818608E-02  0.1099465E+00
         21   -1    0    0  503  502  0.00000000000E+00  0.00000000000E+00  0.18575805408E+04  0.18575805408E+04  0.00000000000E+00 0.  1.
         21   -1    0    0  501  503 -0.00000000000E+00 -0.00000000000E+00 -0.42831832253E+02  0.42831832253E+02  0.00000000000E+00 0.  1.
          6    1    1    2  501    0 -0.11288129190E+03 -0.17974802323E+03  0.67089250008E+03  0.72438407256E+03  0.17200000000E+03 0.  1.
         -6    1    1    2    0  502  0.11288129190E+03  0.17974802323E+03  0.11438562085E+04  0.11760283005E+04  0.17200000000E+03 0.  1.
</event>
<event>
 4    1  0.1259333E+000  0.2063697E+03  0.7818608E-02  0.1144473E+00
         21   -1    0    0  503  502  0.00000000000E+00  0.00000000000E+00  0.38725725755E+03  0.38725725755E+03  0.00000000000E+00 0.  1.
         21   -1    0    0  501  503 -0.00000000000E+00 -0.00000000000E+00 -0.21383444016E+03  0.21383444016E+03  0.00000000000E+00 0.  1.
          6    1    1    2  501    0 -0.93612909152E+02  0.65123540349E+02 -0.12274602797E+03  0.24011463856E+03  0.17200000000E+03 0.  1.
         -6    1    1    2    0  502  0.93612909152E+02 -0.65123540349E+02  0.29616884536E+03  0.36097705914E+03  0.17200000000E+03 0.  1.
</event>
<event>
 4    1  0.1259333E+000  0.2618881E+03  0.7818608E-02  0.1106014E+00
         21   -1    0    0  501  502  0.00000000000E+00  0.00000000000E+00  0.74760716903E+03  0.74760716903E+03  0.00000000000E+00 0. -1.
         21   -1    0    0  502  503 -0.00000000000E+00 -0.00000000000E+00 -0.12150696221E+03  0.12150696221E+03  0.00000000000E+00 0. -1.
          6    1    1    2  501    0 -0.84434828357E+02  0.17852766238E+03  0.52813732834E+03  0.58950352337E+03  0.17200000000E+03 0. -1.
         -6    1    1    2    0  503  0.84434828357E+02 -0.17852766238E+03  0.97962878479E+02  0.27961060787E+03  0.17200000000E+03 0. -1.
</event>
<event>
 4    1  0.1259333E+000  0.1901913E+03  0.7818608E-02  0.1158289E+00
         21   -1    0    0  501  502  0.00000000000E+00  0.00000000000E+00  0.59620877497E+03  0.59620877497E+03  0.00000000000E+00 0.  1.
         21   -1    0    0  502  503 -0.00000000000E+00 -0.00000000000E+00 -0.33531279142E+03  0.33531279142E+03  0.00000000000E+00 0.  1.
          6    1    1    2  501    0 -0.71173075701E+02 -0.39027233820E+02  0.55197069599E+03  0.58381879116E+03  0.17200000000E+03 0.  1.
         -6    1    1    2    0  503  0.71173075701E+02  0.39027233820E+02 -0.29107471243E+03  0.34770277523E+03  0.17200000000E+03 0.  1.
</event>
<event>
 4    1  0.1259333E+000  0.1907942E+03  0.7818608E-02  0.1157747E+00
         21   -1    0    0  503  502  0.00000000000E+00  0.00000000000E+00  0.24907180263E+03  0.24907180263E+03  0.00000000000E+00 0. -1.
         21   -1    0    0  501  503 -0.00000000000E+00 -0.00000000000E+00 -0.26109271384E+03  0.26109271384E+03  0.00000000000E+00 0. -1.
          6    1    1    2  501    0 -0.81433559575E+02 -0.13674238985E+02 -0.17525680552E+03  0.25907017836E+03  0.17200000000E+03 0. -1.
         -6    1    1    2    0  502  0.81433559575E+02  0.13674238985E+02  0.16323589431E+03  0.25109433810E+03  0.17200000000E+03 0. -1.
</event>
<event>
 4    1  0.1259333E+000  0.1852956E+03  0.7818608E-02  0.1162774E+00
         21   -1    0    0  503  502  0.00000000000E+00  0.00000000000E+00  0.11916789152E+04  0.11916789152E+04  0.00000000000E+00 0. -1.
         21   -1    0    0  501  503 -0.00000000000E+00 -0.00000000000E+00 -0.59393142962E+02  0.59393142962E+02  0.00000000000E+00 0. -1.
          6    1    1    2  501    0  0.45964908264E+02  0.51358260454E+02  0.11728146725E+03  0.21929292343E+03  0.17200000000E+03 0. -1.
         -6    1    1    2    0  502 -0.45964908264E+02 -0.51358260454E+02  0.10150043050E+04  0.10317791347E+04  0.17200000000E+03 0. -1.
</event>
<event>
 4    1  0.1259333E+000  0.3617632E+03  0.7818608E-02  0.1057888E+00
         21   -1    0    0  501  502  0.00000000000E+00  0.00000000000E+00  0.21793830647E+03  0.21793830647E+03  0.00000000000E+00 0.  1.
         21   -1    0    0  502  503 -0.00000000000E+00 -0.00000000000E+00 -0.66451621270E+03  0.66451621270E+03  0.00000000000E+00 0. -1.
          6    1    1    2  501    0 -0.31812905819E+03  0.90822970983E+01 -0.36023348164E+03  0.51052986894E+03  0.17200000000E+03 0. -1.
         -6    1    1    2    0  503  0.31812905819E+03 -0.90822970983E+01 -0.86344424590E+02  0.37192465022E+03  0.17200000000E+03 0.  1.
</event>
<event>
 4    1  0.1259333E+000  0.2393570E+03  0.7818608E-02  0.1120222E+00
         21   -1    0    0  501  502  0.00000000000E+00  0.00000000000E+00  0.62077454094E+03  0.62077454094E+03  0.00000000000E+00 0.  1.
         21   -1    0    0  502  503 -0.00000000000E+00 -0.00000000000E+00 -0.14369548276E+03  0.14369548276E+03  0.00000000000E+00 0. -1.
          6    1    1    2  501    0  0.10508960118E+03  0.12908893188E+03  0.99216112972E+01  0.23956254920E+03  0.17200000000E+03 0.  1.
         -6    1    1    2    0  503 -0.10508960118E+03 -0.12908893188E+03  0.46715744688E+03  0.52490747450E+03  0.17200000000E+03 0.  1.
</event>
<event>
 4    1  0.1259333E+000  0.1925774E+03  0.7818608E-02  0.1156157E+00
         21   -1    0    0  503  502  0.00000000000E+00  0.00000000000E+00  0.23718877120E+03  0.23718877120E+03  0.00000000000E+00 0.  1.
         21   -1    0    0  501  503 -0.00000000000E+00 -0.00000000000E+00 -0.19214196652E+03  0.19214196652E+03  0.00000000000E+00 0.  1.
          6    1    1    2  501    0  0.83559388543E+02  0.22800650265E+02 -0.70117615625E+02  0.20494516605E+03  0.17200000000E+03 0. -1.
         -6    1    1    2    0  502 -0.83559388543E+02 -0.22800650265E+02  0.11516442031E+03  0.22438557167E+03  0.17200000000E+03 0. -1.
</event>
<event>
 4    1  0.1259333E+000  0.1733836E+03  0.7818608E-02  0.1174365E+00
         21   -1    0    0  503  502  0.00000000000E+00  0.00000000000E+00  0.30439304214E+03  0.30439304214E+03  0.00000000000E+00 0.  1.
         21   -1    0    0  501  503 -0.00000000000E+00 -0.00000000000E+00 -0.10137183554E+03  0.10137183554E+03  0.00000000000E+00 0.  1.
          6    1    1    2  501    0 -0.71299715599E+01  0.20665060336E+02  0.13407567649E+03  0.21917611239E+03  0.17200000000E+03 0.  1.
         -6    1    1    2    0  502  0.71299715599E+01 -0.20665060336E+02  0.68945530102E+02  0.18658876529E+03  0.17200000000E+03 0.  1.
</event>
<event>
 4    1  0.1259333E+000  0.2475679E+03  0.7818608E-02  0.1114852E+00
         21   -1    0    0  503  502  0.00000000000E+00  0.00000000000E+00  0.30689122350E+03  0.30689122350E+03  0.00000000000E+00 0.  1.
         21   -1    0    0  501  503 -0.00000000000E+00 -0.00000000000E+00 -0.21304333795E+03  0.21304333795E+03  0.00000000000E+00 0. -1.
          6    1    1    2  501    0  0.12132157731E+03  0.13033404818E+03 -0.18106997143E+02  0.24822923394E+03  0.17200000000E+03 0. -1.
         -6    1    1    2    0  502 -0.12132157731E+03 -0.13033404818E+03  0.11195488269E+03  0.27170532751E+03  0.17200000000E+03 0.  1.
</event>
<event>
 4    1  0.1259333E+000  0.1802058E+03  0.7818608E-02  0.1167604E+00
         21   -1    0    0  501  502  0.00000000000E+00  0.00000000000E+00  0.12041740167E+03  0.12041740167E+03  0.00000000000E+00 0. -1.
         21   -1    0    0  502  503 -0.00000000000E+00 -0.00000000000E+00 -0.64337249622E+03  0.64337249622E+03  0.00000000000E+00 0. -1.
          6    1    1    2  501    0  0.41641887373E+02  0.34001046674E+02  0.29574114862E+02  0.18261639091E+03  0.17200000000E+03 0. -1.
         -6    1    1    2    0  503 -0.41641887373E+02 -0.34001046674E+02 -0.55252920942E+03  0.58117350698E+03  0.17200000000E+03 0. -1.
</event>
<event>
 4    1  0.1259333E+000  0.1980965E+03  0.7818608E-02  0.1151355E+00
         21   -1    0    0  503  502  0.00000000000E+00  0.00000000000E+00  0.59960074201E+02  0.59960074201E+02  0.00000000000E+00 0.  1.
         21   -1    0    0  501  503 -0.00000000000E+00 -0.00000000000E+00 -0.72342324946E+03  0.72342324946E+03  0.00000000000E+00 0.  1.
          6    1    1    2  501    0  0.98256845078E+02  0.19531416157E+01 -0.45265696435E+03  0.49410580825E+03  0.17200000000E+03 0.  1.
         -6    1    1    2    0  502 -0.98256845078E+02 -0.19531416157E+01 -0.21080621091E+03  0.28927751541E+03  0.17200000000E+03 0.  1.
</event>
<event>
 4    1  0.1259333E+000  0.1869896E+03  0.7818608E-02  0.1161205E+00
         21   -1    0    0  503  502  0.00000000000E+00  0.00000000000E+00  0.14415999631E+03  0.14415999631E+03  0.00000000000E+00 0. -1.
         21   -1    0    0  501  503 -0.00000000000E+00 -0.00000000000E+00 -0.88023683693E+03  0.88023683693E+03  0.00000000000E+00 0. -1.
          6    1    1    2  501    0 -0.38516238012E+02 -0.62430866725E+02 -0.80399606582E+03  0.82545429163E+03  0.17200000000E+03 0. -1.
         -6    1    1    2    0  502  0.38516238012E+02  0.62430866725E+02  0.67919225200E+02  0.19894254161E+03  0.17200000000E+03 0. -1.
</event>
<event>
 4    1  0.1259333E+000  0.1871943E+03  0.7818608E-02  0.1161017E+00
         21   -1    0    0  503  502  0.00000000000E+00  0.00000000000E+00  0.32605279492E+03  0.32605279492E+03  0.00000000000E+00 0.  1.
         21   -1    0    0  501  503 -0.00000000000E+00 -0.00000000000E+00 -0.11456686529E+03  0.11456686529E+03  0.00000000000E+00 0.  1.
          6    1    1    2  501    0  0.15742871925E+02  0.72179289882E+02  0.50919924778E+02  0.19399620265E+03  0.17200000000E+03 0.  1.
         -6    1    1    2    0  502 -0.15742871925E+02 -0.72179289882E+02  0.16056600484E+03  0.24662345755E+03  0.17200000000E+03 0.  1.
</event>
<event>
 4    1  0.1259333E+000  0.1742522E+03  0.7818608E-02  0.1173485E+00
         21   -1    0    0  503  502  0.00000000000E+00  0.00000000000E+00  0.62740046399E+02  0.62740046399E+02  0.00000000000E+00 0. -1.
         21   -1    0    0  501  503 -0.00000000000E+00 -0.00000000000E+00 -0.76984373413E+03  0.76984373413E+03  0.00000000000E+00 0. -1.
          6    1    1    2  501    0  0.16677130556E+02  0.22399080719E+02 -0.60723363405E+03  0.63174087395E+03  0.17200000000E+03 0. -1.
         -6    1    1    2    0  502 -0.16677130556E+02 -0.22399080719E+02 -0.99870053686E+02  0.20084290658E+03  0.17200000000E+03 0. -1.
</event>
<event>
 4    1  0.1259333E+000  0.1807157E+03  0.7818608E-02  0.1167112E+00
         21   -1    0    0  503  502  0.00000000000E+00  0.00000000000E+00  0.17279208879E+03  0.17279208879E+03  0.00000000000E+00 0. -1.
         21   -1    0    0  501  503 -0.00000000000E+00 -0.00000000000E+00 -0.33455048717E+03  0.33455048717E+03  0.00000000000E+00 0. -1.
          6    1    1    2  501    0 -0.68304678495E+01 -0.55022744026E+02 -0.24819748333E+03  0.30701815644E+03  0.17200000000E+03 0.  1.
         -6    1    1    2    0  502  0.68304678495E+01  0.55022744026E+02  0.86439084950E+02  0.20032441953E+03  0.17200000000E+03 0.  1.
</event>
<event>
 4    1  0.1259333E+000  0.4712401E+03  0.7818608E-02  0.1021571E+00
         21   -1    0    0  501  502  0.00000000000E+00  0.00000000000E+00  0.50231069600E+03  0.50231069600E+03  0.00000000000E+00 0.  1.
         21   -1    0    0  502  503 -0.00000000000E+00 -0.00000000000E+00 -0.10920475430E+04  0.10920475430E+04  0.00000000000E+00 0. -1.
          6    1    1    2  501    0  0.42196565000E+03  0.12011738926E+03  0.32013452216E+03  0.56969580415E+03  0.17200000000E+03 0.  1.
         -6    1    1    2    0  503 -0.42196565000E+03 -0.12011738926E+03 -0.90987136921E+03  0.10246624349E+04  0.17200000000E+03 0. -1.
</event>
<event>
 4    1  0.1259333E+000  0.1778729E+03  0.7818608E-02  0.1169878E+00
         21   -1    0    0  501  502  0.00000000000E+00  0.00000000000E+00  0.24087788869E+03  0.24087788869E+03  0.00000000000E+00 0.  1.
         21   -1    0    0  502  503 -0.00000000000E+00 -0.00000000000E+00 -0.19908583442E+03  0.19908583442E+03  0.00000000000E+00 0.  1.
          6    1    1    2  501    0  0.38099904410E+02  0.24559504401E+02 -0.10742065009E+03  0.20779308949E+03  0.17200000000E+03 0.  1.
         -6    1    1    2    0  503 -0.38099904410E+02 -0.24559504401E+02  0.14921270437E+03  0.23217063362E+03  0.17200000000E+03 0.  1.
</event>
<event>
 4    1  0.1259333E+000  0.1890918E+03  0.7818608E-02  0.1159283E+00
         21   -1    0    0  501  502  0.00000000000E+00  0.00000000000E+00  0.52963366750E+03  0.52963366750E+03  0.00000000000E+00 0.  1.
         21   -1    0    0  502  503 -0.00000000000E+00 -0.00000000000E+00 -0.72316576636E+02  0.72316576636E+02  0.00000000000E+00 0.  1.
          6    1    1    2  501    0 -0.59775931599E+02  0.50976106999E+02  0.30625042064E+03  0.35992366639E+03  0.17200000000E+03 0.  1.
         -6    1    1    2    0  503  0.59775931599E+02 -0.50976106999E+02  0.15106667022E+03  0.24202657774E+03  0.17200000000E+03 0.  1.
</event>
<event>
 4    1  0.1259333E+000  0.1784983E+03  0.7818608E-02  0.1169264E+00
         21   -1    0    0  503  502  0.00000000000E+00  0.00000000000E+00  0.27689774345E+03  0.27689774345E+03  0.00000000000E+00 0.  1.
         21   -1    0    0  501  503 -0.00000000000E+00 -0.00000000000E+00 -0.13381976058E+03  0.13381976058E+03  0.00000000000E+00 0.  1.
          6    1    1    2  501    0  0.47460908521E+02  0.50112770745E+01 -0.53371595475E+01  0.17857809498E+03  0.17200000000E+03 0.  1.
         -6    1    1    2    0  502 -0.47460908521E+02 -0.50112770745E+01  0.14841514242E+03  0.23213940905E+03  0.17200000000E+03 0.  1.
</event>
<event>
 4    1  0.1259333E+000  0.1879972E+03  0.7818608E-02  0.1160280E+00
         21   -1    0    0  503  502  0.00000000000E+00  0.00000000000E+00  0.30233188045E+03  0.30233188045E+03  0.00000000000E+00 0.  1.
         21   -1    0    0  501  503 -0.00000000000E+00 -0.00000000000E+00 -0.24344643014E+03  0.24344643014E+03  0.00000000000E+00 0.  1.
          6    1    1    2  501    0  0.10040664461E+02 -0.75220597805E+02 -0.16730399343E+03  0.25166163691E+03  0.17200000000E+03 0.  1.
         -6    1    1    2    0  502 -0.10040664461E+02  0.75220597805E+02  0.22618944374E+03  0.29411667368E+03  0.17200000000E+03 0.  1.
</event>
<event>
 4    1  0.1259333E+000  0.2045633E+03  0.7818608E-02  0.1145945E+00
         21   -1    0    0  501  502  0.00000000000E+00  0.00000000000E+00  0.13422337063E+04  0.13422337063E+04  0.00000000000E+00 0. -1.
         21   -1    0    0  502  503 -0.00000000000E+00 -0.00000000000E+00 -0.49878904048E+02  0.49878904048E+02  0.00000000000E+00 0. -1.
          6    1    1    2  501    0 -0.22025610214E+02 -0.10852192614E+03  0.21995649080E+03  0.30037808476E+03  0.17200000000E+03 0. -1.
         -6    1    1    2    0  503  0.22025610214E+02  0.10852192614E+03  0.10723983114E+04  0.10917345256E+04  0.17200000000E+03 0. -1.
</event>
<event>
 4    1  0.1259333E+000  0.2084207E+03  0.7818608E-02  0.1142823E+00
         21   -1    0    0  503  502  0.00000000000E+00  0.00000000000E+00  0.71683852621E+03  0.71683852621E+03  0.00000000000E+00 0.  1.
         21   -1    0    0  501  503 -0.00000000000E+00 -0.00000000000E+00 -0.63289816884E+02  0.63289816884E+02  0.00000000000E+00 0. -1.
          6    1    1    2  501    0 -0.11756795887E+03 -0.57431184515E+01  0.40721328957E+03  0.45745149641E+03  0.17200000000E+03 0.  1.
         -6    1    1    2    0  502  0.11756795887E+03  0.57431184515E+01  0.24633541975E+03  0.32267684668E+03  0.17200000000E+03 0. -1.
</event>
<event>
 4    1  0.1259333E+000  0.1970208E+03  0.7818608E-02  0.1152277E+00
         21   -1    0    0  501  502  0.00000000000E+00  0.00000000000E+00  0.51737790840E+03  0.51737790840E+03  0.00000000000E+00 0.  1.
         21   -1    0    0  502  503 -0.00000000000E+00 -0.00000000000E+00 -0.15996532744E+03  0.15996532744E+03  0.00000000000E+00 0.  1.
          6    1    1    2  501    0  0.88844849278E+02 -0.36602983391E+02  0.42549105879E+03  0.46889212699E+03  0.17200000000E+03 0.  1.
         -6    1    1    2    0  503 -0.88844849278E+02  0.36602983391E+02 -0.68078477835E+02  0.20845110885E+03  0.17200000000E+03 0.  1.
</event>
<event>
 4    1  0.1259333E+000  0.1726921E+03  0.7818608E-02  0.1175069E+00
         21   -1    0    0  501  502  0.00000000000E+00  0.00000000000E+00  0.10637979463E+03  0.10637979463E+03  0.00000000000E+00 0.  1.
         21   -1    0    0  502  503 -0.00000000000E+00 -0.00000000000E+00 -0.56259163696E+03  0.56259163696E+03  0.00000000000E+00 0.  1.
          6    1    1    2  501    0 -0.15263120955E+02  0.23662241373E+01  0.88124898561E+01  0.17291680617E+03  0.17200000000E+03 0.  1.
         -6    1    1    2    0  503  0.15263120955E+02 -0.23662241373E+01 -0.46502433219E+03  0.49605462542E+03  0.17200000000E+03 0.  1.
</event>
<event>
 4    1  0.1259333E+000  0.2595477E+03  0.7818608E-02  0.1107415E+00
         21   -1    0    0  501  502  0.00000000000E+00  0.00000000000E+00  0.11190578822E+04  0.11190578822E+04  0.00000000000E+00 0.  1.
         21   -1    0    0  502  503 -0.00000000000E+00 -0.00000000000E+00 -0.64654361741E+02  0.64654361741E+02  0.00000000000E+00 0.  1.
          6    1    1    2  501    0 -0.19069854030E+03  0.37617205562E+02  0.68258709073E+03  0.73026715924E+03  0.17200000000E+03 0.  1.
         -6    1    1    2    0  503  0.19069854030E+03 -0.37617205562E+02  0.37181642975E+03  0.45344508472E+03  0.17200000000E+03 0.  1.
</event>
<event>
 4    1  0.1259333E+000  0.2080066E+03  0.7818608E-02  0.1143154E+00
         21   -1    0    0  501  502  0.00000000000E+00  0.00000000000E+00  0.11499445788E+03  0.11499445788E+03  0.00000000000E+00 0. -1.
         21   -1    0    0  502  503 -0.00000000000E+00 -0.00000000000E+00 -0.44491806425E+03  0.44491806425E+03  0.00000000000E+00 0. -1.
          6    1    1    2  501    0  0.20214376260E+02  0.11521341647E+03 -0.54978905043E+02  0.21514979048E+03  0.17200000000E+03 0. -1.
         -6    1    1    2    0  503 -0.20214376260E+02 -0.11521341647E+03 -0.27494470133E+03  0.34476273165E+03  0.17200000000E+03 0. -1.
</event>
<event>
 4    1  0.1259333E+000  0.1955997E+03  0.7818608E-02  0.1153506E+00
         21   -1    0    0  501  502  0.00000000000E+00  0.00000000000E+00  0.33561537707E+03  0.33561537707E+03  0.00000000000E+00 0. -1.
         21   -1    0    0  502  503 -0.00000000000E+00 -0.00000000000E+00 -0.14724931087E+03  0.14724931087E+03  0.00000000000E+00 0. -1.
          6    1    1    2  501    0 -0.57564465481E+02  0.73222798857E+02  0.20891324324E+03  0.28618872997E+03  0.17200000000E+03 0. -1.
         -6    1    1    2    0  503  0.57564465481E+02 -0.73222798857E+02 -0.20547177038E+02  0.19667595797E+03  0.17200000000E+03 0. -1.
</event>
<event>
 4    1  0.1259333E+000  0.2088233E+03  0.7818608E-02  0.1142501E+00
         21   -1    0    0  501  502  0.00000000000E+00  0.00000000000E+00  0.16104298331E+03  0.16104298331E+03  0.00000000000E+00 0.  1.
         21   -1    0    0  502  503 -0.00000000000E+00 -0.00000000000E+00 -0.31114908662E+03  0.31114908662E+03  0.00000000000E+00 0.  1.
          6    1    1    2  501    0 -0.11667506461E+03 -0.20250853334E+02  0.99883876896E+01  0.20906203780E+03  0.17200000000E+03 0.  1.
         -6    1    1    2    0  503  0.11667506461E+03  0.20250853334E+02 -0.16009449100E+03  0.26313003213E+03  0.17200000000E+03 0.  1.
</event>
<event>
 4    1  0.1259333E+000  0.2163346E+03  0.7818608E-02  0.1136646E+00
         21   -1    0    0  503  502  0.00000000000E+00  0.00000000000E+00  0.34965146163E+03  0.34965146163E+03  0.00000000000E+00 0. -1.
         21   -1    0    0  501  503 -0.00000000000E+00 -0.00000000000E+00 -0.14989081954E+03  0.14989081954E+03  0.00000000000E+00 0. -1.
          6    1    1    2  501    0  0.29956554994E+02 -0.12774679772E+03  0.18170154910E+02  0.21709627828E+03  0.17200000000E+03 0. -1.
         -6    1    1    2    0  502 -0.29956554994E+02  0.12774679772E+03  0.18159048718E+03  0.28244600289E+03  0.17200000000E+03 0. -1.
</event>
<event>
 4    1  0.1259333E+000  0.2035654E+03  0.7818608E-02  0.1146765E+00
         21   -1    0    0  503  502  0.00000000000E+00  0.00000000000E+00  0.11516210223E+04  0.11516210223E+04  0.00000000000E+00 0.  1.
         21   -1    0    0  501  503 -0.00000000000E+00 -0.00000000000E+00 -0.40983294746E+02  0.40983294746E+02  0.00000000000E+00 0. -1.
          6    1    1    2  501    0  0.93797441522E+02  0.55289354332E+02  0.34703423357E+03  0.40233273792E+03  0.17200000000E+03 0. -1.
         -6    1    1    2    0  502 -0.93797441522E+02 -0.55289354332E+02  0.76360349399E+03  0.79027157913E+03  0.17200000000E+03 0.  1.
</event>
<event>
 4    1  0.1259333E+000  0.2020845E+03  0.7818608E-02  0.1147992E+00
         21   -1    0    0  501  502  0.00000000000E+00  0.00000000000E+00  0.41441203467E+03  0.41441203467E+03  0.00000000000E+00 0.  1.
         21   -1    0    0  502  503 -0.00000000000E+00 -0.00000000000E+00 -0.11723776130E+03  0.11723776130E+03  0.00000000000E+00 0.  1.
          6    1    1    2  501    0  0.67958238084E+02  0.81460497655E+02  0.25473259267E+03  0.32515662160E+03  0.17200000000E+03 0.  1.
         -6    1    1    2    0  503 -0.67958238084E+02 -0.81460497655E+02  0.42441680709E+02  0.20649317437E+03  0.17200000000E+03 0.  1.
</event>
<event>
 4    1  0.1259333E+000  0.3377463E+03  0.7818608E-02  0.1067760E+00
         21   -1    0    0  503  502  0.00000000000E+00  0.00000000000E+00  0.25824240415E+03  0.25824240415E+03  0.00000000000E+00 0.  1.
         21   -1    0    0  501  503 -0.00000000000E+00 -0.00000000000E+00 -0.44842586912E+03  0.44842586912E+03  0.00000000000E+00 0. -1.
          6    1    1    2  501    0 -0.21043854618E+02  0.28990641831E+03 -0.13827837662E+03  0.36495682571E+03  0.17200000000E+03 0. -1.
         -6    1    1    2    0  502  0.21043854618E+02 -0.28990641831E+03 -0.51905088348E+02  0.34171144756E+03  0.17200000000E+03 0. -1.
</event>
<event>
 4    1  0.1259333E+000  0.1896270E+03  0.7818608E-02  0.1158798E+00
         21   -1    0    0  503  502  0.00000000000E+00  0.00000000000E+00  0.67859207334E+03  0.67859207334E+03  0.00000000000E+00 0.  1.
         21   -1    0    0  501  503 -0.00000000000E+00 -0.00000000000E+00 -0.83318968359E+02  0.83318968359E+02  0.00000000000E+00 0. -1.
          6    1    1    2  501    0  0.15298704321E+02  0.78360288544E+02  0.67792456895E+02  0.20138073986E+03  0.17200000000E+03 0. -1.
         -6    1    1    2    0  502 -0.15298704321E+02 -0.78360288544E+02  0.52748064809E+03  0.56053030184E+03  0.17200000000E+03 0.  1.
</event>
<event>
 4    1  0.1259333E+000  0.2259992E+03  0.7818608E-02  0.1129488E+00
         21   -1    0    0  503  502  0.00000000000E+00  0.00000000000E+00  0.25704520772E+03  0.25704520772E+03  0.00000000000E+00 0.  1.
         21   -1    0    0  501  503 -0.00000000000E+00 -0.00000000000E+00 -0.20464467410E+03  0.20464467410E+03  0.00000000000E+00 0. -1.
          6    1    1    2  501    0  0.11386902603E+03 -0.92333447784E+02 -0.13134744303E+02  0.22638052517E+03  0.17200000000E+03 0. -1.
         -6    1    1    2    0  502 -0.11386902603E+03  0.92333447784E+02  0.65535277923E+02  0.23530935664E+03  0.17200000000E+03 0. -1.
</event>
<event>
 4    1  0.1259333E+000  0.2010957E+03  0.7818608E-02  0.1148818E+00
         21   -1    0    0  501  502  0.00000000000E+00  0.00000000000E+00  0.51241700103E+02  0.51241700103E+02  0.00000000000E+00 0. -1.
         21   -1    0    0  502  503 -0.00000000000E+00 -0.00000000000E+00 -0.81084173652E+03  0.81084173652E+03  0.00000000000E+00 0.  1.
          6    1    1    2  501    0 -0.85128567468E+02  0.60071630361E+02 -0.45023533736E+03  0.49310377486E+03  0.17200000000E+03 0.  1.
         -6    1    1    2    0  503  0.85128567468E+02 -0.60071630361E+02 -0.30936469906E+03  0.36897966177E+03  0.17200000000E+03 0. -1.
</event>
<event>
 4    1  0.1259333E+000  0.2048710E+03  0.7818608E-02  0.1145693E+00
         21   -1    0    0  501  502  0.00000000000E+00  0.00000000000E+00  0.11738944007E+03  0.11738944007E+03  0.00000000000E+00 0.  1.
         21   -1    0    0  502  503 -0.00000000000E+00 -0.00000000000E+00 -0.46784719329E+03  0.46784719329E+03  0.00000000000E+00 0. -1.
          6    1    1    2  501    0 -0.10090487342E+03  0.46971481505E+02 -0.33146639517E+02  0.20753508924E+03  0.17200000000E+03 0.  1.
         -6    1    1    2    0  503  0.10090487342E+03 -0.46971481505E+02 -0.31731111370E+03  0.37770154412E+03  0.17200000000E+03 0. -1.
</event>
<event>
 4    1  0.1259333E+000  0.1887045E+03  0.7818608E-02  0.1159635E+00
         21   -1    0    0  501  502  0.00000000000E+00  0.00000000000E+00  0.17739104748E+03  0.17739104748E+03  0.00000000000E+00 0.  1.
         21   -1    0    0  502  503 -0.00000000000E+00 -0.00000000000E+00 -0.20085773923E+03  0.20085773923E+03  0.00000000000E+00 0.  1.
          6    1    1    2  501    0 -0.24738473386E+01 -0.77583983799E+02 -0.71451742194E+01  0.18883974152E+03  0.17200000000E+03 0. -1.
         -6    1    1    2    0  503  0.24738473386E+01  0.77583983799E+02 -0.16321517533E+02  0.18940904518E+03  0.17200000000E+03 0. -1.
</event>
<event>
 4    1  0.1259333E+000  0.2443409E+03  0.7818608E-02  0.1116934E+00
         21   -1    0    0  501  502  0.00000000000E+00  0.00000000000E+00  0.32186695225E+03  0.32186695225E+03  0.00000000000E+00 0.  1.
         21   -1    0    0  502  503 -0.00000000000E+00 -0.00000000000E+00 -0.26421995491E+03  0.26421995491E+03  0.00000000000E+00 0. -1.
          6    1    1    2  501    0  0.76993998522E+02 -0.15553269814E+03  0.18878828943E+03  0.30877745097E+03  0.17200000000E+03 0.  1.
         -6    1    1    2    0  503 -0.76993998522E+02  0.15553269814E+03 -0.13114129209E+03  0.27730945619E+03  0.17200000000E+03 0. -1.
</event>
<event>
 4    1  0.1259333E+000  0.1948359E+03  0.7818608E-02  0.1154171E+00
         21   -1    0    0  503  502  0.00000000000E+00  0.00000000000E+00  0.61833812555E+03  0.61833812555E+03  0.00000000000E+00 0.  1.
         21   -1    0    0  501  503 -0.00000000000E+00 -0.00000000000E+00 -0.76691403128E+02  0.76691403128E+02  0.00000000000E+00 0.  1.
          6    1    1    2  501    0 -0.64481011098E+02 -0.64955697322E+02  0.11560735934E+03  0.22655265379E+03  0.17200000000E+03 0.  1.
         -6    1    1    2    0  502  0.64481011098E+02  0.64955697322E+02  0.42603936308E+03  0.46847687488E+03  0.17200000000E+03 0.  1.
</event>
<event>
 4    1  0.1259333E+000  0.2024734E+03  0.7818608E-02  0.1147669E+00
         21   -1    0    0  501  502  0.00000000000E+00  0.00000000000E+00  0.27450958011E+02  0.27450958011E+02  0.00000000000E+00 0.  1.
         21   -1    0    0  502  503 -0.00000000000E+00 -0.00000000000E+00 -0.26804484079E+04  0.26804484079E+04  0.00000000000E+00 0.  1.
          6    1    1    2  501    0 -0.10546233143E+03 -0.17004599784E+02 -0.42548441823E+03  0.47120319388E+03  0.17200000000E+03 0.  1.
         -6    1    1    2    0  503  0.10546233143E+03  0.17004599784E+02 -0.22275130317E+04  0.22366961721E+04  0.17200000000E+03 0.  1.
</event>
<event>
 4    1  0.1259333E+000  0.1824408E+03  0.7818608E-02  0.1165462E+00
         21   -1    0    0  501  502  0.00000000000E+00  0.00000000000E+00  0.15053039934E+03  0.15053039934E+03  0.00000000000E+00 0. -1.
         21   -1    0    0  502  503 -0.00000000000E+00 -0.00000000000E+00 -0.22456434823E+03  0.22456434823E+03  0.00000000000E+00 0. -1.
          6    1    1    2  501    0 -0.57967031549E+02 -0.18451891169E+02 -0.60258198777E+02  0.19213458708E+03  0.17200000000E+03 0. -1.
         -6    1    1    2    0  503  0.57967031549E+02  0.18451891169E+02 -0.13775750121E+02  0.18296016049E+03  0.17200000000E+03 0. -1.
</event>
<event>
 4    1  0.1259333E+000  0.1900685E+03  0.7818608E-02  0.1158400E+00
         21   -1    0    0  501  502  0.00000000000E+00  0.00000000000E+00  0.53866847973E+03  0.53866847973E+03  0.00000000000E+00 0.  1.
         21   -1    0    0  502  503 -0.00000000000E+00 -0.00000000000E+00 -0.12264244044E+03  0.12264244044E+03  0.00000000000E+00 0. -1.
          6    1    1    2  501    0 -0.80468017981E+02 -0.81817771509E+01  0.43060157135E+03  0.47068434927E+03  0.17200000000E+03 0.  1.
         -6    1    1    2    0  503  0.80468017981E+02  0.81817771509E+01 -0.14575532063E+02  0.19062657089E+03  0.17200000000E+03 0. -1.
</event>
<event>
 4    1  0.1259333E+000  0.1748134E+03  0.7818608E-02  0.1172919E+00
         21   -1    0    0  503  502  0.00000000000E+00  0.00000000000E+00  0.96062322837E+03  0.96062322837E+03  0.00000000000E+00 0.  1.
         21   -1    0    0  501  503 -0.00000000000E+00 -0.00000000000E+00 -0.32017501299E+02  0.32017501299E+02  0.00000000000E+00 0.  1.
          6    1    1    2  501    0 -0.27270813080E+02  0.15232397807E+02  0.50402755383E+03  0.53348242540E+03  0.17200000000E+03 0.  1.
         -6    1    1    2    0  502  0.27270813080E+02 -0.15232397807E+02  0.42457817324E+03  0.45915830427E+03  0.17200000000E+03 0.  1.
</event>
<event>
 4    1  0.1259333E+000  0.2694548E+03  0.7818608E-02  0.1101592E+00
         21   -1    0    0  503  502  0.00000000000E+00  0.00000000000E+00  0.11119104536E+03  0.11119104536E+03  0.00000000000E+00 0. -1.
         21   -1    0    0  501  503 -0.00000000000E+00 -0.00000000000E+00 -0.79465377746E+03  0.79465377746E+03  0.00000000000E+00 0.  1.
          6    1    1    2  501    0  0.16366331753E+03 -0.12742142990E+03 -0.53296946727E+03  0.59721215271E+03  0.17200000000E+03 0. -1.
         -6    1    1    2    0  502 -0.16366331753E+03  0.12742142990E+03 -0.15049326484E+03  0.30863267012E+03  0.17200000000E+03 0. -1.
</event>
<event>
 4    1  0.1259333E+000  0.2079762E+03  0.7818608E-02  0.1143179E+00
         21   -1    0    0  501  502  0.00000000000E+00  0.00000000000E+00  0.41365238988E+03  0.41365238988E+03  0.00000000000E+00 0. -1.
         21   -1    0    0  502  503 -0.00000000000E+00 -0.00000000000E+00 -0.12383627557E+03  0.12383627557E+03  0.00000000000E+00 0. -1.
          6    1    1    2  501    0 -0.82029347916E+02  0.83314333051E+02  0.25092033606E+03  0.32590659254E+03  0.17200000000E+03 0. -1.
         -6    1    1    2    0  503  0.82029347916E+02 -0.83314333051E+02  0.38895778253E+02  0.21158207291E+03  0.17200000000E+03 0. -1.
</event>
<event>
 4    1  0.1259333E+000  0.2408564E+03  0.7818608E-02  0.1119224E+00
         21   -1    0    0  503  502  0.00000000000E+00  0.00000000000E+00  0.12193150281E+04  0.12193150281E+04  0.00000000000E+00 0. -1.
         21   -1    0    0  501  503 -0.00000000000E+00 -0.00000000000E+00 -0.61836820233E+02  0.61836820233E+02  0.00000000000E+00 0.  1.
          6    1    1    2  501    0 -0.32233594951E+01  0.16857459005E+03  0.88634784706E+03  0.91849022229E+03  0.17200000000E+03 0.  1.
         -6    1    1    2    0  502  0.32233594951E+01 -0.16857459005E+03  0.27113036084E+03  0.36266162607E+03  0.17200000000E+03 0.  1.
</event>
<event>
 4    1  0.1259333E+000  0.2198727E+03  0.7818608E-02  0.1133978E+00
         21   -1    0    0  503  502  0.00000000000E+00  0.00000000000E+00  0.76235308818E+03  0.76235308818E+03  0.00000000000E+00 0. -1.
         21   -1    0    0  501  503 -0.00000000000E+00 -0.00000000000E+00 -0.72451859104E+02  0.72451859104E+02  0.00000000000E+00 0. -1.
          6    1    1    2  501    0 -0.13483287848E+03  0.24084892125E+02  0.19752973846E+03  0.29557060869E+03  0.17200000000E+03 0. -1.
         -6    1    1    2    0  502  0.13483287848E+03 -0.24084892125E+02  0.49237149062E+03  0.53923433859E+03  0.17200000000E+03 0. -1.
</event>
<event>
 4    1  0.1259333E+000  0.1784034E+03  0.7818608E-02  0.1169357E+00
         21   -1    0    0  503  502  0.00000000000E+00  0.00000000000E+00  0.68985057066E+02  0.68985057066E+02  0.00000000000E+00 0. -1.
         21   -1    0    0  501  503 -0.00000000000E+00 -0.00000000000E+00 -0.50400223162E+03  0.50400223162E+03  0.00000000000E+00 0. -1.
          6    1    1    2  501    0 -0.45683010450E+02 -0.12523982019E+02 -0.30082999289E+03  0.34975201528E+03  0.17200000000E+03 0.  1.
         -6    1    1    2    0  502  0.45683010450E+02  0.12523982019E+02 -0.13418718166E+03  0.22323527340E+03  0.17200000000E+03 0.  1.
</event>
<event>
 4    1  0.1259333E+000  0.1861170E+03  0.7818608E-02  0.1162011E+00
         21   -1    0    0  503  502  0.00000000000E+00  0.00000000000E+00  0.58842929725E+03  0.58842929725E+03  0.00000000000E+00 0.  1.
         21   -1    0    0  501  503 -0.00000000000E+00 -0.00000000000E+00 -0.14156358107E+03  0.14156358107E+03  0.00000000000E+00 0.  1.
          6    1    1    2  501    0 -0.18126386646E+02 -0.68753003467E+02 -0.55535226117E+02  0.19422590640E+03  0.17200000000E+03 0.  1.
         -6    1    1    2    0  502  0.18126386646E+02  0.68753003467E+02  0.50240094230E+03  0.53576697192E+03  0.17200000000E+03 0.  1.
</event>
<event>
 4    1  0.1259333E+000  0.2372360E+03  0.7818608E-02  0.1121648E+00
         21   -1    0    0  501  502  0.00000000000E+00  0.00000000000E+00  0.39539687000E+03  0.39539687000E+03  0.00000000000E+00 0. -1.
         21   -1    0    0  502  503 -0.00000000000E+00 -0.00000000000E+00 -0.19534563750E+03  0.19534563750E+03  0.00000000000E+00 0. -1.
          6    1    1    2  501    0 -0.15370979334E+03  0.55409745591E+02  0.25388565764E+03  0.34747498849E+03  0.17200000000E+03 0. -1.
         -6    1    1    2    0  503  0.15370979334E+03 -0.55409745591E+02 -0.53834425137E+02  0.24326751901E+03  0.17200000000E+03 0. -1.
</event>
<event>
 4    1  0.1259333E+000  0.1906107E+03  0.7818608E-02  0.1157912E+00
         21   -1    0    0  503  502  0.00000000000E+00  0.00000000000E+00  0.42579382549E+03  0.42579382549E+03  0.00000000000E+00 0. -1.
         21   -1    0    0  501  503 -0.00000000000E+00 -0.00000000000E+00 -0.85372589826E+02  0.85372589826E+02  0.00000000000E+00 0. -1.
          6    1    1    2  501    0 -0.71716776192E+02  0.40064088366E+02  0.17600663627E+03  0.25944317909E+03  0.17200000000E+03 0.  1.
         -6    1    1    2    0  502  0.71716776192E+02 -0.40064088366E+02  0.16441459940E+03  0.25172323623E+03  0.17200000000E+03 0.  1.
</event>
<event>
 4    1  0.1259333E+000  0.1903052E+03  0.7818608E-02  0.1158186E+00
         21   -1    0    0  501  502  0.00000000000E+00  0.00000000000E+00  0.56102170664E+03  0.56102170664E+03  0.00000000000E+00 0.  1.
         21   -1    0    0  502  503 -0.00000000000E+00 -0.00000000000E+00 -0.79318518025E+02  0.79318518025E+02  0.00000000000E+00 0.  1.
          6    1    1    2  501    0 -0.32408136321E+02  0.74711348987E+02  0.37898742241E+03  0.42408435400E+03  0.17200000000E+03 0.  1.
         -6    1    1    2    0  503  0.32408136321E+02 -0.74711348987E+02  0.10271576620E+03  0.21625587066E+03  0.17200000000E+03 0.  1.
</event>
<event>
 4    1  0.1259333E+000  0.1744415E+03  0.7818608E-02  0.1173294E+00
         21   -1    0    0  501  502  0.00000000000E+00  0.00000000000E+00  0.27000895441E+03  0.27000895441E+03  0.00000000000E+00 0.  1.
         21   -1    0    0  502  503 -0.00000000000E+00 -0.00000000000E+00 -0.12319241430E+03  0.12319241430E+03  0.00000000000E+00 0.  1.
          6    1    1    2  501    0 -0.59301103994E+01  0.28472478313E+02  0.13078596431E+03  0.21802480751E+03  0.17200000000E+03 0.  1.
         -6    1    1    2    0  503  0.59301103994E+01 -0.28472478313E+02  0.16030575802E+02  0.17517656119E+03  0.17200000000E+03 0.  1.
</event>
<event>
 4    1  0.1259333E+000  0.1745397E+03  0.7818608E-02  0.1173195E+00
         21   -1    0    0  503  502  0.00000000000E+00  0.00000000000E+00  0.69500220400E+03  0.69500220400E+03  0.00000000000E+00 0.  1.
         21   -1    0    0  501  503 -0.00000000000E+00 -0.00000000000E+00 -0.44518988620E+02  0.44518988620E+02  0.00000000000E+00 0.  1.
          6    1    1    2  501    0  0.18701053317E+02 -0.23029606284E+02  0.37113803266E+03  0.41013111495E+03  0.17200000000E+03 0.  1.
         -6    1    1    2    0  502 -0.18701053317E+02  0.23029606284E+02  0.27934518272E+03  0.32939007767E+03  0.17200000000E+03 0.  1.
</event>
<event>
 4    1  0.1259333E+000  0.2017842E+03  0.7818608E-02  0.1148242E+00
         21   -1    0    0  501  502  0.00000000000E+00  0.00000000000E+00  0.28267234192E+03  0.28267234192E+03  0.00000000000E+00 0. -1.
         21   -1    0    0  502  503 -0.00000000000E+00 -0.00000000000E+00 -0.14529885722E+03  0.14529885722E+03  0.00000000000E+00 0. -1.
          6    1    1    2  501    0  0.83650213983E+02  0.64308010323E+02  0.88583433675E+02  0.22037219247E+03  0.17200000000E+03 0.  1.
         -6    1    1    2    0  503 -0.83650213983E+02 -0.64308010323E+02  0.48790051022E+02  0.20759900667E+03  0.17200000000E+03 0.  1.
</event>
<event>
 4    1  0.1259333E+000  0.3078284E+03  0.7818608E-02  0.1081391E+00
         21   -1    0    0  501  502  0.00000000000E+00  0.00000000000E+00  0.55067433070E+02  0.55067433070E+02  0.00000000000E+00 0. -1.
         21   -1    0    0  502  503 -0.00000000000E+00 -0.00000000000E+00 -0.20260149666E+04  0.20260149666E+04  0.00000000000E+00 0. -1.
          6    1    1    2  501    0  0.24635687469E+03 -0.66952463645E+02 -0.58158405628E+03  0.65802610633E+03  0.17200000000E+03 0. -1.
         -6    1    1    2    0  503 -0.24635687469E+03  0.66952463645E+02 -0.13893634773E+04  0.14230562933E+04  0.17200000000E+03 0. -1.
</event>
<event>
 4    1  0.1259333E+000  0.1830718E+03  0.7818608E-02  0.1164863E+00
         21   -1    0    0  503  502  0.00000000000E+00  0.00000000000E+00  0.49514672158E+02  0.49514672158E+02  0.00000000000E+00 0.  1.
         21   -1    0    0  501  503 -0.00000000000E+00 -0.00000000000E+00 -0.69185361281E+03  0.69185361281E+03  0.00000000000E+00 0.  1.
          6    1    1    2  501    0  0.58303177880E+02  0.23065508777E+02 -0.37571040655E+03  0.41793969402E+03  0.17200000000E+03 0.  1.
         -6    1    1    2    0  502 -0.58303177880E+02 -0.23065508777E+02 -0.26662853410E+03  0.32342859095E+03  0.17200000000E+03 0.  1.
</event>
<event>
 4    1  0.1259333E+000  0.1748846E+03  0.7818608E-02  0.1172848E+00
         21   -1    0    0  501  502  0.00000000000E+00  0.00000000000E+00  0.13732734313E+03  0.13732734313E+03  0.00000000000E+00 0.  1.
         21   -1    0    0  502  503 -0.00000000000E+00 -0.00000000000E+00 -0.25726254524E+03  0.25726254524E+03  0.00000000000E+00 0. -1.
          6    1    1    2  501    0 -0.26038360664E+02  0.17961744924E+02  0.12333880758E+02  0.17531898106E+03  0.17200000000E+03 0.  1.
         -6    1    1    2    0  503  0.26038360664E+02 -0.17961744924E+02 -0.13226908288E+03  0.21927090731E+03  0.17200000000E+03 0. -1.
</event>
<event>
 4    1  0.1259333E+000  0.2034011E+03  0.7818608E-02  0.1146901E+00
         21   -1    0    0  501  502  0.00000000000E+00  0.00000000000E+00  0.39959528926E+03  0.39959528926E+03  0.00000000000E+00 0.  1.
         21   -1    0    0  502  503 -0.00000000000E+00 -0.00000000000E+00 -0.27143290335E+03  0.27143290335E+03  0.00000000000E+00 0.  1.
          6    1    1    2  501    0  0.66891002124E+01 -0.10836639823E+03  0.32795872524E+03  0.38591313244E+03  0.17200000000E+03 0.  1.
         -6    1    1    2    0  503 -0.66891002124E+01  0.10836639823E+03 -0.19979633933E+03  0.28511506018E+03  0.17200000000E+03 0.  1.
</event>
<event>
 4    1  0.1259333E+000  0.1737523E+03  0.7818608E-02  0.1173990E+00
         21   -1    0    0  503  502  0.00000000000E+00  0.00000000000E+00  0.19903745749E+03  0.19903745749E+03  0.00000000000E+00 0.  1.
         21   -1    0    0  501  503 -0.00000000000E+00 -0.00000000000E+00 -0.16786960085E+03  0.16786960085E+03  0.00000000000E+00 0.  1.
          6    1    1    2  501    0 -0.14774296913E+02 -0.19687473154E+02 -0.41388737749E+02  0.17861384062E+03  0.17200000000E+03 0.  1.
         -6    1    1    2    0  502  0.14774296913E+02  0.19687473154E+02  0.72556594391E+02  0.18829321772E+03  0.17200000000E+03 0.  1.
</event>
<event>
 4    1  0.1259333E+000  0.1972387E+03  0.7818608E-02  0.1152090E+00
         21   -1    0    0  501  502  0.00000000000E+00  0.00000000000E+00  0.62488580333E+03  0.62488580333E+03  0.00000000000E+00 0. -1.
         21   -1    0    0  502  503 -0.00000000000E+00 -0.00000000000E+00 -0.62401422292E+02  0.62401422292E+02  0.00000000000E+00 0.  1.
          6    1    1    2  501    0  0.23304457107E+02 -0.93680278262E+02  0.26467136866E+03  0.33008184689E+03  0.17200000000E+03 0.  1.
         -6    1    1    2    0  503 -0.23304457107E+02  0.93680278262E+02  0.29781301238E+03  0.35720537874E+03  0.17200000000E+03 0. -1.
</event>
<event>
 4    1  0.1259333E+000  0.1761739E+03  0.7818608E-02  0.1171558E+00
         21   -1    0    0  503  502  0.00000000000E+00  0.00000000000E+00  0.74904955545E+02  0.74904955545E+02  0.00000000000E+00 0. -1.
         21   -1    0    0  501  503 -0.00000000000E+00 -0.00000000000E+00 -0.91090794225E+03  0.91090794225E+03  0.00000000000E+00 0. -1.
          6    1    1    2  501    0 -0.33381008462E+02 -0.18410705312E+02 -0.78192492453E+03  0.80152594056E+03  0.17200000000E+03 0. -1.
         -6    1    1    2    0  502  0.33381008462E+02  0.18410705312E+02 -0.54078062171E+02  0.18428695723E+03  0.17200000000E+03 0. -1.
</event>
<event>
 4    1  0.1259333E+000  0.1971633E+03  0.7818608E-02  0.1152155E+00
         21   -1    0    0  503  502  0.00000000000E+00  0.00000000000E+00  0.29046371248E+02  0.29046371248E+02  0.00000000000E+00 0. -1.
         21   -1    0    0  501  503 -0.00000000000E+00 -0.00000000000E+00 -0.14490109061E+04  0.14490109061E+04  0.00000000000E+00 0. -1.
          6    1    1    2  501    0 -0.78590877186E+02  0.55792685552E+02 -0.91424104364E+03  0.93525934137E+03  0.17200000000E+03 0. -1.
         -6    1    1    2    0  502  0.78590877186E+02 -0.55792685552E+02 -0.50572349117E+03  0.54279793594E+03  0.17200000000E+03 0. -1.
</event>
<event>
 4    1  0.1259333E+000  0.1830054E+03  0.7818608E-02  0.1164926E+00
         21   -1    0    0  503  502  0.00000000000E+00  0.00000000000E+00  0.90299912395E+03  0.90299912395E+03  0.00000000000E+00 0.  1.
         21   -1    0    0  501  503 -0.00000000000E+00 -0.00000000000E+00 -0.80581484946E+02  0.80581484946E+02  0.00000000000E+00 0.  1.
          6    1    1    2  501    0 -0.12181367895E+02  0.61307413825E+02  0.49905980384E+02  0.18968814299E+03  0.17200000000E+03 0.  1.
         -6    1    1    2    0  502  0.12181367895E+02 -0.61307413825E+02  0.77251165862E+03  0.79389246590E+03  0.17200000000E+03 0.  1.
</event>
<event>
 4    1  0.1259333E+000  0.1870825E+03  0.7818608E-02  0.1161119E+00
         21   -1    0    0  501  502  0.00000000000E+00  0.00000000000E+00  0.77381215615E+02  0.77381215615E+02  0.00000000000E+00 0. -1.
         21   -1    0    0  502  503 -0.00000000000E+00 -0.00000000000E+00 -0.45759800904E+03  0.45759800904E+03  0.00000000000E+00 0. -1.
          6    1    1    2  501    0 -0.62188798126E+02  0.39350074931E+02 -0.16133871134E+03  0.24704261735E+03  0.17200000000E+03 0. -1.
         -6    1    1    2    0  503  0.62188798126E+02 -0.39350074931E+02 -0.21887808208E+03  0.28793660730E+03  0.17200000000E+03 0. -1.
</event>
<event>
 4    1  0.1259333E+000  0.1807314E+03  0.7818608E-02  0.1167097E+00
         21   -1    0    0  501  502  0.00000000000E+00  0.00000000000E+00  0.16162946214E+03  0.16162946214E+03  0.00000000000E+00 0.  1.
         21   -1    0    0  502  503 -0.00000000000E+00 -0.00000000000E+00 -0.12793477583E+04  0.12793477583E+04  0.00000000000E+00 0.  1.
          6    1    1    2  501    0 -0.47866721256E+02 -0.28082532222E+02  0.10227933520E+03  0.20766538958E+03  0.17200000000E+03 0.  1.
         -6    1    1    2    0  503  0.47866721256E+02  0.28082532222E+02 -0.12199976313E+04  0.12333118308E+04  0.17200000000E+03 0.  1.
</event>
<event>
 4    1  0.1259333E+000  0.1977670E+03  0.7818608E-02  0.1151637E+00
         21   -1    0    0  501  502  0.00000000000E+00  0.00000000000E+00  0.23151467409E+03  0.23151467409E+03  0.00000000000E+00 0.  1.
         21   -1    0    0  502  503 -0.00000000000E+00 -0.00000000000E+00 -0.17790400884E+03  0.17790400884E+03  0.00000000000E+00 0.  1.
          6    1    1    2  501    0  0.63400573774E+02 -0.74216897877E+02  0.72759848382E+02  0.21072678098E+03  0.17200000000E+03 0.  1.
         -6    1    1    2    0  503 -0.63400573774E+02  0.74216897877E+02 -0.19149183128E+02  0.19869190195E+03  0.17200000000E+03 0.  1.
</event>
<event>
 4    1  0.1259333E+000  0.2336006E+03  0.7818608E-02  0.1124131E+00
         21   -1    0    0  503  502  0.00000000000E+00  0.00000000000E+00  0.31189197005E+03  0.31189197005E+03  0.00000000000E+00 0. -1.
         21   -1    0    0  501  503 -0.00000000000E+00 -0.00000000000E+00 -0.17523940616E+03  0.17523940616E+03  0.00000000000E+00 0.  1.
          6    1    1    2  501    0  0.11655740099E+03  0.10676890926E+03  0.78017900359E+02  0.24628443005E+03  0.17200000000E+03 0. -1.
         -6    1    1    2    0  502 -0.11655740099E+03 -0.10676890926E+03  0.58634663535E+02  0.24084694616E+03  0.17200000000E+03 0. -1.
</event>
<event>
 4    1  0.1259333E+000  0.3382019E+03  0.7818608E-02  0.1067564E+00
         21   -1    0    0  501  502  0.00000000000E+00  0.00000000000E+00  0.24344699629E+03  0.24344699629E+03  0.00000000000E+00 0.  1.
         21   -1    0    0  502  503 -0.00000000000E+00 -0.00000000000E+00 -0.60250773011E+03  0.60250773011E+03  0.00000000000E+00 0.  1.
          6    1    1    2  501    0  0.25150110777E+03 -0.14677781562E+03  0.18952266354E+02  0.33873252393E+03  0.17200000000E+03 0.  1.
         -6    1    1    2    0  503 -0.25150110777E+03  0.14677781562E+03 -0.37801300018E+03  0.50722220247E+03  0.17200000000E+03 0.  1.
</event>
<event>
 4    1  0.1259333E+000  0.4527714E+03  0.7818608E-02  0.1026899E+00
         21   -1    0    0  501  502  0.00000000000E+00  0.00000000000E+00  0.29509076931E+03  0.29509076931E+03  0.00000000000E+00 0.  1.
         21   -1    0    0  502  503 -0.00000000000E+00 -0.00000000000E+00 -0.76229645210E+03  0.76229645210E+03  0.00000000000E+00 0. -1.
          6    1    1    2  501    0 -0.31322161014E+03  0.27804707859E+03 -0.76176297117E+02  0.45913482031E+03  0.17200000000E+03 0.  1.
         -6    1    1    2    0  503  0.31322161014E+03 -0.27804707859E+03 -0.39102938567E+03  0.59825240111E+03  0.17200000000E+03 0. -1.
</event>
<event>
 4    1  0.1259333E+000  0.2076175E+03  0.7818608E-02  0.1143467E+00
         21   -1    0    0  501  502  0.00000000000E+00  0.00000000000E+00  0.76390724032E+02  0.76390724032E+02  0.00000000000E+00 0. -1.
         21   -1    0    0  502  503 -0.00000000000E+00 -0.00000000000E+00 -0.59972525038E+03  0.59972525038E+03  0.00000000000E+00 0.  1.
          6    1    1    2  501    0  0.25239251290E+00 -0.11627958874E+03 -0.34386394791E+03  0.40168074528E+03  0.17200000000E+03 0. -1.
         -6    1    1    2    0  503 -0.25239251290E+00  0.11627958874E+03 -0.17947057844E+03  0.27443522913E+03  0.17200000000E+03 0. -1.
</event>
<event>
 4    1  0.1259333E+000  0.2000878E+03  0.7818608E-02  0.1149665E+00
         21   -1    0    0  503  502  0.00000000000E+00  0.00000000000E+00  0.15241519609E+03  0.15241519609E+03  0.00000000000E+00 0.  1.
         21   -1    0    0  501  503 -0.00000000000E+00 -0.00000000000E+00 -0.34123777587E+03  0.34123777587E+03  0.00000000000E+00 0.  1.
          6    1    1    2  501    0 -0.96489874137E+02 -0.33776228361E+02 -0.21284661878E+03  0.29212807558E+03  0.17200000000E+03 0.  1.
         -6    1    1    2    0  502  0.96489874137E+02  0.33776228361E+02  0.24024039006E+02  0.20152489639E+03  0.17200000000E+03 0.  1.
</event>
<event>
 4    1  0.1259333E+000  0.2230159E+03  0.7818608E-02  0.1131654E+00
         21   -1    0    0  503  502  0.00000000000E+00  0.00000000000E+00  0.32220054662E+03  0.32220054662E+03  0.00000000000E+00 0. -1.
         21   -1    0    0  501  503 -0.00000000000E+00 -0.00000000000E+00 -0.18309645666E+03  0.18309645666E+03  0.00000000000E+00 0. -1.
          6    1    1    2  501    0  0.13057207348E+03 -0.55704792397E+02 -0.30532010336E+02  0.22509618816E+03  0.17200000000E+03 0.  1.
         -6    1    1    2    0  502 -0.13057207348E+03  0.55704792397E+02  0.16963610029E+03  0.28020081512E+03  0.17200000000E+03 0.  1.
</event>
<event>
 4    1  0.1259333E+000  0.2084859E+03  0.7818608E-02  0.1142771E+00
         21   -1    0    0  503  502  0.00000000000E+00  0.00000000000E+00  0.38150928389E+03  0.38150928389E+03  0.00000000000E+00 0. -1.
         21   -1    0    0  501  503 -0.00000000000E+00 -0.00000000000E+00 -0.27856593938E+03  0.27856593938E+03  0.00000000000E+00 0. -1.
          6    1    1    2  501    0 -0.11762436951E+03 -0.68466228380E+01 -0.20225039419E+03  0.29046788204E+03  0.17200000000E+03 0. -1.
         -6    1    1    2    0  502  0.11762436951E+03  0.68466228380E+01  0.30519373871E+03  0.36960734123E+03  0.17200000000E+03 0. -1.
</event>
<event>
 4    1  0.1259333E+000  0.1839833E+03  0.7818608E-02  0.1164003E+00
         21   -1    0    0  501  502  0.00000000000E+00  0.00000000000E+00  0.33437964278E+03  0.33437964278E+03  0.00000000000E+00 0. -1.
         21   -1    0    0  502  503 -0.00000000000E+00 -0.00000000000E+00 -0.14428273026E+03  0.14428273026E+03  0.00000000000E+00 0. -1.
          6    1    1    2  501    0  0.18574329492E+01 -0.65287225188E+02  0.22578081768E+03  0.29125049264E+03  0.17200000000E+03 0. -1.
         -6    1    1    2    0  503 -0.18574329492E+01  0.65287225188E+02 -0.35683905163E+02  0.18741188041E+03  0.17200000000E+03 0. -1.
</event>
<event>
 4    1  0.1259333E+000  0.1840231E+03  0.7818608E-02  0.1163965E+00
         21   -1    0    0  501  502  0.00000000000E+00  0.00000000000E+00  0.13935288515E+03  0.13935288515E+03  0.00000000000E+00 0. -1.
         21   -1    0    0  502  503 -0.00000000000E+00 -0.00000000000E+00 -0.32712332019E+03  0.32712332019E+03  0.00000000000E+00 0. -1.
          6    1    1    2  501    0 -0.30077896318E+02 -0.58101665830E+02  0.24383492166E+02  0.18563145776E+03  0.17200000000E+03 0. -1.
         -6    1    1    2    0  503  0.30077896318E+02  0.58101665830E+02 -0.21215392721E+03  0.28084474759E+03  0.17200000000E+03 0. -1.
</event>
<event>
 4    1  0.1259333E+000  0.1999244E+03  0.7818608E-02  0.1149803E+00
         21   -1    0    0  501  502  0.00000000000E+00  0.00000000000E+00  0.15200215833E+04  0.15200215833E+04  0.00000000000E+00 0. -1.
         21   -1    0    0  502  503 -0.00000000000E+00 -0.00000000000E+00 -0.28788861096E+02  0.28788861096E+02  0.00000000000E+00 0.  1.
          6    1    1    2  501    0 -0.57129886996E+02  0.84391499715E+02  0.51771475870E+03  0.55497596398E+03  0.17200000000E+03 0.  1.
         -6    1    1    2    0  503  0.57129886996E+02 -0.84391499715E+02  0.97351796348E+03  0.99383448040E+03  0.17200000000E+03 0. -1.
</event>
<event>
 4    1  0.1259333E+000  0.1858084E+03  0.7818608E-02  0.1162297E+00
         21   -1    0    0  501  502  0.00000000000E+00  0.00000000000E+00  0.24111567571E+04  0.24111567571E+04  0.00000000000E+00 0. -1.
         21   -1    0    0  502  503 -0.00000000000E+00 -0.00000000000E+00 -0.15933126075E+02  0.15933126075E+02  0.00000000000E+00 0. -1.
          6    1    1    2  501    0  0.68598218705E+02  0.15330928885E+02  0.15838966010E+04  0.15947580367E+04  0.17200000000E+03 0. -1.
         -6    1    1    2    0  503 -0.68598218705E+02 -0.15330928885E+02  0.81132703002E+03  0.83233184646E+03  0.17200000000E+03 0. -1.
</event>
<event>
 4    1  0.1259333E+000  0.1804886E+03  0.7818608E-02  0.1167331E+00
         21   -1    0    0  503  502  0.00000000000E+00  0.00000000000E+00  0.26144787307E+04  0.26144787307E+04  0.00000000000E+00 0.  1.
         21   -1    0    0  501  503 -0.00000000000E+00 -0.00000000000E+00 -0.12649335096E+02  0.12649335096E+02  0.00000000000E+00 0.  1.
          6    1    1    2  501    0 -0.49193996037E+02  0.23918252745E+02  0.11401640795E+04  0.11543614079E+04  0.17200000000E+03 0.  1.
         -6    1    1    2    0  502  0.49193996037E+02 -0.23918252745E+02  0.14616653161E+04  0.14727666578E+04  0.17200000000E+03 0.  1.
</event>
<event>
 4    1  0.1259333E+000  0.2106268E+03  0.7818608E-02  0.1141071E+00
         21   -1    0    0  503  502  0.00000000000E+00  0.00000000000E+00  0.10704658771E+03  0.10704658771E+03  0.00000000000E+00 0.  1.
         21   -1    0    0  501  503 -0.00000000000E+00 -0.00000000000E+00 -0.43397400054E+03  0.43397400054E+03  0.00000000000E+00 0.  1.
          6    1    1    2  501    0  0.11637348460E+03  0.35169107152E+02 -0.22086527058E+03  0.30519685740E+03  0.17200000000E+03 0.  1.
         -6    1    1    2    0  502 -0.11637348460E+03 -0.35169107152E+02 -0.10606214225E+03  0.23582373085E+03  0.17200000000E+03 0.  1.
</event>
<event>
 4    1  0.1259333E+000  0.1774319E+03  0.7818608E-02  0.1170312E+00
         21   -1    0    0  501  502  0.00000000000E+00  0.00000000000E+00  0.36744175054E+03  0.36744175054E+03  0.00000000000E+00 0.  1.
         21   -1    0    0  502  503 -0.00000000000E+00 -0.00000000000E+00 -0.88755068283E+02  0.88755068283E+02  0.00000000000E+00 0.  1.
          6    1    1    2  501    0 -0.42816584220E+02 -0.80506128436E+01  0.18180703794E+03  0.25403911371E+03  0.17200000000E+03 0.  1.
         -6    1    1    2    0  503  0.42816584220E+02  0.80506128436E+01  0.96879644313E+02  0.20215770511E+03  0.17200000000E+03 0.  1.
</event>
<event>
 4    1  0.1259333E+000  0.1774051E+03  0.7818608E-02  0.1170338E+00
         21   -1    0    0  503  502  0.00000000000E+00  0.00000000000E+00  0.11776444639E+02  0.11776444639E+02  0.00000000000E+00 0.  1.
         21   -1    0    0  501  503 -0.00000000000E+00 -0.00000000000E+00 -0.26893964035E+04  0.26893964035E+04  0.00000000000E+00 0.  1.
          6    1    1    2  501    0  0.31971055253E+02  0.29434948618E+02 -0.12317630186E+04  0.12444728597E+04  0.17200000000E+03 0. -1.
         -6    1    1    2    0  502 -0.31971055253E+02 -0.29434948618E+02 -0.14458569402E+04  0.14566999884E+04  0.17200000000E+03 0. -1.
</event>
<event>
 4    1  0.1259333E+000  0.1780446E+03  0.7818608E-02  0.1169709E+00
         21   -1    0    0  503  502  0.00000000000E+00  0.00000000000E+00  0.22751878106E+03  0.22751878106E+03  0.00000000000E+00 0. -1.
         21   -1    0    0  501  503 -0.00000000000E+00 -0.00000000000E+00 -0.14513076066E+03  0.14513076066E+03  0.00000000000E+00 0. -1.
          6    1    1    2  501    0  0.29559645532E+02 -0.35243745499E+02  0.39392064286E+01  0.17808821294E+03  0.17200000000E+03 0. -1.
         -6    1    1    2    0  502 -0.29559645532E+02  0.35243745499E+02  0.78448813975E+02  0.19456132878E+03  0.17200000000E+03 0. -1.
</event>
<event>
 4    1  0.1259333E+000  0.1915557E+03  0.7818608E-02  0.1157066E+00
         21   -1    0    0  501  502  0.00000000000E+00  0.00000000000E+00  0.83703660452E+03  0.83703660452E+03  0.00000000000E+00 0. -1.
         21   -1    0    0  502  503 -0.00000000000E+00 -0.00000000000E+00 -0.55039823018E+02  0.55039823018E+02  0.00000000000E+00 0. -1.
          6    1    1    2  501    0 -0.36287201702E+02  0.76110683238E+02  0.18977081998E+03  0.26964154210E+03  0.17200000000E+03 0.  1.
         -6    1    1    2    0  503  0.36287201702E+02 -0.76110683238E+02  0.59222596151E+03  0.62243488543E+03  0.17200000000E+03 0.  1.
</event>
<event>
 4    1  0.1259333E+000  0.1808441E+03  0.7818608E-02  0.1166989E+00
         21   -1    0    0  503  502  0.00000000000E+00  0.00000000000E+00  0.48993532916E+02  0.48993532916E+02  0.00000000000E+00 0.  1.
         21   -1    0    0  501  503 -0.00000000000E+00 -0.00000000000E+00 -0.68330609682E+03  0.68330609682E+03  0.00000000000E+00 0.  1.
          6    1    1    2  501    0 -0.51408613640E+02  0.21857274566E+02 -0.26151850357E+03  0.31795677964E+03  0.17200000000E+03 0.  1.
         -6    1    1    2    0  502  0.51408613640E+02 -0.21857274566E+02 -0.37279406033E+03  0.41434285009E+03  0.17200000000E+03 0.  1.
</event>
<event>
 4    1  0.1259333E+000  0.1831942E+03  0.7818608E-02  0.1164747E+00
         21   -1    0    0  501  502  0.00000000000E+00  0.00000000000E+00  0.10360229733E+04  0.10360229733E+04  0.00000000000E+00 0.  1.
         21   -1    0    0  502  503 -0.00000000000E+00 -0.00000000000E+00 -0.37846124485E+02  0.37846124485E+02  0.00000000000E+00 0.  1.
          6    1    1    2  501    0  0.16171832428E+02  0.60947353962E+02  0.70289821769E+03  0.72637869776E+03  0.17200000000E+03 0.  1.
         -6    1    1    2    0  503 -0.16171832428E+02 -0.60947353962E+02  0.29527863117E+03  0.34749040008E+03  0.17200000000E+03 0.  1.
</event>
<event>
 4    1  0.1259333E+000  0.1899589E+03  0.7818608E-02  0.1158498E+00
         21   -1    0    0  503  502  0.00000000000E+00  0.00000000000E+00  0.24445292856E+02  0.24445292856E+02  0.00000000000E+00 0.  1.
         21   -1    0    0  501  503 -0.00000000000E+00 -0.00000000000E+00 -0.21512301864E+04  0.21512301864E+04  0.00000000000E+00 0. -1.
          6    1    1    2  501    0  0.50464673764E+02  0.62878385015E+02 -0.45398813240E+03  0.49212762467E+03  0.17200000000E+03 0.  1.
         -6    1    1    2    0  502 -0.50464673764E+02 -0.62878385015E+02 -0.16727967611E+04  0.16835478545E+04  0.17200000000E+03 0. -1.
</event>
<event>
 4    1  0.1259333E+000  0.3521135E+03  0.7818608E-02  0.1061751E+00
         21   -1    0    0  501  502  0.00000000000E+00  0.00000000000E+00  0.45733910852E+03  0.45733910852E+03  0.00000000000E+00 0. -1.
         21   -1    0    0  502  503 -0.00000000000E+00 -0.00000000000E+00 -0.40577124564E+03  0.40577124564E+03  0.00000000000E+00 0.  1.
          6    1    1    2  501    0  0.96305383640E+02  0.29176217695E+03  0.27440374451E+03  0.44640935230E+03  0.17200000000E+03 0. -1.
         -6    1    1    2    0  503 -0.96305383640E+02 -0.29176217695E+03 -0.22283588162E+03  0.41670100187E+03  0.17200000000E+03 0.  1.
</event>
<event>
 4    1  0.1259333E+000  0.1741465E+03  0.7818608E-02  0.1173591E+00
         21   -1    0    0  501  502  0.00000000000E+00  0.00000000000E+00  0.60666240659E+02  0.60666240659E+02  0.00000000000E+00 0. -1.
         21   -1    0    0  502  503 -0.00000000000E+00 -0.00000000000E+00 -0.71490686219E+03  0.71490686219E+03  0.00000000000E+00 0. -1.
          6    1    1    2  501    0 -0.22195497182E+02  0.15823100424E+02 -0.11445586491E+03  0.20839183193E+03  0.17200000000E+03 0. -1.
         -6    1    1    2    0  503  0.22195497182E+02 -0.15823100424E+02 -0.53978475662E+03  0.56718127092E+03  0.17200000000E+03 0. -1.
</event>
<event>
 4    1  0.1259333E+000  0.1758714E+03  0.7818608E-02  0.1171860E+00
         21   -1    0    0  503  502  0.00000000000E+00  0.00000000000E+00  0.25670053207E+02  0.25670053207E+02  0.00000000000E+00 0.  1.
         21   -1    0    0  501  503 -0.00000000000E+00 -0.00000000000E+00 -0.23358948507E+04  0.23358948507E+04  0.00000000000E+00 0.  1.
          6    1    1    2  501    0 -0.16953726055E+02  0.32547288195E+02 -0.33350040494E+03  0.37703219345E+03  0.17200000000E+03 0.  1.
         -6    1    1    2    0  502  0.16953726055E+02 -0.32547288195E+02 -0.19767243925E+04  0.19845327105E+04  0.17200000000E+03 0.  1.
</event>
<event>
 4    1  0.1259333E+000  0.1963531E+03  0.7818608E-02  0.1152853E+00
         21   -1    0    0  503  502  0.00000000000E+00  0.00000000000E+00  0.11368345742E+03  0.11368345742E+03  0.00000000000E+00 0.  1.
         21   -1    0    0  501  503 -0.00000000000E+00 -0.00000000000E+00 -0.38034021352E+03  0.38034021352E+03  0.00000000000E+00 0.  1.
          6    1    1    2  501    0  0.62353623802E+02 -0.71292009443E+02 -0.21462737905E+03  0.29089420216E+03  0.17200000000E+03 0. -1.
         -6    1    1    2    0  502 -0.62353623802E+02  0.71292009443E+02 -0.52029377052E+02  0.20312946878E+03  0.17200000000E+03 0. -1.
</event>
<event>
 4    1  0.1259333E+000  0.1843610E+03  0.7818608E-02  0.1163648E+00
         21   -1    0    0  503  502  0.00000000000E+00  0.00000000000E+00  0.73500922023E+03  0.73500922023E+03  0.00000000000E+00 0.  1.
         21   -1    0    0  501  503 -0.00000000000E+00 -0.00000000000E+00 -0.53972585212E+02  0.53972585212E+02  0.00000000000E+00 0.  1.
          6    1    1    2  501    0  0.30682881727E+02  0.58851797074E+02  0.19122832431E+03  0.26562613815E+03  0.17200000000E+03 0. -1.
         -6    1    1    2    0  502 -0.30682881727E+02 -0.58851797074E+02  0.48980831070E+03  0.52335566729E+03  0.17200000000E+03 0. -1.
</event>
<event>
 4    1  0.1259333E+000  0.1802850E+03  0.7818608E-02  0.1167528E+00
         21   -1    0    0  501  502  0.00000000000E+00  0.00000000000E+00  0.71468469706E+02  0.71468469706E+02  0.00000000000E+00 0. -1.
         21   -1    0    0  502  503 -0.00000000000E+00 -0.00000000000E+00 -0.47677945302E+03  0.47677945302E+03  0.00000000000E+00 0. -1.
          6    1    1    2  501    0 -0.41475705865E+02  0.34618436560E+02 -0.14377640413E+03  0.23059558693E+03  0.17200000000E+03 0.  1.
         -6    1    1    2    0  503  0.41475705865E+02 -0.34618436560E+02 -0.26153457918E+03  0.31765233579E+03  0.17200000000E+03 0.  1.
</event>
<event>
 4    1  0.1259333E+000  0.1794786E+03  0.7818608E-02  0.1168309E+00
         21   -1    0    0  503  502  0.00000000000E+00  0.00000000000E+00  0.62528823731E+02  0.62528823731E+02  0.00000000000E+00 0.  1.
         21   -1    0    0  501  503 -0.00000000000E+00 -0.00000000000E+00 -0.95770383553E+03  0.95770383553E+03  0.00000000000E+00 0.  1.
          6    1    1    2  501    0  0.38989875597E+02 -0.33292000943E+02 -0.79434834317E+03  0.81437206363E+03  0.17200000000E+03 0.  1.
         -6    1    1    2    0  502 -0.38989875597E+02  0.33292000943E+02 -0.10082666863E+03  0.20586059563E+03  0.17200000000E+03 0.  1.
</event>
<event>
 4    1  0.1259333E+000  0.2028405E+03  0.7818608E-02  0.1147364E+00
         21   -1    0    0  503  502  0.00000000000E+00  0.00000000000E+00  0.75624166983E+03  0.75624166983E+03  0.00000000000E+00 0.  1.
         21   -1    0    0  501  503 -0.00000000000E+00 -0.00000000000E+00 -0.54896461761E+02  0.54896461761E+02  0.00000000000E+00 0.  1.
          6    1    1    2  501    0  0.80575625614E+02  0.71188751290E+02  0.38899799685E+03  0.43870686262E+03  0.17200000000E+03 0.  1.
         -6    1    1    2    0  502 -0.80575625614E+02 -0.71188751290E+02  0.31234721121E+03  0.37243126897E+03  0.17200000000E+03 0.  1.
</event>
<event>
 4    1  0.1259333E+000  0.2707270E+03  0.7818608E-02  0.1100864E+00
         21   -1    0    0  501  502  0.00000000000E+00  0.00000000000E+00  0.38797603055E+03  0.38797603055E+03  0.00000000000E+00 0.  1.
         21   -1    0    0  502  503 -0.00000000000E+00 -0.00000000000E+00 -0.18924762292E+03  0.18924762292E+03  0.00000000000E+00 0. -1.
          6    1    1    2  501    0 -0.17505017268E+03  0.11430902758E+03  0.87200200475E+02  0.28442396472E+03  0.17200000000E+03 0.  1.
         -6    1    1    2    0  503  0.17505017268E+03 -0.11430902758E+03  0.11152820716E+03  0.29279968875E+03  0.17200000000E+03 0.  1.
</event>
<event>
 4    1  0.1259333E+000  0.2451783E+03  0.7818608E-02  0.1116390E+00
         21   -1    0    0  501  502  0.00000000000E+00  0.00000000000E+00  0.31802914041E+03  0.31802914041E+03  0.00000000000E+00 0. -1.
         21   -1    0    0  502  503 -0.00000000000E+00 -0.00000000000E+00 -0.18934037632E+03  0.18934037632E+03  0.00000000000E+00 0. -1.
          6    1    1    2  501    0  0.13139847356E+03  0.11516444232E+03  0.74854158649E+02  0.25635044899E+03  0.17200000000E+03 0. -1.
         -6    1    1    2    0  503 -0.13139847356E+03 -0.11516444232E+03  0.53834605441E+02  0.25101906775E+03  0.17200000000E+03 0. -1.
</event>
<event>
 4    1  0.1259333E+000  0.3279222E+03  0.7818608E-02  0.1072060E+00
         21   -1    0    0  501  502  0.00000000000E+00  0.00000000000E+00  0.20658826750E+04  0.20658826750E+04  0.00000000000E+00 0.  1.
         21   -1    0    0  502  503 -0.00000000000E+00 -0.00000000000E+00 -0.52098260162E+02  0.52098260162E+02  0.00000000000E+00 0. -1.
          6    1    1    2  501    0  0.27987837819E+00  0.27919324952E+03  0.10385103882E+04  0.10890531555E+04  0.17200000000E+03 0. -1.
         -6    1    1    2    0  503 -0.27987837819E+00 -0.27919324952E+03  0.97527402661E+03  0.10289277797E+04  0.17200000000E+03 0. -1.
</event>
<event>
 4    1  0.1259333E+000  0.1791392E+03  0.7818608E-02  0.1168639E+00
         21   -1    0    0  501  502  0.00000000000E+00  0.00000000000E+00  0.19986434517E+03  0.19986434517E+03  0.00000000000E+00 0.  1.
         21   -1    0    0  502  503 -0.00000000000E+00 -0.00000000000E+00 -0.20081033525E+03  0.20081033525E+03  0.00000000000E+00 0.  1.
          6    1    1    2  501    0 -0.26900414891E+02 -0.42228242780E+02  0.89215433351E+02  0.20012558646E+03  0.17200000000E+03 0. -1.
         -6    1    1    2    0  503  0.26900414891E+02  0.42228242780E+02 -0.90161423440E+02  0.20054909396E+03  0.17200000000E+03 0. -1.
</event>
<event>
 4    1  0.1259333E+000  0.1816001E+03  0.7818608E-02  0.1166263E+00
         21   -1    0    0  501  502  0.00000000000E+00  0.00000000000E+00  0.24800225366E+03  0.24800225366E+03  0.00000000000E+00 0. -1.
         21   -1    0    0  502  503 -0.00000000000E+00 -0.00000000000E+00 -0.25369924433E+03  0.25369924433E+03  0.00000000000E+00 0. -1.
          6    1    1    2  501    0  0.27200347529E+02  0.51524132537E+02  0.17019268532E+03  0.24888580770E+03  0.17200000000E+03 0. -1.
         -6    1    1    2    0  503 -0.27200347529E+02 -0.51524132537E+02 -0.17588967598E+03  0.25281569029E+03  0.17200000000E+03 0. -1.
</event>
<event>
 4    1  0.1259333E+000  0.1906112E+03  0.7818608E-02  0.1157911E+00
         21   -1    0    0  503  502  0.00000000000E+00  0.00000000000E+00  0.19188367577E+04  0.19188367577E+04  0.00000000000E+00 0. -1.
         21   -1    0    0  501  503 -0.00000000000E+00 -0.00000000000E+00 -0.21170990586E+02  0.21170990586E+02  0.00000000000E+00 0. -1.
          6    1    1    2  501    0 -0.46294339320E+02  0.67863511981E+02  0.63357511666E+03  0.66162682123E+03  0.17200000000E+03 0. -1.
         -6    1    1    2    0  502  0.46294339320E+02 -0.67863511981E+02  0.12640906505E+04  0.12783809271E+04  0.17200000000E+03 0. -1.
</event>
<event>
 4    1  0.1259333E+000  0.1924763E+03  0.7818608E-02  0.1156247E+00
         21   -1    0    0  501  502  0.00000000000E+00  0.00000000000E+00  0.12058105724E+03  0.12058105724E+03  0.00000000000E+00 0. -1.
         21   -1    0    0  502  503 -0.00000000000E+00 -0.00000000000E+00 -0.52773885177E+03  0.52773885177E+03  0.00000000000E+00 0. -1.
          6    1    1    2  501    0  0.81270595768E+02 -0.29295270949E+02  0.59551683439E+01  0.19256839478E+03  0.17200000000E+03 0.  1.
         -6    1    1    2    0  503 -0.81270595768E+02  0.29295270949E+02 -0.41311296287E+03  0.45575151423E+03  0.17200000000E+03 0.  1.
</event>
<event>
 4    1  0.1259333E+000  0.1918657E+03  0.7818608E-02  0.1156789E+00
         21   -1    0    0  501  502  0.00000000000E+00  0.00000000000E+00  0.24328488240E+03  0.24328488240E+03  0.00000000000E+00 0. -1.
         21   -1    0    0  502  503 -0.00000000000E+00 -0.00000000000E+00 -0.19260915294E+03  0.19260915294E+03  0.00000000000E+00 0. -1.
          6    1    1    2  501    0 -0.84766392815E+02  0.65645687029E+01  0.12625419345E+03  0.22967924651E+03  0.17200000000E+03 0. -1.
         -6    1    1    2    0  503  0.84766392815E+02 -0.65645687029E+01 -0.75578463986E+02  0.20621478883E+03  0.17200000000E+03 0. -1.
</event>
<event>
 4    1  0.1259333E+000  0.1806065E+03  0.7818608E-02  0.1167217E+00
         21   -1    0    0  501  502  0.00000000000E+00  0.00000000000E+00  0.19347725895E+03  0.19347725895E+03  0.00000000000E+00 0.  1.
         21   -1    0    0  502  503 -0.00000000000E+00 -0.00000000000E+00 -0.49746122445E+03  0.49746122445E+03  0.00000000000E+00 0.  1.
          6    1    1    2  501    0  0.49159595410E+02  0.24860521255E+02  0.12890133607E+03  0.22188795771E+03  0.17200000000E+03 0.  1.
         -6    1    1    2    0  503 -0.49159595410E+02 -0.24860521255E+02 -0.43288530157E+03  0.46905052569E+03  0.17200000000E+03 0.  1.
</event>
<event>
 4    1  0.1259333E+000  0.2208724E+03  0.7818608E-02  0.1133234E+00
         21   -1    0    0  503  502  0.00000000000E+00  0.00000000000E+00  0.99057573410E+02  0.99057573410E+02  0.00000000000E+00 0. -1.
         21   -1    0    0  501  503 -0.00000000000E+00 -0.00000000000E+00 -0.68579249825E+03  0.68579249825E+03  0.00000000000E+00 0. -1.
          6    1    1    2  501    0  0.90035973012E+02 -0.10532873204E+03 -0.50171187878E+03  0.54817828079E+03  0.17200000000E+03 0. -1.
         -6    1    1    2    0  502 -0.90035973012E+02  0.10532873204E+03 -0.85023046066E+02  0.23667179087E+03  0.17200000000E+03 0. -1.
</event>
<event>
 4    1  0.1259333E+000  0.2050764E+03  0.7818608E-02  0.1145525E+00
         21   -1    0    0  503  502  0.00000000000E+00  0.00000000000E+00  0.60670334599E+03  0.60670334599E+03  0.00000000000E+00 0.  1.
         21   -1    0    0  501  503 -0.00000000000E+00 -0.00000000000E+00 -0.76152457485E+02  0.76152457485E+02  0.00000000000E+00 0.  1.
          6    1    1    2  501    0 -0.14205346898E+02 -0.11077246426E+03  0.36754905768E+03  0.42089029511E+03  0.17200000000E+03 0.  1.
         -6    1    1    2    0  502  0.14205346898E+02  0.11077246426E+03  0.16300183083E+03  0.26196550837E+03  0.17200000000E+03 0.  1.
</event>
<event>
 4    1  0.1259333E+000  0.1815296E+03  0.7818608E-02  0.1166331E+00
         21   -1    0    0  501  502  0.00000000000E+00  0.00000000000E+00  0.69367471326E+03  0.69367471326E+03  0.00000000000E+00 0.  1.
         21   -1    0    0  502  503 -0.00000000000E+00 -0.00000000000E+00 -0.13795563047E+03  0.13795563047E+03  0.00000000000E+00 0.  1.
          6    1    1    2  501    0  0.56794688157E+02 -0.11972709879E+02  0.61455443988E+03  0.64080429303E+03  0.17200000000E+03 0.  1.
         -6    1    1    2    0  503 -0.56794688157E+02  0.11972709879E+02 -0.58835357087E+02  0.19082605071E+03  0.17200000000E+03 0.  1.
</event>
<event>
 4    1  0.1259333E+000  0.2327944E+03  0.7818608E-02  0.1124688E+00
         21   -1    0    0  501  502  0.00000000000E+00  0.00000000000E+00  0.40480402315E+03  0.40480402315E+03  0.00000000000E+00 0.  1.
         21   -1    0    0  502  503 -0.00000000000E+00 -0.00000000000E+00 -0.13583676259E+03  0.13583676259E+03  0.00000000000E+00 0.  1.
          6    1    1    2  501    0  0.80964321881E+01  0.15666420386E+03  0.16696764889E+03  0.28648110018E+03  0.17200000000E+03 0. -1.
         -6    1    1    2    0  503 -0.80964321881E+01 -0.15666420386E+03  0.10199961167E+03  0.25415968556E+03  0.17200000000E+03 0. -1.
</event>
<event>
 4    1  0.1259333E+000  0.2687511E+03  0.7818608E-02  0.1101997E+00
         21   -1    0    0  501  502  0.00000000000E+00  0.00000000000E+00  0.14534630017E+04  0.14534630017E+04  0.00000000000E+00 0. -1.
         21   -1    0    0  502  503 -0.00000000000E+00 -0.00000000000E+00 -0.11646428087E+03  0.11646428087E+03  0.00000000000E+00 0.  1.
          6    1    1    2  501    0 -0.20627903781E+03  0.95970143469E+01  0.12628565994E+04  0.12911366832E+04  0.17200000000E+03 0. -1.
         -6    1    1    2    0  503  0.20627903781E+03 -0.95970143469E+01  0.74142121449E+02  0.27879059937E+03  0.17200000000E+03 0.  1.
</event>
<event>
 4    1  0.1259333E+000  0.2075811E+03  0.7818608E-02  0.1143496E+00
         21   -1    0    0  501  502  0.00000000000E+00  0.00000000000E+00  0.72725445539E+02  0.72725445539E+02  0.00000000000E+00 0. -1.
         21   -1    0    0  502  503 -0.00000000000E+00 -0.00000000000E+00 -0.69383434401E+03  0.69383434401E+03  0.00000000000E+00 0.  1.
          6    1    1    2  501    0  0.10316558068E+03 -0.53504905587E+02 -0.45702959998E+03  0.50196211731E+03  0.17200000000E+03 0.  1.
         -6    1    1    2    0  503 -0.10316558068E+03  0.53504905587E+02 -0.16407929849E+03  0.26459767224E+03  0.17200000000E+03 0. -1.
</event>
<event>
 4    1  0.1259333E+000  0.1745682E+03  0.7818608E-02  0.1173166E+00
         21   -1    0    0  501  502  0.00000000000E+00  0.00000000000E+00  0.23370749535E+03  0.23370749535E+03  0.00000000000E+00 0. -1.
         21   -1    0    0  502  503 -0.00000000000E+00 -0.00000000000E+00 -0.25307646201E+03  0.25307646201E+03  0.00000000000E+00 0. -1.
          6    1    1    2  501    0  0.26489278609E+02 -0.13725518613E+02  0.15977719367E+03  0.23664915669E+03  0.17200000000E+03 0. -1.
         -6    1    1    2    0  503 -0.26489278609E+02  0.13725518613E+02 -0.17914616033E+03  0.25013480067E+03  0.17200000000E+03 0. -1.
</event>
<event>
 4    1  0.1259333E+000  0.2173979E+03  0.7818608E-02  0.1135838E+00
         21   -1    0    0  503  502  0.00000000000E+00  0.00000000000E+00  0.19933748022E+03  0.19933748022E+03  0.00000000000E+00 0.  1.
         21   -1    0    0  501  503 -0.00000000000E+00 -0.00000000000E+00 -0.23731501984E+03  0.23731501984E+03  0.00000000000E+00 0.  1.
          6    1    1    2  501    0 -0.12235591845E+03  0.52027473904E+02 -0.25643410388E+02  0.21890503264E+03  0.17200000000E+03 0.  1.
         -6    1    1    2    0  502  0.12235591845E+03 -0.52027473904E+02 -0.12334129230E+02  0.21774746741E+03  0.17200000000E+03 0.  1.
</event>
<event>
 4    1  0.1259333E+000  0.1954990E+03  0.7818608E-02  0.1153593E+00
         21   -1    0    0  501  502  0.00000000000E+00  0.00000000000E+00  0.38521625179E+03  0.38521625179E+03  0.00000000000E+00 0. -1.
         21   -1    0    0  502  503 -0.00000000000E+00 -0.00000000000E+00 -0.29799940799E+03  0.29799940799E+03  0.00000000000E+00 0.  1.
          6    1    1    2  501    0 -0.26298572020E+02 -0.89130598891E+02  0.32261178369E+03  0.37722439147E+03  0.17200000000E+03 0. -1.
         -6    1    1    2    0  503  0.26298572020E+02  0.89130598891E+02 -0.23539493989E+03  0.30599126830E+03  0.17200000000E+03 0.  1.
</event>
<event>
 4    1  0.1259333E+000  0.1862288E+03  0.7818608E-02  0.1161907E+00
         21   -1    0    0  503  502  0.00000000000E+00  0.00000000000E+00  0.84391444124E+03  0.84391444124E+03  0.00000000000E+00 0.  1.
         21   -1    0    0  501  503 -0.00000000000E+00 -0.00000000000E+00 -0.50394101309E+02  0.50394101309E+02  0.00000000000E+00 0.  1.
          6    1    1    2  501    0  0.68960188664E+02 -0.18483504130E+02  0.20468349041E+03  0.27672455401E+03  0.17200000000E+03 0.  1.
         -6    1    1    2    0  502 -0.68960188664E+02  0.18483504130E+02  0.58883684953E+03  0.61758398854E+03  0.17200000000E+03 0.  1.
</event>
<event>
 4    1  0.1259333E+000  0.2751553E+03  0.7818608E-02  0.1098365E+00
         21   -1    0    0  503  502  0.00000000000E+00  0.00000000000E+00  0.72509790368E+03  0.72509790368E+03  0.00000000000E+00 0.  1.
         21   -1    0    0  501  503 -0.00000000000E+00 -0.00000000000E+00 -0.10628116649E+03  0.10628116649E+03  0.00000000000E+00 0. -1.
          6    1    1    2  501    0 -0.91740347085E+02 -0.19419106102E+03  0.25431256635E+03  0.37468031823E+03  0.17200000000E+03 0. -1.
         -6    1    1    2    0  502  0.91740347085E+02  0.19419106102E+03  0.36450417084E+03  0.45669875194E+03  0.17200000000E+03 0.  1.
</event>
<event>
 4    1  0.1259333E+000  0.2023674E+03  0.7818608E-02  0.1147757E+00
         21   -1    0    0  501  502  0.00000000000E+00  0.00000000000E+00  0.98680164057E+03  0.98680164057E+03  0.00000000000E+00 0.  1.
         21   -1    0    0  502  503 -0.00000000000E+00 -0.00000000000E+00 -0.42575673547E+02  0.42575673547E+02  0.00000000000E+00 0. -1.
          6    1    1    2  501    0  0.44594338653E+02  0.96849832330E+02  0.39031409386E+03  0.43965627134E+03  0.17200000000E+03 0. -1.
         -6    1    1    2    0  503 -0.44594338653E+02 -0.96849832330E+02  0.55391187316E+03  0.58972104278E+03  0.17200000000E+03 0.  1.
</event>
<event>
 4    1  0.1259333E+000  0.2831457E+03  0.7818608E-02  0.1093983E+00
         21   -1    0    0  503  502  0.00000000000E+00  0.00000000000E+00  0.33714278485E+03  0.33714278485E+03  0.00000000000E+00 0. -1.
         21   -1    0    0  501  503 -0.00000000000E+00 -0.00000000000E+00 -0.24470589594E+03  0.24470589594E+03  0.00000000000E+00 0. -1.
          6    1    1    2  501    0 -0.22079935643E+03 -0.42838264124E+02  0.95102666259E+02  0.29869045817E+03  0.17200000000E+03 0. -1.
         -6    1    1    2    0  502  0.22079935643E+03  0.42838264124E+02 -0.26657773436E+01  0.28315822262E+03  0.17200000000E+03 0. -1.
</event>
<event>
 4    1  0.1259333E+000  0.2401963E+03  0.7818608E-02  0.1119662E+00
         21   -1    0    0  503  502  0.00000000000E+00  0.00000000000E+00  0.47487579494E+03  0.47487579494E+03  0.00000000000E+00 0.  1.
         21   -1    0    0  501  503 -0.00000000000E+00 -0.00000000000E+00 -0.13758173127E+03  0.13758173127E+03  0.00000000000E+00 0.  1.
          6    1    1    2  501    0 -0.97163054540E+02 -0.13663676226E+03  0.63929015672E+02  0.24855820850E+03  0.17200000000E+03 0.  1.
         -6    1    1    2    0  502  0.97163054540E+02  0.13663676226E+03  0.27336504799E+03  0.36389931771E+03  0.17200000000E+03 0.  1.
</event>
<event>
 4    1  0.1259333E+000  0.2861263E+03  0.7818608E-02  0.1092389E+00
         21   -1    0    0  503  502  0.00000000000E+00  0.00000000000E+00  0.16363217546E+04  0.16363217546E+04  0.00000000000E+00 0.  1.
         21   -1    0    0  501  503 -0.00000000000E+00 -0.00000000000E+00 -0.57201725566E+02  0.57201725566E+02  0.00000000000E+00 0. -1.
          6    1    1    2  501    0  0.17800205423E+03 -0.14352541166E+03  0.48977413998E+03  0.56722745287E+03  0.17200000000E+03 0. -1.
         -6    1    1    2    0  502 -0.17800205423E+03  0.14352541166E+03  0.10893458891E+04  0.11262960273E+04  0.17200000000E+03 0.  1.
</event>
<event>
 4    1  0.1259333E+000  0.1833009E+03  0.7818608E-02  0.1164646E+00
         21   -1    0    0  503  502  0.00000000000E+00  0.00000000000E+00  0.21080788982E+02  0.21080788982E+02  0.00000000000E+00 0.  1.
         21   -1    0    0  501  503 -0.00000000000E+00 -0.00000000000E+00 -0.16087600945E+04  0.16087600945E+04  0.00000000000E+00 0.  1.
          6    1    1    2  501    0  0.45413549570E+02 -0.44190635218E+02 -0.71533511500E+03  0.73844670050E+03  0.17200000000E+03 0. -1.
         -6    1    1    2    0  502 -0.45413549570E+02  0.44190635218E+02 -0.87234419047E+03  0.89139418294E+03  0.17200000000E+03 0. -1.
</event>
<event>
 4    1  0.1259333E+000  0.2019709E+03  0.7818608E-02  0.1148087E+00
         21   -1    0    0  501  502  0.00000000000E+00  0.00000000000E+00  0.57945268154E+03  0.57945268154E+03  0.00000000000E+00 0.  1.
         21   -1    0    0  502  503 -0.00000000000E+00 -0.00000000000E+00 -0.83448467035E+02  0.83448467035E+02  0.00000000000E+00 0.  1.
          6    1    1    2  501    0 -0.23992726669E+02  0.10311451522E+03  0.37907842138E+03  0.42952613860E+03  0.17200000000E+03 0.  1.
         -6    1    1    2    0  503  0.23992726669E+02 -0.10311451522E+03  0.11692579312E+03  0.23337500997E+03  0.17200000000E+03 0.  1.
</event>
<event>
 4    1  0.1259333E+000  0.1911131E+03  0.7818608E-02  0.1157461E+00
         21   -1    0    0  501  502  0.00000000000E+00  0.00000000000E+00  0.32337513296E+03  0.32337513296E+03  0.00000000000E+00 0. -1.
         21   -1    0    0  502  503 -0.00000000000E+00 -0.00000000000E+00 -0.22615245599E+03  0.22615245599E+03  0.00000000000E+00 0. -1.
          6    1    1    2  501    0  0.26495939299E+02 -0.78982065260E+02  0.24300980071E+03  0.30915686095E+03  0.17200000000E+03 0. -1.
         -6    1    1    2    0  503 -0.26495939299E+02  0.78982065260E+02 -0.14578712374E+03  0.24037072800E+03  0.17200000000E+03 0. -1.
</event>
