<event>
 4    1 -0.7151877E-004  0.1824876E+03  0.7818608E-02  0.1165417E+00
         -5   -1    0    0    0  501 -0.00000000000E+00  0.00000000000E+00  0.97605831001E+02  0.97718924705E+02  0.47000000000E+01 0.  1.
          5   -1    0    0  501    0  0.00000000000E+00 -0.00000000000E+00 -0.48883825377E+03  0.48886084763E+03  0.47000000000E+01 0. -1.
          6    1    1    2  502    0  0.55027301137E+02  0.26262585663E+02 -0.35696008488E+03  0.40090177035E+03  0.17200000000E+03 0. -1.
         -6    1    1    2    0  502 -0.55027301137E+02 -0.26262585663E+02 -0.34272337889E+02  0.18567800198E+03  0.17200000000E+03 0.  1.
</event>
<event>
 4    1 -0.7151877E-004  0.1969648E+03  0.7818608E-02  0.1152325E+00
         -5   -1    0    0    0  501 -0.00000000000E+00  0.00000000000E+00  0.28011520680E+03  0.28015463423E+03  0.47000000000E+01 0.  1.
          5   -1    0    0  501    0  0.00000000000E+00 -0.00000000000E+00 -0.21174860976E+03  0.21180076425E+03  0.47000000000E+01 0. -1.
          6    1    1    2  502    0  0.13925358301E+02  0.94958940202E+02 -0.11054379327E+03  0.22586510611E+03  0.17200000000E+03 0. -1.
         -6    1    1    2    0  502 -0.13925358301E+02 -0.94958940202E+02  0.17891039031E+03  0.26609029236E+03  0.17200000000E+03 0.  1.
</event>
<event>
 4    1 -0.7151877E-004  0.2213768E+03  0.7818608E-02  0.1132861E+00
          5   -1    0    0  501    0  0.00000000000E+00  0.00000000000E+00  0.70547323193E+03  0.70548888792E+03  0.47000000000E+01 0. -1.
         -5   -1    0    0    0  501 -0.00000000000E+00 -0.00000000000E+00 -0.18713386916E+03  0.18719288177E+03  0.47000000000E+01 0.  1.
          6    1    1    2  502    0  0.52794911561E+02 -0.12898204695E+03  0.61312500761E+03  0.65186650940E+03  0.17200000000E+03 0. -1.
         -6    1    1    2    0  502 -0.52794911561E+02  0.12898204695E+03 -0.94785644835E+02  0.24081526029E+03  0.17200000000E+03 0.  1.
</event>
<event>
 4    1 -0.7151877E-004  0.2000654E+03  0.7818608E-02  0.1149684E+00
         -5   -1    0    0    0  501 -0.00000000000E+00  0.00000000000E+00  0.83699391865E+03  0.83700711458E+03  0.47000000000E+01 0.  1.
          5   -1    0    0  501    0  0.00000000000E+00 -0.00000000000E+00 -0.28068866342E+03  0.28072801031E+03  0.47000000000E+01 0. -1.
          6    1    1    2  502    0  0.99882803965E+02 -0.21577093626E+02 -0.23089256880E+03  0.30551190455E+03  0.17200000000E+03 0. -1.
         -6    1    1    2    0  502 -0.99882803965E+02  0.21577093626E+02  0.78719782403E+03  0.81222322034E+03  0.17200000000E+03 0.  1.
</event>
<event>
 4    1 -0.7151877E-004  0.2129027E+03  0.7818608E-02  0.1139288E+00
          5   -1    0    0  501    0  0.00000000000E+00  0.00000000000E+00  0.82566132296E+03  0.82567470001E+03  0.47000000000E+01 0. -1.
         -5   -1    0    0    0  501 -0.00000000000E+00 -0.00000000000E+00 -0.12977124058E+03  0.12985632400E+03  0.47000000000E+01 0.  1.
          6    1    1    2  502    0  0.10163109816E+03 -0.73584571992E+02  0.71090380342E+03  0.74209958029E+03  0.17200000000E+03 0. -1.
         -6    1    1    2    0  502 -0.10163109816E+03  0.73584571992E+02 -0.15013721041E+02  0.21343144372E+03  0.17200000000E+03 0.  1.
</event>
<event>
 4    1 -0.7151877E-004  0.2029498E+03  0.7818608E-02  0.1147274E+00
         -5   -1    0    0    0  501 -0.00000000000E+00  0.00000000000E+00  0.51805461496E+03  0.51807593467E+03  0.47000000000E+01 0.  1.
          5   -1    0    0  501    0  0.00000000000E+00 -0.00000000000E+00 -0.26986165250E+03  0.26990257778E+03  0.47000000000E+01 0. -1.
          6    1    1    2  502    0 -0.65849941282E+02 -0.85254935802E+02 -0.20681528874E+03  0.28976056064E+03  0.17200000000E+03 0. -1.
         -6    1    1    2    0  502  0.65849941282E+02  0.85254935802E+02  0.45500825120E+03  0.49821795181E+03  0.17200000000E+03 0.  1.
</event>
<event>
 4    1 -0.7151877E-004  0.1859524E+03  0.7818608E-02  0.1162163E+00
         -5   -1    0    0    0  501 -0.00000000000E+00  0.00000000000E+00  0.18659560480E+03  0.18665478759E+03  0.47000000000E+01 0.  1.
          5   -1    0    0  501    0  0.00000000000E+00 -0.00000000000E+00 -0.37110735803E+03  0.37113711911E+03  0.47000000000E+01 0. -1.
          6    1    1    2  502    0  0.20979655913E+02  0.67484554065E+02 -0.28962898651E+03  0.34418492243E+03  0.17200000000E+03 0. -1.
         -6    1    1    2    0  502 -0.20979655913E+02 -0.67484554065E+02  0.10511723328E+03  0.21360698428E+03  0.17200000000E+03 0.  1.
</event>
<event>
 4    1 -0.7151877E-004  0.2481618E+03  0.7818608E-02  0.1114472E+00
         -5   -1    0    0    0  501 -0.00000000000E+00  0.00000000000E+00  0.55732207708E+03  0.55734189471E+03  0.47000000000E+01 0.  1.
          5   -1    0    0  501    0  0.00000000000E+00 -0.00000000000E+00 -0.12804484627E+03  0.12813107608E+03  0.47000000000E+01 0. -1.
          6    1    1    2  502    0 -0.23775374204E+02 -0.17729925965E+03  0.87568172389E+02  0.26315866071E+03  0.17200000000E+03 0. -1.
         -6    1    1    2    0  502  0.23775374204E+02  0.17729925965E+03  0.34170905842E+03  0.42231431008E+03  0.17200000000E+03 0.  1.
</event>
<event>
 4    1 -0.7151877E-004  0.1954087E+03  0.7818608E-02  0.1153672E+00
         -5   -1    0    0    0  501 -0.00000000000E+00  0.00000000000E+00  0.39309889867E+03  0.39312699492E+03  0.47000000000E+01 0.  1.
          5   -1    0    0  501    0  0.00000000000E+00 -0.00000000000E+00 -0.15213454361E+03  0.15220712650E+03  0.47000000000E+01 0. -1.
          6    1    1    2  502    0  0.25867509580E+02 -0.89058602039E+02 -0.43525861017E+02  0.20019756049E+03  0.17200000000E+03 0. -1.
         -6    1    1    2    0  502 -0.25867509580E+02  0.89058602039E+02  0.28449021608E+03  0.34513656093E+03  0.17200000000E+03 0.  1.
</event>
<event>
 4    1 -0.7151877E-004  0.1792951E+03  0.7818608E-02  0.1168487E+00
         -5   -1    0    0    0  501 -0.00000000000E+00  0.00000000000E+00  0.37880760838E+03  0.37883676454E+03  0.47000000000E+01 0.  1.
          5   -1    0    0  501    0  0.00000000000E+00 -0.00000000000E+00 -0.11003344019E+03  0.11013377302E+03  0.47000000000E+01 0. -1.
          6    1    1    2  502    0 -0.34844336515E+02  0.36723308314E+02  0.17304826337E+02  0.18012824924E+03  0.17200000000E+03 0. -1.
         -6    1    1    2    0  502  0.34844336515E+02 -0.36723308314E+02  0.25146934186E+03  0.30884228832E+03  0.17200000000E+03 0.  1.
</event>
<event>
 4    1 -0.7151877E-004  0.3481171E+03  0.7818608E-02  0.1063391E+00
         -5   -1    0    0    0  501 -0.00000000000E+00  0.00000000000E+00  0.25756144253E+03  0.25760432193E+03  0.47000000000E+01 0.  1.
          5   -1    0    0  501    0  0.00000000000E+00 -0.00000000000E+00 -0.85845205569E+03  0.85846492177E+03  0.47000000000E+01 0. -1.
          6    1    1    2  502    0  0.30144282769E+03 -0.27086963573E+02 -0.67561094964E+03  0.76002344518E+03  0.17200000000E+03 0. -1.
         -6    1    1    2    0  502 -0.30144282769E+03  0.27086963573E+02  0.74720336474E+02  0.35604579852E+03  0.17200000000E+03 0.  1.
</event>
<event>
 4    1 -0.7151877E-004  0.2914103E+03  0.7818608E-02  0.1089615E+00
         -5   -1    0    0    0  501 -0.00000000000E+00  0.00000000000E+00  0.41425629109E+03  0.41428295247E+03  0.47000000000E+01 0.  1.
          5   -1    0    0  501    0  0.00000000000E+00 -0.00000000000E+00 -0.40744270292E+03  0.40746981013E+03  0.47000000000E+01 0. -1.
          6    1    1    2  502    0  0.11609269392E+03  0.20459331850E+03 -0.28623716417E+03  0.40847478956E+03  0.17200000000E+03 0. -1.
         -6    1    1    2    0  502 -0.11609269392E+03 -0.20459331850E+03  0.29305075234E+03  0.41327797304E+03  0.17200000000E+03 0.  1.
</event>
<event>
 4    1 -0.7151877E-004  0.1832476E+03  0.7818608E-02  0.1164696E+00
          5   -1    0    0  501    0  0.00000000000E+00  0.00000000000E+00  0.30081698385E+03  0.30085369828E+03  0.47000000000E+01 0. -1.
         -5   -1    0    0    0  501 -0.00000000000E+00 -0.00000000000E+00 -0.26939426148E+03  0.26943525775E+03  0.47000000000E+01 0.  1.
          6    1    1    2  502    0 -0.25084980787E+02  0.58020976189E+02  0.23394386557E+03  0.29716901281E+03  0.17200000000E+03 0. -1.
         -6    1    1    2    0  502  0.25084980787E+02 -0.58020976189E+02 -0.20252114320E+03  0.27311994322E+03  0.17200000000E+03 0.  1.
</event>
<event>
 4    1 -0.7151877E-004  0.2427559E+03  0.7818608E-02  0.1117970E+00
          5   -1    0    0  501    0  0.00000000000E+00  0.00000000000E+00  0.62137054905E+02  0.62314553615E+02  0.47000000000E+01 0. -1.
         -5   -1    0    0    0  501 -0.00000000000E+00 -0.00000000000E+00 -0.95072851658E+03  0.95074013391E+03  0.47000000000E+01 0.  1.
          6    1    1    2  502    0 -0.16163197765E+03  0.56758701277E+02 -0.41198236347E+03  0.47818397524E+03  0.17200000000E+03 0. -1.
         -6    1    1    2    0  502  0.16163197765E+03 -0.56758701277E+02 -0.47660909820E+03  0.53487071229E+03  0.17200000000E+03 0.  1.
</event>
<event>
 4    1 -0.7151877E-004  0.1941937E+03  0.7818608E-02  0.1154732E+00
          5   -1    0    0  501    0  0.00000000000E+00  0.00000000000E+00  0.36468272577E+02  0.36769891280E+02  0.47000000000E+01 0. -1.
         -5   -1    0    0    0  501 -0.00000000000E+00 -0.00000000000E+00 -0.16784578366E+04  0.16784644171E+04  0.47000000000E+01 0.  1.
          6    1    1    2  502    0 -0.10431779357E+02 -0.89545278058E+02 -0.28778153241E+03  0.34717342819E+03  0.17200000000E+03 0. -1.
         -6    1    1    2    0  502  0.10431779357E+02  0.89545278058E+02 -0.13542080316E+04  0.13680608802E+04  0.17200000000E+03 0.  1.
</event>
<event>
 4    1 -0.7151877E-004  0.1741942E+03  0.7818608E-02  0.1173543E+00
         -5   -1    0    0    0  501 -0.00000000000E+00  0.00000000000E+00  0.58472335462E+02  0.58660924084E+02  0.47000000000E+01 0.  1.
          5   -1    0    0  501    0  0.00000000000E+00 -0.00000000000E+00 -0.62121160052E+03  0.62122938003E+03  0.47000000000E+01 0. -1.
          6    1    1    2  502    0  0.16985448400E+01 -0.27509042705E+02 -0.41997496406E+03  0.45466757409E+03  0.17200000000E+03 0. -1.
         -6    1    1    2    0  502 -0.16985448400E+01  0.27509042705E+02 -0.14276430099E+03  0.22522273003E+03  0.17200000000E+03 0.  1.
</event>
<event>
 4    1 -0.7151877E-004  0.1758956E+03  0.7818608E-02  0.1171835E+00
          5   -1    0    0  501    0  0.00000000000E+00  0.00000000000E+00  0.16495083431E+04  0.16495150390E+04  0.47000000000E+01 0. -1.
         -5   -1    0    0    0  501 -0.00000000000E+00 -0.00000000000E+00 -0.31050019609E+02  0.31403721399E+02  0.47000000000E+01 0.  1.
          6    1    1    2  502    0  0.23835190054E+02  0.28055963990E+02  0.13404317842E+04  0.13519233046E+04  0.17200000000E+03 0. -1.
         -6    1    1    2    0  502 -0.23835190054E+02 -0.28055963990E+02  0.27802653923E+03  0.32899545577E+03  0.17200000000E+03 0.  1.
</event>
<event>
 4    1 -0.7151877E-004  0.4069691E+03  0.7818608E-02  0.1041393E+00
          5   -1    0    0  501    0  0.00000000000E+00  0.00000000000E+00  0.18447733020E+03  0.18453719234E+03  0.47000000000E+01 0. -1.
         -5   -1    0    0    0  501 -0.00000000000E+00 -0.00000000000E+00 -0.97140069610E+03  0.97141206621E+03  0.47000000000E+01 0.  1.
          6    1    1    2  502    0  0.41123344179E+01  0.36881282246E+03 -0.23414653224E+03  0.46951933705E+03  0.17200000000E+03 0. -1.
         -6    1    1    2    0  502 -0.41123344179E+01 -0.36881282246E+03 -0.55277683366E+03  0.68642992150E+03  0.17200000000E+03 0.  1.
</event>
<event>
 4    1 -0.7151877E-004  0.2640890E+03  0.7818608E-02  0.1104711E+00
          5   -1    0    0  501    0  0.00000000000E+00  0.00000000000E+00  0.24033773994E+03  0.24038369171E+03  0.47000000000E+01 0. -1.
         -5   -1    0    0    0  501 -0.00000000000E+00 -0.00000000000E+00 -0.63899738217E+03  0.63901466682E+03  0.47000000000E+01 0.  1.
          6    1    1    2  502    0  0.10909316587E+03  0.16810018540E+03  0.12555786193E+03  0.29241711280E+03  0.17200000000E+03 0. -1.
         -6    1    1    2    0  502 -0.10909316587E+03 -0.16810018540E+03 -0.52421750415E+03  0.58698124572E+03  0.17200000000E+03 0.  1.
</event>
<event>
 4    1 -0.7151877E-004  0.1765684E+03  0.7818608E-02  0.1171166E+00
         -5   -1    0    0    0  501 -0.00000000000E+00  0.00000000000E+00  0.26482257317E+02  0.26896095490E+02  0.47000000000E+01 0.  1.
          5   -1    0    0  501    0  0.00000000000E+00 -0.00000000000E+00 -0.15503205909E+04  0.15503277153E+04  0.47000000000E+01 0. -1.
          6    1    1    2  502    0  0.24253610732E+02 -0.31688795644E+02 -0.11536352140E+04  0.11670692458E+04  0.17200000000E+03 0. -1.
         -6    1    1    2    0  502 -0.24253610732E+02  0.31688795644E+02 -0.37020311958E+03  0.41015456495E+03  0.17200000000E+03 0.  1.
</event>
<event>
 4    1 -0.7151877E-004  0.1836144E+03  0.7818608E-02  0.1164350E+00
          5   -1    0    0  501    0  0.00000000000E+00  0.00000000000E+00  0.58468971216E+02  0.58657570655E+02  0.47000000000E+01 0. -1.
         -5   -1    0    0    0  501 -0.00000000000E+00 -0.00000000000E+00 -0.57708146477E+03  0.57710060387E+03  0.47000000000E+01 0.  1.
          6    1    1    2  502    0 -0.74050040084E+01  0.63838855373E+02 -0.27599215454E+03  0.33149042657E+03  0.17200000000E+03 0.  1.
         -6    1    1    2    0  502  0.74050040084E+01 -0.63838855373E+02 -0.24262033901E+03  0.30426774795E+03  0.17200000000E+03 0.  1.
</event>
<event>
 4    1 -0.7151877E-004  0.2046107E+03  0.7818608E-02  0.1145906E+00
         -5   -1    0    0    0  501 -0.00000000000E+00  0.00000000000E+00  0.63009731964E+03  0.63011484843E+03  0.47000000000E+01 0.  1.
          5   -1    0    0  501    0  0.00000000000E+00 -0.00000000000E+00 -0.16420800329E+03  0.16427525177E+03  0.47000000000E+01 0. -1.
          6    1    1    2  502    0 -0.11056815362E+03 -0.74973156287E+01 -0.73566640097E+02  0.21743407477E+03  0.17200000000E+03 0. -1.
         -6    1    1    2    0  502  0.11056815362E+03  0.74973156287E+01  0.53945595645E+03  0.57695602543E+03  0.17200000000E+03 0.  1.
</event>
<event>
 4    1 -0.7151877E-004  0.2560276E+03  0.7818608E-02  0.1109554E+00
          5   -1    0    0  501    0  0.00000000000E+00  0.00000000000E+00  0.93011125656E+03  0.93012313140E+03  0.47000000000E+01 0. -1.
         -5   -1    0    0    0  501 -0.00000000000E+00 -0.00000000000E+00 -0.21760213361E+03  0.21765288546E+03  0.47000000000E+01 0.  1.
          6    1    1    2  502    0 -0.23688799341E+02 -0.18816208963E+03  0.82816498637E+03  0.86683757177E+03  0.17200000000E+03 0. -1.
         -6    1    1    2    0  502  0.23688799341E+02  0.18816208963E+03 -0.11565586342E+03  0.28093844510E+03  0.17200000000E+03 0.  1.
</event>
<event>
 4    1 -0.7151877E-004  0.2800365E+03  0.7818608E-02  0.1095669E+00
          5   -1    0    0  501    0  0.00000000000E+00  0.00000000000E+00  0.73464271084E+03  0.73465774521E+03  0.47000000000E+01 0. -1.
         -5   -1    0    0    0  501 -0.00000000000E+00 -0.00000000000E+00 -0.38429052771E+03  0.38431926791E+03  0.47000000000E+01 0.  1.
          6    1    1    2  502    0  0.18047364274E+03 -0.12753705460E+03  0.65065868825E+03  0.70836231168E+03  0.17200000000E+03 0. -1.
         -6    1    1    2    0  502 -0.18047364274E+03  0.12753705460E+03 -0.30030650512E+03  0.41061470144E+03  0.17200000000E+03 0.  1.
</event>
<event>
 4    1 -0.7151877E-004  0.1833090E+03  0.7818608E-02  0.1164638E+00
          5   -1    0    0  501    0  0.00000000000E+00  0.00000000000E+00  0.38412066187E+03  0.38414941478E+03  0.47000000000E+01 0. -1.
         -5   -1    0    0    0  501 -0.00000000000E+00 -0.00000000000E+00 -0.11044192430E+03  0.11054188637E+03  0.47000000000E+01 0.  1.
          6    1    1    2  502    0 -0.15764725834E+02 -0.61397648704E+02  0.24978709123E+03  0.30983187182E+03  0.17200000000E+03 0. -1.
         -6    1    1    2    0  502  0.15764725834E+02  0.61397648704E+02  0.23891646338E+02  0.18485942933E+03  0.17200000000E+03 0.  1.
</event>
<event>
 4    1 -0.7151877E-004  0.1794521E+03  0.7818608E-02  0.1168334E+00
          5   -1    0    0  501    0  0.00000000000E+00  0.00000000000E+00  0.50205550965E+03  0.50207750872E+03  0.47000000000E+01 0. -1.
         -5   -1    0    0    0  501 -0.00000000000E+00 -0.00000000000E+00 -0.64080971311E+02  0.64253100191E+02  0.47000000000E+01 0.  1.
          6    1    1    2  502    0 -0.50405813664E+02 -0.88491314212E+01  0.22673276666E+03  0.28915532272E+03  0.17200000000E+03 0.  1.
         -6    1    1    2    0  502  0.50405813664E+02  0.88491314212E+01  0.21124177167E+03  0.27717528619E+03  0.17200000000E+03 0.  1.
</event>
<event>
 4    1 -0.7151877E-004  0.1754504E+03  0.7818608E-02  0.1172280E+00
          5   -1    0    0  501    0  0.00000000000E+00  0.00000000000E+00  0.62691361681E+02  0.62867295388E+02  0.47000000000E+01 0. -1.
         -5   -1    0    0    0  501 -0.00000000000E+00 -0.00000000000E+00 -0.70739352969E+03  0.70740914317E+03  0.47000000000E+01 0.  1.
          6    1    1    2  502    0 -0.34100614864E+02  0.59992051352E+01 -0.10894696136E+03  0.20652429103E+03  0.17200000000E+03 0. -1.
         -6    1    1    2    0  502  0.34100614864E+02 -0.59992051352E+01 -0.53575520665E+03  0.56375214753E+03  0.17200000000E+03 0.  1.
</event>
<event>
 4    1 -0.7151877E-004  0.1909771E+03  0.7818608E-02  0.1157583E+00
         -5   -1    0    0    0  501 -0.00000000000E+00  0.00000000000E+00  0.83776662110E+03  0.83777980486E+03  0.47000000000E+01 0.  1.
          5   -1    0    0  501    0  0.00000000000E+00 -0.00000000000E+00 -0.14911913404E+03  0.14919318395E+03  0.47000000000E+01 0. -1.
          6    1    1    2  502    0  0.72276904218E+02  0.40795790895E+02 -0.70953912561E+02  0.20373194434E+03  0.17200000000E+03 0. -1.
         -6    1    1    2    0  502 -0.72276904218E+02 -0.40795790895E+02  0.75960139962E+03  0.78324104447E+03  0.17200000000E+03 0.  1.
</event>
<event>
 4    1 -0.7151877E-004  0.2078109E+03  0.7818608E-02  0.1143311E+00
         -5   -1    0    0    0  501 -0.00000000000E+00  0.00000000000E+00  0.16287476143E+03  0.16294256016E+03  0.47000000000E+01 0.  1.
          5   -1    0    0  501    0  0.00000000000E+00 -0.00000000000E+00 -0.37471885948E+03  0.37474833375E+03  0.47000000000E+01 0. -1.
          6    1    1    2  502    0  0.77588053614E+02 -0.87071583492E+02 -0.25137718327E+03  0.32615311586E+03  0.17200000000E+03 0. -1.
         -6    1    1    2    0  502 -0.77588053614E+02  0.87071583492E+02  0.39533085229E+02  0.21153777805E+03  0.17200000000E+03 0.  1.
</event>
<event>
 4    1 -0.7151877E-004  0.2494312E+03  0.7818608E-02  0.1113665E+00
          5   -1    0    0  501    0  0.00000000000E+00  0.00000000000E+00  0.10681298386E+04  0.10681401790E+04  0.47000000000E+01 0. -1.
         -5   -1    0    0    0  501 -0.00000000000E+00 -0.00000000000E+00 -0.12090113739E+03  0.12099245853E+03  0.47000000000E+01 0.  1.
          6    1    1    2  502    0  0.14584730450E+03 -0.10658554585E+03  0.90172162269E+03  0.93558420233E+03  0.17200000000E+03 0. -1.
         -6    1    1    2    0  502 -0.14584730450E+03  0.10658554585E+03  0.45507078494E+02  0.25354843523E+03  0.17200000000E+03 0.  1.
</event>
<event>
 4    1 -0.7151877E-004  0.2010517E+03  0.7818608E-02  0.1148855E+00
          5   -1    0    0  501    0  0.00000000000E+00  0.00000000000E+00  0.58530945675E+03  0.58532832681E+03  0.47000000000E+01 0. -1.
         -5   -1    0    0    0  501 -0.00000000000E+00 -0.00000000000E+00 -0.22006630219E+03  0.22011648589E+03  0.47000000000E+01 0.  1.
          6    1    1    2  502    0 -0.15411278337E+02  0.10295766877E+03  0.51623783757E+03  0.55400658299E+03  0.17200000000E+03 0. -1.
         -6    1    1    2    0  502  0.15411278337E+02 -0.10295766877E+03 -0.15099468301E+03  0.25143822970E+03  0.17200000000E+03 0.  1.
</event>
<event>
 4    1 -0.7151877E-004  0.3088899E+03  0.7818608E-02  0.1080879E+00
          5   -1    0    0  501    0  0.00000000000E+00  0.00000000000E+00  0.11122688067E+03  0.11132613792E+03  0.47000000000E+01 0. -1.
         -5   -1    0    0    0  501 -0.00000000000E+00 -0.00000000000E+00 -0.88665144083E+03  0.88666389772E+03  0.47000000000E+01 0.  1.
          6    1    1    2  502    0 -0.13510529371E+03 -0.21811810371E+03 -0.29698205375E+03  0.42849887725E+03  0.17200000000E+03 0. -1.
         -6    1    1    2    0  502  0.13510529371E+03  0.21811810371E+03 -0.47844250640E+03  0.56949115839E+03  0.17200000000E+03 0.  1.
</event>
<event>
 4    1 -0.7151877E-004  0.2310297E+03  0.7818608E-02  0.1125917E+00
          5   -1    0    0  501    0  0.00000000000E+00  0.00000000000E+00  0.63230770382E+02  0.63405207382E+02  0.47000000000E+01 0. -1.
         -5   -1    0    0    0  501 -0.00000000000E+00 -0.00000000000E+00 -0.87416194732E+03  0.87417458218E+03  0.47000000000E+01 0.  1.
          6    1    1    2  502    0 -0.15405977389E+03 -0.75030996204E+01 -0.31665533499E+03  0.39197616205E+03  0.17200000000E+03 0. -1.
         -6    1    1    2    0  502  0.15405977389E+03  0.75030996204E+01 -0.49427584194E+03  0.54560362752E+03  0.17200000000E+03 0.  1.
</event>
<event>
 4    1 -0.7151877E-004  0.3349768E+03  0.7818608E-02  0.1068956E+00
         -5   -1    0    0    0  501 -0.00000000000E+00  0.00000000000E+00  0.38566323953E+03  0.38569187745E+03  0.47000000000E+01 0.  1.
          5   -1    0    0  501    0  0.00000000000E+00 -0.00000000000E+00 -0.44652121385E+03  0.44654594883E+03  0.47000000000E+01 0. -1.
          6    1    1    2  502    0 -0.23941216611E+03 -0.15908269545E+03 -0.27607550015E+03  0.43408198656E+03  0.17200000000E+03 0. -1.
         -6    1    1    2    0  502  0.23941216611E+03  0.15908269545E+03  0.21521752584E+03  0.39815583971E+03  0.17200000000E+03 0.  1.
</event>
<event>
 4    1 -0.7151877E-004  0.2483613E+03  0.7818608E-02  0.1114345E+00
         -5   -1    0    0    0  501 -0.00000000000E+00  0.00000000000E+00  0.12851294815E+04  0.12851380759E+04  0.47000000000E+01 0.  1.
          5   -1    0    0  501    0  0.00000000000E+00 -0.00000000000E+00 -0.12969240763E+03  0.12977754273E+03  0.47000000000E+01 0. -1.
          6    1    1    2  502    0  0.17911832173E+03  0.39929166360E+01  0.16165421528E+02  0.24888679639E+03  0.17200000000E+03 0. -1.
         -6    1    1    2    0  502 -0.17911832173E+03 -0.39929166360E+01  0.11392716523E+04  0.11660288223E+04  0.17200000000E+03 0.  1.
</event>
<event>
 4    1 -0.7151877E-004  0.2110271E+03  0.7818608E-02  0.1140755E+00
         -5   -1    0    0    0  501 -0.00000000000E+00  0.00000000000E+00  0.17735264632E+03  0.17741491245E+03  0.47000000000E+01 0.  1.
          5   -1    0    0  501    0  0.00000000000E+00 -0.00000000000E+00 -0.39518445963E+03  0.39521240762E+03  0.47000000000E+01 0. -1.
          6    1    1    2  502    0 -0.88314042509E+02  0.84552053276E+02 -0.28185656624E+03  0.35210160998E+03  0.17200000000E+03 0. -1.
         -6    1    1    2    0  502  0.88314042509E+02 -0.84552053276E+02  0.64024752936E+02  0.22052571008E+03  0.17200000000E+03 0.  1.
</event>
<event>
 4    1 -0.7151877E-004  0.1777650E+03  0.7818608E-02  0.1169984E+00
          5   -1    0    0  501    0  0.00000000000E+00  0.00000000000E+00  0.76623371446E+02  0.76767382733E+02  0.47000000000E+01 0. -1.
         -5   -1    0    0    0  501 -0.00000000000E+00 -0.00000000000E+00 -0.10330487421E+04  0.10330594337E+04  0.47000000000E+01 0.  1.
          6    1    1    2  502    0 -0.44139023060E+02  0.82549123504E+01 -0.47943928200E+02  0.18411685742E+03  0.17200000000E+03 0. -1.
         -6    1    1    2    0  502  0.44139023060E+02 -0.82549123504E+01 -0.90848144249E+03  0.92570995905E+03  0.17200000000E+03 0.  1.
</event>
<event>
 4    1 -0.7151877E-004  0.1765099E+03  0.7818608E-02  0.1171224E+00
         -5   -1    0    0    0  501 -0.00000000000E+00  0.00000000000E+00  0.10414755555E+03  0.10425355307E+03  0.47000000000E+01 0.  1.
          5   -1    0    0  501    0  0.00000000000E+00 -0.00000000000E+00 -0.12968874725E+04  0.12968959890E+04  0.47000000000E+01 0. -1.
          6    1    1    2  502    0 -0.38749661354E+02  0.83781625376E+01 -0.12109099567E+04  0.12237069310E+04  0.17200000000E+03 0. -1.
         -6    1    1    2    0  502  0.38749661354E+02 -0.83781625376E+01  0.18170039760E+02  0.17744261103E+03  0.17200000000E+03 0.  1.
</event>
<event>
 4    1 -0.7151877E-004  0.1816046E+03  0.7818608E-02  0.1166259E+00
          5   -1    0    0  501    0  0.00000000000E+00  0.00000000000E+00  0.51726323987E+03  0.51728459219E+03  0.47000000000E+01 0. -1.
         -5   -1    0    0    0  501 -0.00000000000E+00 -0.00000000000E+00 -0.93044292506E+02  0.93162923783E+02  0.47000000000E+01 0.  1.
          6    1    1    2  502    0  0.37598540375E+02 -0.44526290948E+02  0.38351165929E+03  0.42433646277E+03  0.17200000000E+03 0. -1.
         -6    1    1    2    0  502 -0.37598540375E+02  0.44526290948E+02  0.40707288075E+02  0.18611105321E+03  0.17200000000E+03 0.  1.
</event>
<event>
 4    1 -0.7151877E-004  0.1896283E+03  0.7818608E-02  0.1158797E+00
         -5   -1    0    0    0  501 -0.00000000000E+00  0.00000000000E+00  0.20982117381E+03  0.20987380727E+03  0.47000000000E+01 0.  1.
          5   -1    0    0  501    0  0.00000000000E+00 -0.00000000000E+00 -0.52081167901E+03  0.52083288586E+03  0.47000000000E+01 0. -1.
          6    1    1    2  502    0 -0.40125935512E+02  0.69027507005E+02 -0.45477748760E+03  0.49272857706E+03  0.17200000000E+03 0. -1.
         -6    1    1    2    0  502  0.40125935512E+02 -0.69027507005E+02  0.14378698239E+03  0.23797811607E+03  0.17200000000E+03 0.  1.
</event>
<event>
 4    1 -0.7151877E-004  0.1740387E+03  0.7818608E-02  0.1173700E+00
          5   -1    0    0  501    0  0.00000000000E+00  0.00000000000E+00  0.49062006153E+03  0.49064257334E+03  0.47000000000E+01 0. -1.
         -5   -1    0    0    0  501 -0.00000000000E+00 -0.00000000000E+00 -0.30119967564E+03  0.30123634343E+03  0.47000000000E+01 0.  1.
          6    1    1    2  502    0  0.16087490143E+02  0.21134403498E+02  0.44775450182E+03  0.48038897182E+03  0.17200000000E+03 0. -1.
         -6    1    1    2    0  502 -0.16087490143E+02 -0.21134403498E+02 -0.25833411593E+03  0.31148994495E+03  0.17200000000E+03 0.  1.
</event>
<event>
 4    1 -0.7151877E-004  0.2656075E+03  0.7818608E-02  0.1103820E+00
          5   -1    0    0  501    0  0.00000000000E+00  0.00000000000E+00  0.80188070644E+03  0.80189448019E+03  0.47000000000E+01 0. -1.
         -5   -1    0    0    0  501 -0.00000000000E+00 -0.00000000000E+00 -0.87954818363E+02  0.88080304684E+02  0.47000000000E+01 0.  1.
          6    1    1    2  502    0  0.19507428776E+03 -0.53938383035E+02  0.34586481971E+03  0.43608462530E+03  0.17200000000E+03 0. -1.
         -6    1    1    2    0  502 -0.19507428776E+03  0.53938383035E+02  0.36806106837E+03  0.45389015958E+03  0.17200000000E+03 0. -1.
</event>
<event>
 4    1 -0.7151877E-004  0.2084892E+03  0.7818608E-02  0.1142768E+00
         -5   -1    0    0    0  501 -0.00000000000E+00  0.00000000000E+00  0.80250214728E+02  0.80387728938E+02  0.47000000000E+01 0.  1.
          5   -1    0    0  501    0  0.00000000000E+00 -0.00000000000E+00 -0.14134536103E+04  0.14134614245E+04  0.47000000000E+01 0. -1.
          6    1    1    2  502    0  0.11232160758E+03  0.35603276281E+02 -0.12533793933E+04  0.12706012908E+04  0.17200000000E+03 0. -1.
         -6    1    1    2    0  502 -0.11232160758E+03 -0.35603276281E+02 -0.79824002348E+02  0.22324786262E+03  0.17200000000E+03 0.  1.
</event>
<event>
 4    1 -0.7151877E-004  0.2259214E+03  0.7818608E-02  0.1129544E+00
         -5   -1    0    0    0  501 -0.00000000000E+00  0.00000000000E+00  0.68961276792E+03  0.68962878396E+03  0.47000000000E+01 0.  1.
          5   -1    0    0  501    0  0.00000000000E+00 -0.00000000000E+00 -0.53730702758E+03  0.53732758340E+03  0.47000000000E+01 0. -1.
          6    1    1    2  502    0 -0.13403637983E+03 -0.59082318500E+02 -0.49351038076E+03  0.54276419134E+03  0.17200000000E+03 0. -1.
         -6    1    1    2    0  502  0.13403637983E+03  0.59082318500E+02  0.64581612110E+03  0.68419217603E+03  0.17200000000E+03 0.  1.
</event>
<event>
 4    1 -0.7151877E-004  0.2083980E+03  0.7818608E-02  0.1142841E+00
         -5   -1    0    0    0  501 -0.00000000000E+00  0.00000000000E+00  0.40469578525E+02  0.40741585463E+02  0.47000000000E+01 0.  1.
          5   -1    0    0  501    0  0.00000000000E+00 -0.00000000000E+00 -0.14039282524E+04  0.14039361196E+04  0.47000000000E+01 0. -1.
          6    1    1    2  502    0 -0.11763474392E+03 -0.27913134498E+01 -0.10343628612E+04  0.10551475030E+04  0.17200000000E+03 0. -1.
         -6    1    1    2    0  502  0.11763474392E+03  0.27913134498E+01 -0.32909581267E+03  0.38953020207E+03  0.17200000000E+03 0.  1.
</event>
<event>
 4    1 -0.7151877E-004  0.2034110E+03  0.7818608E-02  0.1146893E+00
          5   -1    0    0  501    0  0.00000000000E+00  0.00000000000E+00  0.13651104431E+03  0.13659192956E+03  0.47000000000E+01 0. -1.
         -5   -1    0    0    0  501 -0.00000000000E+00 -0.00000000000E+00 -0.35183080545E+03  0.35186219698E+03  0.47000000000E+01 0.  1.
          6    1    1    2  502    0  0.10815418234E+03 -0.97324222799E+01 -0.19871670735E+03  0.28436662424E+03  0.17200000000E+03 0.  1.
         -6    1    1    2    0  502 -0.10815418234E+03  0.97324222799E+01 -0.16603053788E+02  0.20408750230E+03  0.17200000000E+03 0.  1.
</event>
<event>
 4    1 -0.7151877E-004  0.2190410E+03  0.7818608E-02  0.1134600E+00
          5   -1    0    0  501    0  0.00000000000E+00  0.00000000000E+00  0.64119785432E+02  0.64291810394E+02  0.47000000000E+01 0. -1.
         -5   -1    0    0    0  501 -0.00000000000E+00 -0.00000000000E+00 -0.11525769701E+04  0.11525865529E+04  0.47000000000E+01 0.  1.
          6    1    1    2  502    0  0.23621878195E+02  0.13355510681E+03 -0.18337042802E+03  0.28566356708E+03  0.17200000000E+03 0. -1.
         -6    1    1    2    0  502 -0.23621878195E+02 -0.13355510681E+03 -0.90508675661E+03  0.93121479621E+03  0.17200000000E+03 0.  1.
</event>
<event>
 4    1 -0.7151877E-004  0.1778299E+03  0.7818608E-02  0.1169920E+00
          5   -1    0    0  501    0  0.00000000000E+00  0.00000000000E+00  0.33338591490E+03  0.33341904303E+03  0.47000000000E+01 0. -1.
         -5   -1    0    0    0  501 -0.00000000000E+00 -0.00000000000E+00 -0.52200481183E+03  0.52202597021E+03  0.47000000000E+01 0.  1.
          6    1    1    2  502    0 -0.33828486450E+02 -0.29918167951E+02  0.29261054831E+03  0.34240969065E+03  0.17200000000E+03 0. -1.
         -6    1    1    2    0  502  0.33828486450E+02  0.29918167951E+02 -0.48122944523E+03  0.51303532259E+03  0.17200000000E+03 0.  1.
</event>
<event>
 4    1 -0.7151877E-004  0.2146146E+03  0.7818608E-02  0.1137963E+00
         -5   -1    0    0    0  501 -0.00000000000E+00  0.00000000000E+00  0.10380550733E+03  0.10391185376E+03  0.47000000000E+01 0.  1.
          5   -1    0    0  501    0  0.00000000000E+00 -0.00000000000E+00 -0.47322532802E+03  0.47324866727E+03  0.47000000000E+01 0. -1.
          6    1    1    2  502    0  0.63217000250E+02  0.11170956164E+03 -0.25719288475E+03  0.33497402175E+03  0.17200000000E+03 0. -1.
         -6    1    1    2    0  502 -0.63217000250E+02 -0.11170956164E+03 -0.11222693594E+03  0.24218649928E+03  0.17200000000E+03 0.  1.
</event>
<event>
 4    1 -0.7151877E-004  0.6124122E+03  0.7818608E-02  0.9879984E-01
         -5   -1    0    0    0  501 -0.00000000000E+00  0.00000000000E+00  0.95695450555E+03  0.95696604731E+03  0.47000000000E+01 0.  1.
          5   -1    0    0  501    0  0.00000000000E+00 -0.00000000000E+00 -0.41919429126E+03  0.41922063860E+03  0.47000000000E+01 0. -1.
          6    1    1    2  502    0  0.39112977000E+03 -0.43872795759E+03  0.93279299066E+02  0.61947537916E+03  0.17200000000E+03 0. -1.
         -6    1    1    2    0  502 -0.39112977000E+03  0.43872795759E+03  0.44448091523E+03  0.75671130674E+03  0.17200000000E+03 0.  1.
</event>
<event>
 4    1 -0.7151877E-004  0.1891390E+03  0.7818608E-02  0.1159240E+00
         -5   -1    0    0    0  501 -0.00000000000E+00  0.00000000000E+00  0.87802541034E+03  0.87803798961E+03  0.47000000000E+01 0.  1.
          5   -1    0    0  501    0  0.00000000000E+00 -0.00000000000E+00 -0.29279785181E+03  0.29283557165E+03  0.47000000000E+01 0. -1.
          6    1    1    2  502    0  0.70470766419E+02  0.34977860623E+02 -0.25057079097E+03  0.31394155657E+03  0.17200000000E+03 0. -1.
         -6    1    1    2    0  502 -0.70470766419E+02 -0.34977860623E+02  0.83579834950E+03  0.85693200470E+03  0.17200000000E+03 0.  1.
</event>
<event>
 4    1 -0.7151877E-004  0.2388583E+03  0.7818608E-02  0.1120556E+00
          5   -1    0    0  501    0  0.00000000000E+00  0.00000000000E+00  0.29521278188E+03  0.29525019320E+03  0.47000000000E+01 0. -1.
         -5   -1    0    0    0  501 -0.00000000000E+00 -0.00000000000E+00 -0.21376992800E+03  0.21382158945E+03  0.47000000000E+01 0.  1.
          6    1    1    2  502    0  0.14581620104E+03  0.78783905851E+02  0.11969383498E+03  0.26717013763E+03  0.17200000000E+03 0.  1.
         -6    1    1    2    0  502 -0.14581620104E+03 -0.78783905851E+02 -0.38250981100E+02  0.24190164502E+03  0.17200000000E+03 0. -1.
</event>
<event>
 4    1 -0.7151877E-004  0.3002090E+03  0.7818608E-02  0.1085136E+00
          5   -1    0    0  501    0  0.00000000000E+00  0.00000000000E+00  0.94490300678E+02  0.94607118771E+02  0.47000000000E+01 0. -1.
         -5   -1    0    0    0  501 -0.00000000000E+00 -0.00000000000E+00 -0.20243429556E+04  0.20243484117E+04  0.47000000000E+01 0.  1.
          6    1    1    2  502    0  0.20944033416E+03  0.12913623308E+03 -0.19423313839E+03  0.35756388564E+03  0.17200000000E+03 0. -1.
         -6    1    1    2    0  502 -0.20944033416E+03 -0.12913623308E+03 -0.17356195166E+04  0.17613916449E+04  0.17200000000E+03 0.  1.
</event>
<event>
 4    1 -0.7151877E-004  0.1755945E+03  0.7818608E-02  0.1172136E+00
         -5   -1    0    0    0  501 -0.00000000000E+00  0.00000000000E+00  0.87625689641E+03  0.87626950107E+03  0.47000000000E+01 0.  1.
          5   -1    0    0  501    0  0.00000000000E+00 -0.00000000000E+00 -0.11971096113E+03  0.11980318950E+03  0.47000000000E+01 0. -1.
          6    1    1    2  502    0 -0.29985538293E+02  0.18716367303E+02 -0.40257669065E+02  0.18015025626E+03  0.17200000000E+03 0. -1.
         -6    1    1    2    0  502  0.29985538293E+02 -0.18716367303E+02  0.79680360435E+03  0.81592243431E+03  0.17200000000E+03 0.  1.
</event>
<event>
 4    1 -0.7151877E-004  0.3012482E+03  0.7818608E-02  0.1084618E+00
          5   -1    0    0  501    0  0.00000000000E+00  0.00000000000E+00  0.94152411085E+02  0.94269647889E+02  0.47000000000E+01 0. -1.
         -5   -1    0    0    0  501 -0.00000000000E+00 -0.00000000000E+00 -0.13610238133E+04  0.13610319285E+04  0.47000000000E+01 0.  1.
          6    1    1    2  502    0 -0.24634689833E+03  0.21901870853E+02 -0.24002590176E+03  0.38517907495E+03  0.17200000000E+03 0. -1.
         -6    1    1    2    0  502  0.24634689833E+03 -0.21901870853E+02 -0.10268455004E+04  0.10701225014E+04  0.17200000000E+03 0.  1.
</event>
<event>
 4    1 -0.7151877E-004  0.2195699E+03  0.7818608E-02  0.1134204E+00
         -5   -1    0    0    0  501 -0.00000000000E+00  0.00000000000E+00  0.30733282641E+03  0.30736876255E+03  0.47000000000E+01 0.  1.
          5   -1    0    0  501    0  0.00000000000E+00 -0.00000000000E+00 -0.37423836507E+03  0.37426787718E+03  0.47000000000E+01 0. -1.
          6    1    1    2  502    0  0.12175037705E+03  0.61674847161E+02 -0.29321649080E+03  0.36631523523E+03  0.17200000000E+03 0. -1.
         -6    1    1    2    0  502 -0.12175037705E+03 -0.61674847161E+02  0.22631095214E+03  0.31532140451E+03  0.17200000000E+03 0.  1.
</event>
<event>
 4    1 -0.7151877E-004  0.1843596E+03  0.7818608E-02  0.1163649E+00
          5   -1    0    0  501    0  0.00000000000E+00  0.00000000000E+00  0.61957125717E+03  0.61958908376E+03  0.47000000000E+01 0. -1.
         -5   -1    0    0    0  501 -0.00000000000E+00 -0.00000000000E+00 -0.68717770091E+02  0.68878312452E+02  0.47000000000E+01 0.  1.
          6    1    1    2  502    0  0.46759564162E+02  0.47095719761E+02  0.43046194800E+03  0.46827977998E+03  0.17200000000E+03 0. -1.
         -6    1    1    2    0  502 -0.46759564162E+02 -0.47095719761E+02  0.12039153908E+03  0.22018761623E+03  0.17200000000E+03 0.  1.
</event>
<event>
 4    1 -0.7151877E-004  0.2310736E+03  0.7818608E-02  0.1125886E+00
          5   -1    0    0  501    0  0.00000000000E+00  0.00000000000E+00  0.13675359202E+04  0.13675439967E+04  0.47000000000E+01 0. -1.
         -5   -1    0    0    0  501 -0.00000000000E+00 -0.00000000000E+00 -0.18567256616E+03  0.18573204307E+03  0.47000000000E+01 0.  1.
          6    1    1    2  502    0 -0.14988261225E+03  0.36690669947E+02  0.12811158698E+04  0.13017883371E+04  0.17200000000E+03 0. -1.
         -6    1    1    2    0  502  0.14988261225E+03 -0.36690669947E+02 -0.99252515793E+02  0.25148770270E+03  0.17200000000E+03 0.  1.
</event>
<event>
 4    1 -0.7151877E-004  0.1804138E+03  0.7818608E-02  0.1167403E+00
          5   -1    0    0  501    0  0.00000000000E+00  0.00000000000E+00  0.16094461839E+03  0.16101322985E+03  0.47000000000E+01 0. -1.
         -5   -1    0    0    0  501 -0.00000000000E+00 -0.00000000000E+00 -0.90486114911E+03  0.90487335533E+03  0.47000000000E+01 0.  1.
          6    1    1    2  502    0  0.39545410668E+02  0.37433847397E+02  0.97686738827E+02  0.20516293861E+03  0.17200000000E+03 0. -1.
         -6    1    1    2    0  502 -0.39545410668E+02 -0.37433847397E+02 -0.84160326956E+03  0.86072364657E+03  0.17200000000E+03 0.  1.
</event>
<event>
 4    1 -0.7151877E-004  0.1817845E+03  0.7818608E-02  0.1166087E+00
         -5   -1    0    0    0  501 -0.00000000000E+00  0.00000000000E+00  0.54943509719E+03  0.54945519929E+03  0.47000000000E+01 0.  1.
          5   -1    0    0  501    0  0.00000000000E+00 -0.00000000000E+00 -0.65062984139E+02  0.65232521836E+02  0.47000000000E+01 0. -1.
          6    1    1    2  502    0 -0.14736737203E+02 -0.56959978406E+02  0.15684782768E+03  0.24009758769E+03  0.17200000000E+03 0. -1.
         -6    1    1    2    0  502  0.14736737203E+02  0.56959978406E+02  0.32752428537E+03  0.37459013344E+03  0.17200000000E+03 0.  1.
</event>
<event>
 4    1 -0.7151877E-004  0.2822140E+03  0.7818608E-02  0.1094486E+00
          5   -1    0    0  501    0  0.00000000000E+00  0.00000000000E+00  0.20366005564E+03  0.20371428095E+03  0.47000000000E+01 0. -1.
         -5   -1    0    0    0  501 -0.00000000000E+00 -0.00000000000E+00 -0.98630813669E+03  0.98631933495E+03  0.47000000000E+01 0.  1.
          6    1    1    2  502    0  0.88786281925E+02  0.20537215356E+03  0.70947372329E+02  0.29099528339E+03  0.17200000000E+03 0. -1.
         -6    1    1    2    0  502 -0.88786281925E+02 -0.20537215356E+03 -0.85359545338E+03  0.89903833252E+03  0.17200000000E+03 0.  1.
</event>
<event>
 4    1 -0.7151877E-004  0.2060673E+03  0.7818608E-02  0.1144719E+00
          5   -1    0    0  501    0  0.00000000000E+00  0.00000000000E+00  0.10655979792E+04  0.10656083442E+04  0.47000000000E+01 0. -1.
         -5   -1    0    0    0  501 -0.00000000000E+00 -0.00000000000E+00 -0.75557184374E+02  0.75703223911E+02  0.47000000000E+01 0.  1.
          6    1    1    2  502    0  0.11282360686E+03 -0.12269841506E+02  0.88756081713E+03  0.91116843634E+03  0.17200000000E+03 0. -1.
         -6    1    1    2    0  502 -0.11282360686E+03  0.12269841506E+02  0.10247997767E+03  0.23014313177E+03  0.17200000000E+03 0.  1.
</event>
<event>
 4    1 -0.7151877E-004  0.1920738E+03  0.7818608E-02  0.1156604E+00
          5   -1    0    0  501    0  0.00000000000E+00  0.00000000000E+00  0.22282749032E+03  0.22287705231E+03  0.47000000000E+01 0. -1.
         -5   -1    0    0    0  501 -0.00000000000E+00 -0.00000000000E+00 -0.32312131546E+03  0.32315549586E+03  0.47000000000E+01 0.  1.
          6    1    1    2  502    0 -0.81794411395E+02 -0.24859864620E+02  0.14052935533E+03  0.23799335771E+03  0.17200000000E+03 0. -1.
         -6    1    1    2    0  502  0.81794411395E+02  0.24859864620E+02 -0.24082318047E+03  0.30803919045E+03  0.17200000000E+03 0.  1.
</event>
<event>
 4    1 -0.7151877E-004  0.1736338E+03  0.7818608E-02  0.1174110E+00
          5   -1    0    0  501    0  0.00000000000E+00  0.00000000000E+00  0.52983265476E+03  0.52985350055E+03  0.47000000000E+01 0. -1.
         -5   -1    0    0    0  501 -0.00000000000E+00 -0.00000000000E+00 -0.21273706691E+03  0.21278897913E+03  0.47000000000E+01 0.  1.
          6    1    1    2  502    0 -0.91793262816E+01  0.21918911918E+02  0.47636644458E+03  0.50702434681E+03  0.17200000000E+03 0. -1.
         -6    1    1    2    0  502  0.91793262816E+01 -0.21918911918E+02 -0.15927085674E+03  0.23561813287E+03  0.17200000000E+03 0.  1.
</event>
<event>
 4    1 -0.7151877E-004  0.1780546E+03  0.7818608E-02  0.1169699E+00
          5   -1    0    0  501    0  0.00000000000E+00  0.00000000000E+00  0.35708246256E+03  0.35711339245E+03  0.47000000000E+01 0. -1.
         -5   -1    0    0    0  501 -0.00000000000E+00 -0.00000000000E+00 -0.11970755111E+03  0.11979978211E+03  0.47000000000E+01 0.  1.
          6    1    1    2  502    0  0.27094313403E+01  0.45957548299E+02  0.24000296722E+03  0.29883919010E+03  0.17200000000E+03 0. -1.
         -6    1    1    2    0  502 -0.27094313403E+01 -0.45957548299E+02 -0.26280557738E+01  0.17807398446E+03  0.17200000000E+03 0.  1.
</event>
<event>
 4    1 -0.7151877E-004  0.3001943E+03  0.7818608E-02  0.1085143E+00
          5   -1    0    0  501    0  0.00000000000E+00  0.00000000000E+00  0.13427649956E+04  0.13427732212E+04  0.47000000000E+01 0. -1.
         -5   -1    0    0    0  501 -0.00000000000E+00 -0.00000000000E+00 -0.17781266625E+03  0.17787477134E+03  0.47000000000E+01 0.  1.
          6    1    1    2  502    0 -0.23100239281E+03  0.84679046709E+02  0.11824336537E+04  0.12199450774E+04  0.17200000000E+03 0. -1.
         -6    1    1    2    0  502  0.23100239281E+03 -0.84679046709E+02 -0.17481324365E+02  0.30070291508E+03  0.17200000000E+03 0.  1.
</event>
<event>
 4    1 -0.7151877E-004  0.2894128E+03  0.7818608E-02  0.1090656E+00
          5   -1    0    0  501    0  0.00000000000E+00  0.00000000000E+00  0.99337599919E+03  0.99338711778E+03  0.47000000000E+01 0. -1.
         -5   -1    0    0    0  501 -0.00000000000E+00 -0.00000000000E+00 -0.14395137236E+03  0.14402807923E+03  0.47000000000E+01 0.  1.
          6    1    1    2  502    0  0.23187989757E+03  0.20186234816E+02  0.79083944262E+03  0.84213229066E+03  0.17200000000E+03 0. -1.
         -6    1    1    2    0  502 -0.23187989757E+03 -0.20186234816E+02  0.58585184212E+02  0.29528290635E+03  0.17200000000E+03 0.  1.
</event>
<event>
 4    1 -0.7151877E-004  0.2215191E+03  0.7818608E-02  0.1132756E+00
          5   -1    0    0  501    0  0.00000000000E+00  0.00000000000E+00  0.98174464179E+02  0.98286903587E+02  0.47000000000E+01 0. -1.
         -5   -1    0    0    0  501 -0.00000000000E+00 -0.00000000000E+00 -0.61826958504E+03  0.61828744915E+03  0.47000000000E+01 0.  1.
          6    1    1    2  502    0  0.95642614909E+02 -0.10168189800E+03 -0.10297852087E+03  0.24428527161E+03  0.17200000000E+03 0. -1.
         -6    1    1    2    0  502 -0.95642614909E+02  0.10168189800E+03 -0.41711659999E+03  0.47228908113E+03  0.17200000000E+03 0. -1.
</event>
<event>
 4    1 -0.7151877E-004  0.2722152E+03  0.7818608E-02  0.1100018E+00
         -5   -1    0    0    0  501 -0.00000000000E+00  0.00000000000E+00  0.34767845705E+03  0.34771022346E+03  0.47000000000E+01 0.  1.
          5   -1    0    0  501    0  0.00000000000E+00 -0.00000000000E+00 -0.32953127899E+03  0.32956479459E+03  0.47000000000E+01 0. -1.
          6    1    1    2  502    0  0.18756831977E+03  0.96619155771E+02 -0.19222466802E+03  0.33324384291E+03  0.17200000000E+03 0. -1.
         -6    1    1    2    0  502 -0.18756831977E+03 -0.96619155771E+02  0.21037184608E+03  0.34403117514E+03  0.17200000000E+03 0.  1.
</event>
<event>
 4    1 -0.7151877E-004  0.2833530E+03  0.7818608E-02  0.1093872E+00
          5   -1    0    0  501    0  0.00000000000E+00  0.00000000000E+00  0.73947107893E+03  0.73948601513E+03  0.47000000000E+01 0. -1.
         -5   -1    0    0    0  501 -0.00000000000E+00 -0.00000000000E+00 -0.22311170685E+03  0.22316120571E+03  0.47000000000E+01 0.  1.
          6    1    1    2  502    0 -0.21712660412E+03  0.59673591388E+02  0.60307309515E+03  0.66632278801E+03  0.17200000000E+03 0. -1.
         -6    1    1    2    0  502  0.21712660412E+03 -0.59673591388E+02 -0.86713723066E+02  0.29632443283E+03  0.17200000000E+03 0.  1.
</event>
<event>
 4    1 -0.7151877E-004  0.1881626E+03  0.7818608E-02  0.1160129E+00
          5   -1    0    0  501    0  0.00000000000E+00  0.00000000000E+00  0.14580809873E+03  0.14588382931E+03  0.47000000000E+01 0. -1.
         -5   -1    0    0    0  501 -0.00000000000E+00 -0.00000000000E+00 -0.83689184308E+03  0.83690504062E+03  0.47000000000E+01 0.  1.
          6    1    1    2  502    0 -0.59289833872E+02  0.48019708985E+02  0.68502307658E+02  0.20024420842E+03  0.17200000000E+03 0. -1.
         -6    1    1    2    0  502  0.59289833872E+02 -0.48019708985E+02 -0.75958605201E+03  0.78254466151E+03  0.17200000000E+03 0.  1.
</event>
<event>
 4    1 -0.7151877E-004  0.3250773E+03  0.7818608E-02  0.1073336E+00
          5   -1    0    0  501    0  0.00000000000E+00  0.00000000000E+00  0.91529833665E+03  0.91531040367E+03  0.47000000000E+01 0. -1.
         -5   -1    0    0    0  501 -0.00000000000E+00 -0.00000000000E+00 -0.62737060067E+03  0.62738820565E+03  0.47000000000E+01 0.  1.
          6    1    1    2  502    0  0.97357475187E+02 -0.25809450208E+03  0.84073537980E+03  0.90139404747E+03  0.17200000000E+03 0. -1.
         -6    1    1    2    0  502 -0.97357475187E+02  0.25809450208E+03 -0.55280764382E+03  0.64130456184E+03  0.17200000000E+03 0.  1.
</event>
<event>
 4    1 -0.7151877E-004  0.2530776E+03  0.7818608E-02  0.1111375E+00
          5   -1    0    0  501    0  0.00000000000E+00  0.00000000000E+00  0.83141812111E+03  0.83143140553E+03  0.47000000000E+01 0. -1.
         -5   -1    0    0    0  501 -0.00000000000E+00 -0.00000000000E+00 -0.84588207990E+02  0.84718681121E+02  0.47000000000E+01 0.  1.
          6    1    1    2  502    0 -0.11517255540E+03 -0.14560062177E+03  0.51094908476E+03  0.57019051711E+03  0.17200000000E+03 0.  1.
         -6    1    1    2    0  502  0.11517255540E+03  0.14560062177E+03  0.23588082835E+03  0.34595956955E+03  0.17200000000E+03 0.  1.
</event>
<event>
 4    1 -0.7151877E-004  0.1743664E+03  0.7818608E-02  0.1173369E+00
         -5   -1    0    0    0  501 -0.00000000000E+00  0.00000000000E+00  0.62570179883E+03  0.62571945076E+03  0.47000000000E+01 0.  1.
          5   -1    0    0  501    0  0.00000000000E+00 -0.00000000000E+00 -0.62210689689E+02  0.62387978902E+02  0.47000000000E+01 0. -1.
          6    1    1    2  502    0 -0.17341874545E+02 -0.22779752171E+02  0.12027212239E+03  0.21182313648E+03  0.17200000000E+03 0. -1.
         -6    1    1    2    0  502  0.17341874545E+02  0.22779752171E+02  0.44321898675E+03  0.47628429319E+03  0.17200000000E+03 0.  1.
</event>
<event>
 4    1 -0.7151877E-004  0.2659297E+03  0.7818608E-02  0.1103632E+00
          5   -1    0    0  501    0  0.00000000000E+00  0.00000000000E+00  0.31697410952E+03  0.31700895272E+03  0.47000000000E+01 0. -1.
         -5   -1    0    0    0  501 -0.00000000000E+00 -0.00000000000E+00 -0.35471454781E+03  0.35474568415E+03  0.47000000000E+01 0.  1.
          6    1    1    2  502    0 -0.16265402315E+03  0.12115390177E+03  0.18575395012E+03  0.32438114795E+03  0.17200000000E+03 0. -1.
         -6    1    1    2    0  502  0.16265402315E+03 -0.12115390177E+03 -0.22349438840E+03  0.34737348893E+03  0.17200000000E+03 0.  1.
</event>
<event>
 4    1 -0.7151877E-004  0.1816102E+03  0.7818608E-02  0.1166254E+00
         -5   -1    0    0    0  501 -0.00000000000E+00  0.00000000000E+00  0.90493080234E+03  0.90494300761E+03  0.47000000000E+01 0.  1.
          5   -1    0    0  501    0  0.00000000000E+00 -0.00000000000E+00 -0.13095017570E+03  0.13103449361E+03  0.47000000000E+01 0. -1.
          6    1    1    2  502    0 -0.52808016799E+02 -0.24689296168E+02 -0.53083174703E+02  0.18920906802E+03  0.17200000000E+03 0. -1.
         -6    1    1    2    0  502  0.52808016799E+02  0.24689296168E+02  0.82706380134E+03  0.84676843321E+03  0.17200000000E+03 0.  1.
</event>
<event>
 4    1 -0.7151877E-004  0.1942409E+03  0.7818608E-02  0.1154691E+00
          5   -1    0    0  501    0  0.00000000000E+00  0.00000000000E+00  0.20565800041E+03  0.20571169906E+03  0.47000000000E+01 0. -1.
         -5   -1    0    0    0  501 -0.00000000000E+00 -0.00000000000E+00 -0.18521846336E+03  0.18527808605E+03  0.47000000000E+01 0.  1.
          6    1    1    2  502    0  0.68165737699E+02 -0.59151937997E+02 -0.94103831880E+01  0.19446869896E+03  0.17200000000E+03 0. -1.
         -6    1    1    2    0  502 -0.68165737699E+02  0.59151937997E+02  0.29849920232E+02  0.19652108615E+03  0.17200000000E+03 0.  1.
</event>
<event>
 4    1 -0.7151877E-004  0.1918913E+03  0.7818608E-02  0.1156766E+00
          5   -1    0    0  501    0  0.00000000000E+00  0.00000000000E+00  0.50609679421E+02  0.50827449779E+02  0.47000000000E+01 0. -1.
         -5   -1    0    0    0  501 -0.00000000000E+00 -0.00000000000E+00 -0.86710889337E+03  0.86712163100E+03  0.47000000000E+01 0.  1.
          6    1    1    2  502    0  0.80139159650E+02  0.28565533068E+02 -0.22298202547E+03  0.29418235547E+03  0.17200000000E+03 0. -1.
         -6    1    1    2    0  502 -0.80139159650E+02 -0.28565533068E+02 -0.59351718848E+03  0.62376672531E+03  0.17200000000E+03 0.  1.
</event>
<event>
 4    1 -0.7151877E-004  0.2076391E+03  0.7818608E-02  0.1143449E+00
         -5   -1    0    0    0  501 -0.00000000000E+00  0.00000000000E+00  0.76080041103E+02  0.76225078906E+02  0.47000000000E+01 0.  1.
          5   -1    0    0  501    0  0.00000000000E+00 -0.00000000000E+00 -0.82581043829E+03  0.82582381293E+03  0.47000000000E+01 0. -1.
          6    1    1    2  502    0  0.11312263711E+03  0.27078923045E+02 -0.62782252022E+03  0.66126780959E+03  0.17200000000E+03 0. -1.
         -6    1    1    2    0  502 -0.11312263711E+03 -0.27078923045E+02 -0.12190787697E+03  0.24078108224E+03  0.17200000000E+03 0.  1.
</event>
<event>
 4    1 -0.7151877E-004  0.1869729E+03  0.7818608E-02  0.1161220E+00
          5   -1    0    0  501    0  0.00000000000E+00  0.00000000000E+00  0.24656058009E+03  0.24660537231E+03  0.47000000000E+01 0. -1.
         -5   -1    0    0    0  501 -0.00000000000E+00 -0.00000000000E+00 -0.17062269578E+03  0.17068741698E+03  0.47000000000E+01 0.  1.
          6    1    1    2  502    0 -0.55364861104E+01 -0.73104235181E+02  0.12385895265E+03  0.22427644110E+03  0.17200000000E+03 0. -1.
         -6    1    1    2    0  502  0.55364861104E+01  0.73104235181E+02 -0.47921068345E+02  0.19301634820E+03  0.17200000000E+03 0.  1.
</event>
<event>
 4    1 -0.7151877E-004  0.1974633E+03  0.7818608E-02  0.1151897E+00
          5   -1    0    0  501    0  0.00000000000E+00  0.00000000000E+00  0.11031265789E+04  0.11031365913E+04  0.47000000000E+01 0. -1.
         -5   -1    0    0    0  501 -0.00000000000E+00 -0.00000000000E+00 -0.53090973000E+02  0.53298606118E+02  0.47000000000E+01 0.  1.
          6    1    1    2  502    0 -0.80614433456E+02 -0.53935848877E+02  0.86001165267E+03  0.88238982621E+03  0.17200000000E+03 0. -1.
         -6    1    1    2    0  502  0.80614433456E+02  0.53935848877E+02  0.19002395320E+03  0.27404537118E+03  0.17200000000E+03 0.  1.
</event>
<event>
 4    1 -0.7151877E-004  0.2008116E+03  0.7818608E-02  0.1149056E+00
          5   -1    0    0  501    0  0.00000000000E+00  0.00000000000E+00  0.34305893470E+03  0.34309112882E+03  0.47000000000E+01 0. -1.
         -5   -1    0    0    0  501 -0.00000000000E+00 -0.00000000000E+00 -0.12191683290E+03  0.12200739381E+03  0.47000000000E+01 0.  1.
          6    1    1    2  502    0 -0.90720444267E+02 -0.50110909928E+02  0.15500326888E+03  0.25367561110E+03  0.17200000000E+03 0.  1.
         -6    1    1    2    0  502  0.90720444267E+02  0.50110909928E+02  0.66138832918E+02  0.21142291153E+03  0.17200000000E+03 0.  1.
</event>
<event>
 4    1 -0.7151877E-004  0.1721964E+03  0.7818608E-02  0.1175577E+00
          5   -1    0    0  501    0  0.00000000000E+00  0.00000000000E+00  0.68784096307E+03  0.68785702037E+03  0.47000000000E+01 0. -1.
         -5   -1    0    0    0  501 -0.00000000000E+00 -0.00000000000E+00 -0.46205565234E+02  0.46443990554E+02  0.47000000000E+01 0.  1.
          6    1    1    2  502    0 -0.45677846955E+01 -0.68356422437E+01  0.41779586341E+03  0.45189044484E+03  0.17200000000E+03 0. -1.
         -6    1    1    2    0  502  0.45677846955E+01  0.68356422437E+01  0.22383953443E+03  0.28241056608E+03  0.17200000000E+03 0.  1.
</event>
<event>
 4    1 -0.7151877E-004  0.1981559E+03  0.7818608E-02  0.1151304E+00
          5   -1    0    0  501    0  0.00000000000E+00  0.00000000000E+00  0.33393559827E+03  0.33396867187E+03  0.47000000000E+01 0. -1.
         -5   -1    0    0    0  501 -0.00000000000E+00 -0.00000000000E+00 -0.59336777432E+03  0.59338638811E+03  0.47000000000E+01 0.  1.
          6    1    1    2  502    0 -0.86839182699E+02  0.46268094916E+02  0.28549120195E+03  0.34752123194E+03  0.17200000000E+03 0. -1.
         -6    1    1    2    0  502  0.86839182699E+02 -0.46268094916E+02 -0.54492337800E+03  0.57983382805E+03  0.17200000000E+03 0.  1.
</event>
<event>
 4    1 -0.7151877E-004  0.1817855E+03  0.7818608E-02  0.1166086E+00
         -5   -1    0    0    0  501 -0.00000000000E+00  0.00000000000E+00  0.68400611428E+03  0.68402226161E+03  0.47000000000E+01 0.  1.
          5   -1    0    0  501    0  0.00000000000E+00 -0.00000000000E+00 -0.73377720930E+02  0.73528089387E+02  0.47000000000E+01 0. -1.
          6    1    1    2  502    0  0.58359731626E+02 -0.74899584901E+01  0.83667693535E+02  0.20011556835E+03  0.17200000000E+03 0. -1.
         -6    1    1    2    0  502 -0.58359731626E+02  0.74899584901E+01  0.52696069982E+03  0.55743478265E+03  0.17200000000E+03 0.  1.
</event>
<event>
 4    1 -0.7151877E-004  0.2159740E+03  0.7818608E-02  0.1136921E+00
          5   -1    0    0  501    0  0.00000000000E+00  0.00000000000E+00  0.61006888057E+03  0.61008698482E+03  0.47000000000E+01 0. -1.
         -5   -1    0    0    0  501 -0.00000000000E+00 -0.00000000000E+00 -0.59401606761E+03  0.59403466109E+03  0.47000000000E+01 0.  1.
          6    1    1    2  502    0 -0.12935026216E+03  0.18146096644E+02  0.57000876539E+03  0.60955292122E+03  0.17200000000E+03 0. -1.
         -6    1    1    2    0  502  0.12935026216E+03 -0.18146096644E+02 -0.55395595243E+03  0.59456872469E+03  0.17200000000E+03 0.  1.
</event>
<event>
 4    1 -0.7151877E-004  0.1820036E+03  0.7818608E-02  0.1165878E+00
         -5   -1    0    0    0  501 -0.00000000000E+00  0.00000000000E+00  0.63192083598E+03  0.63193831419E+03  0.47000000000E+01 0.  1.
          5   -1    0    0  501    0  0.00000000000E+00 -0.00000000000E+00 -0.16932470152E+03  0.16938991866E+03  0.47000000000E+01 0. -1.
          6    1    1    2  502    0  0.25614026649E+02 -0.53714490864E+02 -0.10164219242E+03  0.20846213126E+03  0.17200000000E+03 0. -1.
         -6    1    1    2    0  502 -0.25614026649E+02  0.53714490864E+02  0.56423832689E+03  0.59286610159E+03  0.17200000000E+03 0.  1.
</event>
<event>
 4    1 -0.7151877E-004  0.1897666E+03  0.7818608E-02  0.1158672E+00
          5   -1    0    0  501    0  0.00000000000E+00  0.00000000000E+00  0.11012205558E+04  0.11012305856E+04  0.47000000000E+01 0. -1.
         -5   -1    0    0    0  501 -0.00000000000E+00 -0.00000000000E+00 -0.57223664524E+02  0.57416354652E+02  0.47000000000E+01 0.  1.
          6    1    1    2  502    0  0.63529585207E+02  0.48901289851E+02  0.90170876944E+03  0.92146082349E+03  0.17200000000E+03 0. -1.
         -6    1    1    2    0  502 -0.63529585207E+02 -0.48901289851E+02  0.14228812188E+03  0.23718611674E+03  0.17200000000E+03 0.  1.
</event>
<event>
 4    1 -0.7151877E-004  0.2390520E+03  0.7818608E-02  0.1120426E+00
         -5   -1    0    0    0  501 -0.00000000000E+00  0.00000000000E+00  0.16954350336E+03  0.16960863637E+03  0.47000000000E+01 0.  1.
          5   -1    0    0  501    0  0.00000000000E+00 -0.00000000000E+00 -0.80189734651E+03  0.80191111997E+03  0.47000000000E+01 0. -1.
          6    1    1    2  502    0  0.56663453711E+02  0.15604837663E+03 -0.68605490583E+03  0.72651027292E+03  0.17200000000E+03 0. -1.
         -6    1    1    2    0  502 -0.56663453711E+02 -0.15604837663E+03  0.53701062683E+02  0.24500948342E+03  0.17200000000E+03 0.  1.
</event>
<event>
 4    1 -0.7151877E-004  0.1827733E+03  0.7818608E-02  0.1165146E+00
         -5   -1    0    0    0  501 -0.00000000000E+00  0.00000000000E+00  0.24849244677E+03  0.24853689083E+03  0.47000000000E+01 0.  1.
          5   -1    0    0  501    0  0.00000000000E+00 -0.00000000000E+00 -0.35097988712E+03  0.35101135475E+03  0.47000000000E+01 0. -1.
          6    1    1    2  502    0  0.59448507852E+02 -0.16969270066E+02 -0.28672812802E+03  0.34002808797E+03  0.17200000000E+03 0. -1.
         -6    1    1    2    0  502 -0.59448507852E+02  0.16969270066E+02  0.18424068767E+03  0.25952015761E+03  0.17200000000E+03 0.  1.
</event>
<event>
 4    1 -0.7151877E-004  0.1722233E+03  0.7818608E-02  0.1175549E+00
          5   -1    0    0  501    0  0.00000000000E+00  0.00000000000E+00  0.35488044319E+03  0.35491156498E+03  0.47000000000E+01 0. -1.
         -5   -1    0    0    0  501 -0.00000000000E+00 -0.00000000000E+00 -0.13033577423E+03  0.13042048935E+03  0.47000000000E+01 0.  1.
          6    1    1    2  502    0 -0.62239033428E+01  0.61761544469E+01  0.25769453950E+03  0.30994734641E+03  0.17200000000E+03 0. -1.
         -6    1    1    2    0  502  0.62239033428E+01 -0.61761544469E+01 -0.33149870542E+02  0.17538470792E+03  0.17200000000E+03 0.  1.
</event>
<event>
 4    1 -0.7151877E-004  0.1842825E+03  0.7818608E-02  0.1163722E+00
         -5   -1    0    0    0  501 -0.00000000000E+00  0.00000000000E+00  0.28134931754E+02  0.28524802976E+02  0.47000000000E+01 0.  1.
          5   -1    0    0  501    0  0.00000000000E+00 -0.00000000000E+00 -0.12032123148E+04  0.12032214944E+04  0.47000000000E+01 0. -1.
          6    1    1    2  502    0 -0.10948894703E+02  0.65239305998E+02 -0.62671542772E+03  0.65324748196E+03  0.17200000000E+03 0. -1.
         -6    1    1    2    0  502  0.10948894703E+02 -0.65239305998E+02 -0.54836195532E+03  0.57849881537E+03  0.17200000000E+03 0.  1.
</event>
<event>
 4    1 -0.7151877E-004  0.1794514E+03  0.7818608E-02  0.1168335E+00
         -5   -1    0    0    0  501 -0.00000000000E+00  0.00000000000E+00  0.97841679791E+02  0.97954501195E+02  0.47000000000E+01 0.  1.
          5   -1    0    0  501    0  0.00000000000E+00 -0.00000000000E+00 -0.35038125690E+03  0.35041277829E+03  0.47000000000E+01 0. -1.
          6    1    1    2  502    0  0.50806233184E+02 -0.61268992942E+01 -0.18188009707E+03  0.25550573758E+03  0.17200000000E+03 0. -1.
         -6    1    1    2    0  502 -0.50806233184E+02  0.61268992942E+01 -0.70659480034E+02  0.19286154190E+03  0.17200000000E+03 0. -1.
</event>
<event>
 4    1 -0.7151877E-004  0.2021258E+03  0.7818608E-02  0.1147958E+00
         -5   -1    0    0    0  501 -0.00000000000E+00  0.00000000000E+00  0.22224030602E+03  0.22228999892E+03  0.47000000000E+01 0.  1.
          5   -1    0    0  501    0  0.00000000000E+00 -0.00000000000E+00 -0.27658765019E+03  0.27662758040E+03  0.47000000000E+01 0. -1.
          6    1    1    2  502    0 -0.46616988305E+02 -0.95381764612E+02 -0.17168756180E+03  0.26520076074E+03  0.17200000000E+03 0. -1.
         -6    1    1    2    0  502  0.46616988305E+02  0.95381764612E+02  0.11734021762E+03  0.23371681859E+03  0.17200000000E+03 0.  1.
</event>
<event>
 4    1 -0.7151877E-004  0.2807808E+03  0.7818608E-02  0.1095263E+00
         -5   -1    0    0    0  501 -0.00000000000E+00  0.00000000000E+00  0.73947217704E+03  0.73948711322E+03  0.47000000000E+01 0.  1.
          5   -1    0    0  501    0  0.00000000000E+00 -0.00000000000E+00 -0.28700743676E+03  0.28704591751E+03  0.47000000000E+01 0. -1.
          6    1    1    2  502    0  0.10781367319E+03 -0.19398473667E+03 -0.18070133091E+03  0.33390243662E+03  0.17200000000E+03 0. -1.
         -6    1    1    2    0  502 -0.10781367319E+03  0.19398473667E+03  0.63316607119E+03  0.69263059410E+03  0.17200000000E+03 0.  1.
</event>
<event>
 4    1 -0.7151877E-004  0.2404261E+03  0.7818608E-02  0.1119509E+00
         -5   -1    0    0    0  501 -0.00000000000E+00  0.00000000000E+00  0.58792179143E+03  0.58794057764E+03  0.47000000000E+01 0.  1.
          5   -1    0    0  501    0  0.00000000000E+00 -0.00000000000E+00 -0.19829880686E+03  0.19835449781E+03  0.47000000000E+01 0. -1.
          6    1    1    2  502    0 -0.14374082331E+03  0.86944012912E+02 -0.84380076923E+02  0.25480322417E+03  0.17200000000E+03 0. -1.
         -6    1    1    2    0  502  0.14374082331E+03 -0.86944012912E+02  0.47400306149E+03  0.53149185128E+03  0.17200000000E+03 0.  1.
</event>
<event>
 4    1 -0.7151877E-004  0.2774270E+03  0.7818608E-02  0.1097103E+00
          5   -1    0    0  501    0  0.00000000000E+00  0.00000000000E+00  0.62794077111E+03  0.62795836010E+03  0.47000000000E+01 0. -1.
         -5   -1    0    0    0  501 -0.00000000000E+00 -0.00000000000E+00 -0.15793459330E+03  0.15800451184E+03  0.47000000000E+01 0.  1.
          6    1    1    2  502    0 -0.10916637040E+03  0.18832007145E+03  0.42107797617E+03  0.50425430861E+03  0.17200000000E+03 0. -1.
         -6    1    1    2    0  502  0.10916637040E+03 -0.18832007145E+03  0.48928201634E+02  0.28170856333E+03  0.17200000000E+03 0.  1.
</event>
<event>
 4    1 -0.7151877E-004  0.2666262E+03  0.7818608E-02  0.1103226E+00
          5   -1    0    0  501    0  0.00000000000E+00  0.00000000000E+00  0.81163044695E+03  0.81164405524E+03  0.47000000000E+01 0. -1.
         -5   -1    0    0    0  501 -0.00000000000E+00 -0.00000000000E+00 -0.15143950859E+03  0.15151242444E+03  0.47000000000E+01 0.  1.
          6    1    1    2  502    0  0.10189917979E+03  0.17641448814E+03  0.64287042458E+03  0.69596831628E+03  0.17200000000E+03 0.  1.
         -6    1    1    2    0  502 -0.10189917979E+03 -0.17641448814E+03  0.17320513784E+02  0.26718816341E+03  0.17200000000E+03 0.  1.
</event>
<event>
 4    1 -0.7151877E-004  0.1768593E+03  0.7818608E-02  0.1170878E+00
         -5   -1    0    0    0  501 -0.00000000000E+00  0.00000000000E+00  0.44186377991E+03  0.44188877559E+03  0.47000000000E+01 0.  1.
          5   -1    0    0  501    0  0.00000000000E+00 -0.00000000000E+00 -0.29089059465E+03  0.29092856178E+03  0.47000000000E+01 0. -1.
          6    1    1    2  502    0  0.32669794646E+02  0.25057763702E+02 -0.24324475347E+03  0.30074443818E+03  0.17200000000E+03 0. -1.
         -6    1    1    2    0  502 -0.32669794646E+02 -0.25057763702E+02  0.39421793873E+03  0.43207289919E+03  0.17200000000E+03 0.  1.
</event>
<event>
 4    1 -0.7151877E-004  0.2251176E+03  0.7818608E-02  0.1130124E+00
         -5   -1    0    0    0  501 -0.00000000000E+00  0.00000000000E+00  0.38404455353E+03  0.38407331214E+03  0.47000000000E+01 0.  1.
          5   -1    0    0  501    0  0.00000000000E+00 -0.00000000000E+00 -0.28214957489E+03  0.28218871807E+03  0.47000000000E+01 0. -1.
          6    1    1    2  502    0  0.13655235338E+03 -0.49470880760E+02 -0.19212586662E+03  0.29595652025E+03  0.17200000000E+03 0. -1.
         -6    1    1    2    0  502 -0.13655235338E+03  0.49470880760E+02  0.29402084526E+03  0.37030550996E+03  0.17200000000E+03 0.  1.
</event>
<event>
 4    1 -0.7151877E-004  0.1776728E+03  0.7818608E-02  0.1170074E+00
          5   -1    0    0  501    0  0.00000000000E+00  0.00000000000E+00  0.28926957219E+03  0.28930775204E+03  0.47000000000E+01 0. -1.
         -5   -1    0    0    0  501 -0.00000000000E+00 -0.00000000000E+00 -0.65617452333E+03  0.65619135552E+03  0.47000000000E+01 0.  1.
          6    1    1    2  502    0 -0.50817519610E+01 -0.44247071470E+02  0.24820494577E+03  0.30524305503E+03  0.17200000000E+03 0. -1.
         -6    1    1    2    0  502  0.50817519610E+01  0.44247071470E+02 -0.61510989691E+03  0.64025605254E+03  0.17200000000E+03 0.  1.
</event>
<event>
 4    1 -0.7151877E-004  0.2178668E+03  0.7818608E-02  0.1135483E+00
          5   -1    0    0  501    0  0.00000000000E+00  0.00000000000E+00  0.78832871654E+02  0.78972853901E+02  0.47000000000E+01 0. -1.
         -5   -1    0    0    0  501 -0.00000000000E+00 -0.00000000000E+00 -0.23954396323E+04  0.23954442432E+04  0.47000000000E+01 0.  1.
          6    1    1    2  502    0 -0.13359582499E+03 -0.58392815329E+01 -0.87648429844E+02  0.23483651530E+03  0.17200000000E+03 0. -1.
         -6    1    1    2    0  502  0.13359582499E+03  0.58392815329E+01 -0.22289583308E+04  0.22395805818E+04  0.17200000000E+03 0.  1.
</event>
<event>
 4    1 -0.7151877E-004  0.1943010E+03  0.7818608E-02  0.1154638E+00
          5   -1    0    0  501    0  0.00000000000E+00  0.00000000000E+00  0.30754172937E+02  0.31111238372E+02  0.47000000000E+01 0. -1.
         -5   -1    0    0    0  501 -0.00000000000E+00 -0.00000000000E+00 -0.12296974741E+04  0.12297064559E+04  0.47000000000E+01 0.  1.
          6    1    1    2  502    0 -0.53656529771E+02 -0.72731481204E+02 -0.65508971849E+03  0.68329746876E+03  0.17200000000E+03 0. -1.
         -6    1    1    2    0  502  0.53656529771E+02  0.72731481204E+02 -0.54385358265E+03  0.57752022554E+03  0.17200000000E+03 0. -1.
</event>
<event>
 4    1 -0.7151877E-004  0.1944946E+03  0.7818608E-02  0.1154469E+00
          5   -1    0    0  501    0  0.00000000000E+00  0.00000000000E+00  0.34253103381E+03  0.34256327755E+03  0.47000000000E+01 0. -1.
         -5   -1    0    0    0  501 -0.00000000000E+00 -0.00000000000E+00 -0.11933569135E+03  0.11942820952E+03  0.47000000000E+01 0.  1.
          6    1    1    2  502    0 -0.90685936893E+02 -0.44976587948E+01  0.17495067748E+03  0.26160257574E+03  0.17200000000E+03 0.  1.
         -6    1    1    2    0  502  0.90685936893E+02  0.44976587948E+01  0.48244664987E+02  0.20038891133E+03  0.17200000000E+03 0.  1.
</event>
<event>
 4    1 -0.7151877E-004  0.3018187E+03  0.7818608E-02  0.1084335E+00
         -5   -1    0    0    0  501 -0.00000000000E+00  0.00000000000E+00  0.75988972585E+02  0.76134183876E+02  0.47000000000E+01 0.  1.
          5   -1    0    0  501    0  0.00000000000E+00 -0.00000000000E+00 -0.14743828858E+04  0.14743903770E+04  0.47000000000E+01 0. -1.
          6    1    1    2  502    0  0.18316877946E+03 -0.16721159457E+03 -0.10351474732E+04  0.10782508105E+04  0.17200000000E+03 0. -1.
         -6    1    1    2    0  502 -0.18316877946E+03  0.16721159457E+03 -0.36324643999E+03  0.47227375037E+03  0.17200000000E+03 0.  1.
</event>
<event>
 4    1 -0.7151877E-004  0.2109466E+03  0.7818608E-02  0.1140819E+00
         -5   -1    0    0    0  501 -0.00000000000E+00  0.00000000000E+00  0.56697368605E+03  0.56699316634E+03  0.47000000000E+01 0.  1.
          5   -1    0    0  501    0  0.00000000000E+00 -0.00000000000E+00 -0.15429239498E+03  0.15436396325E+03  0.47000000000E+01 0. -1.
          6    1    1    2  502    0  0.93830264312E+02  0.78168759861E+02 -0.46525392346E+02  0.21601640135E+03  0.17200000000E+03 0. -1.
         -6    1    1    2    0  502 -0.93830264312E+02 -0.78168759861E+02  0.45920668341E+03  0.50534072823E+03  0.17200000000E+03 0.  1.
</event>
<event>
 4    1 -0.7151877E-004  0.1905083E+03  0.7818608E-02  0.1158004E+00
          5   -1    0    0  501    0  0.00000000000E+00  0.00000000000E+00  0.10418614961E+04  0.10418720972E+04  0.47000000000E+01 0. -1.
         -5   -1    0    0    0  501 -0.00000000000E+00 -0.00000000000E+00 -0.65643508446E+02  0.65811550666E+02  0.47000000000E+01 0.  1.
          6    1    1    2  502    0 -0.75536248354E+02  0.31680929926E+02  0.86784211120E+03  0.88850623864E+03  0.17200000000E+03 0. -1.
         -6    1    1    2    0  502  0.75536248354E+02 -0.31680929926E+02  0.10837587642E+03  0.21917740925E+03  0.17200000000E+03 0.  1.
</event>
<event>
 4    1 -0.7151877E-004  0.2944400E+03  0.7818608E-02  0.1088053E+00
          5   -1    0    0  501    0  0.00000000000E+00  0.00000000000E+00  0.31555501326E+03  0.31559001314E+03  0.47000000000E+01 0. -1.
         -5   -1    0    0    0  501 -0.00000000000E+00 -0.00000000000E+00 -0.10094761973E+04  0.10094871386E+04  0.47000000000E+01 0.  1.
          6    1    1    2  502    0  0.32647035874E+02  0.23673849148E+03  0.21828502739E+03  0.36652871031E+03  0.17200000000E+03 0. -1.
         -6    1    1    2    0  502 -0.32647035874E+02 -0.23673849148E+03 -0.91220621144E+03  0.95854844139E+03  0.17200000000E+03 0.  1.
</event>
<event>
 4    1 -0.7151877E-004  0.1954200E+03  0.7818608E-02  0.1153662E+00
          5   -1    0    0  501    0  0.00000000000E+00  0.00000000000E+00  0.27990436258E+03  0.27994381971E+03  0.47000000000E+01 0. -1.
         -5   -1    0    0    0  501 -0.00000000000E+00 -0.00000000000E+00 -0.34813690443E+03  0.34816862901E+03  0.47000000000E+01 0.  1.
          6    1    1    2  502    0  0.91817160037E+02  0.13212744129E+02  0.21080474878E+03  0.28745018628E+03  0.17200000000E+03 0. -1.
         -6    1    1    2    0  502 -0.91817160037E+02 -0.13212744129E+02 -0.27903729063E+03  0.34066226244E+03  0.17200000000E+03 0.  1.
</event>
<event>
 4    1 -0.7151877E-004  0.1825558E+03  0.7818608E-02  0.1165352E+00
         -5   -1    0    0    0  501 -0.00000000000E+00  0.00000000000E+00  0.18442980899E+03  0.18448968655E+03  0.47000000000E+01 0.  1.
          5   -1    0    0  501    0  0.00000000000E+00 -0.00000000000E+00 -0.24632756882E+03  0.24637240341E+03  0.47000000000E+01 0. -1.
          6    1    1    2  502    0 -0.30335811733E+02  0.53125945284E+02 -0.14222156048E+03  0.23141650719E+03  0.17200000000E+03 0. -1.
         -6    1    1    2    0  502  0.30335811733E+02 -0.53125945284E+02  0.80323800643E+02  0.19944558277E+03  0.17200000000E+03 0.  1.
</event>
<event>
 4    1 -0.7151877E-004  0.1894142E+03  0.7818608E-02  0.1158991E+00
          5   -1    0    0  501    0  0.00000000000E+00  0.00000000000E+00  0.94472936353E+03  0.94474105464E+03  0.47000000000E+01 0. -1.
         -5   -1    0    0    0  501 -0.00000000000E+00 -0.00000000000E+00 -0.40866455889E+02  0.41135838595E+02  0.47000000000E+01 0.  1.
          6    1    1    2  502    0  0.39400183805E+02 -0.68857696730E+02  0.58605541965E+03  0.61590479117E+03  0.17200000000E+03 0.  1.
         -6    1    1    2    0  502 -0.39400183805E+02  0.68857696730E+02  0.31780748800E+03  0.36997210207E+03  0.17200000000E+03 0. -1.
</event>
<event>
 4    1 -0.7151877E-004  0.1783387E+03  0.7818608E-02  0.1169421E+00
          5   -1    0    0  501    0  0.00000000000E+00  0.00000000000E+00  0.10614897260E+03  0.10625297353E+03  0.47000000000E+01 0. -1.
         -5   -1    0    0    0  501 -0.00000000000E+00 -0.00000000000E+00 -0.11619753677E+04  0.11619848730E+04  0.47000000000E+01 0.  1.
          6    1    1    2  502    0  0.40907480536E+02  0.23393580599E+02  0.18421280880E+02  0.17928754883E+03  0.17200000000E+03 0. -1.
         -6    1    1    2    0  502 -0.40907480536E+02 -0.23393580599E+02 -0.10742476760E+04  0.10889502977E+04  0.17200000000E+03 0.  1.
</event>
<event>
 4    1 -0.7151877E-004  0.1791428E+03  0.7818608E-02  0.1168635E+00
          5   -1    0    0  501    0  0.00000000000E+00  0.00000000000E+00  0.10089070700E+04  0.10089180174E+04  0.47000000000E+01 0. -1.
         -5   -1    0    0    0  501 -0.00000000000E+00 -0.00000000000E+00 -0.34997702978E+02  0.35311884879E+02  0.47000000000E+01 0.  1.
          6    1    1    2  502    0 -0.16542918991E+02  0.47270117080E+02  0.64827488607E+03  0.67257152783E+03  0.17200000000E+03 0. -1.
         -6    1    1    2    0  502  0.16542918991E+02 -0.47270117080E+02  0.32563448097E+03  0.37165837450E+03  0.17200000000E+03 0. -1.
</event>
<event>
 4    1 -0.7151877E-004  0.1759902E+03  0.7818608E-02  0.1171741E+00
          5   -1    0    0  501    0  0.00000000000E+00  0.00000000000E+00  0.12052492658E+03  0.12061653256E+03  0.47000000000E+01 0. -1.
         -5   -1    0    0    0  501 -0.00000000000E+00 -0.00000000000E+00 -0.41319753349E+03  0.41322426318E+03  0.47000000000E+01 0.  1.
          6    1    1    2  502    0 -0.80400907294E+01 -0.36385507860E+02  0.17871374957E+02  0.17689526360E+03  0.17200000000E+03 0. -1.
         -6    1    1    2    0  502  0.80400907294E+01  0.36385507860E+02 -0.31054398187E+03  0.35694553214E+03  0.17200000000E+03 0.  1.
</event>
<event>
 4    1 -0.7151877E-004  0.2791656E+03  0.7818608E-02  0.1096146E+00
         -5   -1    0    0    0  501 -0.00000000000E+00  0.00000000000E+00  0.47120296611E+03  0.47122640553E+03  0.47000000000E+01 0.  1.
          5   -1    0    0  501    0  0.00000000000E+00 -0.00000000000E+00 -0.17383008646E+03  0.17389361391E+03  0.47000000000E+01 0. -1.
          6    1    1    2  502    0  0.21258035339E+03  0.56205106496E+02  0.77383026785E+02  0.28969217020E+03  0.17200000000E+03 0. -1.
         -6    1    1    2    0  502 -0.21258035339E+03 -0.56205106496E+02  0.21998985286E+03  0.35542784923E+03  0.17200000000E+03 0. -1.
</event>
<event>
 4    1 -0.7151877E-004  0.1798159E+03  0.7818608E-02  0.1167981E+00
         -5   -1    0    0    0  501 -0.00000000000E+00  0.00000000000E+00  0.12266914702E+03  0.12275915294E+03  0.47000000000E+01 0.  1.
          5   -1    0    0  501    0  0.00000000000E+00 -0.00000000000E+00 -0.39762115689E+03  0.39764893362E+03  0.47000000000E+01 0. -1.
          6    1    1    2  502    0  0.25056870960E+02 -0.46064123175E+02 -0.28864342147E+03  0.34007172035E+03  0.17200000000E+03 0. -1.
         -6    1    1    2    0  502 -0.25056870960E+02  0.46064123175E+02  0.13691411595E+02  0.18033636621E+03  0.17200000000E+03 0.  1.
</event>
<event>
 4    1 -0.7151877E-004  0.2607671E+03  0.7818608E-02  0.1106683E+00
          5   -1    0    0  501    0  0.00000000000E+00  0.00000000000E+00  0.59691385957E+03  0.59693236279E+03  0.47000000000E+01 0. -1.
         -5   -1    0    0    0  501 -0.00000000000E+00 -0.00000000000E+00 -0.14776527078E+03  0.14783999881E+03  0.47000000000E+01 0.  1.
          6    1    1    2  502    0  0.23428651398E+02  0.19459331153E+03  0.40291649667E+03  0.47993870638E+03  0.17200000000E+03 0. -1.
         -6    1    1    2    0  502 -0.23428651398E+02 -0.19459331153E+03  0.46232092121E+02  0.26483365522E+03  0.17200000000E+03 0.  1.
</event>
<event>
 4    1 -0.7151877E-004  0.1749099E+03  0.7818608E-02  0.1172822E+00
         -5   -1    0    0    0  501 -0.00000000000E+00  0.00000000000E+00  0.30334174154E+02  0.30696125515E+02  0.47000000000E+01 0.  1.
          5   -1    0    0  501    0  0.00000000000E+00 -0.00000000000E+00 -0.18504134974E+04  0.18504194663E+04  0.47000000000E+01 0. -1.
          6    1    1    2  502    0 -0.21864746889E+02  0.23051970630E+02 -0.15467772939E+04  0.15566353000E+04  0.17200000000E+03 0. -1.
         -6    1    1    2    0  502  0.21864746889E+02 -0.23051970630E+02 -0.27330202939E+03  0.32448029181E+03  0.17200000000E+03 0.  1.
</event>
<event>
 4    1 -0.7151877E-004  0.2003028E+03  0.7818608E-02  0.1149484E+00
         -5   -1    0    0    0  501 -0.00000000000E+00  0.00000000000E+00  0.12342400082E+03  0.12351345667E+03  0.47000000000E+01 0.  1.
          5   -1    0    0  501    0  0.00000000000E+00 -0.00000000000E+00 -0.37637231342E+03  0.37640165821E+03  0.47000000000E+01 0. -1.
          6    1    1    2  502    0 -0.55680788309E+01 -0.10249984843E+03 -0.21894619877E+03  0.29674679508E+03  0.17200000000E+03 0. -1.
         -6    1    1    2    0  502  0.55680788309E+01  0.10249984843E+03 -0.34002113821E+02  0.20316831981E+03  0.17200000000E+03 0.  1.
</event>
<event>
 4    1 -0.7151877E-004  0.1741180E+03  0.7818608E-02  0.1173620E+00
         -5   -1    0    0    0  501 -0.00000000000E+00  0.00000000000E+00  0.17259869842E+03  0.17266267893E+03  0.47000000000E+01 0.  1.
          5   -1    0    0  501    0  0.00000000000E+00 -0.00000000000E+00 -0.59528730514E+03  0.59530585892E+03  0.47000000000E+01 0. -1.
          6    1    1    2  502    0  0.26462199121E+02  0.57295312938E+01 -0.53375901367E+03  0.56144078957E+03  0.17200000000E+03 0. -1.
         -6    1    1    2    0  502 -0.26462199121E+02 -0.57295312938E+01  0.11107040695E+03  0.20652774829E+03  0.17200000000E+03 0.  1.
</event>
<event>
 4    1 -0.7151877E-004  0.2690088E+03  0.7818608E-02  0.1101848E+00
         -5   -1    0    0    0  501 -0.00000000000E+00  0.00000000000E+00  0.13408288879E+04  0.13408371253E+04  0.47000000000E+01 0.  1.
          5   -1    0    0  501    0  0.00000000000E+00 -0.00000000000E+00 -0.13019208760E+03  0.13027689617E+03  0.47000000000E+01 0. -1.
          6    1    1    2  502    0  0.19834057695E+03 -0.58675153033E+02  0.42430239751E+02  0.27233450625E+03  0.17200000000E+03 0. -1.
         -6    1    1    2    0  502 -0.19834057695E+03  0.58675153033E+02  0.11682065605E+04  0.11987795152E+04  0.17200000000E+03 0.  1.
</event>
<event>
 4    1 -0.7151877E-004  0.1722986E+03  0.7818608E-02  0.1175472E+00
          5   -1    0    0  501    0  0.00000000000E+00  0.00000000000E+00  0.11747787743E+03  0.11757185754E+03  0.47000000000E+01 0. -1.
         -5   -1    0    0    0  501 -0.00000000000E+00 -0.00000000000E+00 -0.53228340520E+03  0.53230415502E+03  0.47000000000E+01 0.  1.
          6    1    1    2  502    0  0.81882159349E+01 -0.59792368246E+01  0.28156792527E+02  0.17458408610E+03  0.17200000000E+03 0. -1.
         -6    1    1    2    0  502 -0.81882159349E+01  0.59792368246E+01 -0.44296232030E+03  0.47529192646E+03  0.17200000000E+03 0.  1.
</event>
<event>
 4    1 -0.7151877E-004  0.2023564E+03  0.7818608E-02  0.1147766E+00
         -5   -1    0    0    0  501 -0.00000000000E+00  0.00000000000E+00  0.36231083448E+03  0.36234131807E+03  0.47000000000E+01 0.  1.
          5   -1    0    0  501    0  0.00000000000E+00 -0.00000000000E+00 -0.49990884476E+03  0.49993093830E+03  0.47000000000E+01 0. -1.
          6    1    1    2  502    0 -0.25229704713E+02  0.10357400265E+03 -0.44808818075E+03  0.49166160085E+03  0.17200000000E+03 0. -1.
         -6    1    1    2    0  502  0.25229704713E+02 -0.10357400265E+03  0.31049017047E+03  0.37061065552E+03  0.17200000000E+03 0.  1.
</event>
<event>
 4    1 -0.7151877E-004  0.1773364E+03  0.7818608E-02  0.1170406E+00
          5   -1    0    0  501    0  0.00000000000E+00  0.00000000000E+00  0.70566057123E+02  0.70722403932E+02  0.47000000000E+01 0. -1.
         -5   -1    0    0    0  501 -0.00000000000E+00 -0.00000000000E+00 -0.55102100572E+03  0.55104104996E+03  0.47000000000E+01 0.  1.
          6    1    1    2  502    0  0.29196441008E+02  0.31808540486E+02 -0.10387973968E+03  0.20552181327E+03  0.17200000000E+03 0. -1.
         -6    1    1    2    0  502 -0.29196441008E+02 -0.31808540486E+02 -0.37657520892E+03  0.41624164062E+03  0.17200000000E+03 0.  1.
</event>
<event>
 4    1 -0.7151877E-004  0.1944154E+03  0.7818608E-02  0.1154538E+00
         -5   -1    0    0    0  501 -0.00000000000E+00  0.00000000000E+00  0.69302748284E+03  0.69304341998E+03  0.47000000000E+01 0.  1.
          5   -1    0    0  501    0  0.00000000000E+00 -0.00000000000E+00 -0.15931230419E+03  0.15938161834E+03  0.47000000000E+01 0. -1.
          6    1    1    2  502    0 -0.82112235046E+02 -0.38352885123E+02 -0.78813483545E+02  0.20978305015E+03  0.17200000000E+03 0. -1.
         -6    1    1    2    0  502  0.82112235046E+02  0.38352885123E+02  0.61252866220E+03  0.64264198817E+03  0.17200000000E+03 0.  1.
</event>
<event>
 4    1 -0.7151877E-004  0.5550098E+03  0.7818608E-02  0.1000341E+00
         -5   -1    0    0    0  501 -0.00000000000E+00  0.00000000000E+00  0.51682631994E+03  0.51684769032E+03  0.47000000000E+01 0.  1.
          5   -1    0    0  501    0  0.00000000000E+00 -0.00000000000E+00 -0.91931720257E+03  0.91932921685E+03  0.47000000000E+01 0. -1.
          6    1    1    2  502    0 -0.51250041505E+03  0.12567916111E+03 -0.62710871047E+03  0.83743731808E+03  0.17200000000E+03 0. -1.
         -6    1    1    2    0  502  0.51250041505E+03 -0.12567916111E+03  0.22461782784E+03  0.59873958909E+03  0.17200000000E+03 0.  1.
</event>
<event>
 4    1 -0.7151877E-004  0.1868693E+03  0.7818608E-02  0.1161316E+00
          5   -1    0    0  501    0  0.00000000000E+00  0.00000000000E+00  0.20776088835E+03  0.20781404363E+03  0.47000000000E+01 0. -1.
         -5   -1    0    0    0  501 -0.00000000000E+00 -0.00000000000E+00 -0.25386972987E+03  0.25391323271E+03  0.47000000000E+01 0.  1.
          6    1    1    2  502    0 -0.63011597331E+02 -0.36954854297E+02  0.11120709087E+03  0.21745606387E+03  0.17200000000E+03 0. -1.
         -6    1    1    2    0  502  0.63011597331E+02  0.36954854297E+02 -0.15731593240E+03  0.24427121247E+03  0.17200000000E+03 0.  1.
</event>
<event>
 4    1 -0.7151877E-004  0.1809649E+03  0.7818608E-02  0.1166872E+00
         -5   -1    0    0    0  501 -0.00000000000E+00  0.00000000000E+00  0.19541860434E+03  0.19547511587E+03  0.47000000000E+01 0.  1.
          5   -1    0    0  501    0  0.00000000000E+00 -0.00000000000E+00 -0.37340946575E+03  0.37343904337E+03  0.47000000000E+01 0. -1.
          6    1    1    2  502    0  0.37471442388E+01 -0.56127067780E+02 -0.30021635884E+03  0.35053979937E+03  0.17200000000E+03 0. -1.
         -6    1    1    2    0  502 -0.37471442388E+01  0.56127067780E+02  0.12222549743E+03  0.21837435987E+03  0.17200000000E+03 0.  1.
</event>
<event>
 4    1 -0.7151877E-004  0.1762005E+03  0.7818608E-02  0.1171532E+00
          5   -1    0    0  501    0  0.00000000000E+00  0.00000000000E+00  0.31577757631E+03  0.31581255152E+03  0.47000000000E+01 0. -1.
         -5   -1    0    0    0  501 -0.00000000000E+00 -0.00000000000E+00 -0.14169859548E+03  0.14177652120E+03  0.47000000000E+01 0.  1.
          6    1    1    2  502    0  0.24164777839E+02 -0.29642323746E+02  0.21371556859E+03  0.27698546551E+03  0.17200000000E+03 0. -1.
         -6    1    1    2    0  502 -0.24164777839E+02  0.29642323746E+02 -0.39636587772E+02  0.18060360720E+03  0.17200000000E+03 0.  1.
</event>
<event>
 4    1 -0.7151877E-004  0.2160220E+03  0.7818608E-02  0.1136884E+00
          5   -1    0    0  501    0  0.00000000000E+00  0.00000000000E+00  0.10083485748E+04  0.10083595283E+04  0.47000000000E+01 0. -1.
         -5   -1    0    0    0  501 -0.00000000000E+00 -0.00000000000E+00 -0.12310935331E+03  0.12319903763E+03  0.47000000000E+01 0.  1.
          6    1    1    2  502    0  0.13023787924E+03  0.10936923435E+02  0.88964011618E+03  0.91549170275E+03  0.17200000000E+03 0. -1.
         -6    1    1    2    0  502 -0.13023787924E+03 -0.10936923435E+02 -0.44008947071E+01  0.21606686317E+03  0.17200000000E+03 0.  1.
</event>
<event>
 4    1 -0.7151877E-004  0.1870288E+03  0.7818608E-02  0.1161169E+00
         -5   -1    0    0    0  501 -0.00000000000E+00  0.00000000000E+00  0.42800187887E+03  0.42802768405E+03  0.47000000000E+01 0.  1.
          5   -1    0    0  501    0  0.00000000000E+00 -0.00000000000E+00 -0.65143793429E+03  0.65145488887E+03  0.47000000000E+01 0. -1.
          6    1    1    2  502    0  0.41840747346E+02  0.60374799494E+02 -0.61647063156E+03  0.64421720261E+03  0.17200000000E+03 0. -1.
         -6    1    1    2    0  502 -0.41840747346E+02 -0.60374799494E+02  0.39303457614E+03  0.43526537032E+03  0.17200000000E+03 0.  1.
</event>
<event>
 4    1 -0.7151877E-004  0.1773057E+03  0.7818608E-02  0.1170436E+00
          5   -1    0    0  501    0  0.00000000000E+00  0.00000000000E+00  0.20939716365E+03  0.20944990367E+03  0.47000000000E+01 0. -1.
         -5   -1    0    0    0  501 -0.00000000000E+00 -0.00000000000E+00 -0.39663136214E+03  0.39665920818E+03  0.47000000000E+01 0.  1.
          6    1    1    2  502    0  0.57964924453E+01  0.42658271598E+02  0.14531450039E+03  0.22924578837E+03  0.17200000000E+03 0. -1.
         -6    1    1    2    0  502 -0.57964924453E+01 -0.42658271598E+02 -0.33254869888E+03  0.37686332348E+03  0.17200000000E+03 0.  1.
</event>
<event>
 4    1 -0.7151877E-004  0.2042030E+03  0.7818608E-02  0.1146241E+00
          5   -1    0    0  501    0  0.00000000000E+00  0.00000000000E+00  0.12908536862E+03  0.12917090381E+03  0.47000000000E+01 0. -1.
         -5   -1    0    0    0  501 -0.00000000000E+00 -0.00000000000E+00 -0.46869719304E+03  0.46872075777E+03  0.47000000000E+01 0.  1.
          6    1    1    2  502    0  0.53470447577E+02  0.96207037870E+02 -0.30499235334E+01  0.20422581848E+03  0.17200000000E+03 0. -1.
         -6    1    1    2    0  502 -0.53470447577E+02 -0.96207037870E+02 -0.33656190089E+03  0.39366584311E+03  0.17200000000E+03 0.  1.
</event>
<event>
 4    1 -0.7151877E-004  0.2138510E+03  0.7818608E-02  0.1138552E+00
         -5   -1    0    0    0  501 -0.00000000000E+00  0.00000000000E+00  0.40012619531E+03  0.40015379815E+03  0.47000000000E+01 0.  1.
          5   -1    0    0  501    0  0.00000000000E+00 -0.00000000000E+00 -0.39079389677E+03  0.39082215873E+03  0.47000000000E+01 0. -1.
          6    1    1    2  502    0 -0.12706801800E+03  0.14025270074E+01 -0.32800805446E+03  0.39156293501E+03  0.17200000000E+03 0. -1.
         -6    1    1    2    0  502  0.12706801800E+03 -0.14025270074E+01  0.33734035300E+03  0.39941302188E+03  0.17200000000E+03 0.  1.
</event>
<event>
 4    1 -0.7151877E-004  0.1863607E+03  0.7818608E-02  0.1161785E+00
          5   -1    0    0  501    0  0.00000000000E+00  0.00000000000E+00  0.71627959851E+03  0.71629501830E+03  0.47000000000E+01 0. -1.
         -5   -1    0    0    0  501 -0.00000000000E+00 -0.00000000000E+00 -0.58456493753E+02  0.58645133318E+02  0.47000000000E+01 0.  1.
          6    1    1    2  502    0  0.13140802487E+02 -0.70523989446E+02  0.48965659221E+03  0.52392164688E+03  0.17200000000E+03 0. -1.
         -6    1    1    2    0  502 -0.13140802487E+02  0.70523989446E+02  0.16816651255E+03  0.25101850474E+03  0.17200000000E+03 0.  1.
</event>
<event>
 4    1 -0.7151877E-004  0.1732758E+03  0.7818608E-02  0.1174474E+00
          5   -1    0    0  501    0  0.00000000000E+00  0.00000000000E+00  0.15665284582E+03  0.15672333618E+03  0.47000000000E+01 0. -1.
         -5   -1    0    0    0  501 -0.00000000000E+00 -0.00000000000E+00 -0.19430978771E+03  0.19436662162E+03  0.47000000000E+01 0.  1.
          6    1    1    2  502    0  0.14412207936E+01  0.20938615684E+02  0.21979804470E+01  0.17328973963E+03  0.17200000000E+03 0. -1.
         -6    1    1    2    0  502 -0.14412207936E+01 -0.20938615684E+02 -0.39854922342E+02  0.17780021816E+03  0.17200000000E+03 0.  1.
</event>
<event>
 4    1 -0.7151877E-004  0.2369060E+03  0.7818608E-02  0.1121871E+00
          5   -1    0    0  501    0  0.00000000000E+00  0.00000000000E+00  0.15812805257E+04  0.15812875105E+04  0.47000000000E+01 0. -1.
         -5   -1    0    0    0  501 -0.00000000000E+00 -0.00000000000E+00 -0.11113515167E+03  0.11123449077E+03  0.47000000000E+01 0.  1.
          6    1    1    2  502    0  0.13586118441E+03  0.89900961744E+02  0.14333253098E+04  0.14527717949E+04  0.17200000000E+03 0. -1.
         -6    1    1    2    0  502 -0.13586118441E+03 -0.89900961744E+02  0.36820064262E+02  0.23975020643E+03  0.17200000000E+03 0.  1.
</event>
<event>
 4    1 -0.7151877E-004  0.1825666E+03  0.7818608E-02  0.1165342E+00
         -5   -1    0    0    0  501 -0.00000000000E+00  0.00000000000E+00  0.22897137802E+02  0.23374535707E+02  0.47000000000E+01 0.  1.
          5   -1    0    0  501    0  0.00000000000E+00 -0.00000000000E+00 -0.15077204266E+04  0.15077277522E+04  0.47000000000E+01 0. -1.
          6    1    1    2  502    0  0.20410650211E+02  0.57705724207E+02 -0.90443428777E+03  0.92267650135E+03  0.17200000000E+03 0. -1.
         -6    1    1    2    0  502 -0.20410650211E+02 -0.57705724207E+02 -0.58038900105E+03  0.60842578659E+03  0.17200000000E+03 0.  1.
</event>
<event>
 4    1 -0.7151877E-004  0.1848660E+03  0.7818608E-02  0.1163175E+00
          5   -1    0    0  501    0  0.00000000000E+00  0.00000000000E+00  0.29011021275E+03  0.29014828199E+03  0.47000000000E+01 0. -1.
         -5   -1    0    0    0  501 -0.00000000000E+00 -0.00000000000E+00 -0.96522544349E+03  0.96523688634E+03  0.47000000000E+01 0.  1.
          6    1    1    2  502    0 -0.24137566245E+02 -0.63315169467E+02  0.25058997109E+03  0.31140129480E+03  0.17200000000E+03 0. -1.
         -6    1    1    2    0  502  0.24137566245E+02  0.63315169467E+02 -0.92570520184E+03  0.94398387354E+03  0.17200000000E+03 0.  1.
</event>
<event>
 4    1 -0.7151877E-004  0.1940210E+03  0.7818608E-02  0.1154884E+00
         -5   -1    0    0    0  501 -0.00000000000E+00  0.00000000000E+00  0.29362855637E+03  0.29366616951E+03  0.47000000000E+01 0.  1.
          5   -1    0    0  501    0  0.00000000000E+00 -0.00000000000E+00 -0.85294225282E+03  0.85295520201E+03  0.47000000000E+01 0. -1.
          6    1    1    2  502    0  0.70639144447E+02  0.55409970061E+02 -0.80813308747E+03  0.83109761194E+03  0.17200000000E+03 0. -1.
         -6    1    1    2    0  502 -0.70639144447E+02 -0.55409970061E+02  0.24881939102E+03  0.31552375958E+03  0.17200000000E+03 0.  1.
</event>
<event>
 4    1 -0.7151877E-004  0.2008956E+03  0.7818608E-02  0.1148986E+00
         -5   -1    0    0    0  501 -0.00000000000E+00  0.00000000000E+00  0.10039455973E+04  0.10039565988E+04  0.47000000000E+01 0.  1.
          5   -1    0    0  501    0  0.00000000000E+00 -0.00000000000E+00 -0.49176738171E+02  0.49400825673E+02  0.47000000000E+01 0. -1.
          6    1    1    2  502    0 -0.81262406848E+02  0.64586867999E+02  0.25111084726E+03  0.32158311507E+03  0.17200000000E+03 0. -1.
         -6    1    1    2    0  502  0.81262406848E+02 -0.64586867999E+02  0.70365801187E+03  0.73177430943E+03  0.17200000000E+03 0.  1.
</event>
<event>
 4    1 -0.7151877E-004  0.1876799E+03  0.7818608E-02  0.1160571E+00
          5   -1    0    0  501    0  0.00000000000E+00  0.00000000000E+00  0.97523043060E+03  0.97524175607E+03  0.47000000000E+01 0. -1.
         -5   -1    0    0    0  501 -0.00000000000E+00 -0.00000000000E+00 -0.49208358757E+02  0.49432302916E+02  0.47000000000E+01 0.  1.
          6    1    1    2  502    0  0.21433375889E+02 -0.71974648921E+02  0.72816716516E+03  0.75196486627E+03  0.17200000000E+03 0. -1.
         -6    1    1    2    0  502 -0.21433375889E+02  0.71974648921E+02  0.19785490669E+03  0.27270919271E+03  0.17200000000E+03 0.  1.
</event>
<event>
 4    1 -0.7151877E-004  0.1727707E+03  0.7818608E-02  0.1174989E+00
          5   -1    0    0  501    0  0.00000000000E+00  0.00000000000E+00  0.62116098957E+03  0.62117877054E+03  0.47000000000E+01 0. -1.
         -5   -1    0    0    0  501 -0.00000000000E+00 -0.00000000000E+00 -0.96180244577E+02  0.96295012575E+02  0.47000000000E+01 0.  1.
          6    1    1    2  502    0  0.84692741704E+01  0.13927607511E+02  0.51634978472E+03  0.54448765554E+03  0.17200000000E+03 0. -1.
         -6    1    1    2    0  502 -0.84692741704E+01 -0.13927607511E+02  0.86309602725E+01  0.17298612757E+03  0.17200000000E+03 0.  1.
</event>
<event>
 4    1 -0.7151877E-004  0.2682265E+03  0.7818608E-02  0.1102299E+00
          5   -1    0    0  501    0  0.00000000000E+00  0.00000000000E+00  0.10847212732E+04  0.10847314555E+04  0.47000000000E+01 0. -1.
         -5   -1    0    0    0  501 -0.00000000000E+00 -0.00000000000E+00 -0.22510606186E+03  0.22515512227E+03  0.47000000000E+01 0.  1.
          6    1    1    2  502    0  0.68717962891E+02 -0.19400848692E+03  0.97988298579E+03  0.10159311577E+04  0.17200000000E+03 0. -1.
         -6    1    1    2    0  502 -0.68717962891E+02  0.19400848692E+03 -0.12026777441E+03  0.29395542006E+03  0.17200000000E+03 0.  1.
</event>
<event>
 4    1 -0.7151877E-004  0.2501251E+03  0.7818608E-02  0.1113226E+00
          5   -1    0    0  501    0  0.00000000000E+00  0.00000000000E+00  0.89260300574E+03  0.89261537958E+03  0.47000000000E+01 0. -1.
         -5   -1    0    0    0  501 -0.00000000000E+00 -0.00000000000E+00 -0.77428831861E+02  0.77571347825E+02  0.47000000000E+01 0.  1.
          6    1    1    2  502    0 -0.10768703464E+03 -0.14622612875E+03  0.25747117421E+03  0.35896237088E+03  0.17200000000E+03 0.  1.
         -6    1    1    2    0  502  0.10768703464E+03  0.14622612875E+03  0.55770299967E+03  0.61122435652E+03  0.17200000000E+03 0.  1.
</event>
<event>
 4    1 -0.7151877E-004  0.1860981E+03  0.7818608E-02  0.1162028E+00
         -5   -1    0    0    0  501 -0.00000000000E+00  0.00000000000E+00  0.23257910766E+03  0.23262659203E+03  0.47000000000E+01 0.  1.
          5   -1    0    0  501    0  0.00000000000E+00 -0.00000000000E+00 -0.26066174529E+03  0.26070411477E+03  0.47000000000E+01 0. -1.
          6    1    1    2  502    0 -0.25513417533E+02  0.66314146714E+02 -0.17559226381E+03  0.25586157124E+03  0.17200000000E+03 0. -1.
         -6    1    1    2    0  502  0.25513417533E+02 -0.66314146714E+02  0.14750962618E+03  0.23746913556E+03  0.17200000000E+03 0.  1.
</event>
<event>
 4    1 -0.7151877E-004  0.1859383E+03  0.7818608E-02  0.1162177E+00
         -5   -1    0    0    0  501 -0.00000000000E+00  0.00000000000E+00  0.23648064057E+03  0.23652734169E+03  0.47000000000E+01 0.  1.
          5   -1    0    0  501    0  0.00000000000E+00 -0.00000000000E+00 -0.20113007526E+03  0.20118498248E+03  0.47000000000E+01 0. -1.
          6    1    1    2  502    0  0.52355888087E+02  0.47412224061E+02 -0.96771114542E+02  0.20961323102E+03  0.17200000000E+03 0. -1.
         -6    1    1    2    0  502 -0.52355888087E+02 -0.47412224061E+02  0.13212167985E+03  0.22809909315E+03  0.17200000000E+03 0. -1.
</event>
<event>
 4    1 -0.7151877E-004  0.2152954E+03  0.7818608E-02  0.1137440E+00
          5   -1    0    0  501    0  0.00000000000E+00  0.00000000000E+00  0.17499207999E+04  0.17499271116E+04  0.47000000000E+01 0. -1.
         -5   -1    0    0    0  501 -0.00000000000E+00 -0.00000000000E+00 -0.33502017828E+02  0.33830093091E+02  0.47000000000E+01 0.  1.
          6    1    1    2  502    0 -0.12936918935E+03 -0.56303926383E+01  0.12701754269E+04  0.12882925536E+04  0.17200000000E+03 0. -1.
         -6    1    1    2    0  502  0.12936918935E+03  0.56303926383E+01  0.44624335511E+03  0.49546465106E+03  0.17200000000E+03 0.  1.
</event>
<event>
 4    1 -0.7151877E-004  0.1904637E+03  0.7818608E-02  0.1158044E+00
         -5   -1    0    0    0  501 -0.00000000000E+00  0.00000000000E+00  0.21660494966E+03  0.21665593510E+03  0.47000000000E+01 0.  1.
          5   -1    0    0  501    0  0.00000000000E+00 -0.00000000000E+00 -0.28130074368E+03  0.28134000497E+03  0.47000000000E+01 0. -1.
          6    1    1    2  502    0  0.78452720523E+02 -0.23185699064E+02 -0.19078030669E+03  0.26958028752E+03  0.17200000000E+03 0. -1.
         -6    1    1    2    0  502 -0.78452720523E+02  0.23185699064E+02  0.12608451266E+03  0.22841565256E+03  0.17200000000E+03 0.  1.
</event>
<event>
 4    1 -0.7151877E-004  0.1741162E+03  0.7818608E-02  0.1173622E+00
         -5   -1    0    0    0  501 -0.00000000000E+00  0.00000000000E+00  0.18325002374E+03  0.18331028668E+03  0.47000000000E+01 0.  1.
          5   -1    0    0  501    0  0.00000000000E+00 -0.00000000000E+00 -0.62170940153E+03  0.62172716681E+03  0.47000000000E+01 0. -1.
          6    1    1    2  502    0  0.23610846878E+02  0.13227339440E+02 -0.56407625814E+03  0.59033758104E+03  0.17200000000E+03 0. -1.
         -6    1    1    2    0  502 -0.23610846878E+02 -0.13227339440E+02  0.12561688035E+03  0.21469987244E+03  0.17200000000E+03 0.  1.
</event>
<event>
 4    1 -0.7151877E-004  0.3976357E+03  0.7818608E-02  0.1044601E+00
          5   -1    0    0  501    0  0.00000000000E+00  0.00000000000E+00  0.69550269677E+03  0.69551857719E+03  0.47000000000E+01 0. -1.
         -5   -1    0    0    0  501 -0.00000000000E+00 -0.00000000000E+00 -0.38661001098E+03  0.38663857877E+03  0.47000000000E+01 0.  1.
          6    1    1    2  502    0 -0.13174652100E+03 -0.33342619678E+03  0.50175953208E+03  0.64021621545E+03  0.17200000000E+03 0. -1.
         -6    1    1    2    0  502  0.13174652100E+03  0.33342619678E+03 -0.19286684629E+03  0.44194094050E+03  0.17200000000E+03 0. -1.
</event>
<event>
 4    1 -0.7151877E-004  0.1890155E+03  0.7818608E-02  0.1159352E+00
          5   -1    0    0  501    0  0.00000000000E+00  0.00000000000E+00  0.51933116991E+03  0.51935243721E+03  0.47000000000E+01 0. -1.
         -5   -1    0    0    0  501 -0.00000000000E+00 -0.00000000000E+00 -0.10620433356E+03  0.10630828033E+03  0.47000000000E+01 0.  1.
          6    1    1    2  502    0  0.67538674096E+02  0.39766624958E+02  0.39235107910E+03  0.43550686129E+03  0.17200000000E+03 0. -1.
         -6    1    1    2    0  502 -0.67538674096E+02 -0.39766624958E+02  0.20775757244E+02  0.19015385625E+03  0.17200000000E+03 0. -1.
</event>
<event>
 4    1 -0.7151877E-004  0.2153846E+03  0.7818608E-02  0.1137372E+00
          5   -1    0    0  501    0  0.00000000000E+00  0.00000000000E+00  0.76401054873E+03  0.76402500520E+03  0.47000000000E+01 0. -1.
         -5   -1    0    0    0  501 -0.00000000000E+00 -0.00000000000E+00 -0.17489947538E+03  0.17496261454E+03  0.47000000000E+01 0.  1.
          6    1    1    2  502    0  0.56370283607E+02  0.11674300852E+03  0.67392429369E+03  0.70750582509E+03  0.17200000000E+03 0. -1.
         -6    1    1    2    0  502 -0.56370283607E+02 -0.11674300852E+03 -0.84813220339E+02  0.23148179465E+03  0.17200000000E+03 0.  1.
</event>
<event>
 4    1 -0.7151877E-004  0.1795582E+03  0.7818608E-02  0.1168231E+00
         -5   -1    0    0    0  501 -0.00000000000E+00  0.00000000000E+00  0.51210181390E+03  0.51212338142E+03  0.47000000000E+01 0.  1.
          5   -1    0    0  501    0  0.00000000000E+00 -0.00000000000E+00 -0.71209407723E+02  0.71364345077E+02  0.47000000000E+01 0. -1.
          6    1    1    2  502    0  0.37572118730E+02  0.35291379077E+02  0.12060532794E+03  0.21630254430E+03  0.17200000000E+03 0. -1.
         -6    1    1    2    0  502 -0.37572118730E+02 -0.35291379077E+02  0.32028707823E+03  0.36718518220E+03  0.17200000000E+03 0.  1.
</event>
<event>
 4    1 -0.7151877E-004  0.2636671E+03  0.7818608E-02  0.1104960E+00
         -5   -1    0    0    0  501 -0.00000000000E+00  0.00000000000E+00  0.29618580896E+03  0.29622309740E+03  0.47000000000E+01 0.  1.
          5   -1    0    0  501    0  0.00000000000E+00 -0.00000000000E+00 -0.31576070480E+03  0.31579568188E+03  0.47000000000E+01 0. -1.
          6    1    1    2  502    0 -0.19943662397E+03 -0.12703090284E+02 -0.16486878126E+03  0.31096953310E+03  0.17200000000E+03 0. -1.
         -6    1    1    2    0  502  0.19943662397E+03  0.12703090284E+02  0.14529388542E+03  0.30104924618E+03  0.17200000000E+03 0.  1.
</event>
<event>
 4    1 -0.7151877E-004  0.2075380E+03  0.7818608E-02  0.1143531E+00
         -5   -1    0    0    0  501 -0.00000000000E+00  0.00000000000E+00  0.29510271643E+03  0.29514014170E+03  0.47000000000E+01 0.  1.
          5   -1    0    0  501    0  0.00000000000E+00 -0.00000000000E+00 -0.35071680309E+03  0.35074829432E+03  0.47000000000E+01 0. -1.
          6    1    1    2  502    0 -0.16095267469E+02 -0.11501730554E+03 -0.27458469001E+03  0.34419295489E+03  0.17200000000E+03 0. -1.
         -6    1    1    2    0  502  0.16095267469E+02  0.11501730554E+03  0.21897060335E+03  0.30169548114E+03  0.17200000000E+03 0.  1.
</event>
<event>
 4    1 -0.7151877E-004  0.1726024E+03  0.7818608E-02  0.1175161E+00
          5   -1    0    0  501    0  0.00000000000E+00  0.00000000000E+00  0.12864267003E+03  0.12872849938E+03  0.47000000000E+01 0. -1.
         -5   -1    0    0    0  501 -0.00000000000E+00 -0.00000000000E+00 -0.20387372322E+04  0.20387426497E+04  0.47000000000E+01 0.  1.
          6    1    1    2  502    0  0.14193241331E+02 -0.24770851534E+01  0.65306268709E+02  0.18454401313E+03  0.17200000000E+03 0. -1.
         -6    1    1    2    0  502 -0.14193241331E+02  0.24770851534E+01 -0.19754008308E+04  0.19829271360E+04  0.17200000000E+03 0.  1.
</event>
<event>
 4    1 -0.7151877E-004  0.2012350E+03  0.7818608E-02  0.1148701E+00
         -5   -1    0    0    0  501 -0.00000000000E+00  0.00000000000E+00  0.19431358279E+03  0.19437041559E+03  0.47000000000E+01 0.  1.
          5   -1    0    0  501    0  0.00000000000E+00 -0.00000000000E+00 -0.38044621925E+03  0.38047524984E+03  0.47000000000E+01 0. -1.
          6    1    1    2  502    0  0.10443872309E+03  0.20233945294E+01 -0.28638824701E+03  0.35001966949E+03  0.17200000000E+03 0. -1.
         -6    1    1    2    0  502 -0.10443872309E+03 -0.20233945294E+01  0.10025561054E+03  0.22482599594E+03  0.17200000000E+03 0. -1.
</event>
<event>
 4    1 -0.7151877E-004  0.1774861E+03  0.7818608E-02  0.1170258E+00
         -5   -1    0    0    0  501 -0.00000000000E+00  0.00000000000E+00  0.46307735207E+03  0.46310120277E+03  0.47000000000E+01 0.  1.
          5   -1    0    0  501    0  0.00000000000E+00 -0.00000000000E+00 -0.13372267761E+03  0.13380524843E+03  0.47000000000E+01 0. -1.
          6    1    1    2  502    0 -0.21669466297E+02  0.38049435795E+02 -0.44570267380E+02  0.18299681437E+03  0.17200000000E+03 0. -1.
         -6    1    1    2    0  502  0.21669466297E+02 -0.38049435795E+02  0.37392494184E+03  0.41390963683E+03  0.17200000000E+03 0.  1.
</event>
<event>
 4    1 -0.7151877E-004  0.1825506E+03  0.7818608E-02  0.1165357E+00
          5   -1    0    0  501    0  0.00000000000E+00  0.00000000000E+00  0.14024040743E+04  0.14024119501E+04  0.47000000000E+01 0. -1.
         -5   -1    0    0    0  501 -0.00000000000E+00 -0.00000000000E+00 -0.38019185917E+02  0.38308595612E+02  0.47000000000E+01 0.  1.
          6    1    1    2  502    0  0.43419728725E+02  0.43075041832E+02  0.11247802457E+04  0.11394978425E+04  0.17200000000E+03 0. -1.
         -6    1    1    2    0  502 -0.43419728725E+02 -0.43075041832E+02  0.23960464274E+03  0.30122270315E+03  0.17200000000E+03 0.  1.
</event>
<event>
 4    1 -0.7151877E-004  0.1967058E+03  0.7818608E-02  0.1152548E+00
         -5   -1    0    0    0  501 -0.00000000000E+00  0.00000000000E+00  0.13116664178E+03  0.13125082063E+03  0.47000000000E+01 0.  1.
          5   -1    0    0  501    0  0.00000000000E+00 -0.00000000000E+00 -0.81075040537E+03  0.81076402844E+03  0.47000000000E+01 0. -1.
          6    1    1    2  502    0  0.95405422063E+02 -0.26427634179E+01 -0.71550890237E+03  0.74205536729E+03  0.17200000000E+03 0. -1.
         -6    1    1    2    0  502 -0.95405422063E+02  0.26427634179E+01  0.35925138774E+02  0.19995948178E+03  0.17200000000E+03 0.  1.
</event>
<event>
 4    1 -0.7151877E-004  0.1924299E+03  0.7818608E-02  0.1156288E+00
         -5   -1    0    0    0  501 -0.00000000000E+00  0.00000000000E+00  0.39544068215E+03  0.39546861202E+03  0.47000000000E+01 0.  1.
          5   -1    0    0  501    0  0.00000000000E+00 -0.00000000000E+00 -0.33065306842E+03  0.33068647033E+03  0.47000000000E+01 0. -1.
          6    1    1    2  502    0 -0.38133129467E+02  0.77402488846E+02 -0.27501291648E+03  0.33565068907E+03  0.17200000000E+03 0. -1.
         -6    1    1    2    0  502  0.38133129467E+02 -0.77402488846E+02  0.33980053020E+03  0.39050439328E+03  0.17200000000E+03 0.  1.
</event>
<event>
 4    1 -0.7151877E-004  0.3591182E+03  0.7818608E-02  0.1058934E+00
         -5   -1    0    0    0  501 -0.00000000000E+00  0.00000000000E+00  0.66746841097E+03  0.66748495837E+03  0.47000000000E+01 0.  1.
          5   -1    0    0  501    0  0.00000000000E+00 -0.00000000000E+00 -0.19666301016E+03  0.19671916420E+03  0.47000000000E+01 0. -1.
          6    1    1    2  502    0  0.18024268546E+03 -0.25863968354E+03  0.17781790343E+03  0.40073073047E+03  0.17200000000E+03 0. -1.
         -6    1    1    2    0  502 -0.18024268546E+03  0.25863968354E+03  0.29298749738E+03  0.46347339210E+03  0.17200000000E+03 0.  1.
</event>
<event>
 4    1 -0.7151877E-004  0.2018165E+03  0.7818608E-02  0.1148215E+00
         -5   -1    0    0    0  501 -0.00000000000E+00  0.00000000000E+00  0.42674173449E+03  0.42676761587E+03  0.47000000000E+01 0.  1.
          5   -1    0    0  501    0  0.00000000000E+00 -0.00000000000E+00 -0.49843172207E+03  0.49845388108E+03  0.47000000000E+01 0. -1.
          6    1    1    2  502    0  0.58184118518E+02 -0.88093709891E+02 -0.45181710879E+03  0.49484198808E+03  0.17200000000E+03 0. -1.
         -6    1    1    2    0  502 -0.58184118518E+02  0.88093709891E+02  0.38012712122E+03  0.43037950887E+03  0.17200000000E+03 0.  1.
</event>
<event>
 4    1 -0.7151877E-004  0.1862006E+03  0.7818608E-02  0.1161933E+00
          5   -1    0    0  501    0  0.00000000000E+00  0.00000000000E+00  0.29354007712E+03  0.29357770159E+03  0.47000000000E+01 0. -1.
         -5   -1    0    0    0  501 -0.00000000000E+00 -0.00000000000E+00 -0.26352683604E+03  0.26356874495E+03  0.47000000000E+01 0.  1.
          6    1    1    2  502    0 -0.58387439581E+02 -0.40957990699E+02  0.22196431180E+03  0.28972194569E+03  0.17200000000E+03 0. -1.
         -6    1    1    2    0  502  0.58387439581E+02  0.40957990699E+02 -0.19195107072E+03  0.26742450085E+03  0.17200000000E+03 0.  1.
</event>
<event>
 4    1 -0.7151877E-004  0.3775572E+03  0.7818608E-02  0.1051840E+00
          5   -1    0    0  501    0  0.00000000000E+00  0.00000000000E+00  0.92141364616E+03  0.92142563310E+03  0.47000000000E+01 0. -1.
         -5   -1    0    0    0  501 -0.00000000000E+00 -0.00000000000E+00 -0.34118433638E+03  0.34121670737E+03  0.47000000000E+01 0.  1.
          6    1    1    2  502    0 -0.48211683226E+02  0.33262747815E+03  0.75686489516E+03  0.84580959746E+03  0.17200000000E+03 0. -1.
         -6    1    1    2    0  502  0.48211683226E+02 -0.33262747815E+03 -0.17663558538E+03  0.41683274301E+03  0.17200000000E+03 0.  1.
</event>
<event>
 4    1 -0.7151877E-004  0.1795830E+03  0.7818608E-02  0.1168207E+00
         -5   -1    0    0    0  501 -0.00000000000E+00  0.00000000000E+00  0.24024377989E+03  0.24028974962E+03  0.47000000000E+01 0.  1.
          5   -1    0    0  501    0  0.00000000000E+00 -0.00000000000E+00 -0.15367245047E+03  0.15374430732E+03  0.47000000000E+01 0. -1.
          6    1    1    2  502    0 -0.49822130849E+02  0.13556988359E+02  0.11349960114E+03  0.21244339508E+03  0.17200000000E+03 0.  1.
         -6    1    1    2    0  502  0.49822130849E+02 -0.13556988359E+02 -0.26928271726E+02  0.18159066186E+03  0.17200000000E+03 0. -1.
</event>
<event>
 4    1 -0.7151877E-004  0.2210441E+03  0.7818608E-02  0.1133107E+00
          5   -1    0    0  501    0  0.00000000000E+00  0.00000000000E+00  0.34673338845E+03  0.34676524143E+03  0.47000000000E+01 0. -1.
         -5   -1    0    0    0  501 -0.00000000000E+00 -0.00000000000E+00 -0.36775989311E+03  0.36778992507E+03  0.47000000000E+01 0.  1.
          6    1    1    2  502    0 -0.33893261243E+02 -0.13463936389E+03  0.27010110144E+03  0.34902022357E+03  0.17200000000E+03 0. -1.
         -6    1    1    2    0  502  0.33893261243E+02  0.13463936389E+03 -0.29112760610E+03  0.36553494293E+03  0.17200000000E+03 0.  1.
</event>
<event>
 4    1 -0.7151877E-004  0.1937998E+03  0.7818608E-02  0.1155078E+00
         -5   -1    0    0    0  501 -0.00000000000E+00  0.00000000000E+00  0.12526936104E+04  0.12527024273E+04  0.47000000000E+01 0.  1.
          5   -1    0    0  501    0  0.00000000000E+00 -0.00000000000E+00 -0.23650184293E+03  0.23654853986E+03  0.47000000000E+01 0. -1.
          6    1    1    2  502    0 -0.13425345182E+02  0.88284240907E+02 -0.18773844094E+03  0.26982229206E+03  0.17200000000E+03 0. -1.
         -6    1    1    2    0  502  0.13425345182E+02 -0.88284240907E+02  0.12039302084E+04  0.12194286751E+04  0.17200000000E+03 0.  1.
</event>
<event>
 4    1 -0.7151877E-004  0.2688229E+03  0.7818608E-02  0.1101955E+00
          5   -1    0    0  501    0  0.00000000000E+00  0.00000000000E+00  0.13312652148E+04  0.13312735114E+04  0.47000000000E+01 0. -1.
         -5   -1    0    0    0  501 -0.00000000000E+00 -0.00000000000E+00 -0.77614802088E+02  0.77756977199E+02  0.47000000000E+01 0.  1.
          6    1    1    2  502    0 -0.16466709656E+03  0.12476582333E+03  0.10135522834E+04  0.10485962018E+04  0.17200000000E+03 0. -1.
         -6    1    1    2    0  502  0.16466709656E+03 -0.12476582333E+03  0.24009812933E+03  0.36043428676E+03  0.17200000000E+03 0.  1.
</event>
<event>
 4    1 -0.7151877E-004  0.1887702E+03  0.7818608E-02  0.1159575E+00
         -5   -1    0    0    0  501 -0.00000000000E+00  0.00000000000E+00  0.15033709910E+03  0.15041054939E+03  0.47000000000E+01 0.  1.
          5   -1    0    0  501    0  0.00000000000E+00 -0.00000000000E+00 -0.23916041348E+03  0.23920659141E+03  0.47000000000E+01 0. -1.
          6    1    1    2  502    0  0.78871682954E+01 -0.77382075169E+02 -0.63454719556E+02  0.19914992949E+03  0.17200000000E+03 0. -1.
         -6    1    1    2    0  502 -0.78871682954E+01  0.77382075169E+02 -0.25368594822E+02  0.19046721131E+03  0.17200000000E+03 0.  1.
</event>
<event>
 4    1 -0.7151877E-004  0.2064014E+03  0.7818608E-02  0.1144448E+00
          5   -1    0    0  501    0  0.00000000000E+00  0.00000000000E+00  0.22408847846E+03  0.22413776161E+03  0.47000000000E+01 0. -1.
         -5   -1    0    0    0  501 -0.00000000000E+00 -0.00000000000E+00 -0.51067633428E+03  0.51069796200E+03  0.47000000000E+01 0.  1.
          6    1    1    2  502    0  0.11409320659E+03  0.53591973202E+00  0.14782832455E+03  0.25387942126E+03  0.17200000000E+03 0. -1.
         -6    1    1    2    0  502 -0.11409320659E+03 -0.53591973202E+00 -0.43441618037E+03  0.48095630235E+03  0.17200000000E+03 0.  1.
</event>
<event>
 4    1 -0.7151877E-004  0.1769920E+03  0.7818608E-02  0.1170746E+00
          5   -1    0    0  501    0  0.00000000000E+00  0.00000000000E+00  0.61876436349E+02  0.62054680527E+02  0.47000000000E+01 0. -1.
         -5   -1    0    0    0  501 -0.00000000000E+00 -0.00000000000E+00 -0.63904398226E+03  0.63906126565E+03  0.47000000000E+01 0.  1.
          6    1    1    2  502    0 -0.24122617186E+02  0.34062835241E+02 -0.12826698218E+03  0.21858315608E+03  0.17200000000E+03 0. -1.
         -6    1    1    2    0  502  0.24122617186E+02 -0.34062835241E+02 -0.44890056373E+03  0.48253279010E+03  0.17200000000E+03 0.  1.
</event>
<event>
 4    1 -0.7151877E-004  0.2300175E+03  0.7818608E-02  0.1126627E+00
          5   -1    0    0  501    0  0.00000000000E+00  0.00000000000E+00  0.15988900017E+03  0.15995806442E+03  0.47000000000E+01 0. -1.
         -5   -1    0    0    0  501 -0.00000000000E+00 -0.00000000000E+00 -0.40317449271E+03  0.40320188686E+03  0.47000000000E+01 0.  1.
          6    1    1    2  502    0 -0.99285337722E+02  0.11604508771E+03 -0.23122093376E+01  0.23002910029E+03  0.17200000000E+03 0. -1.
         -6    1    1    2    0  502  0.99285337722E+02 -0.11604508771E+03 -0.24097328320E+03  0.33313085100E+03  0.17200000000E+03 0.  1.
</event>
<event>
 4    1 -0.7151877E-004  0.1815884E+03  0.7818608E-02  0.1166275E+00
         -5   -1    0    0    0  501 -0.00000000000E+00  0.00000000000E+00  0.19143784904E+04  0.19143842599E+04  0.47000000000E+01 0.  1.
          5   -1    0    0  501    0  0.00000000000E+00 -0.00000000000E+00 -0.27042902277E+03  0.27046986219E+03  0.47000000000E+01 0. -1.
          6    1    1    2  502    0  0.36411893949E+02  0.45437170914E+02 -0.23509323996E+03  0.29705756008E+03  0.17200000000E+03 0. -1.
         -6    1    1    2    0  502 -0.36411893949E+02 -0.45437170914E+02  0.18790427076E+04  0.18877965620E+04  0.17200000000E+03 0.  1.
</event>
<event>
 4    1 -0.7151877E-004  0.1769359E+03  0.7818608E-02  0.1170802E+00
          5   -1    0    0  501    0  0.00000000000E+00  0.00000000000E+00  0.15297099448E+03  0.15304318068E+03  0.47000000000E+01 0. -1.
         -5   -1    0    0    0  501 -0.00000000000E+00 -0.00000000000E+00 -0.38049117088E+03  0.38052019805E+03  0.47000000000E+01 0.  1.
          6    1    1    2  502    0  0.16621931110E+02 -0.38026589528E+02  0.67647201698E+02  0.18942664544E+03  0.17200000000E+03 0. -1.
         -6    1    1    2    0  502 -0.16621931110E+02  0.38026589528E+02 -0.29516737810E+03  0.34413673329E+03  0.17200000000E+03 0.  1.
</event>
<event>
 4    1 -0.7151877E-004  0.1720517E+03  0.7818608E-02  0.1175725E+00
         -5   -1    0    0    0  501 -0.00000000000E+00  0.00000000000E+00  0.25158176522E+03  0.25162566362E+03  0.47000000000E+01 0.  1.
          5   -1    0    0  501    0  0.00000000000E+00 -0.00000000000E+00 -0.86145613312E+03  0.86146895434E+03  0.47000000000E+01 0. -1.
          6    1    1    2  502    0  0.27325802710E+01  0.32115364891E+01 -0.82208737096E+03  0.83989846199E+03  0.17200000000E+03 0. -1.
         -6    1    1    2    0  502 -0.27325802710E+01 -0.32115364891E+01  0.21221300306E+03  0.27319615596E+03  0.17200000000E+03 0.  1.
</event>
<event>
 4    1 -0.7151877E-004  0.1857914E+03  0.7818608E-02  0.1162313E+00
          5   -1    0    0  501    0  0.00000000000E+00  0.00000000000E+00  0.12406350879E+04  0.12406439906E+04  0.47000000000E+01 0. -1.
         -5   -1    0    0    0  501 -0.00000000000E+00 -0.00000000000E+00 -0.17000187145E+03  0.17006682892E+03  0.47000000000E+01 0.  1.
          6    1    1    2  502    0 -0.24353414849E+02  0.65888922807E+02  0.11803896144E+04  0.11949217886E+04  0.17200000000E+03 0. -1.
         -6    1    1    2    0  502  0.24353414849E+02 -0.65888922807E+02 -0.10975639798E+03  0.21578903091E+03  0.17200000000E+03 0.  1.
</event>
<event>
 4    1 -0.7151877E-004  0.1942073E+03  0.7818608E-02  0.1154720E+00
         -5   -1    0    0    0  501 -0.00000000000E+00  0.00000000000E+00  0.35609438410E+02  0.35918269778E+02  0.47000000000E+01 0.  1.
          5   -1    0    0  501    0  0.00000000000E+00 -0.00000000000E+00 -0.20294108217E+04  0.20294162641E+04  0.47000000000E+01 0. -1.
          6    1    1    2  502    0 -0.72083616516E+02  0.54188870445E+02 -0.17126684736E+04  0.17236443316E+04  0.17200000000E+03 0. -1.
         -6    1    1    2    0  502  0.72083616516E+02 -0.54188870445E+02 -0.28113290968E+03  0.34169020231E+03  0.17200000000E+03 0.  1.
</event>
<event>
 4    1 -0.7151877E-004  0.2607095E+03  0.7818608E-02  0.1106718E+00
         -5   -1    0    0    0  501 -0.00000000000E+00  0.00000000000E+00  0.93460114567E+03  0.93461296347E+03  0.47000000000E+01 0.  1.
          5   -1    0    0  501    0  0.00000000000E+00 -0.00000000000E+00 -0.14440414750E+03  0.14448061398E+03  0.47000000000E+01 0. -1.
          6    1    1    2  502    0  0.19478362545E+03  0.21090288257E+02  0.14899044769E+02  0.26113491252E+03  0.17200000000E+03 0. -1.
         -6    1    1    2    0  502 -0.19478362545E+03 -0.21090288257E+02  0.77529795340E+03  0.81795866494E+03  0.17200000000E+03 0.  1.
</event>
<event>
 4    1 -0.7151877E-004  0.2032770E+03  0.7818608E-02  0.1147003E+00
          5   -1    0    0  501    0  0.00000000000E+00  0.00000000000E+00  0.27614099270E+03  0.27618098749E+03  0.47000000000E+01 0. -1.
         -5   -1    0    0    0  501 -0.00000000000E+00 -0.00000000000E+00 -0.29033043346E+04  0.29033081389E+04  0.47000000000E+01 0.  1.
          6    1    1    2  502    0 -0.58704563888E+02  0.91056697924E+02  0.23465605602E+03  0.31045935754E+03  0.17200000000E+03 0. -1.
         -6    1    1    2    0  502  0.58704563888E+02 -0.91056697924E+02 -0.28618193979E+04  0.28690297688E+04  0.17200000000E+03 0.  1.
</event>
<event>
 4    1 -0.7151877E-004  0.2005011E+03  0.7818608E-02  0.1149317E+00
         -5   -1    0    0    0  501 -0.00000000000E+00  0.00000000000E+00  0.10151293358E+03  0.10162167920E+03  0.47000000000E+01 0.  1.
          5   -1    0    0  501    0  0.00000000000E+00 -0.00000000000E+00 -0.87611237749E+03  0.87612498423E+03  0.47000000000E+01 0. -1.
          6    1    1    2  502    0  0.50391216606E+02 -0.89874395798E+02 -0.74929282912E+03  0.77565483658E+03  0.17200000000E+03 0. -1.
         -6    1    1    2    0  502 -0.50391216606E+02  0.89874395798E+02 -0.25306614789E+02  0.20209182686E+03  0.17200000000E+03 0.  1.
</event>
<event>
 4    1 -0.7151877E-004  0.1791214E+03  0.7818608E-02  0.1168656E+00
         -5   -1    0    0    0  501 -0.00000000000E+00  0.00000000000E+00  0.24707974496E+03  0.24712444309E+03  0.47000000000E+01 0.  1.
          5   -1    0    0  501    0  0.00000000000E+00 -0.00000000000E+00 -0.19117941245E+03  0.19123717668E+03  0.47000000000E+01 0. -1.
          6    1    1    2  502    0  0.39911035657E+02 -0.30126165727E+02 -0.96248789597E+02  0.20334282905E+03  0.17200000000E+03 0. -1.
         -6    1    1    2    0  502 -0.39911035657E+02  0.30126165727E+02  0.15214912211E+03  0.23501879071E+03  0.17200000000E+03 0.  1.
</event>
<event>
 4    1 -0.7151877E-004  0.1810268E+03  0.7818608E-02  0.1166813E+00
         -5   -1    0    0    0  501 -0.00000000000E+00  0.00000000000E+00  0.38550331348E+03  0.38553196327E+03  0.47000000000E+01 0.  1.
          5   -1    0    0  501    0  0.00000000000E+00 -0.00000000000E+00 -0.16878593707E+03  0.16885136231E+03  0.47000000000E+01 0. -1.
          6    1    1    2  502    0  0.55255261161E+02  0.11556241280E+02 -0.86970112413E+02  0.20083448671E+03  0.17200000000E+03 0. -1.
         -6    1    1    2    0  502 -0.55255261161E+02 -0.11556241280E+02  0.30368748882E+03  0.35354883887E+03  0.17200000000E+03 0.  1.
</event>
<event>
 4    1 -0.7151877E-004  0.1820390E+03  0.7818608E-02  0.1165844E+00
          5   -1    0    0  501    0  0.00000000000E+00  0.00000000000E+00  0.76673571265E+02  0.76817488441E+02  0.47000000000E+01 0. -1.
         -5   -1    0    0    0  501 -0.00000000000E+00 -0.00000000000E+00 -0.63287480172E+03  0.63289225359E+03  0.47000000000E+01 0.  1.
          6    1    1    2  502    0  0.57619987120E+02 -0.15301863296E+02 -0.78026786699E+02  0.19805653077E+03  0.17200000000E+03 0. -1.
         -6    1    1    2    0  502 -0.57619987120E+02  0.15301863296E+02 -0.47817444376E+03  0.51165321127E+03  0.17200000000E+03 0.  1.
</event>
<event>
 4    1 -0.7151877E-004  0.2161868E+03  0.7818608E-02  0.1136758E+00
          5   -1    0    0  501    0  0.00000000000E+00  0.00000000000E+00  0.15108051430E+03  0.15115360334E+03  0.47000000000E+01 0. -1.
         -5   -1    0    0    0  501 -0.00000000000E+00 -0.00000000000E+00 -0.42998055498E+03  0.43000624142E+03  0.47000000000E+01 0.  1.
          6    1    1    2  502    0  0.12706398915E+03 -0.31740672627E+02  0.14548298411E+02  0.21667574997E+03  0.17200000000E+03 0. -1.
         -6    1    1    2    0  502 -0.12706398915E+03  0.31740672627E+02 -0.29344833909E+03  0.36448409478E+03  0.17200000000E+03 0.  1.
</event>
<event>
 4    1 -0.7151877E-004  0.1733435E+03  0.7818608E-02  0.1174405E+00
          5   -1    0    0  501    0  0.00000000000E+00  0.00000000000E+00  0.53247065162E+03  0.53249139415E+03  0.47000000000E+01 0. -1.
         -5   -1    0    0    0  501 -0.00000000000E+00 -0.00000000000E+00 -0.10664887395E+03  0.10675238786E+03  0.47000000000E+01 0.  1.
          6    1    1    2  502    0  0.21470228902E+02 -0.17267288899E+01  0.43232127071E+03  0.46577852401E+03  0.17200000000E+03 0. -1.
         -6    1    1    2    0  502 -0.21470228902E+02  0.17267288899E+01 -0.64994930367E+01  0.17346525800E+03  0.17200000000E+03 0.  1.
</event>
<event>
 4    1 -0.7151877E-004  0.1720095E+03  0.7818608E-02  0.1175768E+00
         -5   -1    0    0    0  501 -0.00000000000E+00  0.00000000000E+00  0.39582312374E+03  0.39585102664E+03  0.47000000000E+01 0.  1.
          5   -1    0    0  501    0  0.00000000000E+00 -0.00000000000E+00 -0.32232895642E+03  0.32236322084E+03  0.47000000000E+01 0. -1.
          6    1    1    2  502    0 -0.57196715004E+00  0.17164048947E+01 -0.27798702554E+03  0.32690068761E+03  0.17200000000E+03 0. -1.
         -6    1    1    2    0  502  0.57196715004E+00 -0.17164048947E+01  0.35148119286E+03  0.39131355986E+03  0.17200000000E+03 0.  1.
</event>
<event>
 4    1 -0.7151877E-004  0.2867588E+03  0.7818608E-02  0.1092054E+00
          5   -1    0    0  501    0  0.00000000000E+00  0.00000000000E+00  0.12926713512E+04  0.12926798954E+04  0.47000000000E+01 0. -1.
         -5   -1    0    0    0  501 -0.00000000000E+00 -0.00000000000E+00 -0.90327826614E+02  0.90450020789E+02  0.47000000000E+01 0.  1.
          6    1    1    2  502    0  0.22642733934E+03 -0.37111957590E+02  0.97761411008E+03  0.10188032124E+04  0.17200000000E+03 0. -1.
         -6    1    1    2    0  502 -0.22642733934E+03  0.37111957590E+02  0.22472941446E+03  0.36432670382E+03  0.17200000000E+03 0. -1.
</event>
<event>
 4    1 -0.7151877E-004  0.1833373E+03  0.7818608E-02  0.1164612E+00
          5   -1    0    0  501    0  0.00000000000E+00  0.00000000000E+00  0.10917437858E+04  0.10917539026E+04  0.47000000000E+01 0. -1.
         -5   -1    0    0    0  501 -0.00000000000E+00 -0.00000000000E+00 -0.47466354685E+02  0.47698478247E+02  0.47000000000E+01 0.  1.
          6    1    1    2  502    0 -0.58713094875E+02 -0.24111082860E+02  0.86068049524E+03  0.87999061740E+03  0.17200000000E+03 0. -1.
         -6    1    1    2    0  502  0.58713094875E+02  0.24111082860E+02  0.18359693588E+03  0.25946176345E+03  0.17200000000E+03 0.  1.
</event>
<event>
 4    1 -0.7151877E-004  0.2289825E+03  0.7818608E-02  0.1127358E+00
         -5   -1    0    0    0  501 -0.00000000000E+00  0.00000000000E+00  0.12399087354E+03  0.12407992071E+03  0.47000000000E+01 0.  1.
          5   -1    0    0  501    0  0.00000000000E+00 -0.00000000000E+00 -0.71292445897E+03  0.71293995133E+03  0.47000000000E+01 0. -1.
          6    1    1    2  502    0  0.13172808103E+03 -0.74139602088E+02 -0.56150574809E+03  0.60640058795E+03  0.17200000000E+03 0. -1.
         -6    1    1    2    0  502 -0.13172808103E+03  0.74139602088E+02 -0.27427837339E+02  0.23061928408E+03  0.17200000000E+03 0.  1.
</event>
<event>
 4    1 -0.7151877E-004  0.2576724E+03  0.7818608E-02  0.1108550E+00
         -5   -1    0    0    0  501 -0.00000000000E+00  0.00000000000E+00  0.12562631315E+04  0.12562719234E+04  0.47000000000E+01 0.  1.
          5   -1    0    0  501    0  0.00000000000E+00 -0.00000000000E+00 -0.21324359429E+03  0.21329538322E+03  0.47000000000E+01 0. -1.
          6    1    1    2  502    0 -0.15679968755E+03  0.11056643073E+03 -0.11576275297E+03  0.28248202172E+03  0.17200000000E+03 0. -1.
         -6    1    1    2    0  502  0.15679968755E+03 -0.11056643073E+03  0.11587822902E+04  0.11870852849E+04  0.17200000000E+03 0.  1.
</event>
<event>
 4    1 -0.7151877E-004  0.1953634E+03  0.7818608E-02  0.1153711E+00
         -5   -1    0    0    0  501 -0.00000000000E+00  0.00000000000E+00  0.18806965536E+03  0.18812837443E+03  0.47000000000E+01 0.  1.
          5   -1    0    0  501    0  0.00000000000E+00 -0.00000000000E+00 -0.12482081222E+04  0.12482169709E+04  0.47000000000E+01 0. -1.
          6    1    1    2  502    0  0.92542320779E+02  0.43353108124E+01 -0.11872849140E+04  0.12032507399E+04  0.17200000000E+03 0. -1.
         -6    1    1    2    0  502 -0.92542320779E+02 -0.43353108124E+01  0.12714644713E+03  0.23309460541E+03  0.17200000000E+03 0.  1.
</event>
<event>
 4    1 -0.7151877E-004  0.2000658E+03  0.7818608E-02  0.1149684E+00
          5   -1    0    0  501    0  0.00000000000E+00  0.00000000000E+00  0.18765366079E+03  0.18771251000E+03  0.47000000000E+01 0. -1.
         -5   -1    0    0    0  501 -0.00000000000E+00 -0.00000000000E+00 -0.59085365822E+03  0.59087235122E+03  0.47000000000E+01 0.  1.
          6    1    1    2  502    0 -0.91253188180E+02 -0.45990960092E+02  0.10961418046E+03  0.22812623988E+03  0.17200000000E+03 0. -1.
         -6    1    1    2    0  502  0.91253188180E+02  0.45990960092E+02 -0.51281417789E+03  0.55045862134E+03  0.17200000000E+03 0.  1.
</event>
<event>
 4    1 -0.7151877E-004  0.2189490E+03  0.7818608E-02  0.1134669E+00
          5   -1    0    0  501    0  0.00000000000E+00  0.00000000000E+00  0.46105345989E+03  0.46107741528E+03  0.47000000000E+01 0. -1.
         -5   -1    0    0    0  501 -0.00000000000E+00 -0.00000000000E+00 -0.36050577240E+03  0.36053640861E+03  0.47000000000E+01 0.  1.
          6    1    1    2  502    0 -0.13116262342E+03  0.33926601465E+02  0.39682081682E+03  0.45321673483E+03  0.17200000000E+03 0. -1.
         -6    1    1    2    0  502  0.13116262342E+03 -0.33926601465E+02 -0.29627312932E+03  0.36839708906E+03  0.17200000000E+03 0.  1.
</event>
<event>
 4    1 -0.7151877E-004  0.1827350E+03  0.7818608E-02  0.1165182E+00
         -5   -1    0    0    0  501 -0.00000000000E+00  0.00000000000E+00  0.31965009792E+03  0.31968464946E+03  0.47000000000E+01 0.  1.
          5   -1    0    0  501    0  0.00000000000E+00 -0.00000000000E+00 -0.10907150440E+03  0.10917272128E+03  0.47000000000E+01 0. -1.
          6    1    1    2  502    0 -0.61293454282E+02  0.71543859604E+01  0.60804895570E+02  0.19258584606E+03  0.17200000000E+03 0. -1.
         -6    1    1    2    0  502  0.61293454282E+02 -0.71543859604E+01  0.14977369796E+03  0.23627152468E+03  0.17200000000E+03 0.  1.
</event>
<event>
 4    1 -0.7151877E-004  0.1780745E+03  0.7818608E-02  0.1169680E+00
         -5   -1    0    0    0  501 -0.00000000000E+00  0.00000000000E+00  0.12351191449E+03  0.12360130671E+03  0.47000000000E+01 0.  1.
          5   -1    0    0  501    0  0.00000000000E+00 -0.00000000000E+00 -0.67432367174E+03  0.67434005092E+03  0.47000000000E+01 0. -1.
          6    1    1    2  502    0 -0.26940329661E+02  0.37426386345E+02 -0.58941759004E+03  0.61573014479E+03  0.17200000000E+03 0. -1.
         -6    1    1    2    0  502  0.26940329661E+02 -0.37426386345E+02  0.38605832788E+02  0.18221121283E+03  0.17200000000E+03 0.  1.
</event>
<event>
 4    1 -0.7151877E-004  0.1989827E+03  0.7818608E-02  0.1150600E+00
         -5   -1    0    0    0  501 -0.00000000000E+00  0.00000000000E+00  0.21668960152E+03  0.21674056706E+03  0.47000000000E+01 0.  1.
          5   -1    0    0  501    0  0.00000000000E+00 -0.00000000000E+00 -0.18615546697E+03  0.18621478964E+03  0.47000000000E+01 0. -1.
          6    1    1    2  502    0 -0.91122210380E+02 -0.41313999134E+02 -0.12490668332E+02  0.19937432268E+03  0.17200000000E+03 0. -1.
         -6    1    1    2    0  502  0.91122210380E+02  0.41313999134E+02  0.43024802887E+02  0.20358103402E+03  0.17200000000E+03 0.  1.
</event>
<event>
 4    1 -0.7151877E-004  0.1864484E+03  0.7818608E-02  0.1161704E+00
         -5   -1    0    0    0  501 -0.00000000000E+00  0.00000000000E+00  0.11894060166E+03  0.11903342691E+03  0.47000000000E+01 0.  1.
          5   -1    0    0  501    0  0.00000000000E+00 -0.00000000000E+00 -0.51788156776E+03  0.51790289459E+03  0.47000000000E+01 0. -1.
          6    1    1    2  502    0 -0.70233310540E+02 -0.15692982797E+02 -0.40974931653E+03  0.45017495489E+03  0.17200000000E+03 0. -1.
         -6    1    1    2    0  502  0.70233310540E+02  0.15692982797E+02  0.10808350426E+02  0.18676136661E+03  0.17200000000E+03 0.  1.
</event>
<event>
 4    1 -0.7151877E-004  0.1923041E+03  0.7818608E-02  0.1156399E+00
         -5   -1    0    0    0  501 -0.00000000000E+00  0.00000000000E+00  0.30014978996E+03  0.30018658599E+03  0.47000000000E+01 0.  1.
          5   -1    0    0  501    0  0.00000000000E+00 -0.00000000000E+00 -0.26509675973E+03  0.26513842049E+03  0.47000000000E+01 0. -1.
          6    1    1    2  502    0  0.58908360920E+02  0.62663054601E+02 -0.18929348114E+03  0.26983860991E+03  0.17200000000E+03 0. -1.
         -6    1    1    2    0  502 -0.58908360920E+02 -0.62663054601E+02  0.22434651136E+03  0.29548639657E+03  0.17200000000E+03 0.  1.
</event>
<event>
 4    1 -0.7151877E-004  0.1845620E+03  0.7818608E-02  0.1163460E+00
         -5   -1    0    0    0  501 -0.00000000000E+00  0.00000000000E+00  0.11624716539E+04  0.11624811552E+04  0.47000000000E+01 0.  1.
          5   -1    0    0  501    0  0.00000000000E+00 -0.00000000000E+00 -0.31103327096E+02  0.31456429493E+02  0.47000000000E+01 0. -1.
          6    1    1    2  502    0  0.46039151117E+02  0.48575098343E+02  0.41524212964E+03  0.45441079415E+03  0.17200000000E+03 0. -1.
         -6    1    1    2    0  502 -0.46039151117E+02 -0.48575098343E+02  0.71612619716E+03  0.73952679051E+03  0.17200000000E+03 0.  1.
</event>
<event>
 4    1 -0.7151877E-004  0.2084688E+03  0.7818608E-02  0.1142784E+00
          5   -1    0    0  501    0  0.00000000000E+00  0.00000000000E+00  0.40353843704E+03  0.40356580649E+03  0.47000000000E+01 0. -1.
         -5   -1    0    0    0  501 -0.00000000000E+00 -0.00000000000E+00 -0.23180473094E+03  0.23185237391E+03  0.47000000000E+01 0.  1.
          6    1    1    2  502    0  0.55948435987E+02 -0.10365819031E+03  0.31836453860E+03  0.38054595957E+03  0.17200000000E+03 0. -1.
         -6    1    1    2    0  502 -0.55948435987E+02  0.10365819031E+03 -0.14663083250E+03  0.25487222082E+03  0.17200000000E+03 0.  1.
</event>
<event>
 4    1 -0.7151877E-004  0.1855630E+03  0.7818608E-02  0.1162525E+00
          5   -1    0    0  501    0  0.00000000000E+00  0.00000000000E+00  0.11160011149E+04  0.11160110118E+04  0.47000000000E+01 0. -1.
         -5   -1    0    0    0  501 -0.00000000000E+00 -0.00000000000E+00 -0.39817609603E+02  0.40094039887E+02  0.47000000000E+01 0.  1.
          6    1    1    2  502    0  0.51061609672E+02 -0.47353443269E+02  0.81409581523E+03  0.83497642658E+03  0.17200000000E+03 0. -1.
         -6    1    1    2    0  502 -0.51061609672E+02  0.47353443269E+02  0.26208769002E+03  0.32112862506E+03  0.17200000000E+03 0.  1.
</event>
<event>
 4    1 -0.7151877E-004  0.1805272E+03  0.7818608E-02  0.1167294E+00
         -5   -1    0    0    0  501 -0.00000000000E+00  0.00000000000E+00  0.84125854723E+03  0.84127167627E+03  0.47000000000E+01 0.  1.
          5   -1    0    0  501    0  0.00000000000E+00 -0.00000000000E+00 -0.38930656648E+03  0.38933493640E+03  0.47000000000E+01 0. -1.
          6    1    1    2  502    0 -0.22381923835E+02  0.50051065255E+02 -0.35791358396E+03  0.40086430776E+03  0.17200000000E+03 0. -1.
         -6    1    1    2    0  502  0.22381923835E+02 -0.50051065255E+02  0.80986556472E+03  0.82974230492E+03  0.17200000000E+03 0.  1.
</event>
<event>
 4    1 -0.7151877E-004  0.1919279E+03  0.7818608E-02  0.1156734E+00
         -5   -1    0    0    0  501 -0.00000000000E+00  0.00000000000E+00  0.24271738880E+03  0.24276289014E+03  0.47000000000E+01 0.  1.
          5   -1    0    0  501    0  0.00000000000E+00 -0.00000000000E+00 -0.17943061735E+03  0.17949216262E+03  0.47000000000E+01 0. -1.
          6    1    1    2  502    0 -0.84783224584E+02  0.80069437972E+01 -0.51374932344E+02  0.19868490127E+03  0.17200000000E+03 0.  1.
         -6    1    1    2    0  502  0.84783224584E+02 -0.80069437972E+01  0.11466170380E+03  0.22357015149E+03  0.17200000000E+03 0.  1.
</event>
<event>
 4    1 -0.7151877E-004  0.2871437E+03  0.7818608E-02  0.1091850E+00
         -5   -1    0    0    0  501 -0.00000000000E+00  0.00000000000E+00  0.88636846566E+03  0.88638092653E+03  0.47000000000E+01 0.  1.
          5   -1    0    0  501    0  0.00000000000E+00 -0.00000000000E+00 -0.20028828682E+03  0.20034342474E+03  0.47000000000E+01 0. -1.
          6    1    1    2  502    0  0.22024679922E+03  0.66021765013E+02 -0.54638995335E+02  0.29229599011E+03  0.17200000000E+03 0. -1.
         -6    1    1    2    0  502 -0.22024679922E+03 -0.66021765013E+02  0.74071917417E+03  0.79442836116E+03  0.17200000000E+03 0.  1.
</event>
<event>
 4    1 -0.7151877E-004  0.2119522E+03  0.7818608E-02  0.1140029E+00
          5   -1    0    0  501    0  0.00000000000E+00  0.00000000000E+00  0.17256709492E+03  0.17263108714E+03  0.47000000000E+01 0. -1.
         -5   -1    0    0    0  501 -0.00000000000E+00 -0.00000000000E+00 -0.39094530877E+03  0.39097355979E+03  0.47000000000E+01 0.  1.
          6    1    1    2  502    0  0.80823790176E+02  0.93846917722E+02  0.53761732628E+02  0.21866424701E+03  0.17200000000E+03 0. -1.
         -6    1    1    2    0  502 -0.80823790176E+02 -0.93846917722E+02 -0.27213994649E+03  0.34494039992E+03  0.17200000000E+03 0.  1.
</event>
<event>
 4    1 -0.7151877E-004  0.2658513E+03  0.7818608E-02  0.1103678E+00
         -5   -1    0    0    0  501 -0.00000000000E+00  0.00000000000E+00  0.27009256459E+03  0.27013345488E+03  0.47000000000E+01 0.  1.
          5   -1    0    0  501    0  0.00000000000E+00 -0.00000000000E+00 -0.98358761438E+03  0.98359884362E+03  0.47000000000E+01 0. -1.
          6    1    1    2  502    0 -0.20098370302E+03  0.26428309345E+02 -0.89380381199E+03  0.93250316822E+03  0.17200000000E+03 0. -1.
         -6    1    1    2    0  502  0.20098370302E+03 -0.26428309345E+02  0.18030876219E+03  0.32122913028E+03  0.17200000000E+03 0.  1.
</event>
<event>
 4    1 -0.7151877E-004  0.1824748E+03  0.7818608E-02  0.1165429E+00
         -5   -1    0    0    0  501 -0.00000000000E+00  0.00000000000E+00  0.16216558016E+04  0.16216626125E+04  0.47000000000E+01 0.  1.
          5   -1    0    0  501    0  0.00000000000E+00 -0.00000000000E+00 -0.28366488708E+02  0.28753220370E+02  0.47000000000E+01 0. -1.
          6    1    1    2  502    0 -0.91110256465E+01 -0.60249922390E+02  0.35902357633E+03  0.40273439424E+03  0.17200000000E+03 0. -1.
         -6    1    1    2    0  502  0.91110256465E+01  0.60249922390E+02  0.12342657366E+04  0.12476814387E+04  0.17200000000E+03 0.  1.
</event>
<event>
 4    1 -0.7151877E-004  0.1767915E+03  0.7818608E-02  0.1170945E+00
         -5   -1    0    0    0  501 -0.00000000000E+00  0.00000000000E+00  0.69777646608E+03  0.69779229475E+03  0.47000000000E+01 0.  1.
          5   -1    0    0  501    0  0.00000000000E+00 -0.00000000000E+00 -0.16396112540E+03  0.16402847510E+03  0.47000000000E+01 0. -1.
          6    1    1    2  502    0 -0.32924955671E+02 -0.24231481377E+02 -0.10047855605E+03  0.20334984048E+03  0.17200000000E+03 0. -1.
         -6    1    1    2    0  502  0.32924955671E+02  0.24231481377E+02  0.63429389673E+03  0.65847092937E+03  0.17200000000E+03 0.  1.
</event>
<event>
 4    1 -0.7151877E-004  0.1908719E+03  0.7818608E-02  0.1157677E+00
          5   -1    0    0  501    0  0.00000000000E+00  0.00000000000E+00  0.29057909217E+03  0.29061709999E+03  0.47000000000E+01 0. -1.
         -5   -1    0    0    0  501 -0.00000000000E+00 -0.00000000000E+00 -0.46757370964E+03  0.46759733098E+03  0.47000000000E+01 0.  1.
          6    1    1    2  502    0 -0.38664028476E+02 -0.73165420212E+02  0.23583354962E+03  0.30339668577E+03  0.17200000000E+03 0. -1.
         -6    1    1    2    0  502  0.38664028476E+02  0.73165420212E+02 -0.41282816708E+03  0.45481774520E+03  0.17200000000E+03 0.  1.
</event>
<event>
 4    1 -0.7151877E-004  0.2499373E+03  0.7818608E-02  0.1113344E+00
         -5   -1    0    0    0  501 -0.00000000000E+00  0.00000000000E+00  0.36067273791E+03  0.36070335994E+03  0.47000000000E+01 0.  1.
          5   -1    0    0  501    0  0.00000000000E+00 -0.00000000000E+00 -0.31046903016E+03  0.31050460333E+03  0.47000000000E+01 0. -1.
          6    1    1    2  502    0 -0.17989505076E+03  0.22856434632E+02 -0.19807955834E+03  0.31891089245E+03  0.17200000000E+03 0. -1.
         -6    1    1    2    0  502  0.17989505076E+03 -0.22856434632E+02  0.24828326609E+03  0.35229707082E+03  0.17200000000E+03 0.  1.
</event>
<event>
 4    1 -0.7151877E-004  0.1723361E+03  0.7818608E-02  0.1175433E+00
         -5   -1    0    0    0  501 -0.00000000000E+00  0.00000000000E+00  0.28098121358E+03  0.28102051951E+03  0.47000000000E+01 0.  1.
          5   -1    0    0  501    0  0.00000000000E+00 -0.00000000000E+00 -0.65617149541E+03  0.65618832768E+03  0.47000000000E+01 0. -1.
          6    1    1    2  502    0  0.10497114310E+02  0.23530986959E+01 -0.61680634720E+03  0.64042938442E+03  0.17200000000E+03 0. -1.
         -6    1    1    2    0  502 -0.10497114310E+02 -0.23530986959E+01  0.24161606536E+03  0.29677946277E+03  0.17200000000E+03 0.  1.
</event>
<event>
 4    1 -0.7151877E-004  0.1768715E+03  0.7818608E-02  0.1170866E+00
          5   -1    0    0  501    0  0.00000000000E+00  0.00000000000E+00  0.32695529458E+04  0.32695563239E+04  0.47000000000E+01 0. -1.
         -5   -1    0    0    0  501 -0.00000000000E+00 -0.00000000000E+00 -0.60331438318E+02  0.60514233446E+02  0.47000000000E+01 0.  1.
          6    1    1    2  502    0 -0.25627230440E+02  0.32292103718E+02  0.31321442081E+04  0.31371341819E+04  0.17200000000E+03 0. -1.
         -6    1    1    2    0  502  0.25627230440E+02 -0.32292103718E+02  0.77077299374E+02  0.19293637547E+03  0.17200000000E+03 0.  1.
</event>
<event>
 4    1 -0.7151877E-004  0.1905664E+03  0.7818608E-02  0.1157951E+00
          5   -1    0    0  501    0  0.00000000000E+00  0.00000000000E+00  0.37104377534E+03  0.37107354152E+03  0.47000000000E+01 0. -1.
         -5   -1    0    0    0  501 -0.00000000000E+00 -0.00000000000E+00 -0.10981959151E+03  0.10992011954E+03  0.47000000000E+01 0.  1.
          6    1    1    2  502    0  0.61505653165E+02  0.54300993580E+02  0.21017958979E+03  0.28370936403E+03  0.17200000000E+03 0. -1.
         -6    1    1    2    0  502 -0.61505653165E+02 -0.54300993580E+02  0.51044594034E+02  0.19728429703E+03  0.17200000000E+03 0. -1.
</event>
<event>
 4    1 -0.7151877E-004  0.1955110E+03  0.7818608E-02  0.1153583E+00
          5   -1    0    0  501    0  0.00000000000E+00  0.00000000000E+00  0.18009533612E+04  0.18009594940E+04  0.47000000000E+01 0. -1.
         -5   -1    0    0    0  501 -0.00000000000E+00 -0.00000000000E+00 -0.43374055648E+03  0.43376602026E+03  0.47000000000E+01 0.  1.
          6    1    1    2  502    0 -0.46836191675E+02 -0.80292695624E+02  0.17732890810E+04  0.17840343916E+04  0.17200000000E+03 0. -1.
         -6    1    1    2    0  502  0.46836191675E+02  0.80292695624E+02 -0.40607627632E+03  0.45069112262E+03  0.17200000000E+03 0.  1.
</event>
<event>
 4    1 -0.7151877E-004  0.2160185E+03  0.7818608E-02  0.1136887E+00
          5   -1    0    0  501    0  0.00000000000E+00  0.00000000000E+00  0.14572390467E+03  0.14579967898E+03  0.47000000000E+01 0. -1.
         -5   -1    0    0    0  501 -0.00000000000E+00 -0.00000000000E+00 -0.11910921742E+04  0.11911014472E+04  0.47000000000E+01 0.  1.
          6    1    1    2  502    0  0.10053071793E+03  0.83507861727E+02  0.48925417698E+02  0.22148969438E+03  0.17200000000E+03 0. -1.
         -6    1    1    2    0  502 -0.10053071793E+03 -0.83507861727E+02 -0.10942936873E+04  0.11154114318E+04  0.17200000000E+03 0.  1.
</event>
<event>
 4    1 -0.7151877E-004  0.4163112E+03  0.7818608E-02  0.1038274E+00
         -5   -1    0    0    0  501 -0.00000000000E+00  0.00000000000E+00  0.40789493391E+03  0.40792201106E+03  0.47000000000E+01 0.  1.
          5   -1    0    0  501    0  0.00000000000E+00 -0.00000000000E+00 -0.50701974060E+03  0.50704152429E+03  0.47000000000E+01 0. -1.
          6    1    1    2  502    0 -0.36595878515E+03 -0.99021008728E+02 -0.23372596655E+03  0.47743357657E+03  0.17200000000E+03 0. -1.
         -6    1    1    2    0  502  0.36595878515E+03  0.99021008728E+02  0.13460115986E+03  0.43752995878E+03  0.17200000000E+03 0.  1.
</event>
<event>
 4    1 -0.7151877E-004  0.5869060E+03  0.7818608E-02  0.9932951E-01
         -5   -1    0    0    0  501 -0.00000000000E+00  0.00000000000E+00  0.40945291517E+03  0.40947988930E+03  0.47000000000E+01 0.  1.
          5   -1    0    0  501    0  0.00000000000E+00 -0.00000000000E+00 -0.84292158818E+03  0.84293469131E+03  0.47000000000E+01 0. -1.
          6    1    1    2  502    0 -0.30886471310E+03  0.46848399794E+03 -0.24499775719E+03  0.63598944044E+03  0.17200000000E+03 0. -1.
         -6    1    1    2    0  502  0.30886471310E+03 -0.46848399794E+03 -0.18847091582E+03  0.61642514017E+03  0.17200000000E+03 0.  1.
</event>
<event>
 4    1 -0.7151877E-004  0.1812862E+03  0.7818608E-02  0.1166564E+00
          5   -1    0    0  501    0  0.00000000000E+00  0.00000000000E+00  0.56027575419E+03  0.56029546735E+03  0.47000000000E+01 0. -1.
         -5   -1    0    0    0  501 -0.00000000000E+00 -0.00000000000E+00 -0.10156460125E+03  0.10167329162E+03  0.47000000000E+01 0.  1.
          6    1    1    2  502    0  0.23151160023E+02 -0.52389811391E+02  0.44459393303E+03  0.48013376661E+03  0.17200000000E+03 0. -1.
         -6    1    1    2    0  502 -0.23151160023E+02  0.52389811391E+02  0.14117219903E+02  0.18183499236E+03  0.17200000000E+03 0.  1.
</event>
<event>
 4    1 -0.7151877E-004  0.2129681E+03  0.7818608E-02  0.1139237E+00
          5   -1    0    0  501    0  0.00000000000E+00  0.00000000000E+00  0.29890725077E+02  0.30257981519E+02  0.47000000000E+01 0. -1.
         -5   -1    0    0    0  501 -0.00000000000E+00 -0.00000000000E+00 -0.15155306332E+04  0.15155379211E+04  0.47000000000E+01 0.  1.
          6    1    1    2  502    0  0.60110419969E+02 -0.11026409264E+03 -0.68740857343E+03  0.71964295282E+03  0.17200000000E+03 0. -1.
         -6    1    1    2    0  502 -0.60110419969E+02  0.11026409264E+03 -0.79823133470E+03  0.82615294977E+03  0.17200000000E+03 0. -1.
</event>
<event>
 4    1 -0.7151877E-004  0.2226902E+03  0.7818608E-02  0.1131893E+00
         -5   -1    0    0    0  501 -0.00000000000E+00  0.00000000000E+00  0.59507995250E+03  0.59509851274E+03  0.47000000000E+01 0.  1.
          5   -1    0    0  501    0  0.00000000000E+00 -0.00000000000E+00 -0.21815934118E+03  0.21820996344E+03  0.47000000000E+01 0. -1.
          6    1    1    2  502    0  0.12021505629E+03  0.74533627451E+02 -0.13124644455E+03  0.25848897575E+03  0.17200000000E+03 0. -1.
         -6    1    1    2    0  502 -0.12021505629E+03 -0.74533627451E+02  0.50816705587E+03  0.55481950042E+03  0.17200000000E+03 0.  1.
</event>
<event>
 4    1 -0.7151877E-004  0.2101425E+03  0.7818608E-02  0.1141453E+00
          5   -1    0    0  501    0  0.00000000000E+00  0.00000000000E+00  0.28696493943E+03  0.28700342587E+03  0.47000000000E+01 0. -1.
         -5   -1    0    0    0  501 -0.00000000000E+00 -0.00000000000E+00 -0.28114541721E+03  0.28118470019E+03  0.47000000000E+01 0.  1.
          6    1    1    2  502    0 -0.84370940381E+02  0.86356296417E+02  0.19407706512E+03  0.28605204547E+03  0.17200000000E+03 0. -1.
         -6    1    1    2    0  502  0.84370940381E+02 -0.86356296417E+02 -0.18825754290E+03  0.28213608059E+03  0.17200000000E+03 0.  1.
</event>
<event>
 4    1 -0.7151877E-004  0.1816645E+03  0.7818608E-02  0.1166202E+00
         -5   -1    0    0    0  501 -0.00000000000E+00  0.00000000000E+00  0.15208153225E+03  0.15215414044E+03  0.47000000000E+01 0.  1.
          5   -1    0    0  501    0  0.00000000000E+00 -0.00000000000E+00 -0.37590434292E+03  0.37593372425E+03  0.47000000000E+01 0. -1.
          6    1    1    2  502    0 -0.39316511975E+02 -0.43268929340E+02 -0.28363987951E+03  0.33682869475E+03  0.17200000000E+03 0. -1.
         -6    1    1    2    0  502  0.39316511975E+02  0.43268929340E+02  0.59817068842E+02  0.19125916994E+03  0.17200000000E+03 0.  1.
</event>
<event>
 4    1 -0.7151877E-004  0.1803334E+03  0.7818608E-02  0.1167481E+00
         -5   -1    0    0    0  501 -0.00000000000E+00  0.00000000000E+00  0.42322104316E+03  0.42324713983E+03  0.47000000000E+01 0.  1.
          5   -1    0    0  501    0  0.00000000000E+00 -0.00000000000E+00 -0.86641868170E+02  0.86769253310E+02  0.47000000000E+01 0. -1.
          6    1    1    2  502    0  0.49371090135E+02  0.22330221731E+02  0.82158433110E+02  0.19816697877E+03  0.17200000000E+03 0. -1.
         -6    1    1    2    0  502 -0.49371090135E+02 -0.22330221731E+02  0.25442074188E+03  0.31184941437E+03  0.17200000000E+03 0.  1.
</event>
<event>
 4    1 -0.7151877E-004  0.2128988E+03  0.7818608E-02  0.1139291E+00
         -5   -1    0    0    0  501 -0.00000000000E+00  0.00000000000E+00  0.56637257750E+03  0.56639207846E+03  0.47000000000E+01 0.  1.
          5   -1    0    0  501    0  0.00000000000E+00 -0.00000000000E+00 -0.23463153356E+03  0.23467860264E+03  0.47000000000E+01 0. -1.
          6    1    1    2  502    0 -0.11815647285E+03  0.42201441491E+02 -0.15927613163E+03  0.26588493723E+03  0.17200000000E+03 0. -1.
         -6    1    1    2    0  502  0.11815647285E+03 -0.42201441491E+02  0.49101717557E+03  0.53518574388E+03  0.17200000000E+03 0.  1.
</event>
<event>
 4    1 -0.7151877E-004  0.1739902E+03  0.7818608E-02  0.1173749E+00
         -5   -1    0    0    0  501 -0.00000000000E+00  0.00000000000E+00  0.93702472875E+03  0.93703651599E+03  0.47000000000E+01 0.  1.
          5   -1    0    0  501    0  0.00000000000E+00 -0.00000000000E+00 -0.71202578021E+02  0.71357530204E+02  0.47000000000E+01 0. -1.
          6    1    1    2  502    0  0.26134795157E+02  0.23566674560E+01  0.60065798604E+02  0.18406651396E+03  0.17200000000E+03 0. -1.
         -6    1    1    2    0  502 -0.26134795157E+02 -0.23566674560E+01  0.80575635213E+03  0.82432753223E+03  0.17200000000E+03 0.  1.
</event>
<event>
 4    1 -0.7151877E-004  0.1840712E+03  0.7818608E-02  0.1163920E+00
          5   -1    0    0  501    0  0.00000000000E+00  0.00000000000E+00  0.52974479632E+03  0.52976564557E+03  0.47000000000E+01 0. -1.
         -5   -1    0    0    0  501 -0.00000000000E+00 -0.00000000000E+00 -0.93482584943E+02  0.93600660722E+02  0.47000000000E+01 0.  1.
          6    1    1    2  502    0  0.15504441009E+02 -0.63700916853E+02  0.39345440181E+03  0.43438296560E+03  0.17200000000E+03 0. -1.
         -6    1    1    2    0  502 -0.15504441009E+02  0.63700916853E+02  0.42807809562E+02  0.18898334069E+03  0.17200000000E+03 0.  1.
</event>
<event>
 4    1 -0.7151877E-004  0.2135567E+03  0.7818608E-02  0.1138780E+00
         -5   -1    0    0    0  501 -0.00000000000E+00  0.00000000000E+00  0.19438487011E+03  0.19444168207E+03  0.47000000000E+01 0.  1.
          5   -1    0    0  501    0  0.00000000000E+00 -0.00000000000E+00 -0.23469293888E+03  0.23473999566E+03  0.47000000000E+01 0. -1.
          6    1    1    2  502    0  0.79807166088E+02  0.98251028409E+02 -0.26230245558E+02  0.21516150707E+03  0.17200000000E+03 0. -1.
         -6    1    1    2    0  502 -0.79807166088E+02 -0.98251028409E+02 -0.14077823219E+02  0.21402017066E+03  0.17200000000E+03 0.  1.
</event>
<event>
 4    1 -0.7151877E-004  0.5854469E+03  0.7818608E-02  0.9936068E-01
         -5   -1    0    0    0  501 -0.00000000000E+00  0.00000000000E+00  0.37442747086E+03  0.37445696807E+03  0.47000000000E+01 0.  1.
          5   -1    0    0  501    0  0.00000000000E+00 -0.00000000000E+00 -0.22614149708E+04  0.22614198549E+04  0.47000000000E+01 0. -1.
          6    1    1    2  502    0 -0.24559087596E+03 -0.50284108318E+03 -0.19603020196E+04  0.20458572877E+04  0.17200000000E+03 0. -1.
         -6    1    1    2    0  502  0.24559087596E+03  0.50284108318E+03  0.73314519677E+02  0.59001953534E+03  0.17200000000E+03 0.  1.
</event>
<event>
 4    1 -0.7151877E-004  0.3089062E+03  0.7818608E-02  0.1080871E+00
          5   -1    0    0  501    0  0.00000000000E+00  0.00000000000E+00  0.53964923474E+03  0.53966970135E+03  0.47000000000E+01 0. -1.
         -5   -1    0    0    0  501 -0.00000000000E+00 -0.00000000000E+00 -0.18691155333E+03  0.18697063611E+03  0.47000000000E+01 0.  1.
          6    1    1    2  502    0  0.86778683449E+01  0.25644439380E+03  0.26098398409E+03  0.40439544071E+03  0.17200000000E+03 0. -1.
         -6    1    1    2    0  502 -0.86778683449E+01 -0.25644439380E+03  0.91753697311E+02  0.32224489675E+03  0.17200000000E+03 0.  1.
</event>
<event>
 4    1 -0.7151877E-004  0.2000575E+03  0.7818608E-02  0.1149690E+00
         -5   -1    0    0    0  501 -0.00000000000E+00  0.00000000000E+00  0.21933346476E+03  0.21938381609E+03  0.47000000000E+01 0.  1.
          5   -1    0    0  501    0  0.00000000000E+00 -0.00000000000E+00 -0.37284433973E+03  0.37287396218E+03  0.47000000000E+01 0. -1.
          6    1    1    2  502    0 -0.85751245721E+02 -0.55549352832E+02 -0.28838437906E+03  0.35098227424E+03  0.17200000000E+03 0. -1.
         -6    1    1    2    0  502  0.85751245721E+02  0.55549352832E+02  0.13487350409E+03  0.24127550404E+03  0.17200000000E+03 0.  1.
</event>
<event>
 4    1 -0.7151877E-004  0.2137447E+03  0.7818608E-02  0.1138634E+00
          5   -1    0    0  501    0  0.00000000000E+00  0.00000000000E+00  0.15119547197E+03  0.15126850546E+03  0.47000000000E+01 0. -1.
         -5   -1    0    0    0  501 -0.00000000000E+00 -0.00000000000E+00 -0.40626580333E+03  0.40629298906E+03  0.47000000000E+01 0.  1.
          6    1    1    2  502    0  0.12689625930E+03  0.35373647490E+00  0.13673037628E+02  0.21418155316E+03  0.17200000000E+03 0. -1.
         -6    1    1    2    0  502 -0.12689625930E+03 -0.35373647490E+00 -0.26874336899E+03  0.34337994136E+03  0.17200000000E+03 0. -1.
</event>
<event>
 4    1 -0.7151877E-004  0.2036715E+03  0.7818608E-02  0.1146678E+00
         -5   -1    0    0    0  501 -0.00000000000E+00  0.00000000000E+00  0.95690773951E+02  0.95806128297E+02  0.47000000000E+01 0.  1.
          5   -1    0    0  501    0  0.00000000000E+00 -0.00000000000E+00 -0.97312589228E+03  0.97313724223E+03  0.47000000000E+01 0. -1.
          6    1    1    2  502    0 -0.50715553003E+02  0.96571269195E+02 -0.83683643565E+03  0.86126494030E+03  0.17200000000E+03 0. -1.
         -6    1    1    2    0  502  0.50715553003E+02 -0.96571269195E+02 -0.40598682678E+02  0.20767843024E+03  0.17200000000E+03 0.  1.
</event>
<event>
 4    1 -0.7151877E-004  0.1980827E+03  0.7818608E-02  0.1151367E+00
          5   -1    0    0  501    0  0.00000000000E+00  0.00000000000E+00  0.41718718265E+03  0.41721365674E+03  0.47000000000E+01 0. -1.
         -5   -1    0    0    0  501 -0.00000000000E+00 -0.00000000000E+00 -0.37742467820E+03  0.37745394118E+03  0.47000000000E+01 0.  1.
          6    1    1    2  502    0 -0.42702918997E+02  0.88482787880E+02  0.36417607135E+03  0.41456115832E+03  0.17200000000E+03 0. -1.
         -6    1    1    2    0  502  0.42702918997E+02 -0.88482787880E+02 -0.32441356689E+03  0.38010643960E+03  0.17200000000E+03 0.  1.
</event>
<event>
 4    1 -0.7151877E-004  0.2167701E+03  0.7818608E-02  0.1136314E+00
         -5   -1    0    0    0  501 -0.00000000000E+00  0.00000000000E+00  0.29869929323E+04  0.29869966300E+04  0.47000000000E+01 0.  1.
          5   -1    0    0  501    0  0.00000000000E+00 -0.00000000000E+00 -0.23727295426E+02  0.24188314291E+02  0.47000000000E+01 0. -1.
          6    1    1    2  502    0 -0.60627949388E+02  0.11717310779E+03  0.23640133163E+04  0.23739309689E+04  0.17200000000E+03 0.  1.
         -6    1    1    2    0  502  0.60627949388E+02 -0.11717310779E+03  0.59925232050E+03  0.63725397532E+03  0.17200000000E+03 0. -1.
</event>
<event>
 4    1 -0.7151877E-004  0.4838520E+03  0.7818608E-02  0.1018082E+00
         -5   -1    0    0    0  501 -0.00000000000E+00  0.00000000000E+00  0.78124383088E+03  0.78125796846E+03  0.47000000000E+01 0.  1.
          5   -1    0    0  501    0  0.00000000000E+00 -0.00000000000E+00 -0.17115568089E+04  0.17115632620E+04  0.47000000000E+01 0. -1.
          6    1    1    2  502    0 -0.15367184584E+03 -0.42533955063E+03 -0.15972096208E+04  0.16688892541E+04  0.17200000000E+03 0. -1.
         -6    1    1    2    0  502  0.15367184584E+03  0.42533955063E+03  0.66689664284E+03  0.82393197642E+03  0.17200000000E+03 0.  1.
</event>
<event>
 4    1 -0.7151877E-004  0.1794194E+03  0.7818608E-02  0.1168366E+00
          5   -1    0    0  501    0  0.00000000000E+00  0.00000000000E+00  0.85779142996E+03  0.85780430596E+03  0.47000000000E+01 0. -1.
         -5   -1    0    0    0  501 -0.00000000000E+00 -0.00000000000E+00 -0.57145725287E+02  0.57338677336E+02  0.47000000000E+01 0.  1.
          6    1    1    2  502    0 -0.50269084510E+02  0.89632034427E+01  0.66890976993E+03  0.69255440232E+03  0.17200000000E+03 0. -1.
         -6    1    1    2    0  502  0.50269084510E+02 -0.89632034427E+01  0.13173593475E+03  0.22258858097E+03  0.17200000000E+03 0. -1.
</event>
<event>
 4    1 -0.7151877E-004  0.3093703E+03  0.7818608E-02  0.1080648E+00
         -5   -1    0    0    0  501 -0.00000000000E+00  0.00000000000E+00  0.13205404263E+03  0.13213765616E+03  0.47000000000E+01 0.  1.
          5   -1    0    0  501    0  0.00000000000E+00 -0.00000000000E+00 -0.94324056944E+03  0.94325227900E+03  0.47000000000E+01 0. -1.
          6    1    1    2  502    0  0.14443757927E+03  0.21275286312E+03 -0.66453877236E+03  0.73302235644E+03  0.17200000000E+03 0. -1.
         -6    1    1    2    0  502 -0.14443757927E+03 -0.21275286312E+03 -0.14664775445E+03  0.34236757872E+03  0.17200000000E+03 0.  1.
</event>
<event>
 4    1 -0.7151877E-004  0.2690834E+03  0.7818608E-02  0.1101805E+00
         -5   -1    0    0    0  501 -0.00000000000E+00  0.00000000000E+00  0.21704005776E+04  0.21704056665E+04  0.47000000000E+01 0.  1.
          5   -1    0    0  501    0  0.00000000000E+00 -0.00000000000E+00 -0.53632249931E+03  0.53634309287E+03  0.47000000000E+01 0. -1.
          6    1    1    2  502    0  0.20566039522E+03  0.22927539199E+02 -0.49356926480E+03  0.56215343934E+03  0.17200000000E+03 0. -1.
         -6    1    1    2    0  502 -0.20566039522E+03 -0.22927539199E+02  0.21276473431E+04  0.21445953201E+04  0.17200000000E+03 0.  1.
</event>
<event>
 4    1 -0.7151877E-004  0.3986140E+03  0.7818608E-02  0.1044261E+00
          5   -1    0    0  501    0  0.00000000000E+00  0.00000000000E+00  0.10044200094E+04  0.10044310057E+04  0.47000000000E+01 0. -1.
         -5   -1    0    0    0  501 -0.00000000000E+00 -0.00000000000E+00 -0.65510040657E+03  0.65511726636E+03  0.47000000000E+01 0.  1.
          6    1    1    2  502    0 -0.35604751132E+03 -0.50390996163E+02  0.89733931723E+03  0.98189150778E+03  0.17200000000E+03 0. -1.
         -6    1    1    2    0  502  0.35604751132E+03  0.50390996163E+02 -0.54801971441E+03  0.67765676430E+03  0.17200000000E+03 0.  1.
</event>
<event>
 4    1 -0.7151877E-004  0.2058626E+03  0.7818608E-02  0.1144885E+00
         -5   -1    0    0    0  501 -0.00000000000E+00  0.00000000000E+00  0.18370423173E+02  0.18962131936E+02  0.47000000000E+01 0.  1.
          5   -1    0    0  501    0  0.00000000000E+00 -0.00000000000E+00 -0.32482423241E+04  0.32482457244E+04  0.47000000000E+01 0. -1.
          6    1    1    2  502    0  0.11178723000E+03 -0.17292590100E+02 -0.25114456057E+04  0.25198687364E+04  0.17200000000E+03 0. -1.
         -6    1    1    2    0  502 -0.11178723000E+03  0.17292590100E+02 -0.71842629524E+03  0.74733911992E+03  0.17200000000E+03 0.  1.
</event>
<event>
 4    1 -0.7151877E-004  0.2236202E+03  0.7818608E-02  0.1131212E+00
          5   -1    0    0  501    0  0.00000000000E+00  0.00000000000E+00  0.52490462103E+02  0.52700461211E+02  0.47000000000E+01 0. -1.
         -5   -1    0    0    0  501 -0.00000000000E+00 -0.00000000000E+00 -0.10522403994E+04  0.10522508960E+04  0.47000000000E+01 0.  1.
          6    1    1    2  502    0  0.14211434305E+03 -0.15016622452E+02 -0.32814373211E+03  0.39709481786E+03  0.17200000000E+03 0. -1.
         -6    1    1    2    0  502 -0.14211434305E+03  0.15016622452E+02 -0.67160620520E+03  0.70785653935E+03  0.17200000000E+03 0.  1.
</event>
<event>
 4    1 -0.7151877E-004  0.1912648E+03  0.7818608E-02  0.1157325E+00
         -5   -1    0    0    0  501 -0.00000000000E+00  0.00000000000E+00  0.22963687467E+03  0.22968496731E+03  0.47000000000E+01 0.  1.
          5   -1    0    0  501    0  0.00000000000E+00 -0.00000000000E+00 -0.21682098921E+03  0.21687192387E+03  0.47000000000E+01 0. -1.
          6    1    1    2  502    0 -0.74325262827E+02  0.38392590605E+02 -0.10866104830E+03  0.21997604216E+03  0.17200000000E+03 0. -1.
         -6    1    1    2    0  502  0.74325262827E+02 -0.38392590605E+02  0.12147693376E+03  0.22658084902E+03  0.17200000000E+03 0.  1.
</event>
<event>
 4    1 -0.7151877E-004  0.1836052E+03  0.7818608E-02  0.1164359E+00
          5   -1    0    0  501    0  0.00000000000E+00  0.00000000000E+00  0.55736110390E+02  0.55933925317E+02  0.47000000000E+01 0. -1.
         -5   -1    0    0    0  501 -0.00000000000E+00 -0.00000000000E+00 -0.68945940868E+03  0.68947542829E+03  0.47000000000E+01 0.  1.
          6    1    1    2  502    0  0.11371787186E+02 -0.63226182180E+02 -0.18532121734E+03  0.26087318998E+03  0.17200000000E+03 0.  1.
         -6    1    1    2    0  502 -0.11371787186E+02  0.63226182180E+02 -0.44840208095E+03  0.48453616363E+03  0.17200000000E+03 0.  1.
</event>
<event>
 4    1 -0.7151877E-004  0.2255603E+03  0.7818608E-02  0.1129804E+00
         -5   -1    0    0    0  501 -0.00000000000E+00  0.00000000000E+00  0.30422389829E+03  0.30426020163E+03  0.47000000000E+01 0.  1.
          5   -1    0    0  501    0  0.00000000000E+00 -0.00000000000E+00 -0.56604536490E+03  0.56606487713E+03  0.47000000000E+01 0. -1.
          6    1    1    2  502    0  0.11563642589E+03  0.89003698197E+02 -0.49618657020E+03  0.54504912965E+03  0.17200000000E+03 0. -1.
         -6    1    1    2    0  502 -0.11563642589E+03 -0.89003698197E+02  0.23436510360E+03  0.32527594911E+03  0.17200000000E+03 0.  1.
</event>
<event>
 4    1 -0.7151877E-004  0.1776547E+03  0.7818608E-02  0.1170092E+00
          5   -1    0    0  501    0  0.00000000000E+00  0.00000000000E+00  0.43957592525E+02  0.44208143374E+02  0.47000000000E+01 0. -1.
         -5   -1    0    0    0  501 -0.00000000000E+00 -0.00000000000E+00 -0.79578364514E+03  0.79579752442E+03  0.47000000000E+01 0.  1.
          6    1    1    2  502    0 -0.33352659293E+02  0.29407385201E+02 -0.24269200796E+03  0.30076669515E+03  0.17200000000E+03 0. -1.
         -6    1    1    2    0  502  0.33352659293E+02 -0.29407385201E+02 -0.50913404465E+03  0.53923897264E+03  0.17200000000E+03 0.  1.
</event>
<event>
 4    1 -0.7151877E-004  0.7702773E+03  0.7818608E-02  0.9604065E-01
         -5   -1    0    0    0  501 -0.00000000000E+00  0.00000000000E+00  0.18016597080E+04  0.18016658384E+04  0.47000000000E+01 0.  1.
          5   -1    0    0  501    0  0.00000000000E+00 -0.00000000000E+00 -0.14242809923E+04  0.14242887471E+04  0.47000000000E+01 0. -1.
          6    1    1    2  502    0 -0.73719566463E+03 -0.14242798455E+03 -0.12255724111E+04  0.14475340803E+04  0.17200000000E+03 0. -1.
         -6    1    1    2    0  502  0.73719566463E+03  0.14242798455E+03  0.16029511268E+04  0.17784205053E+04  0.17200000000E+03 0.  1.
</event>
<event>
 4    1 -0.7151877E-004  0.4565070E+03  0.7818608E-02  0.1025799E+00
         -5   -1    0    0    0  501 -0.00000000000E+00  0.00000000000E+00  0.16688414199E+04  0.16688480383E+04  0.47000000000E+01 0.  1.
          5   -1    0    0  501    0  0.00000000000E+00 -0.00000000000E+00 -0.43608727567E+03  0.43611260243E+03  0.47000000000E+01 0. -1.
          6    1    1    2  502    0  0.19670596559E+03  0.37432795448E+03 -0.27273967554E+03  0.53177587856E+03  0.17200000000E+03 0. -1.
         -6    1    1    2    0  502 -0.19670596559E+03 -0.37432795448E+03  0.15054938198E+04  0.15731847622E+04  0.17200000000E+03 0.  1.
</event>
<event>
 4    1 -0.7151877E-004  0.2386572E+03  0.7818608E-02  0.1120691E+00
          5   -1    0    0  501    0  0.00000000000E+00  0.00000000000E+00  0.33118772984E+03  0.33122107783E+03  0.47000000000E+01 0. -1.
         -5   -1    0    0    0  501 -0.00000000000E+00 -0.00000000000E+00 -0.21127178937E+04  0.21127231215E+04  0.47000000000E+01 0.  1.
          6    1    1    2  502    0  0.16081151922E+03 -0.38896363352E+02  0.28041966332E+03  0.36822881388E+03  0.17200000000E+03 0. -1.
         -6    1    1    2    0  502 -0.16081151922E+03  0.38896363352E+02 -0.20619498272E+04  0.20757153855E+04  0.17200000000E+03 0.  1.
</event>
<event>
 4    1 -0.7151877E-004  0.1774179E+03  0.7818608E-02  0.1170326E+00
         -5   -1    0    0    0  501 -0.00000000000E+00  0.00000000000E+00  0.27791004063E+02  0.28185632986E+02  0.47000000000E+01 0.  1.
          5   -1    0    0  501    0  0.00000000000E+00 -0.00000000000E+00 -0.11575242369E+04  0.11575337787E+04  0.47000000000E+01 0. -1.
          6    1    1    2  502    0 -0.36453355464E+02  0.23754002273E+02 -0.66536373753E+03  0.68861164888E+03  0.17200000000E+03 0. -1.
         -6    1    1    2    0  502  0.36453355464E+02 -0.23754002273E+02 -0.46436949528E+03  0.49710776286E+03  0.17200000000E+03 0.  1.
</event>
<event>
 4    1 -0.7151877E-004  0.2342439E+03  0.7818608E-02  0.1123688E+00
          5   -1    0    0  501    0  0.00000000000E+00  0.00000000000E+00  0.83467465790E+03  0.83468789050E+03  0.47000000000E+01 0. -1.
         -5   -1    0    0    0  501 -0.00000000000E+00 -0.00000000000E+00 -0.66165965374E+03  0.66167634640E+03  0.47000000000E+01 0.  1.
          6    1    1    2  502    0  0.10467877653E+03  0.11970191732E+03  0.79655172470E+03  0.83027998012E+03  0.17200000000E+03 0. -1.
         -6    1    1    2    0  502 -0.10467877653E+03 -0.11970191732E+03 -0.62353672054E+03  0.66608425678E+03  0.17200000000E+03 0.  1.
</event>
<event>
 4    1 -0.7151877E-004  0.2105365E+03  0.7818608E-02  0.1141142E+00
         -5   -1    0    0    0  501 -0.00000000000E+00  0.00000000000E+00  0.13913962466E+04  0.13914041847E+04  0.47000000000E+01 0.  1.
          5   -1    0    0  501    0  0.00000000000E+00 -0.00000000000E+00 -0.42299567962E+02  0.42559880754E+02  0.47000000000E+01 0. -1.
          6    1    1    2  502    0 -0.10321715309E+03  0.63936237154E+02  0.31654083494E+03  0.38016275896E+03  0.17200000000E+03 0. -1.
         -6    1    1    2    0  502  0.10321715309E+03 -0.63936237154E+02  0.10325558437E+04  0.10538013065E+04  0.17200000000E+03 0.  1.
</event>
<event>
 4    1 -0.7151877E-004  0.1793765E+03  0.7818608E-02  0.1168408E+00
         -5   -1    0    0    0  501 -0.00000000000E+00  0.00000000000E+00  0.52270732508E+03  0.52272845502E+03  0.47000000000E+01 0.  1.
          5   -1    0    0  501    0  0.00000000000E+00 -0.00000000000E+00 -0.83355509308E+03  0.83356834345E+03  0.47000000000E+01 0. -1.
          6    1    1    2  502    0 -0.12011860592E+02 -0.49473596477E+02 -0.80805357420E+03  0.82772368597E+03  0.17200000000E+03 0. -1.
         -6    1    1    2    0  502  0.12011860592E+02  0.49473596477E+02  0.49720580620E+03  0.52857311250E+03  0.17200000000E+03 0.  1.
</event>
<event>
 4    1 -0.7151877E-004  0.1766575E+03  0.7818608E-02  0.1171078E+00
         -5   -1    0    0    0  501 -0.00000000000E+00  0.00000000000E+00  0.50542181796E+03  0.50544367052E+03  0.47000000000E+01 0.  1.
          5   -1    0    0  501    0  0.00000000000E+00 -0.00000000000E+00 -0.24032319842E+03  0.24036915297E+03  0.47000000000E+01 0. -1.
          6    1    1    2  502    0 -0.39649353814E+02 -0.71977360220E+01 -0.18891323868E+03  0.25864278534E+03  0.17200000000E+03 0. -1.
         -6    1    1    2    0  502  0.39649353814E+02  0.71977360220E+01  0.45401185822E+03  0.48717003814E+03  0.17200000000E+03 0.  1.
</event>
<event>
 4    1 -0.7151877E-004  0.2404502E+03  0.7818608E-02  0.1119493E+00
         -5   -1    0    0    0  501 -0.00000000000E+00  0.00000000000E+00  0.86047817134E+03  0.86049100713E+03  0.47000000000E+01 0.  1.
          5   -1    0    0  501    0  0.00000000000E+00 -0.00000000000E+00 -0.20626931511E+03  0.20632285466E+03  0.47000000000E+01 0. -1.
          6    1    1    2  502    0  0.13823701203E+03 -0.95513549127E+02 -0.11091373135E+03  0.26479834849E+03  0.17200000000E+03 0. -1.
         -6    1    1    2    0  502 -0.13823701203E+03  0.95513549127E+02  0.76512258757E+03  0.80201551330E+03  0.17200000000E+03 0.  1.
</event>
<event>
 4    1 -0.7151877E-004  0.3786315E+03  0.7818608E-02  0.1051441E+00
          5   -1    0    0  501    0  0.00000000000E+00  0.00000000000E+00  0.38811912925E+03  0.38814758597E+03  0.47000000000E+01 0. -1.
         -5   -1    0    0    0  501 -0.00000000000E+00 -0.00000000000E+00 -0.94727083770E+03  0.94728249744E+03  0.47000000000E+01 0.  1.
          6    1    1    2  502    0 -0.33671782222E+03  0.19973246701E+02  0.24196539333E+03  0.44934293580E+03  0.17200000000E+03 0. -1.
         -6    1    1    2    0  502  0.33671782222E+03 -0.19973246701E+02 -0.80111710178E+03  0.88608714760E+03  0.17200000000E+03 0.  1.
</event>
<event>
 4    1 -0.7151877E-004  0.1821603E+03  0.7818608E-02  0.1165729E+00
         -5   -1    0    0    0  501 -0.00000000000E+00  0.00000000000E+00  0.89791523109E+03  0.89792753172E+03  0.47000000000E+01 0.  1.
          5   -1    0    0  501    0  0.00000000000E+00 -0.00000000000E+00 -0.20328557297E+03  0.20333989815E+03  0.47000000000E+01 0. -1.
          6    1    1    2  502    0 -0.37051428872E+00 -0.59985379057E+02 -0.15077235160E+03  0.23646286176E+03  0.17200000000E+03 0. -1.
         -6    1    1    2    0  502  0.37051428872E+00  0.59985379057E+02  0.84540200972E+03  0.86480456811E+03  0.17200000000E+03 0.  1.
</event>
<event>
 4    1 -0.7151877E-004  0.2562215E+03  0.7818608E-02  0.1109435E+00
          5   -1    0    0  501    0  0.00000000000E+00  0.00000000000E+00  0.41035060653E+03  0.41037752165E+03  0.47000000000E+01 0. -1.
         -5   -1    0    0    0  501 -0.00000000000E+00 -0.00000000000E+00 -0.24953954031E+03  0.24958379790E+03  0.47000000000E+01 0.  1.
          6    1    1    2  502    0 -0.16027877419E+03 -0.10186353746E+03  0.27812723753E+03  0.37815899563E+03  0.17200000000E+03 0. -1.
         -6    1    1    2    0  502  0.16027877419E+03  0.10186353746E+03 -0.11731617131E+03  0.28180232393E+03  0.17200000000E+03 0.  1.
</event>
<event>
 4    1 -0.7151877E-004  0.1788542E+03  0.7818608E-02  0.1168917E+00
         -5   -1    0    0    0  501 -0.00000000000E+00  0.00000000000E+00  0.32385616576E+02  0.32724885959E+02  0.47000000000E+01 0.  1.
          5   -1    0    0  501    0  0.00000000000E+00 -0.00000000000E+00 -0.11928589748E+04  0.11928682340E+04  0.47000000000E+01 0. -1.
          6    1    1    2  502    0  0.58794765981E-01  0.49038901252E+02 -0.83768524242E+03  0.85656604104E+03  0.17200000000E+03 0. -1.
         -6    1    1    2    0  502 -0.58794765981E-01 -0.49038901252E+02 -0.32278811578E+03  0.36902707892E+03  0.17200000000E+03 0.  1.
</event>
<event>
 4    1 -0.7151877E-004  0.1867113E+03  0.7818608E-02  0.1161461E+00
         -5   -1    0    0    0  501 -0.00000000000E+00  0.00000000000E+00  0.30941046752E+02  0.31295980159E+02  0.47000000000E+01 0.  1.
          5   -1    0    0  501    0  0.00000000000E+00 -0.00000000000E+00 -0.11709104452E+04  0.11709198780E+04  0.47000000000E+01 0. -1.
          6    1    1    2  502    0 -0.65421967851E+02  0.31576539660E+02 -0.69541804244E+03  0.72004678007E+03  0.17200000000E+03 0. -1.
         -6    1    1    2    0  502  0.65421967851E+02 -0.31576539660E+02 -0.44455135603E+03  0.48216907811E+03  0.17200000000E+03 0.  1.
</event>
<event>
 4    1 -0.7151877E-004  0.2026693E+03  0.7818608E-02  0.1147506E+00
          5   -1    0    0  501    0  0.00000000000E+00  0.00000000000E+00  0.44029321668E+03  0.44031830152E+03  0.47000000000E+01 0. -1.
         -5   -1    0    0    0  501 -0.00000000000E+00 -0.00000000000E+00 -0.40245780214E+03  0.40248524508E+03  0.47000000000E+01 0.  1.
          6    1    1    2  502    0  0.97406010633E+02  0.44753846685E+02  0.38827075069E+03  0.43798289183E+03  0.17200000000E+03 0. -1.
         -6    1    1    2    0  502 -0.97406010633E+02 -0.44753846685E+02 -0.35043533615E+03  0.40482065476E+03  0.17200000000E+03 0.  1.
</event>
<event>
 4    1 -0.7151877E-004  0.1766657E+03  0.7818608E-02  0.1171070E+00
         -5   -1    0    0    0  501 -0.00000000000E+00  0.00000000000E+00  0.27534638708E+03  0.27538649727E+03  0.47000000000E+01 0.  1.
          5   -1    0    0  501    0  0.00000000000E+00 -0.00000000000E+00 -0.36533983554E+03  0.36537006642E+03  0.47000000000E+01 0. -1.
          6    1    1    2  502    0  0.40332440051E+02 -0.24293291719E+00 -0.31108586568E+03  0.35775016501E+03  0.17200000000E+03 0. -1.
         -6    1    1    2    0  502 -0.40332440051E+02  0.24293291719E+00  0.22109241722E+03  0.28300639867E+03  0.17200000000E+03 0.  1.
</event>
<event>
 4    1 -0.7151877E-004  0.1964127E+03  0.7818608E-02  0.1152801E+00
          5   -1    0    0  501    0  0.00000000000E+00  0.00000000000E+00  0.39027537454E+03  0.39030367405E+03  0.47000000000E+01 0. -1.
         -5   -1    0    0    0  501 -0.00000000000E+00 -0.00000000000E+00 -0.99259865894E+02  0.99371077167E+02  0.47000000000E+01 0.  1.
          6    1    1    2  502    0 -0.38702754532E+02 -0.86579797743E+02  0.12815031322E+03  0.23452178441E+03  0.17200000000E+03 0.  1.
         -6    1    1    2    0  502  0.38702754532E+02  0.86579797743E+02  0.16286519543E+03  0.25515296680E+03  0.17200000000E+03 0.  1.
</event>
<event>
 4    1 -0.7151877E-004  0.1865991E+03  0.7818608E-02  0.1161565E+00
          5   -1    0    0  501    0  0.00000000000E+00  0.00000000000E+00  0.37571182721E+02  0.37864016837E+02  0.47000000000E+01 0. -1.
         -5   -1    0    0    0  501 -0.00000000000E+00 -0.00000000000E+00 -0.11827740394E+04  0.11827833775E+04  0.47000000000E+01 0.  1.
          6    1    1    2  502    0 -0.36365908105E+02  0.62551899238E+02 -0.28653224976E+03  0.34193559265E+03  0.17200000000E+03 0. -1.
         -6    1    1    2    0  502  0.36365908105E+02 -0.62551899238E+02 -0.85867060687E+03  0.87871180172E+03  0.17200000000E+03 0. -1.
</event>
<event>
 4    1 -0.7151877E-004  0.1972317E+03  0.7818608E-02  0.1152096E+00
         -5   -1    0    0    0  501 -0.00000000000E+00  0.00000000000E+00  0.95580213433E+02  0.95695701052E+02  0.47000000000E+01 0.  1.
          5   -1    0    0  501    0  0.00000000000E+00 -0.00000000000E+00 -0.17099736878E+04  0.17099801470E+04  0.47000000000E+01 0. -1.
          6    1    1    2  502    0 -0.33090160196E+02  0.90671949333E+02 -0.15953849317E+04  0.16075302304E+04  0.17200000000E+03 0. -1.
         -6    1    1    2    0  502  0.33090160196E+02 -0.90671949333E+02 -0.19008542624E+02  0.19814561764E+03  0.17200000000E+03 0.  1.
</event>
<event>
 4    1 -0.7151877E-004  0.2046485E+03  0.7818608E-02  0.1145875E+00
          5   -1    0    0  501    0  0.00000000000E+00  0.00000000000E+00  0.12057026799E+03  0.12066183955E+03  0.47000000000E+01 0. -1.
         -5   -1    0    0    0  501 -0.00000000000E+00 -0.00000000000E+00 -0.12189115449E+04  0.12189206062E+04  0.47000000000E+01 0.  1.
          6    1    1    2  502    0 -0.70016203191E+02 -0.85992636992E+02  0.17251416293E+02  0.20537432578E+03  0.17200000000E+03 0. -1.
         -6    1    1    2    0  502  0.70016203191E+02  0.85992636992E+02 -0.11155926932E+04  0.11342081200E+04  0.17200000000E+03 0.  1.
</event>
<event>
 4    1 -0.7151877E-004  0.2893122E+03  0.7818608E-02  0.1090709E+00
         -5   -1    0    0    0  501 -0.00000000000E+00  0.00000000000E+00  0.93714181881E+03  0.93715360457E+03  0.47000000000E+01 0.  1.
          5   -1    0    0  501    0  0.00000000000E+00 -0.00000000000E+00 -0.22649147673E+03  0.22654023711E+03  0.47000000000E+01 0. -1.
          6    1    1    2  502    0 -0.13294351359E+03  0.19090198528E+03 -0.97514918748E+02  0.30530428292E+03  0.17200000000E+03 0. -1.
         -6    1    1    2    0  502  0.13294351359E+03 -0.19090198528E+03  0.80816526082E+03  0.85838955876E+03  0.17200000000E+03 0.  1.
</event>
<event>
 4    1 -0.7151877E-004  0.1864311E+03  0.7818608E-02  0.1161720E+00
         -5   -1    0    0    0  501 -0.00000000000E+00  0.00000000000E+00  0.42360996343E+03  0.42363603614E+03  0.47000000000E+01 0.  1.
          5   -1    0    0  501    0  0.00000000000E+00 -0.00000000000E+00 -0.13192983555E+03  0.13201352775E+03  0.47000000000E+01 0. -1.
          6    1    1    2  502    0  0.67025776858E+02  0.26078506035E+02 -0.25068328348E+02  0.18810891613E+03  0.17200000000E+03 0. -1.
         -6    1    1    2    0  502 -0.67025776858E+02 -0.26078506035E+02  0.31674845622E+03  0.36754064777E+03  0.17200000000E+03 0.  1.
</event>
<event>
 4    1 -0.7151877E-004  0.1735316E+03  0.7818608E-02  0.1174214E+00
          5   -1    0    0  501    0  0.00000000000E+00  0.00000000000E+00  0.61949878871E+02  0.62127912344E+02  0.47000000000E+01 0. -1.
         -5   -1    0    0    0  501 -0.00000000000E+00 -0.00000000000E+00 -0.12498508385E+04  0.12498596755E+04  0.47000000000E+01 0.  1.
          6    1    1    2  502    0  0.61399021300E+01 -0.22169935667E+02 -0.80890996361E+02  0.19145902365E+03  0.17200000000E+03 0. -1.
         -6    1    1    2    0  502 -0.61399021300E+01  0.22169935667E+02 -0.11070099632E+04  0.11205285642E+04  0.17200000000E+03 0.  1.
</event>
<event>
 4    1 -0.7151877E-004  0.2031389E+03  0.7818608E-02  0.1147117E+00
          5   -1    0    0  501    0  0.00000000000E+00  0.00000000000E+00  0.24036449398E+02  0.24491649591E+02  0.47000000000E+01 0. -1.
         -5   -1    0    0    0  501 -0.00000000000E+00 -0.00000000000E+00 -0.18466348715E+04  0.18466408526E+04  0.47000000000E+01 0.  1.
          6    1    1    2  502    0 -0.34896590025E+02  0.10229187232E+03 -0.64789715244E+03  0.67899640593E+03  0.17200000000E+03 0. -1.
         -6    1    1    2    0  502  0.34896590025E+02 -0.10229187232E+03 -0.11747012697E+04  0.11921360963E+04  0.17200000000E+03 0.  1.
</event>
<event>
 4    1 -0.7151877E-004  0.2882983E+03  0.7818608E-02  0.1091241E+00
         -5   -1    0    0    0  501 -0.00000000000E+00  0.00000000000E+00  0.26463226984E+03  0.26467400371E+03  0.47000000000E+01 0.  1.
          5   -1    0    0  501    0  0.00000000000E+00 -0.00000000000E+00 -0.84944501753E+03  0.84945802004E+03  0.47000000000E+01 0. -1.
          6    1    1    2  502    0  0.22131598884E+03 -0.67462218515E+02 -0.73466974084E+03  0.78921197783E+03  0.17200000000E+03 0. -1.
         -6    1    1    2    0  502 -0.22131598884E+03  0.67462218515E+02  0.14985699315E+03  0.32492004592E+03  0.17200000000E+03 0.  1.
</event>
<event>
 4    1 -0.7151877E-004  0.1959354E+03  0.7818608E-02  0.1153214E+00
          5   -1    0    0  501    0  0.00000000000E+00  0.00000000000E+00  0.10256082647E+03  0.10266846218E+03  0.47000000000E+01 0. -1.
         -5   -1    0    0    0  501 -0.00000000000E+00 -0.00000000000E+00 -0.63141362857E+03  0.63143112083E+03  0.47000000000E+01 0.  1.
          6    1    1    2  502    0 -0.93843515329E+02  0.26150218673E+00 -0.30091631178E+02  0.19823264116E+03  0.17200000000E+03 0. -1.
         -6    1    1    2    0  502  0.93843515329E+02 -0.26150218673E+00 -0.49876117092E+03  0.53586694185E+03  0.17200000000E+03 0.  1.
</event>
<event>
 4    1 -0.7151877E-004  0.1970401E+03  0.7818608E-02  0.1152261E+00
         -5   -1    0    0    0  501 -0.00000000000E+00  0.00000000000E+00  0.16768941121E+04  0.16769006986E+04  0.47000000000E+01 0.  1.
          5   -1    0    0  501    0  0.00000000000E+00 -0.00000000000E+00 -0.25324353327E+02  0.25756802430E+02  0.47000000000E+01 0. -1.
          6    1    1    2  502    0  0.90977073062E+02 -0.31048015086E+02  0.56515480485E+03  0.59851880548E+03  0.17200000000E+03 0. -1.
         -6    1    1    2    0  502 -0.90977073062E+02  0.31048015086E+02  0.10864149539E+04  0.11041386956E+04  0.17200000000E+03 0.  1.
</event>
<event>
 4    1 -0.7151877E-004  0.1951757E+03  0.7818608E-02  0.1153874E+00
          5   -1    0    0  501    0  0.00000000000E+00  0.00000000000E+00  0.15261260210E+03  0.15268495774E+03  0.47000000000E+01 0. -1.
         -5   -1    0    0    0  501 -0.00000000000E+00 -0.00000000000E+00 -0.11721165102E+04  0.11721259333E+04  0.47000000000E+01 0.  1.
          6    1    1    2  502    0  0.57645130882E+02 -0.72018096085E+02  0.77928312194E+02  0.21015800989E+03  0.17200000000E+03 0. -1.
         -6    1    1    2    0  502 -0.57645130882E+02  0.72018096085E+02 -0.10974322203E+04  0.11146528811E+04  0.17200000000E+03 0.  1.
</event>
<event>
 4    1 -0.7151877E-004  0.1729970E+03  0.7818608E-02  0.1174758E+00
          5   -1    0    0  501    0  0.00000000000E+00  0.00000000000E+00  0.25661190562E+03  0.25665494366E+03  0.47000000000E+01 0. -1.
         -5   -1    0    0    0  501 -0.00000000000E+00 -0.00000000000E+00 -0.14185941196E+03  0.14193724938E+03  0.47000000000E+01 0.  1.
          6    1    1    2  502    0  0.27996461254E+01  0.18333430139E+02  0.14155630175E+03  0.22353106998E+03  0.17200000000E+03 0. -1.
         -6    1    1    2    0  502 -0.27996461254E+01 -0.18333430139E+02 -0.26803808095E+02  0.17506112306E+03  0.17200000000E+03 0.  1.
</event>
<event>
 4    1 -0.7151877E-004  0.2021220E+03  0.7818608E-02  0.1147961E+00
          5   -1    0    0  501    0  0.00000000000E+00  0.00000000000E+00  0.12690148193E+04  0.12690235229E+04  0.47000000000E+01 0. -1.
         -5   -1    0    0    0  501 -0.00000000000E+00 -0.00000000000E+00 -0.26728971938E+03  0.26733103839E+03  0.47000000000E+01 0.  1.
          6    1    1    2  502    0  0.71878255513E+02 -0.78120623858E+02  0.12213012613E+04  0.12379136021E+04  0.17200000000E+03 0. -1.
         -6    1    1    2    0  502 -0.71878255513E+02  0.78120623858E+02 -0.21957616133E+03  0.29844095917E+03  0.17200000000E+03 0.  1.
</event>
<event>
 4    1 -0.7151877E-004  0.2405530E+03  0.7818608E-02  0.1119425E+00
          5   -1    0    0  501    0  0.00000000000E+00  0.00000000000E+00  0.16034631413E+03  0.16041518149E+03  0.47000000000E+01 0. -1.
         -5   -1    0    0    0  501 -0.00000000000E+00 -0.00000000000E+00 -0.44772785094E+03  0.44775251926E+03  0.47000000000E+01 0.  1.
          6    1    1    2  502    0  0.15375907413E+03  0.68116691562E+02 -0.96541378972E+01  0.24074662807E+03  0.17200000000E+03 0. -1.
         -6    1    1    2    0  502 -0.15375907413E+03 -0.68116691562E+02 -0.27772739892E+03  0.36742107269E+03  0.17200000000E+03 0. -1.
</event>
<event>
 4    1 -0.7151877E-004  0.1812528E+03  0.7818608E-02  0.1166596E+00
          5   -1    0    0  501    0  0.00000000000E+00  0.00000000000E+00  0.77524027857E+03  0.77525452563E+03  0.47000000000E+01 0. -1.
         -5   -1    0    0    0  501 -0.00000000000E+00 -0.00000000000E+00 -0.16780895053E+03  0.16787475653E+03  0.47000000000E+01 0.  1.
          6    1    1    2  502    0  0.98731278520E+01 -0.56312645407E+02  0.71143237808E+03  0.73415844425E+03  0.17200000000E+03 0. -1.
         -6    1    1    2    0  502 -0.98731278520E+01  0.56312645407E+02 -0.10400105005E+03  0.20897083791E+03  0.17200000000E+03 0.  1.
</event>
<event>
 4    1 -0.7151877E-004  0.2848479E+03  0.7818608E-02  0.1093070E+00
          5   -1    0    0  501    0  0.00000000000E+00  0.00000000000E+00  0.41769249083E+03  0.41771893289E+03  0.47000000000E+01 0. -1.
         -5   -1    0    0    0  501 -0.00000000000E+00 -0.00000000000E+00 -0.32973345687E+03  0.32976695192E+03  0.47000000000E+01 0.  1.
          6    1    1    2  502    0 -0.19310323674E+03 -0.11943818126E+03  0.28357532548E+03  0.40193694083E+03  0.17200000000E+03 0. -1.
         -6    1    1    2    0  502  0.19310323674E+03  0.11943818126E+03 -0.19561629151E+03  0.34554894398E+03  0.17200000000E+03 0.  1.
</event>
<event>
 4    1 -0.7151877E-004  0.1994162E+03  0.7818608E-02  0.1150232E+00
         -5   -1    0    0    0  501 -0.00000000000E+00  0.00000000000E+00  0.18238196973E+03  0.18244251939E+03  0.47000000000E+01 0.  1.
          5   -1    0    0  501    0  0.00000000000E+00 -0.00000000000E+00 -0.76668393264E+03  0.76669833870E+03  0.47000000000E+01 0. -1.
          6    1    1    2  502    0 -0.52265339265E+02  0.86320156845E+02 -0.69362656886E+03  0.72172339036E+03  0.17200000000E+03 0. -1.
         -6    1    1    2    0  502  0.52265339265E+02 -0.86320156845E+02  0.10932460595E+03  0.22741746774E+03  0.17200000000E+03 0.  1.
</event>
<event>
 4    1 -0.7151877E-004  0.3829192E+03  0.7818608E-02  0.1049860E+00
          5   -1    0    0  501    0  0.00000000000E+00  0.00000000000E+00  0.12404065553E+04  0.12404154596E+04  0.47000000000E+01 0. -1.
         -5   -1    0    0    0  501 -0.00000000000E+00 -0.00000000000E+00 -0.60888528512E+03  0.60890342456E+03  0.47000000000E+01 0.  1.
          6    1    1    2  502    0 -0.30025489486E+03 -0.16398214051E+03  0.11458280436E+04  0.12081179785E+04  0.17200000000E+03 0. -1.
         -6    1    1    2    0  502  0.30025489486E+03  0.16398214051E+03 -0.51430677344E+03  0.64120090572E+03  0.17200000000E+03 0.  1.
</event>
<event>
 4    1 -0.7151877E-004  0.2007459E+03  0.7818608E-02  0.1149111E+00
         -5   -1    0    0    0  501 -0.00000000000E+00  0.00000000000E+00  0.15918130423E+03  0.15925067540E+03  0.47000000000E+01 0.  1.
          5   -1    0    0  501    0  0.00000000000E+00 -0.00000000000E+00 -0.30247863538E+03  0.30251514815E+03  0.47000000000E+01 0. -1.
          6    1    1    2  502    0 -0.85505128866E+01  0.10315905013E+03 -0.16499544221E+03  0.25985072031E+03  0.17200000000E+03 0. -1.
         -6    1    1    2    0  502  0.85505128866E+01 -0.10315905013E+03  0.21698111060E+02  0.20191510325E+03  0.17200000000E+03 0.  1.
</event>
<event>
 4    1 -0.7151877E-004  0.1967473E+03  0.7818608E-02  0.1152513E+00
         -5   -1    0    0    0  501 -0.00000000000E+00  0.00000000000E+00  0.11162619620E+04  0.11162718566E+04  0.47000000000E+01 0.  1.
          5   -1    0    0  501    0  0.00000000000E+00 -0.00000000000E+00 -0.55934070953E+02  0.56131188242E+02  0.47000000000E+01 0. -1.
          6    1    1    2  502    0  0.60248264922E+02  0.74132525498E+02  0.16822232259E+03  0.25885948810E+03  0.17200000000E+03 0. -1.
         -6    1    1    2    0  502 -0.60248264922E+02 -0.74132525498E+02  0.89210556845E+03  0.91354355672E+03  0.17200000000E+03 0. -1.
</event>
<event>
 4    1 -0.7151877E-004  0.1987822E+03  0.7818608E-02  0.1150771E+00
         -5   -1    0    0    0  501 -0.00000000000E+00  0.00000000000E+00  0.22554637876E+03  0.22559534342E+03  0.47000000000E+01 0.  1.
          5   -1    0    0  501    0  0.00000000000E+00 -0.00000000000E+00 -0.47939334298E+03  0.47941638196E+03  0.47000000000E+01 0. -1.
          6    1    1    2  502    0  0.64174161894E+02 -0.76236695150E+02 -0.40774402607E+03  0.45361828396E+03  0.17200000000E+03 0. -1.
         -6    1    1    2    0  502 -0.64174161894E+02  0.76236695150E+02  0.15389706185E+03  0.25139344142E+03  0.17200000000E+03 0.  1.
</event>
<event>
 4    1 -0.7151877E-004  0.1847686E+03  0.7818608E-02  0.1163266E+00
         -5   -1    0    0    0  501 -0.00000000000E+00  0.00000000000E+00  0.84862545860E+02  0.84992597853E+02  0.47000000000E+01 0.  1.
          5   -1    0    0  501    0  0.00000000000E+00 -0.00000000000E+00 -0.62262247225E+03  0.62264021148E+03  0.47000000000E+01 0. -1.
          6    1    1    2  502    0 -0.24882591544E+02  0.62739947954E+02 -0.47954640655E+03  0.51391069308E+03  0.17200000000E+03 0. -1.
         -6    1    1    2    0  502  0.24882591544E+02 -0.62739947954E+02 -0.58213519839E+02  0.19372211625E+03  0.17200000000E+03 0.  1.
</event>
<event>
 4    1 -0.7151877E-004  0.2372794E+03  0.7818608E-02  0.1121619E+00
         -5   -1    0    0    0  501 -0.00000000000E+00  0.00000000000E+00  0.18286265363E+03  0.18292304418E+03  0.47000000000E+01 0.  1.
          5   -1    0    0  501    0  0.00000000000E+00 -0.00000000000E+00 -0.32288674570E+03  0.32292095093E+03  0.47000000000E+01 0. -1.
          6    1    1    2  502    0  0.76394996076E+02  0.14450364694E+03 -0.12474698659E+03  0.26807332965E+03  0.17200000000E+03 0.  1.
         -6    1    1    2    0  502 -0.76394996076E+02 -0.14450364694E+03 -0.15277105483E+02  0.23777066547E+03  0.17200000000E+03 0.  1.
</event>
<event>
 4    1 -0.7151877E-004  0.1739697E+03  0.7818608E-02  0.1173770E+00
         -5   -1    0    0    0  501 -0.00000000000E+00  0.00000000000E+00  0.25061911608E+03  0.25066318306E+03  0.47000000000E+01 0.  1.
          5   -1    0    0  501    0  0.00000000000E+00 -0.00000000000E+00 -0.75314011933E+03  0.75315478446E+03  0.47000000000E+01 0. -1.
          6    1    1    2  502    0 -0.83621717502E+01  0.24729425860E+02 -0.71117985984E+03  0.73214907189E+03  0.17200000000E+03 0. -1.
         -6    1    1    2    0  502  0.83621717502E+01 -0.24729425860E+02  0.20865885659E+03  0.27166889563E+03  0.17200000000E+03 0.  1.
</event>
<event>
 4    1 -0.7151877E-004  0.1749956E+03  0.7818608E-02  0.1172736E+00
         -5   -1    0    0    0  501 -0.00000000000E+00  0.00000000000E+00  0.46567635033E+02  0.46804215970E+02  0.47000000000E+01 0.  1.
          5   -1    0    0  501    0  0.00000000000E+00 -0.00000000000E+00 -0.65596014984E+03  0.65597698753E+03  0.47000000000E+01 0. -1.
          6    1    1    2  502    0  0.18672474909E+02 -0.26283237105E+02 -0.29771977918E+03  0.34534118896E+03  0.17200000000E+03 0.  1.
         -6    1    1    2    0  502 -0.18672474909E+02  0.26283237105E+02 -0.31167273562E+03  0.35744001455E+03  0.17200000000E+03 0.  1.
</event>
<event>
 4    1 -0.7151877E-004  0.2149416E+03  0.7818608E-02  0.1137711E+00
         -5   -1    0    0    0  501 -0.00000000000E+00  0.00000000000E+00  0.25930037471E+03  0.25934296660E+03  0.47000000000E+01 0.  1.
          5   -1    0    0  501    0  0.00000000000E+00 -0.00000000000E+00 -0.56558878623E+03  0.56560831422E+03  0.47000000000E+01 0. -1.
          6    1    1    2  502    0  0.11735248170E+03 -0.53331881662E+02 -0.49453746525E+03  0.53922833670E+03  0.17200000000E+03 0. -1.
         -6    1    1    2    0  502 -0.11735248170E+03  0.53331881662E+02  0.18824905373E+03  0.28572294412E+03  0.17200000000E+03 0.  1.
</event>
<event>
 4    1 -0.7151877E-004  0.2787244E+03  0.7818608E-02  0.1096388E+00
         -5   -1    0    0    0  501 -0.00000000000E+00  0.00000000000E+00  0.45263307300E+03  0.45265747401E+03  0.47000000000E+01 0.  1.
          5   -1    0    0  501    0  0.00000000000E+00 -0.00000000000E+00 -0.29129229883E+03  0.29133021360E+03  0.47000000000E+01 0. -1.
          6    1    1    2  502    0  0.13721669364E+03  0.17109896745E+03 -0.15777954007E+03  0.32028371945E+03  0.17200000000E+03 0. -1.
         -6    1    1    2    0  502 -0.13721669364E+03 -0.17109896745E+03  0.31912031425E+03  0.42370396817E+03  0.17200000000E+03 0.  1.
</event>
<event>
 4    1 -0.7151877E-004  0.1859757E+03  0.7818608E-02  0.1162142E+00
         -5   -1    0    0    0  501 -0.00000000000E+00  0.00000000000E+00  0.21288157411E+03  0.21293345109E+03  0.47000000000E+01 0.  1.
          5   -1    0    0  501    0  0.00000000000E+00 -0.00000000000E+00 -0.33224688041E+03  0.33228012210E+03  0.47000000000E+01 0. -1.
          6    1    1    2  502    0 -0.31909597067E+02 -0.63124857705E+02 -0.25458317954E+03  0.31527696609E+03  0.17200000000E+03 0. -1.
         -6    1    1    2    0  502  0.31909597067E+02  0.63124857705E+02  0.13521787323E+03  0.22993660710E+03  0.17200000000E+03 0.  1.
</event>
<event>
 4    1 -0.7151877E-004  0.1757248E+03  0.7818608E-02  0.1172006E+00
         -5   -1    0    0    0  501 -0.00000000000E+00  0.00000000000E+00  0.74759313652E+03  0.74760791045E+03  0.47000000000E+01 0.  1.
          5   -1    0    0  501    0  0.00000000000E+00 -0.00000000000E+00 -0.53568271333E+02  0.53774061532E+02  0.47000000000E+01 0. -1.
          6    1    1    2  502    0  0.27572561854E+02  0.23129104756E+02  0.15458526186E+03  0.23404231421E+03  0.17200000000E+03 0. -1.
         -6    1    1    2    0  502 -0.27572561854E+02 -0.23129104756E+02  0.53943960332E+03  0.56733965778E+03  0.17200000000E+03 0.  1.
</event>
<event>
 4    1 -0.7151877E-004  0.3286921E+03  0.7818608E-02  0.1071717E+00
          5   -1    0    0  501    0  0.00000000000E+00  0.00000000000E+00  0.10384574461E+04  0.10384680820E+04  0.47000000000E+01 0. -1.
         -5   -1    0    0    0  501 -0.00000000000E+00 -0.00000000000E+00 -0.53661679706E+03  0.53663737933E+03  0.47000000000E+01 0.  1.
          6    1    1    2  502    0  0.27664597311E+03  0.43835077533E+02  0.95802333055E+03  0.10128411575E+04  0.17200000000E+03 0. -1.
         -6    1    1    2    0  502 -0.27664597311E+03 -0.43835077533E+02 -0.45618268151E+03  0.56226430384E+03  0.17200000000E+03 0.  1.
</event>
<event>
 4    1 -0.7151877E-004  0.2572163E+03  0.7818608E-02  0.1108827E+00
         -5   -1    0    0    0  501 -0.00000000000E+00  0.00000000000E+00  0.21726369095E+04  0.21726419932E+04  0.47000000000E+01 0.  1.
          5   -1    0    0  501    0  0.00000000000E+00 -0.00000000000E+00 -0.68722979526E+02  0.68883509746E+02  0.47000000000E+01 0. -1.
          6    1    1    2  502    0 -0.18870946015E+03  0.31063510641E+02  0.21517108589E+03  0.33534877106E+03  0.17200000000E+03 0. -1.
         -6    1    1    2    0  502  0.18870946015E+03 -0.31063510641E+02  0.18887428441E+04  0.19061767319E+04  0.17200000000E+03 0.  1.
</event>
<event>
 4    1 -0.7151877E-004  0.1739706E+03  0.7818608E-02  0.1173769E+00
          5   -1    0    0  501    0  0.00000000000E+00  0.00000000000E+00  0.40639993314E+03  0.40642710990E+03  0.47000000000E+01 0. -1.
         -5   -1    0    0    0  501 -0.00000000000E+00 -0.00000000000E+00 -0.12099866663E+03  0.12108991422E+03  0.47000000000E+01 0.  1.
          6    1    1    2  502    0  0.25880496863E+02 -0.34612081689E+01  0.30633837881E+03  0.35229104787E+03  0.17200000000E+03 0. -1.
         -6    1    1    2    0  502 -0.25880496863E+02  0.34612081689E+01 -0.20937112297E+02  0.17522597625E+03  0.17200000000E+03 0.  1.
</event>
<event>
 4    1 -0.7151877E-004  0.2129449E+03  0.7818608E-02  0.1139255E+00
         -5   -1    0    0    0  501 -0.00000000000E+00  0.00000000000E+00  0.59559420840E+03  0.59561275261E+03  0.47000000000E+01 0.  1.
          5   -1    0    0  501    0  0.00000000000E+00 -0.00000000000E+00 -0.76263400561E+02  0.76408090312E+02  0.47000000000E+01 0. -1.
          6    1    1    2  502    0  0.82026452743E+02  0.95043090083E+02  0.24160705260E+03  0.32205511297E+03  0.17200000000E+03 0.  1.
         -6    1    1    2    0  502 -0.82026452743E+02 -0.95043090083E+02  0.27772375523E+03  0.34996572996E+03  0.17200000000E+03 0. -1.
</event>
<event>
 4    1 -0.7151877E-004  0.1990472E+03  0.7818608E-02  0.1150545E+00
         -5   -1    0    0    0  501 -0.00000000000E+00  0.00000000000E+00  0.14574341413E+03  0.14581917831E+03  0.47000000000E+01 0.  1.
          5   -1    0    0  501    0  0.00000000000E+00 -0.00000000000E+00 -0.60845977983E+03  0.60847793195E+03  0.47000000000E+01 0. -1.
          6    1    1    2  502    0  0.70860386484E+02  0.70813797321E+02 -0.51192244501E+03  0.54925802495E+03  0.17200000000E+03 0. -1.
         -6    1    1    2    0  502 -0.70860386484E+02 -0.70813797321E+02  0.49206079314E+02  0.20503908531E+03  0.17200000000E+03 0.  1.
</event>
<event>
 4    1 -0.7151877E-004  0.1844847E+03  0.7818608E-02  0.1163532E+00
         -5   -1    0    0    0  501 -0.00000000000E+00  0.00000000000E+00  0.24534293728E+04  0.24534338747E+04  0.47000000000E+01 0.  1.
          5   -1    0    0  501    0  0.00000000000E+00 -0.00000000000E+00 -0.40555521320E+02  0.40826955673E+02  0.47000000000E+01 0. -1.
          6    1    1    2  502    0  0.64912745301E+02  0.15392883721E+02  0.19393682115E+03  0.26766788371E+03  0.17200000000E+03 0. -1.
         -6    1    1    2    0  502 -0.64912745301E+02 -0.15392883721E+02  0.22189370304E+04  0.22265929466E+04  0.17200000000E+03 0.  1.
</event>
<event>
 4    1 -0.7151877E-004  0.1748821E+03  0.7818608E-02  0.1172850E+00
          5   -1    0    0  501    0  0.00000000000E+00  0.00000000000E+00  0.11389119654E+04  0.11389216632E+04  0.47000000000E+01 0. -1.
         -5   -1    0    0    0  501 -0.00000000000E+00 -0.00000000000E+00 -0.30184676487E+02  0.30548399216E+02  0.47000000000E+01 0.  1.
          6    1    1    2  502    0 -0.30428672699E+02  0.85924808094E+01  0.75349575162E+03  0.77352413185E+03  0.17200000000E+03 0. -1.
         -6    1    1    2    0  502  0.30428672699E+02 -0.85924808094E+01  0.35523153726E+03  0.39594593054E+03  0.17200000000E+03 0.  1.
</event>
<event>
 4    1 -0.7151877E-004  0.2370101E+03  0.7818608E-02  0.1121801E+00
          5   -1    0    0  501    0  0.00000000000E+00  0.00000000000E+00  0.16751845916E+03  0.16758437922E+03  0.47000000000E+01 0. -1.
         -5   -1    0    0    0  501 -0.00000000000E+00 -0.00000000000E+00 -0.51682831298E+03  0.51684968327E+03  0.47000000000E+01 0.  1.
          6    1    1    2  502    0 -0.19722875666E+02 -0.16186660886E+03  0.28208768618E+02  0.23868289741E+03  0.17200000000E+03 0. -1.
         -6    1    1    2    0  502  0.19722875666E+02  0.16186660886E+03 -0.37751862243E+03  0.44575116508E+03  0.17200000000E+03 0.  1.
</event>
<event>
 4    1 -0.7151877E-004  0.2373380E+03  0.7818608E-02  0.1121579E+00
          5   -1    0    0  501    0  0.00000000000E+00  0.00000000000E+00  0.35103846901E+03  0.35106993139E+03  0.47000000000E+01 0. -1.
         -5   -1    0    0    0  501 -0.00000000000E+00 -0.00000000000E+00 -0.38031194717E+03  0.38034098801E+03  0.47000000000E+01 0.  1.
          6    1    1    2  502    0  0.16242668334E+03  0.19050201997E+02  0.26342938410E+03  0.35457633602E+03  0.17200000000E+03 0. -1.
         -6    1    1    2    0  502 -0.16242668334E+03 -0.19050201997E+02 -0.29270286226E+03  0.37683458339E+03  0.17200000000E+03 0.  1.
</event>
<event>
 4    1 -0.7151877E-004  0.2438801E+03  0.7818608E-02  0.1117235E+00
          5   -1    0    0  501    0  0.00000000000E+00  0.00000000000E+00  0.39412962992E+03  0.39415765270E+03  0.47000000000E+01 0. -1.
         -5   -1    0    0    0  501 -0.00000000000E+00 -0.00000000000E+00 -0.30203604315E+03  0.30207260942E+03  0.47000000000E+01 0.  1.
          6    1    1    2  502    0  0.21785545786E+02 -0.17151943533E+03  0.29231378833E+03  0.38069000190E+03  0.17200000000E+03 0. -1.
         -6    1    1    2    0  502 -0.21785545786E+02  0.17151943533E+03 -0.20022020157E+03  0.31554026021E+03  0.17200000000E+03 0.  1.
</event>
<event>
 4    1 -0.7151877E-004  0.1968526E+03  0.7818608E-02  0.1152422E+00
          5   -1    0    0  501    0  0.00000000000E+00  0.00000000000E+00  0.19600119206E+04  0.19600175557E+04  0.47000000000E+01 0. -1.
         -5   -1    0    0    0  501 -0.00000000000E+00 -0.00000000000E+00 -0.63995732047E+02  0.64168089579E+02  0.47000000000E+01 0.  1.
          6    1    1    2  502    0 -0.37178933193E+00 -0.95743508613E+02  0.17896313174E+04  0.18004252858E+04  0.17200000000E+03 0. -1.
         -6    1    1    2    0  502  0.37178933193E+00  0.95743508613E+02  0.10638487113E+03  0.22376035948E+03  0.17200000000E+03 0.  1.
</event>
<event>
 4    1 -0.7151877E-004  0.1777892E+03  0.7818608E-02  0.1169960E+00
          5   -1    0    0  501    0  0.00000000000E+00  0.00000000000E+00  0.15284410975E+04  0.15284483238E+04  0.47000000000E+01 0. -1.
         -5   -1    0    0    0  501 -0.00000000000E+00 -0.00000000000E+00 -0.76822485523E+02  0.76966124249E+02  0.47000000000E+01 0.  1.
          6    1    1    2  502    0  0.38993528780E+02 -0.22460788833E+02  0.14121490184E+04  0.14232968181E+04  0.17200000000E+03 0. -1.
         -6    1    1    2    0  502 -0.38993528780E+02  0.22460788833E+02  0.39469593614E+02  0.18211762996E+03  0.17200000000E+03 0.  1.
</event>
<event>
 4    1 -0.7151877E-004  0.1731953E+03  0.7818608E-02  0.1174556E+00
          5   -1    0    0  501    0  0.00000000000E+00  0.00000000000E+00  0.13829547791E+03  0.13837532009E+03  0.47000000000E+01 0. -1.
         -5   -1    0    0    0  501 -0.00000000000E+00 -0.00000000000E+00 -0.11540946884E+04  0.11541042586E+04  0.47000000000E+01 0.  1.
          6    1    1    2  502    0 -0.20271405851E+02 -0.12914022126E+01  0.74479187499E+02  0.18853049352E+03  0.17200000000E+03 0. -1.
         -6    1    1    2    0  502  0.20271405851E+02  0.12914022126E+01 -0.10902783980E+04  0.11039490852E+04  0.17200000000E+03 0.  1.
</event>
<event>
 4    1 -0.7151877E-004  0.2030913E+03  0.7818608E-02  0.1147157E+00
         -5   -1    0    0    0  501 -0.00000000000E+00  0.00000000000E+00  0.69822254391E+03  0.69823836246E+03  0.47000000000E+01 0.  1.
          5   -1    0    0  501    0  0.00000000000E+00 -0.00000000000E+00 -0.59519826410E+02  0.59705106447E+02  0.47000000000E+01 0. -1.
          6    1    1    2  502    0 -0.94446204956E+02 -0.52364013650E+02  0.35594574040E+03  0.40980903560E+03  0.17200000000E+03 0. -1.
         -6    1    1    2    0  502  0.94446204956E+02  0.52364013650E+02  0.28275697710E+03  0.34813443331E+03  0.17200000000E+03 0. -1.
</event>
<event>
 4    1 -0.7151877E-004  0.2031109E+03  0.7818608E-02  0.1147141E+00
         -5   -1    0    0    0  501 -0.00000000000E+00  0.00000000000E+00  0.83324318504E+03  0.83325644037E+03  0.47000000000E+01 0.  1.
          5   -1    0    0  501    0  0.00000000000E+00 -0.00000000000E+00 -0.20308338302E+03  0.20313776226E+03  0.47000000000E+01 0. -1.
          6    1    1    2  502    0  0.59320647566E+02 -0.90283368751E+02 -0.13556036163E+03  0.24419385239E+03  0.17200000000E+03 0. -1.
         -6    1    1    2    0  502 -0.59320647566E+02  0.90283368751E+02  0.76572016365E+03  0.79220035024E+03  0.17200000000E+03 0.  1.
</event>
<event>
 4    1 -0.7151877E-004  0.1912875E+03  0.7818608E-02  0.1157305E+00
         -5   -1    0    0    0  501 -0.00000000000E+00  0.00000000000E+00  0.85841087127E+02  0.85969658829E+02  0.47000000000E+01 0.  1.
          5   -1    0    0  501    0  0.00000000000E+00 -0.00000000000E+00 -0.64288117660E+03  0.64289835684E+03  0.47000000000E+01 0. -1.
          6    1    1    2  502    0  0.55356112209E+02 -0.62790148583E+02 -0.49026408168E+03  0.52626017492E+03  0.17200000000E+03 0.  1.
         -6    1    1    2    0  502 -0.55356112209E+02  0.62790148583E+02 -0.66776007796E+02  0.20260784075E+03  0.17200000000E+03 0.  1.
</event>
<event>
 4    1 -0.7151877E-004  0.2280542E+03  0.7818608E-02  0.1128017E+00
          5   -1    0    0  501    0  0.00000000000E+00  0.00000000000E+00  0.13350927007E+04  0.13351009735E+04  0.47000000000E+01 0. -1.
         -5   -1    0    0    0  501 -0.00000000000E+00 -0.00000000000E+00 -0.17772354615E+03  0.17778568237E+03  0.47000000000E+01 0.  1.
          6    1    1    2  502    0  0.14138483500E+03  0.49346395549E+02  0.12471252579E+04  0.12678052481E+04  0.17200000000E+03 0. -1.
         -6    1    1    2    0  502 -0.14138483500E+03 -0.49346395549E+02 -0.89756103359E+02  0.24508140773E+03  0.17200000000E+03 0.  1.
</event>
<event>
 4    1 -0.7151877E-004  0.1908274E+03  0.7818608E-02  0.1157717E+00
         -5   -1    0    0    0  501 -0.00000000000E+00  0.00000000000E+00  0.63661425426E+02  0.63834685613E+02  0.47000000000E+01 0.  1.
          5   -1    0    0  501    0  0.00000000000E+00 -0.00000000000E+00 -0.60638355309E+03  0.60640176736E+03  0.47000000000E+01 0. -1.
          6    1    1    2  502    0 -0.74640750377E+02  0.35494340999E+02 -0.35224076666E+03  0.40061034379E+03  0.17200000000E+03 0. -1.
         -6    1    1    2    0  502  0.74640750377E+02 -0.35494340999E+02 -0.19048136101E+03  0.26962610918E+03  0.17200000000E+03 0. -1.
</event>
<event>
 4    1 -0.7151877E-004  0.1815608E+03  0.7818608E-02  0.1166301E+00
         -5   -1    0    0    0  501 -0.00000000000E+00  0.00000000000E+00  0.65892937754E+03  0.65894613936E+03  0.47000000000E+01 0.  1.
          5   -1    0    0  501    0  0.00000000000E+00 -0.00000000000E+00 -0.25977092065E+03  0.25981343540E+03  0.47000000000E+01 0. -1.
          6    1    1    2  502    0  0.97730108231E+01  0.57313244345E+02 -0.21321104012E+03  0.28004154575E+03  0.17200000000E+03 0. -1.
         -6    1    1    2    0  502 -0.97730108231E+01 -0.57313244345E+02  0.61236949701E+03  0.63871802901E+03  0.17200000000E+03 0.  1.
</event>
<event>
 4    1 -0.7151877E-004  0.2554090E+03  0.7818608E-02  0.1109933E+00
          5   -1    0    0  501    0  0.00000000000E+00  0.00000000000E+00  0.18515213545E+03  0.18521177949E+03  0.47000000000E+01 0. -1.
         -5   -1    0    0    0  501 -0.00000000000E+00 -0.00000000000E+00 -0.67928769033E+03  0.67930394981E+03  0.47000000000E+01 0.  1.
          6    1    1    2  502    0  0.18122517531E+03 -0.52983011098E+02  0.52866436997E+02  0.26082297405E+03  0.17200000000E+03 0. -1.
         -6    1    1    2    0  502 -0.18122517531E+03  0.52983011098E+02 -0.54700199188E+03  0.60369275525E+03  0.17200000000E+03 0.  1.
</event>
<event>
 4    1 -0.7151877E-004  0.2262665E+03  0.7818608E-02  0.1129295E+00
          5   -1    0    0  501    0  0.00000000000E+00  0.00000000000E+00  0.33961293013E+03  0.33964545089E+03  0.47000000000E+01 0. -1.
         -5   -1    0    0    0  501 -0.00000000000E+00 -0.00000000000E+00 -0.89794192731E+03  0.89795422757E+03  0.47000000000E+01 0.  1.
          6    1    1    2  502    0 -0.12221765921E+03 -0.81703042885E+02  0.28531247039E+03  0.36414248475E+03  0.17200000000E+03 0. -1.
         -6    1    1    2    0  502  0.12221765921E+03  0.81703042885E+02 -0.84364146757E+03  0.87345719371E+03  0.17200000000E+03 0.  1.
</event>
<event>
 4    1 -0.7151877E-004  0.1824726E+03  0.7818608E-02  0.1165431E+00
         -5   -1    0    0    0  501 -0.00000000000E+00  0.00000000000E+00  0.19087918474E+03  0.19093703980E+03  0.47000000000E+01 0.  1.
          5   -1    0    0  501    0  0.00000000000E+00 -0.00000000000E+00 -0.18709126773E+03  0.18715029378E+03  0.47000000000E+01 0. -1.
          6    1    1    2  502    0 -0.35741365536E+02 -0.49343815243E+02 -0.47481220095E+02  0.18854899516E+03  0.17200000000E+03 0. -1.
         -6    1    1    2    0  502  0.35741365536E+02  0.49343815243E+02  0.51269137103E+02  0.18953833842E+03  0.17200000000E+03 0. -1.
</event>
<event>
 4    1 -0.7151877E-004  0.2054120E+03  0.7818608E-02  0.1145252E+00
          5   -1    0    0  501    0  0.00000000000E+00  0.00000000000E+00  0.15322505727E+04  0.15322577810E+04  0.47000000000E+01 0. -1.
         -5   -1    0    0    0  501 -0.00000000000E+00 -0.00000000000E+00 -0.29009659871E+02  0.29387928914E+02  0.47000000000E+01 0.  1.
          6    1    1    2  502    0 -0.38431828076E+02  0.10551341246E+03  0.93826309567E+03  0.96048514945E+03  0.17200000000E+03 0. -1.
         -6    1    1    2    0  502  0.38431828076E+02 -0.10551341246E+03  0.56497781717E+03  0.60116056051E+03  0.17200000000E+03 0.  1.
</event>
<event>
 4    1 -0.7151877E-004  0.2587634E+03  0.7818608E-02  0.1107888E+00
         -5   -1    0    0    0  501 -0.00000000000E+00  0.00000000000E+00  0.13717163663E+03  0.13725213258E+03  0.47000000000E+01 0.  1.
          5   -1    0    0  501    0  0.00000000000E+00 -0.00000000000E+00 -0.49503584816E+03  0.49505815917E+03  0.47000000000E+01 0. -1.
          6    1    1    2  502    0 -0.19229583627E+03 -0.19919806463E+02 -0.14098200693E+03  0.29467679518E+03  0.17200000000E+03 0.  1.
         -6    1    1    2    0  502  0.19229583627E+03  0.19919806463E+02 -0.21688220459E+03  0.33763349657E+03  0.17200000000E+03 0. -1.
</event>
<event>
 4    1 -0.7151877E-004  0.2228925E+03  0.7818608E-02  0.1131745E+00
         -5   -1    0    0    0  501 -0.00000000000E+00  0.00000000000E+00  0.32904792995E+03  0.32908149477E+03  0.47000000000E+01 0.  1.
          5   -1    0    0  501    0  0.00000000000E+00 -0.00000000000E+00 -0.89626206709E+03  0.89627439041E+03  0.47000000000E+01 0. -1.
          6    1    1    2  502    0 -0.46683535158E+02  0.13385703178E+03 -0.84230623807E+03  0.87129837375E+03  0.17200000000E+03 0. -1.
         -6    1    1    2    0  502  0.46683535158E+02 -0.13385703178E+03  0.27509210093E+03  0.35405751143E+03  0.17200000000E+03 0.  1.
</event>
<event>
 4    1 -0.7151877E-004  0.2101133E+03  0.7818608E-02  0.1141476E+00
          5   -1    0    0  501    0  0.00000000000E+00  0.00000000000E+00  0.77176552875E+03  0.77177983996E+03  0.47000000000E+01 0. -1.
         -5   -1    0    0    0  501 -0.00000000000E+00 -0.00000000000E+00 -0.12460878064E+03  0.12469738655E+03  0.47000000000E+01 0.  1.
          6    1    1    2  502    0  0.11987242113E+03  0.13935362285E+02  0.65331762292E+03  0.68627363936E+03  0.17200000000E+03 0. -1.
         -6    1    1    2    0  502 -0.11987242113E+03 -0.13935362285E+02 -0.61608748021E+01  0.21020358714E+03  0.17200000000E+03 0.  1.
</event>
<event>
 4    1 -0.7151877E-004  0.2173453E+03  0.7818608E-02  0.1135878E+00
         -5   -1    0    0    0  501 -0.00000000000E+00  0.00000000000E+00  0.42668419503E+03  0.42671007990E+03  0.47000000000E+01 0.  1.
          5   -1    0    0  501    0  0.00000000000E+00 -0.00000000000E+00 -0.92175714838E+03  0.92176913085E+03  0.47000000000E+01 0. -1.
          6    1    1    2  502    0  0.12250244171E+03 -0.51460191079E+02 -0.87999271457E+03  0.90643597523E+03  0.17200000000E+03 0. -1.
         -6    1    1    2    0  502 -0.12250244171E+03  0.51460191079E+02  0.38491976122E+03  0.44204323552E+03  0.17200000000E+03 0.  1.
</event>
<event>
 4    1 -0.7151877E-004  0.2970203E+03  0.7818608E-02  0.1086740E+00
         -5   -1    0    0    0  501 -0.00000000000E+00  0.00000000000E+00  0.27158770173E+03  0.27162836695E+03  0.47000000000E+01 0.  1.
          5   -1    0    0  501    0  0.00000000000E+00 -0.00000000000E+00 -0.12916145799E+04  0.12916231312E+04  0.47000000000E+01 0. -1.
          6    1    1    2  502    0  0.91891241591E+02 -0.22403805680E+03 -0.11862587063E+04  0.12228780681E+04  0.17200000000E+03 0. -1.
         -6    1    1    2    0  502 -0.91891241591E+02  0.22403805680E+03  0.16623182814E+03  0.34037343002E+03  0.17200000000E+03 0.  1.
</event>
<event>
 4    1 -0.7151877E-004  0.1771970E+03  0.7818608E-02  0.1170544E+00
          5   -1    0    0  501    0  0.00000000000E+00  0.00000000000E+00  0.47746810209E+03  0.47749123396E+03  0.47000000000E+01 0. -1.
         -5   -1    0    0    0  501 -0.00000000000E+00 -0.00000000000E+00 -0.66694393002E+02  0.66859794031E+02  0.47000000000E+01 0.  1.
          6    1    1    2  502    0  0.41691910664E+02  0.87495195270E+01  0.17141240053E+03  0.24653799010E+03  0.17200000000E+03 0.  1.
         -6    1    1    2    0  502 -0.41691910664E+02 -0.87495195270E+01  0.23936130855E+03  0.29781303789E+03  0.17200000000E+03 0. -1.
</event>
<event>
 4    1 -0.7151877E-004  0.1759716E+03  0.7818608E-02  0.1171760E+00
         -5   -1    0    0    0  501 -0.00000000000E+00  0.00000000000E+00  0.26233467347E+03  0.26237677280E+03  0.47000000000E+01 0.  1.
          5   -1    0    0  501    0  0.00000000000E+00 -0.00000000000E+00 -0.13534749306E+03  0.13542907323E+03  0.47000000000E+01 0. -1.
          6    1    1    2  502    0  0.33272098293E+02 -0.16582525213E+02 -0.78006783717E+01  0.17614443860E+03  0.17200000000E+03 0. -1.
         -6    1    1    2    0  502 -0.33272098293E+02  0.16582525213E+02  0.13478785878E+03  0.22166140743E+03  0.17200000000E+03 0.  1.
</event>
<event>
 4    1 -0.7151877E-004  0.1983647E+03  0.7818608E-02  0.1151126E+00
         -5   -1    0    0    0  501 -0.00000000000E+00  0.00000000000E+00  0.17302432550E+03  0.17308814868E+03  0.47000000000E+01 0.  1.
          5   -1    0    0  501    0  0.00000000000E+00 -0.00000000000E+00 -0.35415943814E+03  0.35419062329E+03  0.47000000000E+01 0. -1.
          6    1    1    2  502    0  0.51655412319E+02  0.84239367190E+02 -0.24834039113E+03  0.31783879951E+03  0.17200000000E+03 0. -1.
         -6    1    1    2    0  502 -0.51655412319E+02 -0.84239367190E+02  0.67205278489E+02  0.20943997246E+03  0.17200000000E+03 0.  1.
</event>
<event>
 4    1 -0.7151877E-004  0.1769764E+03  0.7818608E-02  0.1170762E+00
          5   -1    0    0  501    0  0.00000000000E+00  0.00000000000E+00  0.28252400968E+03  0.28256310100E+03  0.47000000000E+01 0. -1.
         -5   -1    0    0    0  501 -0.00000000000E+00 -0.00000000000E+00 -0.29953108684E+03  0.29956795888E+03  0.47000000000E+01 0.  1.
          6    1    1    2  502    0 -0.29805641477E+02  0.29125311015E+02  0.22251967846E+03  0.28431613973E+03  0.17200000000E+03 0. -1.
         -6    1    1    2    0  502  0.29805641477E+02 -0.29125311015E+02 -0.23952675562E+03  0.29781492015E+03  0.17200000000E+03 0.  1.
</event>
<event>
 4    1 -0.7151877E-004  0.1870329E+03  0.7818608E-02  0.1161165E+00
         -5   -1    0    0    0  501 -0.00000000000E+00  0.00000000000E+00  0.21254316999E+03  0.21259512955E+03  0.47000000000E+01 0.  1.
          5   -1    0    0  501    0  0.00000000000E+00 -0.00000000000E+00 -0.20238864280E+03  0.20244320867E+03  0.47000000000E+01 0. -1.
          6    1    1    2  502    0 -0.66161103600E+02  0.31937424303E+02 -0.84711166633E+02  0.20532236228E+03  0.17200000000E+03 0. -1.
         -6    1    1    2    0  502  0.66161103600E+02 -0.31937424303E+02  0.94865693822E+02  0.20971597594E+03  0.17200000000E+03 0.  1.
</event>
<event>
 4    1 -0.7151877E-004  0.2032588E+03  0.7818608E-02  0.1147018E+00
          5   -1    0    0  501    0  0.00000000000E+00  0.00000000000E+00  0.70823825012E+03  0.70825384498E+03  0.47000000000E+01 0. -1.
         -5   -1    0    0    0  501 -0.00000000000E+00 -0.00000000000E+00 -0.14637691866E+03  0.14645235511E+03  0.47000000000E+01 0.  1.
          6    1    1    2  502    0  0.97821296001E+02  0.46487896020E+02  0.61240703052E+03  0.64525692671E+03  0.17200000000E+03 0. -1.
         -6    1    1    2    0  502 -0.97821296001E+02 -0.46487896020E+02 -0.50545699069E+02  0.20944927339E+03  0.17200000000E+03 0.  1.
</event>
<event>
 4    1 -0.7151877E-004  0.2413926E+03  0.7818608E-02  0.1118869E+00
         -5   -1    0    0    0  501 -0.00000000000E+00  0.00000000000E+00  0.17544804441E+03  0.17551098623E+03  0.47000000000E+01 0.  1.
          5   -1    0    0  501    0  0.00000000000E+00 -0.00000000000E+00 -0.20298551482E+04  0.20298605894E+04  0.47000000000E+01 0. -1.
          6    1    1    2  502    0  0.46354834702E+02 -0.16290365220E+03 -0.19356731327E+04  0.19506667699E+04  0.17200000000E+03 0. -1.
         -6    1    1    2    0  502 -0.46354834702E+02  0.16290365220E+03  0.81266028963E+02  0.25470480573E+03  0.17200000000E+03 0.  1.
</event>
<event>
 4    1 -0.7151877E-004  0.2201734E+03  0.7818608E-02  0.1133754E+00
         -5   -1    0    0    0  501 -0.00000000000E+00  0.00000000000E+00  0.28609674520E+04  0.28609713126E+04  0.47000000000E+01 0.  1.
          5   -1    0    0  501    0  0.00000000000E+00 -0.00000000000E+00 -0.34485735148E+02  0.34804538909E+02  0.47000000000E+01 0. -1.
          6    1    1    2  502    0 -0.11182411298E+03  0.79922994198E+02  0.37824807242E+03  0.43766188037E+03  0.17200000000E+03 0. -1.
         -6    1    1    2    0  502  0.11182411298E+03 -0.79922994198E+02  0.24482336445E+04  0.24581139711E+04  0.17200000000E+03 0.  1.
</event>
<event>
 4    1 -0.7151877E-004  0.1735569E+03  0.7818608E-02  0.1174188E+00
          5   -1    0    0  501    0  0.00000000000E+00  0.00000000000E+00  0.28540450540E+03  0.28544320224E+03  0.47000000000E+01 0. -1.
         -5   -1    0    0    0  501 -0.00000000000E+00 -0.00000000000E+00 -0.25129525817E+03  0.25133920661E+03  0.47000000000E+01 0.  1.
          6    1    1    2  502    0 -0.18481863451E+01  0.23121375809E+02  0.22147992590E+03  0.28138118521E+03  0.17200000000E+03 0. -1.
         -6    1    1    2    0  502  0.18481863451E+01 -0.23121375809E+02 -0.18737067867E+03  0.25540122364E+03  0.17200000000E+03 0.  1.
</event>
<event>
 4    1 -0.7151877E-004  0.3291138E+03  0.7818608E-02  0.1071530E+00
         -5   -1    0    0    0  501 -0.00000000000E+00  0.00000000000E+00  0.10344024566E+03  0.10354696723E+03  0.47000000000E+01 0.  1.
          5   -1    0    0  501    0  0.00000000000E+00 -0.00000000000E+00 -0.12701018015E+04  0.12701104976E+04  0.47000000000E+01 0. -1.
          6    1    1    2  502    0  0.15706024363E+02  0.28015218539E+03 -0.87151030654E+03  0.93158259998E+03  0.17200000000E+03 0. -1.
         -6    1    1    2    0  502 -0.15706024363E+02 -0.28015218539E+03 -0.29515124927E+03  0.44207486484E+03  0.17200000000E+03 0.  1.
</event>
<event>
 4    1 -0.7151877E-004  0.1953845E+03  0.7818608E-02  0.1153693E+00
         -5   -1    0    0    0  501 -0.00000000000E+00  0.00000000000E+00  0.46352270271E+02  0.46589944830E+02  0.47000000000E+01 0.  1.
          5   -1    0    0  501    0  0.00000000000E+00 -0.00000000000E+00 -0.17219989599E+04  0.17220053739E+04  0.47000000000E+01 0. -1.
          6    1    1    2  502    0  0.86466674574E+02 -0.33385610526E+02 -0.14773463500E+04  0.14902104961E+04  0.17200000000E+03 0. -1.
         -6    1    1    2    0  502 -0.86466674574E+02  0.33385610526E+02 -0.19830033962E+03  0.27838482267E+03  0.17200000000E+03 0.  1.
</event>
<event>
 4    1 -0.7151877E-004  0.3480312E+03  0.7818608E-02  0.1063426E+00
          5   -1    0    0  501    0  0.00000000000E+00  0.00000000000E+00  0.89218962941E+02  0.89342673724E+02  0.47000000000E+01 0. -1.
         -5   -1    0    0    0  501 -0.00000000000E+00 -0.00000000000E+00 -0.24484466469E+04  0.24484511579E+04  0.47000000000E+01 0.  1.
          6    1    1    2  502    0 -0.90607565187E+01  0.30242289068E+03 -0.33227061332E+03  0.48117508518E+03  0.17200000000E+03 0. -1.
         -6    1    1    2    0  502  0.90607565187E+01 -0.30242289068E+03 -0.20269570706E+04  0.20566187464E+04  0.17200000000E+03 0.  1.
</event>
<event>
 4    1 -0.7151877E-004  0.2930978E+03  0.7818608E-02  0.1088743E+00
         -5   -1    0    0    0  501 -0.00000000000E+00  0.00000000000E+00  0.27339354079E+03  0.27343393744E+03  0.47000000000E+01 0.  1.
          5   -1    0    0  501    0  0.00000000000E+00 -0.00000000000E+00 -0.58954152475E+03  0.58956025935E+03  0.47000000000E+01 0. -1.
          6    1    1    2  502    0 -0.12573776508E+01  0.23731992471E+03 -0.45297633719E+03  0.53953117585E+03  0.17200000000E+03 0. -1.
         -6    1    1    2    0  502  0.12573776508E+01 -0.23731992471E+03  0.13682835323E+03  0.32346302093E+03  0.17200000000E+03 0.  1.
</event>
<event>
 4    1 -0.7151877E-004  0.1760579E+03  0.7818608E-02  0.1171674E+00
          5   -1    0    0  501    0  0.00000000000E+00  0.00000000000E+00  0.21405647530E+03  0.21410806762E+03  0.47000000000E+01 0. -1.
         -5   -1    0    0    0  501 -0.00000000000E+00 -0.00000000000E+00 -0.23573884331E+03  0.23578569135E+03  0.47000000000E+01 0.  1.
          6    1    1    2  502    0  0.21179517027E+01  0.37522149619E+02  0.12891767315E+03  0.21821128266E+03  0.17200000000E+03 0. -1.
         -6    1    1    2    0  502 -0.21179517027E+01 -0.37522149619E+02 -0.15060004116E+03  0.23168247631E+03  0.17200000000E+03 0.  1.
</event>
<event>
 4    1 -0.7151877E-004  0.3874666E+03  0.7818608E-02  0.1048208E+00
         -5   -1    0    0    0  501 -0.00000000000E+00  0.00000000000E+00  0.39904417597E+03  0.39907185365E+03  0.47000000000E+01 0.  1.
          5   -1    0    0  501    0  0.00000000000E+00 -0.00000000000E+00 -0.57420814944E+03  0.57422738430E+03  0.47000000000E+01 0. -1.
          6    1    1    2  502    0 -0.27618431562E+03  0.21040100209E+03 -0.37336540940E+03  0.53808185884E+03  0.17200000000E+03 0. -1.
         -6    1    1    2    0  502  0.27618431562E+03 -0.21040100209E+03  0.19820143593E+03  0.43521737911E+03  0.17200000000E+03 0.  1.
</event>
<event>
 4    1 -0.7151877E-004  0.2957502E+03  0.7818608E-02  0.1087385E+00
         -5   -1    0    0    0  501 -0.00000000000E+00  0.00000000000E+00  0.40954149895E+03  0.40956846724E+03  0.47000000000E+01 0.  1.
          5   -1    0    0  501    0  0.00000000000E+00 -0.00000000000E+00 -0.23096789808E+03  0.23101571363E+03  0.47000000000E+01 0. -1.
          6    1    1    2  502    0 -0.24037564222E+03  0.10184261056E+02  0.12589877825E+01  0.29575285898E+03  0.17200000000E+03 0. -1.
         -6    1    1    2    0  502  0.24037564222E+03 -0.10184261056E+02  0.17731461309E+03  0.34483132189E+03  0.17200000000E+03 0.  1.
</event>
<event>
 4    1 -0.7151877E-004  0.1772598E+03  0.7818608E-02  0.1170482E+00
         -5   -1    0    0    0  501 -0.00000000000E+00  0.00000000000E+00  0.12486263324E+04  0.12486351781E+04  0.47000000000E+01 0.  1.
          5   -1    0    0  501    0  0.00000000000E+00 -0.00000000000E+00 -0.39165987583E+03  0.39168807530E+03  0.47000000000E+01 0. -1.
          6    1    1    2  502    0  0.40172635611E+02  0.14940204429E+02 -0.36489464508E+03  0.40567123680E+03  0.17200000000E+03 0. -1.
         -6    1    1    2    0  502 -0.40172635611E+02 -0.14940204429E+02  0.12218611016E+04  0.12346520166E+04  0.17200000000E+03 0.  1.
</event>
<event>
 4    1 -0.7151877E-004  0.1817781E+03  0.7818608E-02  0.1166093E+00
          5   -1    0    0  501    0  0.00000000000E+00  0.00000000000E+00  0.15534505809E+04  0.15534576909E+04  0.47000000000E+01 0. -1.
         -5   -1    0    0    0  501 -0.00000000000E+00 -0.00000000000E+00 -0.11777259025E+03  0.11786633538E+03  0.47000000000E+01 0.  1.
          6    1    1    2  502    0  0.37161422659E+02  0.45588327578E+02  0.14743200933E+04  0.14854840977E+04  0.17200000000E+03 0. -1.
         -6    1    1    2    0  502 -0.37161422659E+02 -0.45588327578E+02 -0.38642102665E+02  0.18583992855E+03  0.17200000000E+03 0.  1.
</event>
<event>
 4    1 -0.7151877E-004  0.1921857E+03  0.7818608E-02  0.1156505E+00
         -5   -1    0    0    0  501 -0.00000000000E+00  0.00000000000E+00  0.64603591543E+02  0.64774331647E+02  0.47000000000E+01 0.  1.
          5   -1    0    0  501    0  0.00000000000E+00 -0.00000000000E+00 -0.10393270112E+04  0.10393376383E+04  0.47000000000E+01 0. -1.
          6    1    1    2  502    0 -0.52027776674E+02  0.68150335534E+02 -0.85799213369E+03  0.87925301208E+03  0.17200000000E+03 0. -1.
         -6    1    1    2    0  502  0.52027776674E+02 -0.68150335534E+02 -0.11673128600E+03  0.22485895782E+03  0.17200000000E+03 0.  1.
</event>
<event>
 4    1 -0.7151877E-004  0.2353724E+03  0.7818608E-02  0.1122915E+00
         -5   -1    0    0    0  501 -0.00000000000E+00  0.00000000000E+00  0.37175298574E+03  0.37178269514E+03  0.47000000000E+01 0.  1.
          5   -1    0    0  501    0  0.00000000000E+00 -0.00000000000E+00 -0.64260701780E+03  0.64262420537E+03  0.47000000000E+01 0. -1.
          6    1    1    2  502    0  0.12493593160E+03  0.10103067491E+03 -0.57995184035E+03  0.62589481657E+03  0.17200000000E+03 0. -1.
         -6    1    1    2    0  502 -0.12493593160E+03 -0.10103067491E+03  0.30909780829E+03  0.38851208394E+03  0.17200000000E+03 0.  1.
</event>
<event>
 4    1 -0.7151877E-004  0.1830625E+03  0.7818608E-02  0.1164872E+00
          5   -1    0    0  501    0  0.00000000000E+00  0.00000000000E+00  0.64500149861E+03  0.64501862237E+03  0.47000000000E+01 0. -1.
         -5   -1    0    0    0  501 -0.00000000000E+00 -0.00000000000E+00 -0.89829634773E+02  0.89952505710E+02  0.47000000000E+01 0.  1.
          6    1    1    2  502    0 -0.43692138540E+01 -0.62520195041E+02  0.51634592503E+03  0.54783663543E+03  0.17200000000E+03 0. -1.
         -6    1    1    2    0  502  0.43692138540E+01  0.62520195041E+02  0.38825938802E+02  0.18713449266E+03  0.17200000000E+03 0.  1.
</event>
<event>
 4    1 -0.7151877E-004  0.1971665E+03  0.7818608E-02  0.1152152E+00
          5   -1    0    0  501    0  0.00000000000E+00  0.00000000000E+00  0.97048066445E+03  0.97049204534E+03  0.47000000000E+01 0. -1.
         -5   -1    0    0    0  501 -0.00000000000E+00 -0.00000000000E+00 -0.45622707297E+02  0.45864162710E+02  0.47000000000E+01 0.  1.
          6    1    1    2  502    0  0.81564509589E+02 -0.51360097098E+02  0.64176081361E+03  0.67136545241E+03  0.17200000000E+03 0. -1.
         -6    1    1    2    0  502 -0.81564509589E+02  0.51360097098E+02  0.28309714354E+03  0.34499075564E+03  0.17200000000E+03 0.  1.
</event>
<event>
 4    1 -0.7151877E-004  0.2074634E+03  0.7818608E-02  0.1143591E+00
          5   -1    0    0  501    0  0.00000000000E+00  0.00000000000E+00  0.12576610744E+03  0.12585389855E+03  0.47000000000E+01 0. -1.
         -5   -1    0    0    0  501 -0.00000000000E+00 -0.00000000000E+00 -0.11200088138E+04  0.11200186753E+04  0.47000000000E+01 0.  1.
          6    1    1    2  502    0  0.64346432008E+02 -0.96522580796E+02  0.22039455009E+02  0.20863079709E+03  0.17200000000E+03 0. -1.
         -6    1    1    2    0  502 -0.64346432008E+02  0.96522580796E+02 -0.10162821613E+04  0.10372417767E+04  0.17200000000E+03 0.  1.
</event>
<event>
 4    1 -0.7151877E-004  0.3307187E+03  0.7818608E-02  0.1070819E+00
          5   -1    0    0  501    0  0.00000000000E+00  0.00000000000E+00  0.41439933998E+03  0.41442599216E+03  0.47000000000E+01 0. -1.
         -5   -1    0    0    0  501 -0.00000000000E+00 -0.00000000000E+00 -0.91388368912E+03  0.91389577482E+03  0.47000000000E+01 0.  1.
          6    1    1    2  502    0  0.27442294815E+03  0.66954503195E+02  0.31036747966E+03  0.45354474135E+03  0.17200000000E+03 0. -1.
         -6    1    1    2    0  502 -0.27442294815E+03 -0.66954503195E+02 -0.80985182880E+03  0.87477702564E+03  0.17200000000E+03 0.  1.
</event>
<event>
 4    1 -0.7151877E-004  0.1741702E+03  0.7818608E-02  0.1173567E+00
          5   -1    0    0  501    0  0.00000000000E+00  0.00000000000E+00  0.36565547042E+03  0.36568567520E+03  0.47000000000E+01 0. -1.
         -5   -1    0    0    0  501 -0.00000000000E+00 -0.00000000000E+00 -0.17344327458E+03  0.17350694366E+03  0.47000000000E+01 0.  1.
          6    1    1    2  502    0 -0.13469177892E+02  0.23871207338E+02  0.29086424859E+03  0.33902398794E+03  0.17200000000E+03 0. -1.
         -6    1    1    2    0  502  0.13469177892E+02 -0.23871207338E+02 -0.98652052748E+02  0.20016863092E+03  0.17200000000E+03 0.  1.
</event>
<event>
 4    1 -0.7151877E-004  0.1802256E+03  0.7818608E-02  0.1167585E+00
         -5   -1    0    0    0  501 -0.00000000000E+00  0.00000000000E+00  0.95938135340E+03  0.95939286595E+03  0.47000000000E+01 0.  1.
          5   -1    0    0  501    0  0.00000000000E+00 -0.00000000000E+00 -0.67194681893E+02  0.67358854464E+02  0.47000000000E+01 0. -1.
          6    1    1    2  502    0 -0.41502742506E+02 -0.34275251033E+02  0.84228012016E+02  0.19893624224E+03  0.17200000000E+03 0. -1.
         -6    1    1    2    0  502  0.41502742506E+02  0.34275251033E+02  0.80795865949E+03  0.82781547818E+03  0.17200000000E+03 0.  1.
</event>
<event>
 4    1 -0.7151877E-004  0.1880539E+03  0.7818608E-02  0.1160228E+00
          5   -1    0    0  501    0  0.00000000000E+00  0.00000000000E+00  0.64309592471E+03  0.64311309922E+03  0.47000000000E+01 0. -1.
         -5   -1    0    0    0  501 -0.00000000000E+00 -0.00000000000E+00 -0.76377123077E+02  0.76521597798E+02  0.47000000000E+01 0.  1.
          6    1    1    2  502    0 -0.21671176334E+02  0.72874142545E+02  0.47404991162E+03  0.50998784225E+03  0.17200000000E+03 0. -1.
         -6    1    1    2    0  502  0.21671176334E+02 -0.72874142545E+02  0.92668890014E+02  0.20964685476E+03  0.17200000000E+03 0.  1.
</event>
<event>
 4    1 -0.7151877E-004  0.3421024E+03  0.7818608E-02  0.1065904E+00
         -5   -1    0    0    0  501 -0.00000000000E+00  0.00000000000E+00  0.12562379382E+04  0.12562467303E+04  0.47000000000E+01 0.  1.
          5   -1    0    0  501    0  0.00000000000E+00 -0.00000000000E+00 -0.32785080648E+03  0.32788449386E+03  0.47000000000E+01 0. -1.
          6    1    1    2  502    0 -0.23540954308E+03  0.17897588968E+03 -0.20596253794E+03  0.39931765438E+03  0.17200000000E+03 0. -1.
         -6    1    1    2    0  502  0.23540954308E+03 -0.17897588968E+03  0.11343496696E+04  0.11848135697E+04  0.17200000000E+03 0.  1.
</event>
<event>
 4    1 -0.7151877E-004  0.1824675E+03  0.7818608E-02  0.1165436E+00
         -5   -1    0    0    0  501 -0.00000000000E+00  0.00000000000E+00  0.34505650530E+03  0.34508851307E+03  0.47000000000E+01 0.  1.
          5   -1    0    0  501    0  0.00000000000E+00 -0.00000000000E+00 -0.16824718570E+03  0.16831282035E+03  0.47000000000E+01 0. -1.
          6    1    1    2  502    0 -0.55073813266E+02  0.26024614867E+02 -0.79287439546E+02  0.19894950002E+03  0.17200000000E+03 0. -1.
         -6    1    1    2    0  502  0.55073813266E+02 -0.26024614867E+02  0.25609675915E+03  0.31445183341E+03  0.17200000000E+03 0.  1.
</event>
<event>
 4    1 -0.7151877E-004  0.1970998E+03  0.7818608E-02  0.1152209E+00
          5   -1    0    0  501    0  0.00000000000E+00  0.00000000000E+00  0.10408449827E+03  0.10419055994E+03  0.47000000000E+01 0. -1.
         -5   -1    0    0    0  501 -0.00000000000E+00 -0.00000000000E+00 -0.82549674610E+03  0.82551012581E+03  0.47000000000E+01 0.  1.
          6    1    1    2  502    0 -0.96245783573E+02 -0.10487965643E+01 -0.16542972774E+02  0.19779287343E+03  0.17200000000E+03 0. -1.
         -6    1    1    2    0  502  0.96245783573E+02  0.10487965643E+01 -0.70486927505E+03  0.73190781232E+03  0.17200000000E+03 0.  1.
</event>
<event>
 4    1 -0.7151877E-004  0.2149743E+03  0.7818608E-02  0.1137686E+00
          5   -1    0    0  501    0  0.00000000000E+00  0.00000000000E+00  0.88482082293E+02  0.88606821898E+02  0.47000000000E+01 0. -1.
         -5   -1    0    0    0  501 -0.00000000000E+00 -0.00000000000E+00 -0.68634031341E+03  0.68635640582E+03  0.47000000000E+01 0.  1.
          6    1    1    2  502    0  0.78393575134E+02 -0.10239336720E+03 -0.10922360354E+03  0.24113015124E+03  0.17200000000E+03 0. -1.
         -6    1    1    2    0  502 -0.78393575134E+02  0.10239336720E+03 -0.48863462758E+03  0.53383307648E+03  0.17200000000E+03 0.  1.
</event>
<event>
 4    1 -0.7151877E-004  0.1983019E+03  0.7818608E-02  0.1151180E+00
          5   -1    0    0  501    0  0.00000000000E+00  0.00000000000E+00  0.11319225116E+03  0.11328978649E+03  0.47000000000E+01 0. -1.
         -5   -1    0    0    0  501 -0.00000000000E+00 -0.00000000000E+00 -0.12351787099E+04  0.12351876519E+04  0.47000000000E+01 0.  1.
          6    1    1    2  502    0  0.95137324634E+02 -0.26239780919E+02  0.10674077492E+02  0.19858895380E+03  0.17200000000E+03 0. -1.
         -6    1    1    2    0  502 -0.95137324634E+02  0.26239780919E+02 -0.11326605363E+04  0.11498884846E+04  0.17200000000E+03 0.  1.
</event>
<event>
 4    1 -0.7151877E-004  0.2098223E+03  0.7818608E-02  0.1141707E+00
          5   -1    0    0  501    0  0.00000000000E+00  0.00000000000E+00  0.12464475666E+03  0.12473333702E+03  0.47000000000E+01 0. -1.
         -5   -1    0    0    0  501 -0.00000000000E+00 -0.00000000000E+00 -0.20208028387E+04  0.20208083044E+04  0.47000000000E+01 0.  1.
          6    1    1    2  502    0  0.41431478233E+02  0.11280430698E+03  0.26481488333E+02  0.21148675676E+03  0.17200000000E+03 0. -1.
         -6    1    1    2    0  502 -0.41431478233E+02 -0.11280430698E+03 -0.19226395704E+04  0.19340548846E+04  0.17200000000E+03 0.  1.
</event>
<event>
 4    1 -0.7151877E-004  0.3189248E+03  0.7818608E-02  0.1076145E+00
         -5   -1    0    0    0  501 -0.00000000000E+00  0.00000000000E+00  0.15760024970E+04  0.15760095053E+04  0.47000000000E+01 0.  1.
          5   -1    0    0  501    0  0.00000000000E+00 -0.00000000000E+00 -0.11474060768E+03  0.11483682793E+03  0.47000000000E+01 0. -1.
          6    1    1    2  502    0 -0.82189286202E+02  0.25568328551E+03  0.17124614981E+03  0.36199207875E+03  0.17200000000E+03 0. -1.
         -6    1    1    2    0  502  0.82189286202E+02 -0.25568328551E+03  0.12900157396E+04  0.13288542544E+04  0.17200000000E+03 0.  1.
</event>
<event>
 4    1 -0.7151877E-004  0.1796823E+03  0.7818608E-02  0.1168111E+00
          5   -1    0    0  501    0  0.00000000000E+00  0.00000000000E+00  0.29453897326E+03  0.29457647016E+03  0.47000000000E+01 0. -1.
         -5   -1    0    0    0  501 -0.00000000000E+00 -0.00000000000E+00 -0.13977568753E+03  0.13985468467E+03  0.47000000000E+01 0.  1.
          6    1    1    2  502    0 -0.25066420212E+01  0.51917518276E+02  0.17839626919E+03  0.25320138392E+03  0.17200000000E+03 0. -1.
         -6    1    1    2    0  502  0.25066420212E+01 -0.51917518276E+02 -0.23632983460E+02  0.18122977091E+03  0.17200000000E+03 0.  1.
</event>
<event>
 4    1 -0.7151877E-004  0.2001057E+03  0.7818608E-02  0.1149650E+00
          5   -1    0    0  501    0  0.00000000000E+00  0.00000000000E+00  0.45045484124E+03  0.45047936023E+03  0.47000000000E+01 0. -1.
         -5   -1    0    0    0  501 -0.00000000000E+00 -0.00000000000E+00 -0.49117300041E+03  0.49119548688E+03  0.47000000000E+01 0.  1.
          6    1    1    2  502    0  0.93737812040E+02  0.40884001813E+02  0.40575193025E+03  0.45241232069E+03  0.17200000000E+03 0. -1.
         -6    1    1    2    0  502 -0.93737812040E+02 -0.40884001813E+02 -0.44647008942E+03  0.48926252642E+03  0.17200000000E+03 0.  1.
</event>
<event>
 4    1 -0.7151877E-004  0.1776851E+03  0.7818608E-02  0.1170062E+00
         -5   -1    0    0    0  501 -0.00000000000E+00  0.00000000000E+00  0.77810072309E+02  0.77951891271E+02  0.47000000000E+01 0.  1.
          5   -1    0    0  501    0  0.00000000000E+00 -0.00000000000E+00 -0.57098402971E+03  0.57100337318E+03  0.47000000000E+01 0. -1.
          6    1    1    2  502    0  0.35033275404E+01  0.44449246144E+02 -0.42138592848E+03  0.45731620298E+03  0.17200000000E+03 0. -1.
         -6    1    1    2    0  502 -0.35033275404E+01 -0.44449246144E+02 -0.71788028924E+02  0.19163906148E+03  0.17200000000E+03 0.  1.
</event>
<event>
 4    1 -0.7151877E-004  0.2021685E+03  0.7818608E-02  0.1147922E+00
         -5   -1    0    0    0  501 -0.00000000000E+00  0.00000000000E+00  0.56258285012E+03  0.56260248244E+03  0.47000000000E+01 0.  1.
          5   -1    0    0  501    0  0.00000000000E+00 -0.00000000000E+00 -0.22806506519E+03  0.22811348921E+03  0.47000000000E+01 0. -1.
          6    1    1    2  502    0  0.81789056892E+02 -0.67813337217E+02 -0.15912434222E+03  0.25727933228E+03  0.17200000000E+03 0. -1.
         -6    1    1    2    0  502 -0.81789056892E+02  0.67813337217E+02  0.49364212715E+03  0.53343663937E+03  0.17200000000E+03 0.  1.
</event>
<event>
 4    1 -0.7151877E-004  0.2000158E+03  0.7818608E-02  0.1149726E+00
         -5   -1    0    0    0  501 -0.00000000000E+00  0.00000000000E+00  0.74006994648E+02  0.74156087119E+02  0.47000000000E+01 0.  1.
          5   -1    0    0  501    0  0.00000000000E+00 -0.00000000000E+00 -0.22834560071E+04  0.22834608440E+04  0.47000000000E+01 0. -1.
          6    1    1    2  502    0  0.10179605307E+03 -0.77385120935E+01 -0.21347619979E+04  0.21441117295E+04  0.17200000000E+03 0. -1.
         -6    1    1    2    0  502 -0.10179605307E+03  0.77385120935E+01 -0.74687014543E+02  0.21350520165E+03  0.17200000000E+03 0.  1.
</event>
<event>
 4    1 -0.7151877E-004  0.1779992E+03  0.7818608E-02  0.1169754E+00
         -5   -1    0    0    0  501 -0.00000000000E+00  0.00000000000E+00  0.11260634040E+03  0.11270438278E+03  0.47000000000E+01 0.  1.
          5   -1    0    0  501    0  0.00000000000E+00 -0.00000000000E+00 -0.50579604739E+03  0.50581788379E+03  0.47000000000E+01 0. -1.
          6    1    1    2  502    0  0.22275609117E+02  0.40043798427E+02 -0.40268354338E+03  0.44027008150E+03  0.17200000000E+03 0. -1.
         -6    1    1    2    0  502 -0.22275609117E+02 -0.40043798427E+02  0.94938363892E+01  0.17825218507E+03  0.17200000000E+03 0.  1.
</event>
<event>
 4    1 -0.7151877E-004  0.3136669E+03  0.7818608E-02  0.1078601E+00
         -5   -1    0    0    0  501 -0.00000000000E+00  0.00000000000E+00  0.15582529085E+04  0.15582599966E+04  0.47000000000E+01 0.  1.
          5   -1    0    0  501    0  0.00000000000E+00 -0.00000000000E+00 -0.25565486563E+03  0.25569806476E+03  0.47000000000E+01 0. -1.
          6    1    1    2  502    0 -0.99506988595E+02  0.24269580719E+03 -0.13576736687E+03  0.34178893123E+03  0.17200000000E+03 0. -1.
         -6    1    1    2    0  502  0.99506988595E+02 -0.24269580719E+03  0.14383654098E+04  0.14721691301E+04  0.17200000000E+03 0.  1.
</event>
<event>
 4    1 -0.7151877E-004  0.1937652E+03  0.7818608E-02  0.1155109E+00
          5   -1    0    0  501    0  0.00000000000E+00  0.00000000000E+00  0.14449996798E+03  0.14457638378E+03  0.47000000000E+01 0. -1.
         -5   -1    0    0    0  501 -0.00000000000E+00 -0.00000000000E+00 -0.36302106753E+03  0.36305149148E+03  0.47000000000E+01 0.  1.
          6    1    1    2  502    0  0.56484574558E+02  0.69068433356E+02  0.26152257947E+02  0.19552211191E+03  0.17200000000E+03 0. -1.
         -6    1    1    2    0  502 -0.56484574558E+02 -0.69068433356E+02 -0.24467335749E+03  0.31210576335E+03  0.17200000000E+03 0.  1.
</event>
<event>
 4    1 -0.7151877E-004  0.3558119E+03  0.7818608E-02  0.1060255E+00
         -5   -1    0    0    0  501 -0.00000000000E+00  0.00000000000E+00  0.11431524569E+04  0.11431621188E+04  0.47000000000E+01 0.  1.
          5   -1    0    0  501    0  0.00000000000E+00 -0.00000000000E+00 -0.19967593219E+04  0.19967648533E+04  0.47000000000E+01 0. -1.
          6    1    1    2  502    0 -0.30542346450E+03  0.61111262734E+02 -0.19526081356E+04  0.19847621042E+04  0.17200000000E+03 0. -1.
         -6    1    1    2    0  502  0.30542346450E+03 -0.61111262734E+02  0.10990012706E+04  0.11551648679E+04  0.17200000000E+03 0.  1.
</event>
<event>
 4    1 -0.7151877E-004  0.1745873E+03  0.7818608E-02  0.1173147E+00
          5   -1    0    0  501    0  0.00000000000E+00  0.00000000000E+00  0.26208322064E+03  0.26212536035E+03  0.47000000000E+01 0. -1.
         -5   -1    0    0    0  501 -0.00000000000E+00 -0.00000000000E+00 -0.78086719789E+03  0.78088134229E+03  0.47000000000E+01 0.  1.
          6    1    1    2  502    0 -0.11168943944E+02 -0.27784556749E+02  0.22171631755E+03  0.28220356549E+03  0.17200000000E+03 0. -1.
         -6    1    1    2    0  502  0.11168943944E+02  0.27784556749E+02 -0.74050029480E+03  0.76080313716E+03  0.17200000000E+03 0.  1.
</event>
<event>
 4    1 -0.7151877E-004  0.2719601E+03  0.7818608E-02  0.1100163E+00
          5   -1    0    0  501    0  0.00000000000E+00  0.00000000000E+00  0.52480185597E+03  0.52482290158E+03  0.47000000000E+01 0. -1.
         -5   -1    0    0    0  501 -0.00000000000E+00 -0.00000000000E+00 -0.15522643922E+03  0.15529757704E+03  0.47000000000E+01 0.  1.
          6    1    1    2  502    0 -0.18420999503E+03  0.10220065919E+03  0.28817136959E+03  0.39623860899E+03  0.17200000000E+03 0. -1.
         -6    1    1    2    0  502  0.18420999503E+03 -0.10220065919E+03  0.81404047158E+02  0.28388186963E+03  0.17200000000E+03 0.  1.
</event>
<event>
 4    1 -0.7151877E-004  0.3276449E+03  0.7818608E-02  0.1072184E+00
          5   -1    0    0  501    0  0.00000000000E+00  0.00000000000E+00  0.11873789639E+04  0.11873882658E+04  0.47000000000E+01 0. -1.
         -5   -1    0    0    0  501 -0.00000000000E+00 -0.00000000000E+00 -0.80579229389E+03  0.80580600078E+03  0.47000000000E+01 0.  1.
          6    1    1    2  502    0  0.22794026932E+03  0.16065611184E+03  0.11298196728E+04  0.11763688391E+04  0.17200000000E+03 0. -1.
         -6    1    1    2    0  502 -0.22794026932E+03 -0.16065611184E+03 -0.74823300276E+03  0.81682542753E+03  0.17200000000E+03 0.  1.
</event>
<event>
 4    1 -0.7151877E-004  0.1779686E+03  0.7818608E-02  0.1169784E+00
         -5   -1    0    0    0  501 -0.00000000000E+00  0.00000000000E+00  0.44801552282E+03  0.44804017530E+03  0.47000000000E+01 0.  1.
          5   -1    0    0  501    0  0.00000000000E+00 -0.00000000000E+00 -0.12633715890E+03  0.12642455347E+03  0.47000000000E+01 0. -1.
          6    1    1    2  502    0  0.37975033805E+02  0.25430810425E+02 -0.29848782479E+02  0.18045436854E+03  0.17200000000E+03 0. -1.
         -6    1    1    2    0  502 -0.37975033805E+02 -0.25430810425E+02  0.35152714640E+03  0.39401036022E+03  0.17200000000E+03 0.  1.
</event>
<event>
 4    1 -0.7151877E-004  0.2851244E+03  0.7818608E-02  0.1092923E+00
         -5   -1    0    0    0  501 -0.00000000000E+00  0.00000000000E+00  0.21795956187E+04  0.21796006862E+04  0.47000000000E+01 0.  1.
          5   -1    0    0  501    0  0.00000000000E+00 -0.00000000000E+00 -0.46217365378E+02  0.46455730136E+02  0.47000000000E+01 0. -1.
          6    1    1    2  502    0 -0.91904584836E+02 -0.20800347380E+03  0.57501438081E+03  0.64182352401E+03  0.17200000000E+03 0. -1.
         -6    1    1    2    0  502  0.91904584836E+02  0.20800347380E+03  0.15583638725E+04  0.15842328923E+04  0.17200000000E+03 0.  1.
</event>
<event>
 4    1 -0.7151877E-004  0.1874473E+03  0.7818608E-02  0.1160784E+00
         -5   -1    0    0    0  501 -0.00000000000E+00  0.00000000000E+00  0.51068442950E+02  0.51284265280E+02  0.47000000000E+01 0.  1.
          5   -1    0    0  501    0  0.00000000000E+00 -0.00000000000E+00 -0.72628127985E+03  0.72629648730E+03  0.47000000000E+01 0. -1.
          6    1    1    2  502    0 -0.18783234523E+02 -0.72108926197E+02 -0.42875157801E+03  0.46793634480E+03  0.17200000000E+03 0. -1.
         -6    1    1    2    0  502  0.18783234523E+02  0.72108926197E+02 -0.24646125889E+03  0.30964440778E+03  0.17200000000E+03 0.  1.
</event>
<event>
 4    1 -0.7151877E-004  0.1783711E+03  0.7818608E-02  0.1169389E+00
         -5   -1    0    0    0  501 -0.00000000000E+00  0.00000000000E+00  0.27730490312E+03  0.27734473006E+03  0.47000000000E+01 0.  1.
          5   -1    0    0  501    0  0.00000000000E+00 -0.00000000000E+00 -0.32141458511E+03  0.32144894699E+03  0.47000000000E+01 0. -1.
          6    1    1    2  502    0 -0.46989982710E+02 -0.49185172390E+01 -0.26215612443E+03  0.31708371743E+03  0.17200000000E+03 0. -1.
         -6    1    1    2    0  502  0.46989982710E+02  0.49185172390E+01  0.21804644244E+03  0.28170995962E+03  0.17200000000E+03 0.  1.
</event>
<event>
 4    1 -0.7151877E-004  0.2734400E+03  0.7818608E-02  0.1099327E+00
         -5   -1    0    0    0  501 -0.00000000000E+00  0.00000000000E+00  0.97341494801E+02  0.97454895260E+02  0.47000000000E+01 0.  1.
          5   -1    0    0  501    0  0.00000000000E+00 -0.00000000000E+00 -0.10647963972E+04  0.10648067700E+04  0.47000000000E+01 0. -1.
          6    1    1    2  502    0 -0.67393696810E+02  0.20160243463E+03 -0.79075360413E+03  0.83669630958E+03  0.17200000000E+03 0. -1.
         -6    1    1    2    0  502  0.67393696810E+02 -0.20160243463E+03 -0.17670129824E+03  0.32556535568E+03  0.17200000000E+03 0. -1.
</event>
<event>
 4    1 -0.7151877E-004  0.2961668E+03  0.7818608E-02  0.1087173E+00
         -5   -1    0    0    0  501 -0.00000000000E+00  0.00000000000E+00  0.96633074609E+03  0.96634217586E+03  0.47000000000E+01 0.  1.
          5   -1    0    0  501    0  0.00000000000E+00 -0.00000000000E+00 -0.12791247837E+03  0.12799879734E+03  0.47000000000E+01 0. -1.
          6    1    1    2  502    0  0.14238307911E+03 -0.19457089353E+03  0.12420682720E+03  0.32115745320E+03  0.17200000000E+03 0. -1.
         -6    1    1    2    0  502 -0.14238307911E+03  0.19457089353E+03  0.71421144053E+03  0.77318352000E+03  0.17200000000E+03 0.  1.
</event>
<event>
 4    1 -0.7151877E-004  0.2001836E+03  0.7818608E-02  0.1149584E+00
         -5   -1    0    0    0  501 -0.00000000000E+00  0.00000000000E+00  0.62496082468E+03  0.62497849754E+03  0.47000000000E+01 0.  1.
          5   -1    0    0  501    0  0.00000000000E+00 -0.00000000000E+00 -0.31719954675E+03  0.31723436519E+03  0.47000000000E+01 0. -1.
          6    1    1    2  502    0  0.78843481763E+02 -0.65369493305E+02 -0.26693008461E+03  0.33365421523E+03  0.17200000000E+03 0. -1.
         -6    1    1    2    0  502 -0.78843481763E+02  0.65369493305E+02  0.57469136254E+03  0.60855864750E+03  0.17200000000E+03 0.  1.
</event>
<event>
 4    1 -0.7151877E-004  0.2022080E+03  0.7818608E-02  0.1147889E+00
          5   -1    0    0  501    0  0.00000000000E+00  0.00000000000E+00  0.10335901024E+04  0.10336007884E+04  0.47000000000E+01 0. -1.
         -5   -1    0    0    0  501 -0.00000000000E+00 -0.00000000000E+00 -0.31841035342E+03  0.31844503948E+03  0.47000000000E+01 0.  1.
          6    1    1    2  502    0 -0.87554000151E+02  0.60318847261E+02  0.99023019537E+03  0.10106650811E+04  0.17200000000E+03 0. -1.
         -6    1    1    2    0  502  0.87554000151E+02 -0.60318847261E+02 -0.27505044635E+03  0.34138074684E+03  0.17200000000E+03 0.  1.
</event>
<event>
 4    1 -0.7151877E-004  0.2067980E+03  0.7818608E-02  0.1144127E+00
          5   -1    0    0  501    0  0.00000000000E+00  0.00000000000E+00  0.69894807899E+03  0.69896388113E+03  0.47000000000E+01 0. -1.
         -5   -1    0    0    0  501 -0.00000000000E+00 -0.00000000000E+00 -0.62566549847E+02  0.62742833533E+02  0.47000000000E+01 0.  1.
          6    1    1    2  502    0  0.94639850270E+02 -0.64997832981E+02  0.37683212790E+03  0.42984633553E+03  0.17200000000E+03 0.  1.
         -6    1    1    2    0  502 -0.94639850270E+02  0.64997832981E+02  0.25954940124E+03  0.33186037913E+03  0.17200000000E+03 0. -1.
</event>
<event>
 4    1 -0.7151877E-004  0.1775028E+03  0.7818608E-02  0.1170242E+00
         -5   -1    0    0    0  501 -0.00000000000E+00  0.00000000000E+00  0.44292157432E+03  0.44294651031E+03  0.47000000000E+01 0.  1.
          5   -1    0    0  501    0  0.00000000000E+00 -0.00000000000E+00 -0.10194120653E+03  0.10204949578E+03  0.47000000000E+01 0. -1.
          6    1    1    2  502    0  0.87295178890E+01  0.42977195324E+02  0.20552885795E+02  0.17868873752E+03  0.17200000000E+03 0. -1.
         -6    1    1    2    0  502 -0.87295178890E+01 -0.42977195324E+02  0.32042748199E+03  0.36630726858E+03  0.17200000000E+03 0.  1.
</event>
<event>
 4    1 -0.7151877E-004  0.1746950E+03  0.7818608E-02  0.1173038E+00
          5   -1    0    0  501    0  0.00000000000E+00  0.00000000000E+00  0.37631293962E+03  0.37634228905E+03  0.47000000000E+01 0. -1.
         -5   -1    0    0    0  501 -0.00000000000E+00 -0.00000000000E+00 -0.51676555271E+03  0.51678692560E+03  0.47000000000E+01 0.  1.
          6    1    1    2  502    0  0.48946590804E+01  0.30172447875E+02  0.33980752825E+03  0.38208309378E+03  0.17200000000E+03 0. -1.
         -6    1    1    2    0  502 -0.48946590804E+01 -0.30172447875E+02 -0.48026014134E+03  0.51104612087E+03  0.17200000000E+03 0.  1.
</event>
<event>
 4    1 -0.7151877E-004  0.2152557E+03  0.7818608E-02  0.1137470E+00
         -5   -1    0    0    0  501 -0.00000000000E+00  0.00000000000E+00  0.65370669831E+03  0.65372359405E+03  0.47000000000E+01 0.  1.
          5   -1    0    0  501    0  0.00000000000E+00 -0.00000000000E+00 -0.37375776606E+03  0.37378731612E+03  0.47000000000E+01 0. -1.
          6    1    1    2  502    0  0.12353938527E+03 -0.38588208970E+02 -0.32251267787E+03  0.38774921918E+03  0.17200000000E+03 0. -1.
         -6    1    1    2    0  502 -0.12353938527E+03  0.38588208970E+02  0.60246161012E+03  0.63976169099E+03  0.17200000000E+03 0.  1.
</event>
<event>
 4    1 -0.7151877E-004  0.1935031E+03  0.7818608E-02  0.1155339E+00
          5   -1    0    0  501    0  0.00000000000E+00  0.00000000000E+00  0.53232602258E+03  0.53234677074E+03  0.47000000000E+01 0. -1.
         -5   -1    0    0    0  501 -0.00000000000E+00 -0.00000000000E+00 -0.23960644701E+03  0.23965253900E+03  0.47000000000E+01 0.  1.
          6    1    1    2  502    0  0.86057673425E+02 -0.21296549706E+02  0.47080561112E+03  0.50902002873E+03  0.17200000000E+03 0. -1.
         -6    1    1    2    0  502 -0.86057673425E+02  0.21296549706E+02 -0.17808603555E+03  0.26297928101E+03  0.17200000000E+03 0.  1.
</event>
<event>
 4    1 -0.7151877E-004  0.1883964E+03  0.7818608E-02  0.1159916E+00
         -5   -1    0    0    0  501 -0.00000000000E+00  0.00000000000E+00  0.10627414531E+04  0.10627518460E+04  0.47000000000E+01 0.  1.
          5   -1    0    0  501    0  0.00000000000E+00 -0.00000000000E+00 -0.49935550993E+02  0.50156248395E+02  0.47000000000E+01 0. -1.
          6    1    1    2  502    0  0.23491157511E+02 -0.73194057649E+02  0.18539172702E+03  0.26431666047E+03  0.17200000000E+03 0. -1.
         -6    1    1    2    0  502 -0.23491157511E+02  0.73194057649E+02  0.82741417508E+03  0.84859143389E+03  0.17200000000E+03 0.  1.
</event>
<event>
 4    1 -0.7151877E-004  0.1725599E+03  0.7818608E-02  0.1175204E+00
          5   -1    0    0  501    0  0.00000000000E+00  0.00000000000E+00  0.14317292340E+03  0.14325004710E+03  0.47000000000E+01 0. -1.
         -5   -1    0    0    0  501 -0.00000000000E+00 -0.00000000000E+00 -0.91975184460E+03  0.91976385320E+03  0.47000000000E+01 0.  1.
          6    1    1    2  502    0  0.32530859992E+01  0.13503004529E+02  0.79302719644E+02  0.18991007094E+03  0.17200000000E+03 0. -1.
         -6    1    1    2    0  502 -0.32530859992E+01 -0.13503004529E+02 -0.85588164085E+03  0.87310382936E+03  0.17200000000E+03 0.  1.
</event>
<event>
 4    1 -0.7151877E-004  0.1758802E+03  0.7818608E-02  0.1171851E+00
          5   -1    0    0  501    0  0.00000000000E+00  0.00000000000E+00  0.40522124735E+03  0.40524850315E+03  0.47000000000E+01 0. -1.
         -5   -1    0    0    0  501 -0.00000000000E+00 -0.00000000000E+00 -0.38581057107E+03  0.38583919804E+03  0.47000000000E+01 0.  1.
          6    1    1    2  502    0 -0.25166342994E+02  0.26767565635E+02  0.36396859538E+03  0.40423629948E+03  0.17200000000E+03 0. -1.
         -6    1    1    2    0  502  0.25166342994E+02 -0.26767565635E+02 -0.34455791910E+03  0.38685140171E+03  0.17200000000E+03 0.  1.
</event>
<event>
 4    1 -0.7151877E-004  0.3296773E+03  0.7818608E-02  0.1071280E+00
         -5   -1    0    0    0  501 -0.00000000000E+00  0.00000000000E+00  0.22490161488E+04  0.22490210598E+04  0.47000000000E+01 0.  1.
          5   -1    0    0  501    0  0.00000000000E+00 -0.00000000000E+00 -0.21182228207E+03  0.21187441842E+03  0.47000000000E+01 0. -1.
          6    1    1    2  502    0 -0.80346561349E+02 -0.26953209464E+03 -0.62438823694E+02  0.33553796606E+03  0.17200000000E+03 0. -1.
         -6    1    1    2    0  502  0.80346561349E+02  0.26953209464E+03  0.20996326904E+04  0.21253575122E+04  0.17200000000E+03 0.  1.
</event>
<event>
 4    1 -0.7151877E-004  0.2288208E+03  0.7818608E-02  0.1127472E+00
          5   -1    0    0  501    0  0.00000000000E+00  0.00000000000E+00  0.15147994265E+03  0.15155283905E+03  0.47000000000E+01 0. -1.
         -5   -1    0    0    0  501 -0.00000000000E+00 -0.00000000000E+00 -0.46628312355E+03  0.46630681028E+03  0.47000000000E+01 0.  1.
          6    1    1    2  502    0 -0.12083757275E+03 -0.90405967827E+02 -0.17289259898E+00  0.22882086421E+03  0.17200000000E+03 0. -1.
         -6    1    1    2    0  502  0.12083757275E+03  0.90405967827E+02 -0.31463028831E+03  0.38903878512E+03  0.17200000000E+03 0.  1.
</event>
<event>
 4    1 -0.7151877E-004  0.1852772E+03  0.7818608E-02  0.1162791E+00
         -5   -1    0    0    0  501 -0.00000000000E+00  0.00000000000E+00  0.17493451444E+03  0.17499764096E+03  0.47000000000E+01 0.  1.
          5   -1    0    0  501    0  0.00000000000E+00 -0.00000000000E+00 -0.20133088081E+03  0.20138573327E+03  0.47000000000E+01 0. -1.
          6    1    1    2  502    0 -0.67705801653E+02  0.12632405018E+02 -0.43509646604E+02  0.19031747839E+03  0.17200000000E+03 0. -1.
         -6    1    1    2    0  502  0.67705801653E+02 -0.12632405018E+02  0.17113280234E+02  0.18606589584E+03  0.17200000000E+03 0.  1.
</event>
<event>
 4    1 -0.7151877E-004  0.2350331E+03  0.7818608E-02  0.1123147E+00
         -5   -1    0    0    0  501 -0.00000000000E+00  0.00000000000E+00  0.54688975752E+02  0.54890564479E+02  0.47000000000E+01 0.  1.
          5   -1    0    0  501    0  0.00000000000E+00 -0.00000000000E+00 -0.21505538307E+04  0.21505589666E+04  0.47000000000E+01 0. -1.
          6    1    1    2  502    0 -0.11027683872E+03  0.11617041002E+03 -0.18516533642E+04  0.18665103071E+04  0.17200000000E+03 0. -1.
         -6    1    1    2    0  502  0.11027683872E+03 -0.11617041002E+03 -0.24421149070E+03  0.33893922392E+03  0.17200000000E+03 0.  1.
</event>
<event>
 4    1 -0.7151877E-004  0.1841959E+03  0.7818608E-02  0.1163803E+00
         -5   -1    0    0    0  501 -0.00000000000E+00  0.00000000000E+00  0.13874787937E+04  0.13874867541E+04  0.47000000000E+01 0.  1.
          5   -1    0    0  501    0  0.00000000000E+00 -0.00000000000E+00 -0.32642413625E+02  0.32979041333E+02  0.47000000000E+01 0. -1.
          6    1    1    2  502    0 -0.65486891069E+02  0.74568675637E+01  0.31883443171E+03  0.36821669248E+03  0.17200000000E+03 0. -1.
         -6    1    1    2    0  502  0.65486891069E+02 -0.74568675637E+01  0.10360019483E+04  0.10522491030E+04  0.17200000000E+03 0.  1.
</event>
<event>
 4    1 -0.7151877E-004  0.3678282E+03  0.7818608E-02  0.1055527E+00
         -5   -1    0    0    0  501 -0.00000000000E+00  0.00000000000E+00  0.29395313676E+03  0.29399070838E+03  0.47000000000E+01 0.  1.
          5   -1    0    0  501    0  0.00000000000E+00 -0.00000000000E+00 -0.11259397714E+04  0.11259495810E+04  0.47000000000E+01 0. -1.
          6    1    1    2  502    0 -0.31561651352E+03  0.78101186430E+02 -0.96191134841E+03  0.10298402891E+04  0.17200000000E+03 0. -1.
         -6    1    1    2    0  502  0.31561651352E+03 -0.78101186430E+02  0.12992471373E+03  0.39010000022E+03  0.17200000000E+03 0.  1.
</event>
<event>
 4    1 -0.7151877E-004  0.2367018E+03  0.7818608E-02  0.1122010E+00
          5   -1    0    0  501    0  0.00000000000E+00  0.00000000000E+00  0.24012848243E+03  0.24017447424E+03  0.47000000000E+01 0. -1.
         -5   -1    0    0    0  501 -0.00000000000E+00 -0.00000000000E+00 -0.45849039252E+03  0.45851448181E+03  0.47000000000E+01 0.  1.
          6    1    1    2  502    0  0.98068269566E+02 -0.12971648692E+03  0.13566363224E+03  0.27282297115E+03  0.17200000000E+03 0.  1.
         -6    1    1    2    0  502 -0.98068269566E+02  0.12971648692E+03 -0.35402554233E+03  0.42586598490E+03  0.17200000000E+03 0.  1.
</event>
<event>
 4    1 -0.7151877E-004  0.2263234E+03  0.7818608E-02  0.1129255E+00
          5   -1    0    0  501    0  0.00000000000E+00  0.00000000000E+00  0.80696623760E+03  0.80697992455E+03  0.47000000000E+01 0. -1.
         -5   -1    0    0    0  501 -0.00000000000E+00 -0.00000000000E+00 -0.18464437869E+03  0.18470418669E+03  0.47000000000E+01 0.  1.
          6    1    1    2  502    0 -0.21212362149E+02  0.14556206321E+03  0.71285863541E+03  0.74792360080E+03  0.17200000000E+03 0. -1.
         -6    1    1    2    0  502  0.21212362149E+02 -0.14556206321E+03 -0.90536776492E+02  0.24376051045E+03  0.17200000000E+03 0.  1.
</event>
<event>
 4    1 -0.7151877E-004  0.1809167E+03  0.7818608E-02  0.1166919E+00
         -5   -1    0    0    0  501 -0.00000000000E+00  0.00000000000E+00  0.63527888342E+03  0.63529626925E+03  0.47000000000E+01 0.  1.
          5   -1    0    0  501    0  0.00000000000E+00 -0.00000000000E+00 -0.15060287733E+03  0.15067619805E+03  0.47000000000E+01 0. -1.
          6    1    1    2  502    0  0.15270154875E+02  0.53978457461E+02 -0.76446813468E+02  0.19640510887E+03  0.17200000000E+03 0. -1.
         -6    1    1    2    0  502 -0.15270154875E+02 -0.53978457461E+02  0.56112281956E+03  0.58956735843E+03  0.17200000000E+03 0.  1.
</event>
<event>
 4    1 -0.7151877E-004  0.1825646E+03  0.7818608E-02  0.1165344E+00
          5   -1    0    0  501    0  0.00000000000E+00  0.00000000000E+00  0.49802080682E+03  0.49804298411E+03  0.47000000000E+01 0. -1.
         -5   -1    0    0    0  501 -0.00000000000E+00 -0.00000000000E+00 -0.13270935746E+03  0.13279255836E+03  0.47000000000E+01 0.  1.
          6    1    1    2  502    0 -0.14912564278E+02 -0.59358496996E+02  0.40478674444E+03  0.44405193864E+03  0.17200000000E+03 0. -1.
         -6    1    1    2    0  502  0.14912564278E+02  0.59358496996E+02 -0.39475295080E+02  0.18678360383E+03  0.17200000000E+03 0.  1.
</event>
<event>
 4    1 -0.7151877E-004  0.1729467E+03  0.7818608E-02  0.1174809E+00
         -5   -1    0    0    0  501 -0.00000000000E+00  0.00000000000E+00  0.37330607830E+03  0.37333566411E+03  0.47000000000E+01 0.  1.
          5   -1    0    0  501    0  0.00000000000E+00 -0.00000000000E+00 -0.34397097086E+03  0.34400307963E+03  0.47000000000E+01 0. -1.
          6    1    1    2  502    0  0.49044742566E+01  0.17392554635E+02 -0.29947104440E+03  0.34582287556E+03  0.17200000000E+03 0. -1.
         -6    1    1    2    0  502 -0.49044742566E+01 -0.17392554635E+02  0.32880615184E+03  0.37151586819E+03  0.17200000000E+03 0.  1.
</event>
<event>
 4    1 -0.7151877E-004  0.1991555E+03  0.7818608E-02  0.1150453E+00
          5   -1    0    0  501    0  0.00000000000E+00  0.00000000000E+00  0.52915560926E+03  0.52917648173E+03  0.47000000000E+01 0. -1.
         -5   -1    0    0    0  501 -0.00000000000E+00 -0.00000000000E+00 -0.13906839453E+03  0.13914779322E+03  0.47000000000E+01 0.  1.
          6    1    1    2  502    0 -0.29191342700E+02 -0.96056074695E+02  0.42199487661E+03  0.46662895309E+03  0.17200000000E+03 0. -1.
         -6    1    1    2    0  502  0.29191342700E+02  0.96056074695E+02 -0.31907661878E+02  0.20169532186E+03  0.17200000000E+03 0.  1.
</event>
<event>
 4    1 -0.7151877E-004  0.1810807E+03  0.7818608E-02  0.1166761E+00
          5   -1    0    0  501    0  0.00000000000E+00  0.00000000000E+00  0.87315602282E+02  0.87442005935E+02  0.47000000000E+01 0. -1.
         -5   -1    0    0    0  501 -0.00000000000E+00 -0.00000000000E+00 -0.98492361925E+03  0.98493483326E+03  0.47000000000E+01 0.  1.
          6    1    1    2  502    0 -0.39211402734E+02  0.40849694014E+02 -0.26935289144E+02  0.18307304937E+03  0.17200000000E+03 0. -1.
         -6    1    1    2    0  502  0.39211402734E+02 -0.40849694014E+02 -0.87067272783E+03  0.88930378982E+03  0.17200000000E+03 0.  1.
</event>
<event>
 4    1 -0.7151877E-004  0.1758269E+03  0.7818608E-02  0.1171904E+00
          5   -1    0    0  501    0  0.00000000000E+00  0.00000000000E+00  0.62420762643E+02  0.62597456888E+02  0.47000000000E+01 0. -1.
         -5   -1    0    0    0  501 -0.00000000000E+00 -0.00000000000E+00 -0.67885248324E+03  0.67886875315E+03  0.47000000000E+01 0.  1.
          6    1    1    2  502    0  0.17167157451E+02  0.32193088700E+02 -0.11498578454E+03  0.21008768860E+03  0.17200000000E+03 0. -1.
         -6    1    1    2    0  502 -0.17167157451E+02 -0.32193088700E+02 -0.50144593606E+03  0.53137852144E+03  0.17200000000E+03 0.  1.
</event>
<event>
 4    1 -0.7151877E-004  0.1913364E+03  0.7818608E-02  0.1157261E+00
          5   -1    0    0  501    0  0.00000000000E+00  0.00000000000E+00  0.22245978545E+04  0.22246028194E+04  0.47000000000E+01 0. -1.
         -5   -1    0    0    0  501 -0.00000000000E+00 -0.00000000000E+00 -0.19743336361E+02  0.20295056804E+02  0.47000000000E+01 0.  1.
          6    1    1    2  502    0 -0.73947461367E+02  0.39463839104E+02  0.15761976968E+04  0.15877684974E+04  0.17200000000E+03 0. -1.
         -6    1    1    2    0  502  0.73947461367E+02 -0.39463839104E+02  0.62865682126E+03  0.65712937886E+03  0.17200000000E+03 0.  1.
</event>
<event>
 4    1 -0.7151877E-004  0.1786756E+03  0.7818608E-02  0.1169091E+00
          5   -1    0    0  501    0  0.00000000000E+00  0.00000000000E+00  0.54077767122E+03  0.54079809512E+03  0.47000000000E+01 0. -1.
         -5   -1    0    0    0  501 -0.00000000000E+00 -0.00000000000E+00 -0.85939308512E+02  0.86067733486E+02  0.47000000000E+01 0.  1.
          6    1    1    2  502    0 -0.46801594948E+02  0.12271744172E+02  0.40298268792E+03  0.44081745855E+03  0.17200000000E+03 0. -1.
         -6    1    1    2    0  502  0.46801594948E+02 -0.12271744172E+02  0.51855674782E+02  0.18604837006E+03  0.17200000000E+03 0.  1.
</event>
<event>
 4    1 -0.7151877E-004  0.2177784E+03  0.7818608E-02  0.1135550E+00
         -5   -1    0    0    0  501 -0.00000000000E+00  0.00000000000E+00  0.35854162818E+03  0.35857243220E+03  0.47000000000E+01 0.  1.
          5   -1    0    0  501    0  0.00000000000E+00 -0.00000000000E+00 -0.23522465608E+03  0.23527160650E+03  0.47000000000E+01 0. -1.
          6    1    1    2  502    0  0.14684457454E+02  0.13276977731E+03 -0.13480498580E+03  0.25612464008E+03  0.17200000000E+03 0. -1.
         -6    1    1    2    0  502 -0.14684457454E+02 -0.13276977731E+03  0.25812195791E+03  0.33771939863E+03  0.17200000000E+03 0.  1.
</event>
<event>
 4    1 -0.7151877E-004  0.2091419E+03  0.7818608E-02  0.1142247E+00
          5   -1    0    0  501    0  0.00000000000E+00  0.00000000000E+00  0.52779122164E+03  0.52781214806E+03  0.47000000000E+01 0. -1.
         -5   -1    0    0    0  501 -0.00000000000E+00 -0.00000000000E+00 -0.32912395953E+03  0.32915751660E+03  0.47000000000E+01 0.  1.
          6    1    1    2  502    0  0.34875213147E+02 -0.11375428548E+03  0.46997454615E+03  0.51440877908E+03  0.17200000000E+03 0. -1.
         -6    1    1    2    0  502 -0.34875213147E+02  0.11375428548E+03 -0.27130728404E+03  0.34256088558E+03  0.17200000000E+03 0.  1.
</event>
<event>
 4    1 -0.7151877E-004  0.1845078E+03  0.7818608E-02  0.1163510E+00
         -5   -1    0    0    0  501 -0.00000000000E+00  0.00000000000E+00  0.23138648959E+03  0.23143421866E+03  0.47000000000E+01 0.  1.
          5   -1    0    0  501    0  0.00000000000E+00 -0.00000000000E+00 -0.50543787877E+03  0.50545973064E+03  0.47000000000E+01 0. -1.
          6    1    1    2  502    0  0.66712856999E+02 -0.29220292889E+01 -0.44726069026E+03  0.48382359243E+03  0.17200000000E+03 0. -1.
         -6    1    1    2    0  502 -0.66712856999E+02  0.29220292889E+01  0.17320930107E+03  0.25307035686E+03  0.17200000000E+03 0.  1.
</event>
<event>
 4    1 -0.7151877E-004  0.2636524E+03  0.7818608E-02  0.1104968E+00
         -5   -1    0    0    0  501 -0.00000000000E+00  0.00000000000E+00  0.17022909548E+03  0.17029396627E+03  0.47000000000E+01 0.  1.
          5   -1    0    0  501    0  0.00000000000E+00 -0.00000000000E+00 -0.16380258427E+04  0.16380325855E+04  0.47000000000E+01 0. -1.
          6    1    1    2  502    0 -0.33158134671E+02  0.19705110407E+03 -0.15173262449E+04  0.15400621847E+04  0.17200000000E+03 0. -1.
         -6    1    1    2    0  502  0.33158134671E+02 -0.19705110407E+03  0.49529497654E+02  0.26826436709E+03  0.17200000000E+03 0.  1.
</event>
<event>
 4    1 -0.7151877E-004  0.3374501E+03  0.7818608E-02  0.1067887E+00
          5   -1    0    0  501    0  0.00000000000E+00  0.00000000000E+00  0.47598324468E+03  0.47600644871E+03  0.47000000000E+01 0. -1.
         -5   -1    0    0    0  501 -0.00000000000E+00 -0.00000000000E+00 -0.57396920820E+03  0.57398845107E+03  0.47000000000E+01 0.  1.
          6    1    1    2  502    0  0.26478933635E+03 -0.11905949234E+03  0.35194264014E+03  0.48758196984E+03  0.17200000000E+03 0. -1.
         -6    1    1    2    0  502 -0.26478933635E+03  0.11905949234E+03 -0.44992860367E+03  0.56241292994E+03  0.17200000000E+03 0.  1.
</event>
<event>
 4    1 -0.7151877E-004  0.1738955E+03  0.7818608E-02  0.1173845E+00
          5   -1    0    0  501    0  0.00000000000E+00  0.00000000000E+00  0.47339260199E+02  0.47572003912E+02  0.47000000000E+01 0. -1.
         -5   -1    0    0    0  501 -0.00000000000E+00 -0.00000000000E+00 -0.14261887961E+04  0.14261965405E+04  0.47000000000E+01 0.  1.
          6    1    1    2  502    0 -0.23490059010E+01  0.25497706743E+02 -0.14131197509E+03  0.22407303537E+03  0.17200000000E+03 0. -1.
         -6    1    1    2    0  502  0.23490059010E+01 -0.25497706743E+02 -0.12375375608E+04  0.12496955090E+04  0.17200000000E+03 0.  1.
</event>
<event>
 4    1 -0.7151877E-004  0.2310273E+03  0.7818608E-02  0.1125919E+00
         -5   -1    0    0    0  501 -0.00000000000E+00  0.00000000000E+00  0.14077600767E+03  0.14085444379E+03  0.47000000000E+01 0.  1.
          5   -1    0    0  501    0  0.00000000000E+00 -0.00000000000E+00 -0.52938885225E+03  0.52940971552E+03  0.47000000000E+01 0. -1.
          6    1    1    2  502    0  0.15423877287E+03 -0.44666804318E-01 -0.37294728312E+03  0.43870636768E+03  0.17200000000E+03 0. -1.
         -6    1    1    2    0  502 -0.15423877287E+03  0.44666804318E-01 -0.15665561457E+02  0.23155779164E+03  0.17200000000E+03 0. -1.
</event>
<event>
 4    1 -0.7151877E-004  0.1782615E+03  0.7818608E-02  0.1169496E+00
          5   -1    0    0  501    0  0.00000000000E+00  0.00000000000E+00  0.14857161526E+03  0.14864593793E+03  0.47000000000E+01 0. -1.
         -5   -1    0    0    0  501 -0.00000000000E+00 -0.00000000000E+00 -0.22177128224E+03  0.22182108022E+03  0.47000000000E+01 0.  1.
          6    1    1    2  502    0  0.14068381341E+02 -0.44668219355E+02 -0.13397375161E+01  0.17826655343E+03  0.17200000000E+03 0. -1.
         -6    1    1    2    0  502 -0.14068381341E+02  0.44668219355E+02 -0.71859929466E+02  0.19220046472E+03  0.17200000000E+03 0.  1.
</event>
<event>
 4    1 -0.7151877E-004  0.1857235E+03  0.7818608E-02  0.1162376E+00
         -5   -1    0    0    0  501 -0.00000000000E+00  0.00000000000E+00  0.51721394165E+03  0.51723529601E+03  0.47000000000E+01 0.  1.
          5   -1    0    0  501    0  0.00000000000E+00 -0.00000000000E+00 -0.38271856635E+03  0.38274742459E+03  0.47000000000E+01 0. -1.
          6    1    1    2  502    0 -0.89394660925E+01  0.69493133243E+02 -0.34166682941E+03  0.38888228545E+03  0.17200000000E+03 0. -1.
         -6    1    1    2    0  502  0.89394660925E+01 -0.69493133243E+02  0.47616220470E+03  0.51110043515E+03  0.17200000000E+03 0.  1.
</event>
<event>
 4    1 -0.7151877E-004  0.2008959E+03  0.7818608E-02  0.1148985E+00
          5   -1    0    0  501    0  0.00000000000E+00  0.00000000000E+00  0.21721826199E+02  0.22224484998E+02  0.47000000000E+01 0. -1.
         -5   -1    0    0    0  501 -0.00000000000E+00 -0.00000000000E+00 -0.19851137244E+04  0.19851192883E+04  0.47000000000E+01 0.  1.
          6    1    1    2  502    0 -0.40766621191E+02 -0.95463420088E+02 -0.70687681386E+03  0.73487006467E+03  0.17200000000E+03 0. -1.
         -6    1    1    2    0  502  0.40766621191E+02  0.95463420088E+02 -0.12565150843E+04  0.12724737086E+04  0.17200000000E+03 0.  1.
</event>
<event>
 4    1 -0.7151877E-004  0.1753504E+03  0.7818608E-02  0.1172380E+00
          5   -1    0    0  501    0  0.00000000000E+00  0.00000000000E+00  0.89040158947E+02  0.89164117813E+02  0.47000000000E+01 0. -1.
         -5   -1    0    0    0  501 -0.00000000000E+00 -0.00000000000E+00 -0.10807060013E+04  0.10807162214E+04  0.47000000000E+01 0.  1.
          6    1    1    2  502    0  0.32630670562E+02 -0.99502806135E+01 -0.13222127734E+02  0.17584821127E+03  0.17200000000E+03 0. -1.
         -6    1    1    2    0  502 -0.32630670562E+02  0.99502806135E+01 -0.97844371462E+03  0.99403212796E+03  0.17200000000E+03 0.  1.
</event>
<event>
 4    1 -0.7151877E-004  0.2335163E+03  0.7818608E-02  0.1124189E+00
         -5   -1    0    0    0  501 -0.00000000000E+00  0.00000000000E+00  0.73635306599E+03  0.73636806543E+03  0.47000000000E+01 0.  1.
          5   -1    0    0  501    0  0.00000000000E+00 -0.00000000000E+00 -0.16350055945E+03  0.16356809879E+03  0.47000000000E+01 0. -1.
          6    1    1    2  502    0  0.42663180775E+02  0.15207147642E+03 -0.46432030427E+02  0.23808782914E+03  0.17200000000E+03 0. -1.
         -6    1    1    2    0  502 -0.42663180775E+02 -0.15207147642E+03  0.61928453696E+03  0.66184833508E+03  0.17200000000E+03 0.  1.
</event>
<event>
 4    1 -0.7151877E-004  0.2437239E+03  0.7818608E-02  0.1117337E+00
          5   -1    0    0  501    0  0.00000000000E+00  0.00000000000E+00  0.35582035478E+02  0.35891102640E+02  0.47000000000E+01 0. -1.
         -5   -1    0    0    0  501 -0.00000000000E+00 -0.00000000000E+00 -0.16626126762E+04  0.16626193193E+04  0.47000000000E+01 0.  1.
          6    1    1    2  502    0 -0.15883205540E+03 -0.67747453394E+02 -0.79578666412E+03  0.83227264406E+03  0.17200000000E+03 0. -1.
         -6    1    1    2    0  502  0.15883205540E+03  0.67747453394E+02 -0.83124397660E+03  0.86623777792E+03  0.17200000000E+03 0.  1.
</event>
<event>
 4    1 -0.7151877E-004  0.2556989E+03  0.7818608E-02  0.1109755E+00
         -5   -1    0    0    0  501 -0.00000000000E+00  0.00000000000E+00  0.72716341738E+03  0.72717860638E+03  0.47000000000E+01 0.  1.
          5   -1    0    0  501    0  0.00000000000E+00 -0.00000000000E+00 -0.91992535914E+02  0.92112521754E+02  0.47000000000E+01 0. -1.
          6    1    1    2  502    0 -0.17186046723E+03  0.79132165619E+02  0.25491271722E+03  0.36105735449E+03  0.17200000000E+03 0. -1.
         -6    1    1    2    0  502  0.17186046723E+03 -0.79132165619E+02  0.38025816425E+03  0.45823377364E+03  0.17200000000E+03 0.  1.
</event>
<event>
 4    1 -0.7151877E-004  0.3492617E+03  0.7818608E-02  0.1062918E+00
          5   -1    0    0  501    0  0.00000000000E+00  0.00000000000E+00  0.30741756691E+03  0.30745349314E+03  0.47000000000E+01 0. -1.
         -5   -1    0    0    0  501 -0.00000000000E+00 -0.00000000000E+00 -0.55210094700E+03  0.55212095204E+03  0.47000000000E+01 0.  1.
          6    1    1    2  502    0 -0.27026759732E+03  0.13912289794E+03  0.10564408330E+03  0.36488960965E+03  0.17200000000E+03 0. -1.
         -6    1    1    2    0  502  0.27026759732E+03 -0.13912289794E+03 -0.35032746339E+03  0.49468483553E+03  0.17200000000E+03 0.  1.
</event>
<event>
 4    1 -0.7151877E-004  0.2324260E+03  0.7818608E-02  0.1124944E+00
         -5   -1    0    0    0  501 -0.00000000000E+00  0.00000000000E+00  0.46844124576E+03  0.46846482336E+03  0.47000000000E+01 0.  1.
          5   -1    0    0  501    0  0.00000000000E+00 -0.00000000000E+00 -0.30763272045E+03  0.30766862156E+03  0.47000000000E+01 0. -1.
          6    1    1    2  502    0 -0.98111194216E+02  0.12170472753E+03 -0.22643582492E+03  0.32449195666E+03  0.17200000000E+03 0.  1.
         -6    1    1    2    0  502  0.98111194216E+02 -0.12170472753E+03  0.38724435022E+03  0.45164148826E+03  0.17200000000E+03 0.  1.
</event>
<event>
 4    1 -0.7151877E-004  0.1759736E+03  0.7818608E-02  0.1171758E+00
         -5   -1    0    0    0  501 -0.00000000000E+00  0.00000000000E+00  0.22712113498E+03  0.22716976021E+03  0.47000000000E+01 0.  1.
          5   -1    0    0  501    0  0.00000000000E+00 -0.00000000000E+00 -0.22153926581E+04  0.22153976437E+04  0.47000000000E+01 0. -1.
          6    1    1    2  502    0 -0.31701385194E+02 -0.19435097640E+02 -0.21772463483E+04  0.21843462092E+04  0.17200000000E+03 0. -1.
         -6    1    1    2    0  502  0.31701385194E+02  0.19435097640E+02  0.18897482511E+03  0.25822119465E+03  0.17200000000E+03 0.  1.
</event>
<event>
 4    1 -0.7151877E-004  0.1723578E+03  0.7818608E-02  0.1175411E+00
         -5   -1    0    0    0  501 -0.00000000000E+00  0.00000000000E+00  0.39538414363E+03  0.39541207750E+03  0.47000000000E+01 0.  1.
          5   -1    0    0  501    0  0.00000000000E+00 -0.00000000000E+00 -0.85147355803E+02  0.85276973447E+02  0.47000000000E+01 0. -1.
          6    1    1    2  502    0 -0.22464422577E+01 -0.10870993327E+02  0.72355136290E+02  0.18692910620E+03  0.17200000000E+03 0. -1.
         -6    1    1    2    0  502  0.22464422577E+01  0.10870993327E+02  0.23788165154E+03  0.29375994475E+03  0.17200000000E+03 0.  1.
</event>
<event>
 4    1 -0.7151877E-004  0.2129558E+03  0.7818608E-02  0.1139246E+00
          5   -1    0    0  501    0  0.00000000000E+00  0.00000000000E+00  0.40078230874E+03  0.40080986639E+03  0.47000000000E+01 0. -1.
         -5   -1    0    0    0  501 -0.00000000000E+00 -0.00000000000E+00 -0.18769305320E+03  0.18775189006E+03  0.47000000000E+01 0.  1.
          6    1    1    2  502    0 -0.70404728591E+02 -0.10396797406E+03  0.29204333933E+03  0.36144083539E+03  0.17200000000E+03 0. -1.
         -6    1    1    2    0  502  0.70404728591E+02  0.10396797406E+03 -0.78954083793E+02  0.22712092107E+03  0.17200000000E+03 0.  1.
</event>
<event>
 4    1 -0.7151877E-004  0.1872330E+03  0.7818608E-02  0.1160981E+00
          5   -1    0    0  501    0  0.00000000000E+00  0.00000000000E+00  0.10766090673E+04  0.10766193263E+04  0.47000000000E+01 0. -1.
         -5   -1    0    0    0  501 -0.00000000000E+00 -0.00000000000E+00 -0.56771081109E+02  0.56965302161E+02  0.47000000000E+01 0.  1.
          6    1    1    2  502    0 -0.70376801108E+02  0.22788230190E+02  0.88051815280E+03  0.90020465172E+03  0.17200000000E+03 0. -1.
         -6    1    1    2    0  502  0.70376801108E+02 -0.22788230190E+02  0.13931983337E+03  0.23337997673E+03  0.17200000000E+03 0.  1.
</event>
<event>
 4    1 -0.7151877E-004  0.1998849E+03  0.7818608E-02  0.1149836E+00
          5   -1    0    0  501    0  0.00000000000E+00  0.00000000000E+00  0.13415482235E+03  0.13423712735E+03  0.47000000000E+01 0. -1.
         -5   -1    0    0    0  501 -0.00000000000E+00 -0.00000000000E+00 -0.67033291301E+03  0.67034938969E+03  0.47000000000E+01 0.  1.
          6    1    1    2  502    0 -0.95270033626E+02  0.35966469662E+02  0.31858224431E+02  0.20240778817E+03  0.17200000000E+03 0. -1.
         -6    1    1    2    0  502  0.95270033626E+02 -0.35966469662E+02 -0.56803631509E+03  0.60217872887E+03  0.17200000000E+03 0.  1.
</event>
<event>
 4    1 -0.7151877E-004  0.2206085E+03  0.7818608E-02  0.1133430E+00
         -5   -1    0    0    0  501 -0.00000000000E+00  0.00000000000E+00  0.40822405791E+03  0.40825111324E+03  0.47000000000E+01 0.  1.
          5   -1    0    0  501    0  0.00000000000E+00 -0.00000000000E+00 -0.11549456189E+04  0.11549551820E+04  0.47000000000E+01 0. -1.
          6    1    1    2  502    0  0.84206704190E+02 -0.10951413230E+03 -0.11135275655E+04  0.11351703631E+04  0.17200000000E+03 0. -1.
         -6    1    1    2    0  502 -0.84206704190E+02  0.10951413230E+03  0.36680600457E+03  0.42803593213E+03  0.17200000000E+03 0.  1.
</event>
<event>
 4    1 -0.7151877E-004  0.3371686E+03  0.7818608E-02  0.1068008E+00
          5   -1    0    0  501    0  0.00000000000E+00  0.00000000000E+00  0.26806300179E+03  0.26810420163E+03  0.47000000000E+01 0. -1.
         -5   -1    0    0    0  501 -0.00000000000E+00 -0.00000000000E+00 -0.15936404472E+04  0.15936473779E+04  0.47000000000E+01 0.  1.
          6    1    1    2  502    0 -0.28979603564E+03 -0.10813099724E+02  0.13468139760E+03  0.36307264323E+03  0.17200000000E+03 0. -1.
         -6    1    1    2    0  502  0.28979603564E+03  0.10813099724E+02 -0.14602588430E+04  0.14986789363E+04  0.17200000000E+03 0.  1.
</event>
<event>
 4    1 -0.7151877E-004  0.1742736E+03  0.7818608E-02  0.1173463E+00
          5   -1    0    0  501    0  0.00000000000E+00  0.00000000000E+00  0.33515105495E+03  0.33518400862E+03  0.47000000000E+01 0. -1.
         -5   -1    0    0    0  501 -0.00000000000E+00 -0.00000000000E+00 -0.11108486045E+03  0.11118424448E+03  0.47000000000E+01 0.  1.
          6    1    1    2  502    0  0.20067751539E+02  0.19610447555E+02  0.20799620722E+03  0.27135531416E+03  0.17200000000E+03 0. -1.
         -6    1    1    2    0  502 -0.20067751539E+02 -0.19610447555E+02  0.16069987275E+02  0.17501293894E+03  0.17200000000E+03 0.  1.
</event>
<event>
 4    1 -0.7151877E-004  0.2475317E+03  0.7818608E-02  0.1114875E+00
          5   -1    0    0  501    0  0.00000000000E+00  0.00000000000E+00  0.14603900227E+04  0.14603975857E+04  0.47000000000E+01 0. -1.
         -5   -1    0    0    0  501 -0.00000000000E+00 -0.00000000000E+00 -0.18001927178E+03  0.18008061587E+03  0.47000000000E+01 0.  1.
          6    1    1    2  502    0  0.17534996658E+03 -0.30665072751E+02  0.13585325876E+04  0.13808992537E+04  0.17200000000E+03 0. -1.
         -6    1    1    2    0  502 -0.17534996658E+03  0.30665072751E+02 -0.78161836647E+02  0.25957894786E+03  0.17200000000E+03 0.  1.
</event>
<event>
 4    1 -0.7151877E-004  0.1982840E+03  0.7818608E-02  0.1151195E+00
         -5   -1    0    0    0  501 -0.00000000000E+00  0.00000000000E+00  0.42798792843E+03  0.42801373446E+03  0.47000000000E+01 0.  1.
          5   -1    0    0  501    0  0.00000000000E+00 -0.00000000000E+00 -0.10193694486E+03  0.10204523863E+03  0.47000000000E+01 0. -1.
          6    1    1    2  502    0 -0.56637381732E+02  0.80776034929E+02  0.79403885257E+02  0.21359198913E+03  0.17200000000E+03 0. -1.
         -6    1    1    2    0  502  0.56637381732E+02 -0.80776034929E+02  0.24664709832E+03  0.31646698396E+03  0.17200000000E+03 0. -1.
</event>
<event>
 4    1 -0.7151877E-004  0.1753744E+03  0.7818608E-02  0.1172356E+00
          5   -1    0    0  501    0  0.00000000000E+00  0.00000000000E+00  0.20153337834E+03  0.20158817570E+03  0.47000000000E+01 0. -1.
         -5   -1    0    0    0  501 -0.00000000000E+00 -0.00000000000E+00 -0.16408533701E+03  0.16415263575E+03  0.47000000000E+01 0.  1.
          6    1    1    2  502    0  0.34096819900E+02  0.30989188885E+01  0.67299080143E+02  0.18784398477E+03  0.17200000000E+03 0. -1.
         -6    1    1    2    0  502 -0.34096819900E+02 -0.30989188885E+01 -0.29851038819E+02  0.17789682668E+03  0.17200000000E+03 0.  1.
</event>
<event>
 4    1 -0.7151877E-004  0.2012350E+03  0.7818608E-02  0.1148701E+00
         -5   -1    0    0    0  501 -0.00000000000E+00  0.00000000000E+00  0.23027765803E+03  0.23032561687E+03  0.47000000000E+01 0.  1.
          5   -1    0    0  501    0  0.00000000000E+00 -0.00000000000E+00 -0.19012594909E+03  0.19018403328E+03  0.47000000000E+01 0. -1.
          6    1    1    2  502    0  0.10425872441E+03 -0.64541400204E+01 -0.37707841732E+02  0.20473743885E+03  0.17200000000E+03 0. -1.
         -6    1    1    2    0  502 -0.10425872441E+03  0.64541400204E+01  0.77859550676E+02  0.21577221130E+03  0.17200000000E+03 0.  1.
</event>
<event>
 4    1 -0.7151877E-004  0.3102471E+03  0.7818608E-02  0.1080228E+00
         -5   -1    0    0    0  501 -0.00000000000E+00  0.00000000000E+00  0.43974817828E+03  0.43977329421E+03  0.47000000000E+01 0.  1.
          5   -1    0    0  501    0  0.00000000000E+00 -0.00000000000E+00 -0.60489544312E+03  0.60491370220E+03  0.47000000000E+01 0. -1.
          6    1    1    2  502    0 -0.14942996010E+03 -0.21057050973E+03 -0.49985343527E+03  0.58830834542E+03  0.17200000000E+03 0. -1.
         -6    1    1    2    0  502  0.14942996010E+03  0.21057050973E+03  0.33470617043E+03  0.45637865098E+03  0.17200000000E+03 0.  1.
</event>
<event>
 4    1 -0.7151877E-004  0.2034585E+03  0.7818608E-02  0.1146853E+00
         -5   -1    0    0    0  501 -0.00000000000E+00  0.00000000000E+00  0.19159275531E+03  0.19165039496E+03  0.47000000000E+01 0.  1.
          5   -1    0    0  501    0  0.00000000000E+00 -0.00000000000E+00 -0.26361728401E+03  0.26365917854E+03  0.47000000000E+01 0. -1.
          6    1    1    2  502    0  0.29276286214E+02  0.10466254675E+03 -0.13280540289E+03  0.24296630355E+03  0.17200000000E+03 0. -1.
         -6    1    1    2    0  502 -0.29276286214E+02 -0.10466254675E+03  0.60780874183E+02  0.21234326995E+03  0.17200000000E+03 0.  1.
</event>
<event>
 4    1 -0.7151877E-004  0.2187653E+03  0.7818608E-02  0.1134807E+00
         -5   -1    0    0    0  501 -0.00000000000E+00  0.00000000000E+00  0.99631643989E+03  0.99632752566E+03  0.47000000000E+01 0.  1.
          5   -1    0    0  501    0  0.00000000000E+00 -0.00000000000E+00 -0.48052089633E+02  0.48281397226E+02  0.47000000000E+01 0. -1.
          6    1    1    2  502    0  0.13366255221E+03 -0.20212865155E+02  0.44568462675E+03  0.49648063840E+03  0.17200000000E+03 0.  1.
         -6    1    1    2    0  502 -0.13366255221E+03  0.20212865155E+02  0.50257972351E+03  0.54812828449E+03  0.17200000000E+03 0.  1.
</event>
<event>
 4    1 -0.7151877E-004  0.1837905E+03  0.7818608E-02  0.1164184E+00
         -5   -1    0    0    0  501 -0.00000000000E+00  0.00000000000E+00  0.13748963753E+04  0.13749044086E+04  0.47000000000E+01 0.  1.
          5   -1    0    0  501    0  0.00000000000E+00 -0.00000000000E+00 -0.42129143158E+02  0.42390502512E+02  0.47000000000E+01 0. -1.
          6    1    1    2  502    0  0.56925057894E+02 -0.30894601631E+02  0.20781265430E+03  0.27742573405E+03  0.17200000000E+03 0. -1.
         -6    1    1    2    0  502 -0.56925057894E+02  0.30894601631E+02  0.11249545778E+04  0.11398691770E+04  0.17200000000E+03 0.  1.
</event>
<event>
 4    1 -0.7151877E-004  0.1973443E+03  0.7818608E-02  0.1151999E+00
         -5   -1    0    0    0  501 -0.00000000000E+00  0.00000000000E+00  0.71978441059E+02  0.72131726565E+02  0.47000000000E+01 0.  1.
          5   -1    0    0  501    0  0.00000000000E+00 -0.00000000000E+00 -0.60828727343E+03  0.60830543070E+03  0.47000000000E+01 0. -1.
          6    1    1    2  502    0  0.73248408132E+02  0.63209389271E+02 -0.38186068017E+03  0.42983989490E+03  0.17200000000E+03 0.  1.
         -6    1    1    2    0  502 -0.73248408132E+02 -0.63209389271E+02 -0.15444815220E+03  0.25059726236E+03  0.17200000000E+03 0.  1.
</event>
<event>
 4    1 -0.7151877E-004  0.2094065E+03  0.7818608E-02  0.1142037E+00
         -5   -1    0    0    0  501 -0.00000000000E+00  0.00000000000E+00  0.35409520380E+03  0.35412639460E+03  0.47000000000E+01 0.  1.
          5   -1    0    0  501    0  0.00000000000E+00 -0.00000000000E+00 -0.58558566902E+03  0.58560453018E+03  0.47000000000E+01 0. -1.
          6    1    1    2  502    0  0.41966520390E+02  0.11182984499E+03 -0.53298566367E+03  0.57264720443E+03  0.17200000000E+03 0. -1.
         -6    1    1    2    0  502 -0.41966520390E+02 -0.11182984499E+03  0.30149519844E+03  0.36708372035E+03  0.17200000000E+03 0.  1.
</event>
<event>
 4    1 -0.7151877E-004  0.2417366E+03  0.7818608E-02  0.1118641E+00
          5   -1    0    0  501    0  0.00000000000E+00  0.00000000000E+00  0.10424833268E+04  0.10424939216E+04  0.47000000000E+01 0. -1.
         -5   -1    0    0    0  501 -0.00000000000E+00 -0.00000000000E+00 -0.33489444068E+03  0.33492741960E+03  0.47000000000E+01 0.  1.
          6    1    1    2  502    0  0.13030208016E+03  0.10896767442E+03  0.98223406571E+03  0.10115435463E+04  0.17200000000E+03 0. -1.
         -6    1    1    2    0  502 -0.13030208016E+03 -0.10896767442E+03 -0.27464517961E+03  0.36587779496E+03  0.17200000000E+03 0.  1.
</event>
<event>
 4    1 -0.7151877E-004  0.1770203E+03  0.7818608E-02  0.1170718E+00
          5   -1    0    0  501    0  0.00000000000E+00  0.00000000000E+00  0.76354571694E+03  0.76356018221E+03  0.47000000000E+01 0. -1.
         -5   -1    0    0    0  501 -0.00000000000E+00 -0.00000000000E+00 -0.37754075592E+03  0.37757000991E+03  0.47000000000E+01 0.  1.
          6    1    1    2  502    0 -0.35377749467E+02 -0.22374319418E+02  0.73166698389E+03  0.75277670703E+03  0.17200000000E+03 0. -1.
         -6    1    1    2    0  502  0.35377749467E+02  0.22374319418E+02 -0.34566202287E+03  0.38835348509E+03  0.17200000000E+03 0.  1.
</event>
<event>
 4    1 -0.7151877E-004  0.2309829E+03  0.7818608E-02  0.1125950E+00
         -5   -1    0    0    0  501 -0.00000000000E+00  0.00000000000E+00  0.15672221601E+03  0.15679267518E+03  0.47000000000E+01 0.  1.
          5   -1    0    0  501    0  0.00000000000E+00 -0.00000000000E+00 -0.43783834624E+03  0.43786357172E+03  0.47000000000E+01 0. -1.
          6    1    1    2  502    0  0.13459172376E+03  0.75194198120E+02 -0.28090057214E+03  0.36367324752E+03  0.17200000000E+03 0. -1.
         -6    1    1    2    0  502 -0.13459172376E+03 -0.75194198120E+02 -0.21555808736E+00  0.23098299938E+03  0.17200000000E+03 0.  1.
</event>
<event>
 4    1 -0.7151877E-004  0.1734468E+03  0.7818608E-02  0.1174300E+00
         -5   -1    0    0    0  501 -0.00000000000E+00  0.00000000000E+00  0.42023962307E+03  0.42026590487E+03  0.47000000000E+01 0.  1.
          5   -1    0    0  501    0  0.00000000000E+00 -0.00000000000E+00 -0.15671016890E+03  0.15678063348E+03  0.47000000000E+01 0. -1.
          6    1    1    2  502    0  0.20656366647E+02  0.85509018101E+01 -0.80918300018E+02  0.19139376866E+03  0.17200000000E+03 0. -1.
         -6    1    1    2    0  502 -0.20656366647E+02 -0.85509018101E+01  0.34444775419E+03  0.38565276969E+03  0.17200000000E+03 0.  1.
</event>
<event>
 4    1 -0.7151877E-004  0.2057559E+03  0.7818608E-02  0.1144972E+00
          5   -1    0    0  501    0  0.00000000000E+00  0.00000000000E+00  0.85448320178E+03  0.85449612762E+03  0.47000000000E+01 0. -1.
         -5   -1    0    0    0  501 -0.00000000000E+00 -0.00000000000E+00 -0.63122440257E+02  0.63297175798E+02  0.47000000000E+01 0.  1.
          6    1    1    2  502    0 -0.71141322388E+01 -0.11269820390E+03  0.60912683651E+03  0.64293934317E+03  0.17200000000E+03 0.  1.
         -6    1    1    2    0  502  0.71141322388E+01  0.11269820390E+03  0.18223392501E+03  0.27485396025E+03  0.17200000000E+03 0. -1.
</event>
<event>
 4    1 -0.7151877E-004  0.1923407E+03  0.7818608E-02  0.1156367E+00
         -5   -1    0    0    0  501 -0.00000000000E+00  0.00000000000E+00  0.14326598927E+03  0.14334306290E+03  0.47000000000E+01 0.  1.
          5   -1    0    0  501    0  0.00000000000E+00 -0.00000000000E+00 -0.47135435884E+03  0.47137779074E+03  0.47000000000E+01 0. -1.
          6    1    1    2  502    0  0.85381610744E+02 -0.10996906718E+02 -0.37077986242E+03  0.41769924322E+03  0.17200000000E+03 0. -1.
         -6    1    1    2    0  502 -0.85381610744E+02  0.10996906718E+02  0.42691492844E+02  0.19702161042E+03  0.17200000000E+03 0.  1.
</event>
<event>
 4    1 -0.7151877E-004  0.1949177E+03  0.7818608E-02  0.1154099E+00
         -5   -1    0    0    0  501 -0.00000000000E+00  0.00000000000E+00  0.14667362676E+04  0.14667437979E+04  0.47000000000E+01 0.  1.
          5   -1    0    0  501    0  0.00000000000E+00 -0.00000000000E+00 -0.99361482059E+02  0.99472579724E+02  0.47000000000E+01 0. -1.
          6    1    1    2  502    0 -0.86112965615E+02 -0.31519597382E+02  0.10273048198E+02  0.19518827676E+03  0.17200000000E+03 0. -1.
         -6    1    1    2    0  502  0.86112965615E+02  0.31519597382E+02  0.13571017374E+04  0.13710281009E+04  0.17200000000E+03 0.  1.
</event>
<event>
 4    1 -0.7151877E-004  0.2746693E+03  0.7818608E-02  0.1098637E+00
         -5   -1    0    0    0  501 -0.00000000000E+00  0.00000000000E+00  0.26762189126E+03  0.26766315899E+03  0.47000000000E+01 0.  1.
          5   -1    0    0  501    0  0.00000000000E+00 -0.00000000000E+00 -0.30359716619E+04  0.30359752999E+04  0.47000000000E+01 0. -1.
          6    1    1    2  502    0  0.68718942911E+01 -0.21403739781E+03 -0.29574443935E+04  0.29701718084E+04  0.17200000000E+03 0. -1.
         -6    1    1    2    0  502 -0.68718942911E+01  0.21403739781E+03  0.18909462291E+03  0.33346665051E+03  0.17200000000E+03 0.  1.
</event>
<event>
 4    1 -0.7151877E-004  0.1796809E+03  0.7818608E-02  0.1168112E+00
          5   -1    0    0  501    0  0.00000000000E+00  0.00000000000E+00  0.72639832417E+02  0.72791725173E+02  0.47000000000E+01 0. -1.
         -5   -1    0    0    0  501 -0.00000000000E+00 -0.00000000000E+00 -0.55201070985E+03  0.55203071816E+03  0.47000000000E+01 0.  1.
          6    1    1    2  502    0 -0.44078609400E+02 -0.27537260291E+02 -0.10140399432E+03  0.20632012644E+03  0.17200000000E+03 0.  1.
         -6    1    1    2    0  502  0.44078609400E+02  0.27537260291E+02 -0.37796688312E+03  0.41850231689E+03  0.17200000000E+03 0.  1.
</event>
<event>
 4    1 -0.7151877E-004  0.3625148E+03  0.7818608E-02  0.1057593E+00
          5   -1    0    0  501    0  0.00000000000E+00  0.00000000000E+00  0.32465654240E+03  0.32469056119E+03  0.47000000000E+01 0. -1.
         -5   -1    0    0    0  501 -0.00000000000E+00 -0.00000000000E+00 -0.42251800316E+03  0.42254414325E+03  0.47000000000E+01 0.  1.
          6    1    1    2  502    0  0.30009946101E+03 -0.10850465828E+03 -0.12560933173E+03  0.38365955167E+03  0.17200000000E+03 0. -1.
         -6    1    1    2    0  502 -0.30009946101E+03  0.10850465828E+03  0.27747870963E+02  0.36357515277E+03  0.17200000000E+03 0. -1.
</event>
<event>
 4    1 -0.7151877E-004  0.3769182E+03  0.7818608E-02  0.1052079E+00
          5   -1    0    0  501    0  0.00000000000E+00  0.00000000000E+00  0.76776878574E+03  0.76778317144E+03  0.47000000000E+01 0. -1.
         -5   -1    0    0    0  501 -0.00000000000E+00 -0.00000000000E+00 -0.41357665990E+03  0.41360336509E+03  0.47000000000E+01 0.  1.
          6    1    1    2  502    0 -0.25758922853E+03  0.21478149031E+03  0.61620894159E+03  0.72234393396E+03  0.17200000000E+03 0. -1.
         -6    1    1    2    0  502  0.25758922853E+03 -0.21478149031E+03 -0.26201681575E+03  0.45904260257E+03  0.17200000000E+03 0.  1.
</event>
<event>
 4    1 -0.7151877E-004  0.2015326E+03  0.7818608E-02  0.1148452E+00
          5   -1    0    0  501    0  0.00000000000E+00  0.00000000000E+00  0.93143337233E+02  0.93261842524E+02  0.47000000000E+01 0. -1.
         -5   -1    0    0    0  501 -0.00000000000E+00 -0.00000000000E+00 -0.51468381817E+03  0.51470527750E+03  0.47000000000E+01 0.  1.
          6    1    1    2  502    0 -0.10494772036E+03 -0.41673276132E+01 -0.91661807546E+02  0.22139845887E+03  0.17200000000E+03 0. -1.
         -6    1    1    2    0  502  0.10494772036E+03  0.41673276132E+01 -0.32987867339E+03  0.38656866116E+03  0.17200000000E+03 0.  1.
</event>
<event>
 4    1 -0.7151877E-004  0.2089882E+03  0.7818608E-02  0.1142370E+00
         -5   -1    0    0    0  501 -0.00000000000E+00  0.00000000000E+00  0.15585402690E+03  0.15592487839E+03  0.47000000000E+01 0.  1.
          5   -1    0    0  501    0  0.00000000000E+00 -0.00000000000E+00 -0.11820603014E+04  0.11820696452E+04  0.47000000000E+01 0. -1.
          6    1    1    2  502    0  0.84704281256E+02 -0.83170058825E+02 -0.10974690568E+04  0.11171904066E+04  0.17200000000E+03 0. -1.
         -6    1    1    2    0  502 -0.84704281256E+02  0.83170058825E+02  0.71262782302E+02  0.22080411701E+03  0.17200000000E+03 0.  1.
</event>
<event>
 4    1 -0.7151877E-004  0.2255308E+03  0.7818608E-02  0.1129826E+00
         -5   -1    0    0    0  501 -0.00000000000E+00  0.00000000000E+00  0.41107194669E+03  0.41109881458E+03  0.47000000000E+01 0.  1.
          5   -1    0    0  501    0  0.00000000000E+00 -0.00000000000E+00 -0.79091405860E+03  0.79092802333E+03  0.47000000000E+01 0. -1.
          6    1    1    2  502    0 -0.13532408885E+03  0.54474881188E+02 -0.74192687677E+03  0.77544800740E+03  0.17200000000E+03 0. -1.
         -6    1    1    2    0  502  0.13532408885E+03 -0.54474881188E+02  0.36208476486E+03  0.42657883052E+03  0.17200000000E+03 0.  1.
</event>
<event>
 4    1 -0.7151877E-004  0.2119485E+03  0.7818608E-02  0.1140032E+00
         -5   -1    0    0    0  501 -0.00000000000E+00  0.00000000000E+00  0.11180452626E+03  0.11190327115E+03  0.47000000000E+01 0.  1.
          5   -1    0    0  501    0  0.00000000000E+00 -0.00000000000E+00 -0.46421837481E+03  0.46424216688E+03  0.47000000000E+01 0. -1.
          6    1    1    2  502    0 -0.39483034960E+02 -0.11738514195E+03 -0.28207675529E+03  0.35283066402E+03  0.17200000000E+03 0. -1.
         -6    1    1    2    0  502  0.39483034960E+02  0.11738514195E+03 -0.70337093257E+02  0.22331477400E+03  0.17200000000E+03 0.  1.
</event>
<event>
 4    1 -0.7151877E-004  0.2025140E+03  0.7818608E-02  0.1147635E+00
         -5   -1    0    0    0  501 -0.00000000000E+00  0.00000000000E+00  0.48771572451E+03  0.48773837037E+03  0.47000000000E+01 0.  1.
          5   -1    0    0  501    0  0.00000000000E+00 -0.00000000000E+00 -0.15395167725E+03  0.15402340383E+03  0.47000000000E+01 0. -1.
          6    1    1    2  502    0  0.81857385861E+02  0.68755312552E+02 -0.49328613455E+02  0.20843520991E+03  0.17200000000E+03 0. -1.
         -6    1    1    2    0  502 -0.81857385861E+02 -0.68755312552E+02  0.38309266072E+03  0.43332656429E+03  0.17200000000E+03 0.  1.
</event>
<event>
 4    1 -0.7151877E-004  0.1763544E+03  0.7818608E-02  0.1171379E+00
          5   -1    0    0  501    0  0.00000000000E+00  0.00000000000E+00  0.39111097540E+03  0.39113921445E+03  0.47000000000E+01 0. -1.
         -5   -1    0    0    0  501 -0.00000000000E+00 -0.00000000000E+00 -0.14864842564E+03  0.14872270991E+03  0.47000000000E+01 0.  1.
          6    1    1    2  502    0 -0.35633620494E+02 -0.15719911206E+02  0.30536014191E+03  0.35262683787E+03  0.17200000000E+03 0. -1.
         -6    1    1    2    0  502  0.35633620494E+02  0.15719911206E+02 -0.62897592141E+02  0.18723508650E+03  0.17200000000E+03 0.  1.
</event>
<event>
 4    1 -0.7151877E-004  0.1990555E+03  0.7818608E-02  0.1150538E+00
         -5   -1    0    0    0  501 -0.00000000000E+00  0.00000000000E+00  0.54016371519E+03  0.54018416231E+03  0.47000000000E+01 0.  1.
          5   -1    0    0  501    0  0.00000000000E+00 -0.00000000000E+00 -0.18317849801E+03  0.18323878447E+03  0.47000000000E+01 0. -1.
          6    1    1    2  502    0  0.92438488967E+02 -0.38655110764E+02 -0.10161036547E+03  0.22348995101E+03  0.17200000000E+03 0. -1.
         -6    1    1    2    0  502 -0.92438488967E+02  0.38655110764E+02  0.45859558265E+03  0.49993299577E+03  0.17200000000E+03 0.  1.
</event>
<event>
 4    1 -0.7151877E-004  0.3075094E+03  0.7818608E-02  0.1081546E+00
         -5   -1    0    0    0  501 -0.00000000000E+00  0.00000000000E+00  0.54961466658E+03  0.54963476211E+03  0.47000000000E+01 0.  1.
          5   -1    0    0  501    0  0.00000000000E+00 -0.00000000000E+00 -0.56528816336E+03  0.56530770173E+03  0.47000000000E+01 0. -1.
          6    1    1    2  502    0  0.23218974830E+03  0.10519490760E+03 -0.47280280709E+03  0.56400757282E+03  0.17200000000E+03 0. -1.
         -6    1    1    2    0  502 -0.23218974830E+03 -0.10519490760E+03  0.45712931031E+03  0.55093489102E+03  0.17200000000E+03 0.  1.
</event>
<event>
 4    1 -0.7151877E-004  0.2304309E+03  0.7818608E-02  0.1126337E+00
         -5   -1    0    0    0  501 -0.00000000000E+00  0.00000000000E+00  0.39212424556E+03  0.39215241164E+03  0.47000000000E+01 0.  1.
          5   -1    0    0  501    0  0.00000000000E+00 -0.00000000000E+00 -0.19311920865E+03  0.19317639283E+03  0.47000000000E+01 0. -1.
          6    1    1    2  502    0  0.63512839090E+02  0.13957261729E+03 -0.60541516208E+02  0.23825127788E+03  0.17200000000E+03 0. -1.
         -6    1    1    2    0  502 -0.63512839090E+02 -0.13957261729E+03  0.25954655312E+03  0.34707752659E+03  0.17200000000E+03 0.  1.
</event>
<event>
 4    1 -0.7151877E-004  0.1829496E+03  0.7818608E-02  0.1164979E+00
          5   -1    0    0  501    0  0.00000000000E+00  0.00000000000E+00  0.41528175490E+02  0.41793293236E+02  0.47000000000E+01 0. -1.
         -5   -1    0    0    0  501 -0.00000000000E+00 -0.00000000000E+00 -0.93353595693E+03  0.93354778821E+03  0.47000000000E+01 0.  1.
          6    1    1    2  502    0  0.27103637803E+02 -0.56142124893E+02 -0.26376713387E+03  0.32100412190E+03  0.17200000000E+03 0. -1.
         -6    1    1    2    0  502 -0.27103637803E+02  0.56142124893E+02 -0.62824064757E+03  0.65433695955E+03  0.17200000000E+03 0.  1.
</event>
<event>
 4    1 -0.7151877E-004  0.2468923E+03  0.7818608E-02  0.1115285E+00
          5   -1    0    0  501    0  0.00000000000E+00  0.00000000000E+00  0.64787949849E+03  0.64789654619E+03  0.47000000000E+01 0. -1.
         -5   -1    0    0    0  501 -0.00000000000E+00 -0.00000000000E+00 -0.11702570284E+03  0.11712004579E+03  0.47000000000E+01 0.  1.
          6    1    1    2  502    0  0.16765995360E+03  0.57113541796E+02  0.43497857578E+03  0.50016215180E+03  0.17200000000E+03 0. -1.
         -6    1    1    2    0  502 -0.16765995360E+03 -0.57113541796E+02  0.95875219866E+02  0.26485444018E+03  0.17200000000E+03 0.  1.
</event>
<event>
 4    1 -0.7151877E-004  0.1729367E+03  0.7818608E-02  0.1174819E+00
          5   -1    0    0  501    0  0.00000000000E+00  0.00000000000E+00  0.27866403643E+03  0.27870366915E+03  0.47000000000E+01 0. -1.
         -5   -1    0    0    0  501 -0.00000000000E+00 -0.00000000000E+00 -0.11971370389E+03  0.11980593015E+03  0.47000000000E+01 0.  1.
          6    1    1    2  502    0  0.13872580672E+02 -0.11430672381E+02  0.14379674609E+03  0.22491023310E+03  0.17200000000E+03 0. -1.
         -6    1    1    2    0  502 -0.13872580672E+02  0.11430672381E+02  0.15153586442E+02  0.17359936621E+03  0.17200000000E+03 0.  1.
</event>
<event>
 4    1 -0.7151877E-004  0.2128289E+03  0.7818608E-02  0.1139345E+00
         -5   -1    0    0    0  501 -0.00000000000E+00  0.00000000000E+00  0.16056266545E+03  0.16063144006E+03  0.47000000000E+01 0.  1.
          5   -1    0    0  501    0  0.00000000000E+00 -0.00000000000E+00 -0.37186893733E+03  0.37189863747E+03  0.47000000000E+01 0. -1.
          6    1    1    2  502    0  0.72029601451E+01  0.12514099586E+03 -0.23655930924E+03  0.31820819956E+03  0.17200000000E+03 0. -1.
         -6    1    1    2    0  502 -0.72029601451E+01 -0.12514099586E+03  0.25253037357E+02  0.21432187797E+03  0.17200000000E+03 0.  1.
</event>
<event>
 4    1 -0.7151877E-004  0.1886248E+03  0.7818608E-02  0.1159708E+00
         -5   -1    0    0    0  501 -0.00000000000E+00  0.00000000000E+00  0.58582615648E+03  0.58584500989E+03  0.47000000000E+01 0.  1.
          5   -1    0    0  501    0  0.00000000000E+00 -0.00000000000E+00 -0.18774750358E+03  0.18780632338E+03  0.47000000000E+01 0. -1.
          6    1    1    2  502    0  0.57294256160E+02  0.52083482428E+02 -0.11914751327E+03  0.22310412557E+03  0.17200000000E+03 0. -1.
         -6    1    1    2    0  502 -0.57294256160E+02 -0.52083482428E+02  0.51722616617E+03  0.55054720769E+03  0.17200000000E+03 0.  1.
</event>
<event>
 4    1 -0.7151877E-004  0.1748574E+03  0.7818608E-02  0.1172875E+00
          5   -1    0    0  501    0  0.00000000000E+00  0.00000000000E+00  0.15740796906E+03  0.15747812141E+03  0.47000000000E+01 0. -1.
         -5   -1    0    0    0  501 -0.00000000000E+00 -0.00000000000E+00 -0.60072190233E+03  0.60074028826E+03  0.47000000000E+01 0.  1.
          6    1    1    2  502    0  0.30476254380E+02  0.78930902214E+01  0.90220796981E+02  0.19676101027E+03  0.17200000000E+03 0. -1.
         -6    1    1    2    0  502 -0.30476254380E+02 -0.78930902214E+01 -0.53353473025E+03  0.56145739940E+03  0.17200000000E+03 0.  1.
</event>
<event>
 4    1 -0.7151877E-004  0.2527441E+03  0.7818608E-02  0.1111583E+00
          5   -1    0    0  501    0  0.00000000000E+00  0.00000000000E+00  0.54191956586E+03  0.54193994673E+03  0.47000000000E+01 0. -1.
         -5   -1    0    0    0  501 -0.00000000000E+00 -0.00000000000E+00 -0.11780728069E+03  0.11790099823E+03  0.47000000000E+01 0.  1.
          6    1    1    2  502    0  0.15385337041E+03 -0.10307637402E+03  0.21249315870E+03  0.33020136427E+03  0.17200000000E+03 0. -1.
         -6    1    1    2    0  502 -0.15385337041E+03  0.10307637402E+03  0.21161912647E+03  0.32963958069E+03  0.17200000000E+03 0.  1.
</event>
<event>
 4    1 -0.7151877E-004  0.1775943E+03  0.7818608E-02  0.1170152E+00
          5   -1    0    0  501    0  0.00000000000E+00  0.00000000000E+00  0.80520403782E+03  0.80521775473E+03  0.47000000000E+01 0. -1.
         -5   -1    0    0    0  501 -0.00000000000E+00 -0.00000000000E+00 -0.63285420355E+02  0.63459707134E+02  0.47000000000E+01 0.  1.
          6    1    1    2  502    0 -0.40075573904E+02 -0.18699900955E+02  0.63942500495E+03  0.66362947107E+03  0.17200000000E+03 0. -1.
         -6    1    1    2    0  502  0.40075573904E+02  0.18699900955E+02  0.10249361252E+03  0.20504799079E+03  0.17200000000E+03 0.  1.
</event>
<event>
 4    1 -0.7151877E-004  0.1827585E+03  0.7818608E-02  0.1165160E+00
         -5   -1    0    0    0  501 -0.00000000000E+00  0.00000000000E+00  0.93976368546E+02  0.94093824692E+02  0.47000000000E+01 0.  1.
          5   -1    0    0  501    0  0.00000000000E+00 -0.00000000000E+00 -0.15173223809E+04  0.15173296601E+04  0.47000000000E+01 0. -1.
          6    1    1    2  502    0  0.28139745133E+02  0.54998467710E+02 -0.14168094512E+04  0.14285481083E+04  0.17200000000E+03 0. -1.
         -6    1    1    2    0  502 -0.28139745133E+02 -0.54998467710E+02 -0.65365611271E+01  0.18287537652E+03  0.17200000000E+03 0.  1.
</event>
<event>
 4    1 -0.7151877E-004  0.2159492E+03  0.7818608E-02  0.1136940E+00
          5   -1    0    0  501    0  0.00000000000E+00  0.00000000000E+00  0.12508021904E+03  0.12516849122E+03  0.47000000000E+01 0. -1.
         -5   -1    0    0    0  501 -0.00000000000E+00 -0.00000000000E+00 -0.12012312305E+04  0.12012404252E+04  0.47000000000E+01 0.  1.
          6    1    1    2  502    0 -0.27236582369E+02 -0.12770365924E+03  0.12726718133E+02  0.21632388994E+03  0.17200000000E+03 0. -1.
         -6    1    1    2    0  502  0.27236582369E+02  0.12770365924E+03 -0.10888777296E+04  0.11100850265E+04  0.17200000000E+03 0.  1.
</event>
<event>
 4    1 -0.7151877E-004  0.1988948E+03  0.7818608E-02  0.1150675E+00
         -5   -1    0    0    0  501 -0.00000000000E+00  0.00000000000E+00  0.87082701677E+02  0.87209442903E+02  0.47000000000E+01 0.  1.
          5   -1    0    0  501    0  0.00000000000E+00 -0.00000000000E+00 -0.14434877168E+04  0.14434953684E+04  0.47000000000E+01 0. -1.
          6    1    1    2  502    0  0.63188681611E+02 -0.77345556321E+02 -0.13119002252E+04  0.13268916103E+04  0.17200000000E+03 0. -1.
         -6    1    1    2    0  502 -0.63188681611E+02  0.77345556321E+02 -0.44504789888E+02  0.20381320097E+03  0.17200000000E+03 0.  1.
</event>
<event>
 4    1 -0.7151877E-004  0.2334134E+03  0.7818608E-02  0.1124260E+00
          5   -1    0    0  501    0  0.00000000000E+00  0.00000000000E+00  0.72448080491E+03  0.72449605015E+03  0.47000000000E+01 0. -1.
         -5   -1    0    0    0  501 -0.00000000000E+00 -0.00000000000E+00 -0.12958307324E+03  0.12966828013E+03  0.47000000000E+01 0.  1.
          6    1    1    2  502    0  0.78825371547E+02  0.13669080018E+03  0.57420773774E+03  0.61983573641E+03  0.17200000000E+03 0. -1.
         -6    1    1    2    0  502 -0.78825371547E+02 -0.13669080018E+03  0.20689993919E+02  0.23432859386E+03  0.17200000000E+03 0.  1.
</event>
<event>
 4    1 -0.7151877E-004  0.3079884E+03  0.7818608E-02  0.1081314E+00
         -5   -1    0    0    0  501 -0.00000000000E+00  0.00000000000E+00  0.26821876767E+03  0.26825994359E+03  0.47000000000E+01 0.  1.
          5   -1    0    0  501    0  0.00000000000E+00 -0.00000000000E+00 -0.77077164790E+03  0.77078597757E+03  0.47000000000E+01 0. -1.
          6    1    1    2  502    0 -0.44094651917E+02  0.25165152115E+03 -0.63348153849E+03  0.70438319545E+03  0.17200000000E+03 0. -1.
         -6    1    1    2    0  502  0.44094651917E+02 -0.25165152115E+03  0.13092865826E+03  0.33466272571E+03  0.17200000000E+03 0.  1.
</event>
<event>
 4    1 -0.7151877E-004  0.3865669E+03  0.7818608E-02  0.1048533E+00
          5   -1    0    0  501    0  0.00000000000E+00  0.00000000000E+00  0.72309997812E+03  0.72311525247E+03  0.47000000000E+01 0. -1.
         -5   -1    0    0    0  501 -0.00000000000E+00 -0.00000000000E+00 -0.21401488364E+03  0.21406648597E+03  0.47000000000E+01 0.  1.
          6    1    1    2  502    0  0.10847644121E+03  0.32875958055E+03  0.34167224839E+03  0.51592046424E+03  0.17200000000E+03 0. -1.
         -6    1    1    2    0  502 -0.10847644121E+03 -0.32875958055E+03  0.16741284609E+03  0.42126127420E+03  0.17200000000E+03 0.  1.
</event>
<event>
 4    1 -0.7151877E-004  0.1957097E+03  0.7818608E-02  0.1153410E+00
          5   -1    0    0  501    0  0.00000000000E+00  0.00000000000E+00  0.49390421575E+03  0.49392657788E+03  0.47000000000E+01 0. -1.
         -5   -1    0    0    0  501 -0.00000000000E+00 -0.00000000000E+00 -0.11546177622E+03  0.11555739599E+03  0.47000000000E+01 0.  1.
          6    1    1    2  502    0 -0.57283559001E+02 -0.73735171328E+02  0.36395617519E+03  0.41323888864E+03  0.17200000000E+03 0. -1.
         -6    1    1    2    0  502  0.57283559001E+02  0.73735171328E+02  0.14486264331E+02  0.19624508523E+03  0.17200000000E+03 0.  1.
</event>
<event>
 4    1 -0.7151877E-004  0.2148634E+03  0.7818608E-02  0.1137772E+00
          5   -1    0    0  501    0  0.00000000000E+00  0.00000000000E+00  0.75092098032E+03  0.75093568878E+03  0.47000000000E+01 0. -1.
         -5   -1    0    0    0  501 -0.00000000000E+00 -0.00000000000E+00 -0.74103826798E+02  0.74252724840E+02  0.47000000000E+01 0.  1.
          6    1    1    2  502    0  0.70108841928E+02 -0.10801409702E+03  0.50920673869E+03  0.55268236592E+03  0.17200000000E+03 0. -1.
         -6    1    1    2    0  502 -0.70108841928E+02  0.10801409702E+03  0.16761041483E+03  0.27250604770E+03  0.17200000000E+03 0.  1.
</event>
<event>
 4    1 -0.7151877E-004  0.1789357E+03  0.7818608E-02  0.1168837E+00
          5   -1    0    0  501    0  0.00000000000E+00  0.00000000000E+00  0.11757418620E+03  0.11766808939E+03  0.47000000000E+01 0. -1.
         -5   -1    0    0    0  501 -0.00000000000E+00 -0.00000000000E+00 -0.27279585473E+03  0.27283633987E+03  0.47000000000E+01 0.  1.
          6    1    1    2  502    0  0.54848412425E+01 -0.49029474749E+02 -0.67741576521E+02  0.19132928178E+03  0.17200000000E+03 0. -1.
         -6    1    1    2    0  502 -0.54848412425E+01  0.49029474749E+02 -0.87480092003E+02  0.19917514748E+03  0.17200000000E+03 0.  1.
</event>
<event>
 4    1 -0.7151877E-004  0.1751989E+03  0.7818608E-02  0.1172532E+00
          5   -1    0    0  501    0  0.00000000000E+00  0.00000000000E+00  0.18441694635E+03  0.18447682809E+03  0.47000000000E+01 0. -1.
         -5   -1    0    0    0  501 -0.00000000000E+00 -0.00000000000E+00 -0.44457647069E+03  0.44460131386E+03  0.47000000000E+01 0.  1.
          6    1    1    2  502    0 -0.37354751397E+01  0.33116459197E+02  0.11873222040E+03  0.21164119118E+03  0.17200000000E+03 0. -1.
         -6    1    1    2    0  502  0.37354751397E+01 -0.33116459197E+02 -0.37889174473E+03  0.41743695077E+03  0.17200000000E+03 0.  1.
</event>
<event>
 4    1 -0.7151877E-004  0.2600769E+03  0.7818608E-02  0.1107097E+00
          5   -1    0    0  501    0  0.00000000000E+00  0.00000000000E+00  0.54131498601E+03  0.54133538964E+03  0.47000000000E+01 0. -1.
         -5   -1    0    0    0  501 -0.00000000000E+00 -0.00000000000E+00 -0.26520611498E+03  0.26524775856E+03  0.47000000000E+01 0.  1.
          6    1    1    2  502    0 -0.15172209532E+03 -0.12262301383E+03  0.43135594737E+03  0.50369430318E+03  0.17200000000E+03 0. -1.
         -6    1    1    2    0  502  0.15172209532E+03  0.12262301383E+03 -0.15524707633E+03  0.30288884502E+03  0.17200000000E+03 0.  1.
</event>
<event>
 4    1 -0.7151877E-004  0.1764633E+03  0.7818608E-02  0.1171270E+00
         -5   -1    0    0    0  501 -0.00000000000E+00  0.00000000000E+00  0.22499327182E+03  0.22504235682E+03  0.47000000000E+01 0.  1.
          5   -1    0    0  501    0  0.00000000000E+00 -0.00000000000E+00 -0.19201692537E+03  0.19207443773E+03  0.47000000000E+01 0. -1.
          6    1    1    2  502    0  0.39362915098E+02 -0.24179475413E+01 -0.93790884410E+02  0.19983997486E+03  0.17200000000E+03 0. -1.
         -6    1    1    2    0  502 -0.39362915098E+02  0.24179475413E+01  0.12676723085E+03  0.21727681969E+03  0.17200000000E+03 0.  1.
</event>
<event>
 4    1 -0.7151877E-004  0.4953986E+03  0.7818608E-02  0.1014987E+00
          5   -1    0    0  501    0  0.00000000000E+00  0.00000000000E+00  0.16991234593E+04  0.16991299597E+04  0.47000000000E+01 0. -1.
         -5   -1    0    0    0  501 -0.00000000000E+00 -0.00000000000E+00 -0.97065142083E+03  0.97066279972E+03  0.47000000000E+01 0.  1.
          6    1    1    2  502    0  0.13724803492E+03  0.44384537950E+03  0.15958151164E+04  0.16709415399E+04  0.17200000000E+03 0. -1.
         -6    1    1    2    0  502 -0.13724803492E+03 -0.44384537950E+03 -0.86734307791E+03  0.99885121955E+03  0.17200000000E+03 0.  1.
</event>
<event>
 4    1 -0.7151877E-004  0.3251683E+03  0.7818608E-02  0.1073295E+00
          5   -1    0    0  501    0  0.00000000000E+00  0.00000000000E+00  0.86528856288E+03  0.86530132731E+03  0.47000000000E+01 0. -1.
         -5   -1    0    0    0  501 -0.00000000000E+00 -0.00000000000E+00 -0.30675403819E+03  0.30679004212E+03  0.47000000000E+01 0.  1.
          6    1    1    2  502    0 -0.15409263076E+03 -0.22892331751E+03  0.73385613577E+03  0.80267007678E+03  0.17200000000E+03 0. -1.
         -6    1    1    2    0  502  0.15409263076E+03  0.22892331751E+03 -0.17532161108E+03  0.36942129265E+03  0.17200000000E+03 0.  1.
</event>
<event>
 4    1 -0.7151877E-004  0.1939400E+03  0.7818608E-02  0.1154955E+00
         -5   -1    0    0    0  501 -0.00000000000E+00  0.00000000000E+00  0.38263573458E+02  0.38551148540E+02  0.47000000000E+01 0.  1.
          5   -1    0    0  501    0  0.00000000000E+00 -0.00000000000E+00 -0.12399653644E+04  0.12399742719E+04  0.47000000000E+01 0. -1.
          6    1    1    2  502    0 -0.62291612087E+02 -0.64408751873E+02 -0.89407490507E+03  0.91486756863E+03  0.17200000000E+03 0. -1.
         -6    1    1    2    0  502  0.62291612087E+02  0.64408751873E+02 -0.30762688587E+03  0.36365785179E+03  0.17200000000E+03 0.  1.
</event>
<event>
 4    1 -0.7151877E-004  0.2622276E+03  0.7818608E-02  0.1105812E+00
          5   -1    0    0  501    0  0.00000000000E+00  0.00000000000E+00  0.12923479483E+03  0.12932023119E+03  0.47000000000E+01 0. -1.
         -5   -1    0    0    0  501 -0.00000000000E+00 -0.00000000000E+00 -0.97869651709E+03  0.97870780245E+03  0.47000000000E+01 0.  1.
          6    1    1    2  502    0 -0.84953828170E+02  0.17877970287E+03 -0.50384753010E+02  0.26702426559E+03  0.17200000000E+03 0. -1.
         -6    1    1    2    0  502  0.84953828170E+02 -0.17877970287E+03 -0.79907696925E+03  0.84100376804E+03  0.17200000000E+03 0.  1.
</event>
<event>
 4    1 -0.7151877E-004  0.1898711E+03  0.7818608E-02  0.1158578E+00
          5   -1    0    0  501    0  0.00000000000E+00  0.00000000000E+00  0.85468370731E+03  0.85469663012E+03  0.47000000000E+01 0. -1.
         -5   -1    0    0    0  501 -0.00000000000E+00 -0.00000000000E+00 -0.63539097400E+02  0.63712690247E+02  0.47000000000E+01 0.  1.
          6    1    1    2  502    0 -0.80417705230E+02 -0.15527192965E+00  0.66222486569E+03  0.68890696336E+03  0.17200000000E+03 0. -1.
         -6    1    1    2    0  502  0.80417705230E+02  0.15527192965E+00  0.12891974422E+03  0.22950235701E+03  0.17200000000E+03 0.  1.
</event>
<event>
 4    1 -0.7151877E-004  0.2756528E+03  0.7818608E-02  0.1098087E+00
         -5   -1    0    0    0  501 -0.00000000000E+00  0.00000000000E+00  0.14234981613E+04  0.14235059203E+04  0.47000000000E+01 0.  1.
          5   -1    0    0  501    0  0.00000000000E+00 -0.00000000000E+00 -0.42107579141E+03  0.42110202103E+03  0.47000000000E+01 0. -1.
          6    1    1    2  502    0 -0.17928038160E+03 -0.11941104388E+03 -0.36065670191E+03  0.45393579861E+03  0.17200000000E+03 0. -1.
         -6    1    1    2    0  502  0.17928038160E+03  0.11941104388E+03  0.13630790718E+04  0.13906721427E+04  0.17200000000E+03 0.  1.
</event>
<event>
 4    1 -0.7151877E-004  0.2114146E+03  0.7818608E-02  0.1140451E+00
          5   -1    0    0  501    0  0.00000000000E+00  0.00000000000E+00  0.17040662571E+04  0.17040727387E+04  0.47000000000E+01 0. -1.
         -5   -1    0    0    0  501 -0.00000000000E+00 -0.00000000000E+00 -0.27793726788E+02  0.28188317594E+02  0.47000000000E+01 0.  1.
          6    1    1    2  502    0  0.16712959588E+02  0.12179007089E+03  0.10558165619E+04  0.10767751654E+04  0.17200000000E+03 0.  1.
         -6    1    1    2    0  502 -0.16712959588E+02 -0.12179007089E+03  0.62045596845E+03  0.65548589090E+03  0.17200000000E+03 0. -1.
</event>
<event>
 4    1 -0.7151877E-004  0.2974397E+03  0.7818608E-02  0.1086528E+00
         -5   -1    0    0    0  501 -0.00000000000E+00  0.00000000000E+00  0.20025295255E+04  0.20025350410E+04  0.47000000000E+01 0.  1.
          5   -1    0    0  501    0  0.00000000000E+00 -0.00000000000E+00 -0.88833177797E+02  0.88957425084E+02  0.47000000000E+01 0. -1.
          6    1    1    2  502    0 -0.19225538148E+03 -0.14806836706E+03  0.21514191750E+03  0.36709183823E+03  0.17200000000E+03 0. -1.
         -6    1    1    2    0  502  0.19225538148E+03  0.14806836706E+03  0.16985544302E+04  0.17244006279E+04  0.17200000000E+03 0. -1.
</event>
<event>
 4    1 -0.7151877E-004  0.2070872E+03  0.7818608E-02  0.1143894E+00
          5   -1    0    0  501    0  0.00000000000E+00  0.00000000000E+00  0.26429143703E+03  0.26433322471E+03  0.47000000000E+01 0. -1.
         -5   -1    0    0    0  501 -0.00000000000E+00 -0.00000000000E+00 -0.19694562631E+03  0.19700169980E+03  0.47000000000E+01 0.  1.
          6    1    1    2  502    0  0.10417383692E+03  0.49486591284E+02  0.13056756694E+03  0.24481217403E+03  0.17200000000E+03 0.  1.
         -6    1    1    2    0  502 -0.10417383692E+03 -0.49486591284E+02 -0.63221756227E+02  0.21652275048E+03  0.17200000000E+03 0.  1.
</event>
<event>
 4    1 -0.7151877E-004  0.5475261E+03  0.7818608E-02  0.1002068E+00
          5   -1    0    0  501    0  0.00000000000E+00  0.00000000000E+00  0.68907630457E+03  0.68909233309E+03  0.47000000000E+01 0. -1.
         -5   -1    0    0    0  501 -0.00000000000E+00 -0.00000000000E+00 -0.67242966745E+03  0.67244609276E+03  0.47000000000E+01 0.  1.
          6    1    1    2  502    0 -0.34398186309E+03 -0.38971433126E+03  0.41281944903E+03  0.68571472175E+03  0.17200000000E+03 0. -1.
         -6    1    1    2    0  502  0.34398186309E+03  0.38971433126E+03 -0.39617281190E+03  0.67582370410E+03  0.17200000000E+03 0.  1.
</event>
<event>
 4    1 -0.7151877E-004  0.1831882E+03  0.7818608E-02  0.1164753E+00
          5   -1    0    0  501    0  0.00000000000E+00  0.00000000000E+00  0.58008825204E+02  0.58198915811E+02  0.47000000000E+01 0. -1.
         -5   -1    0    0    0  501 -0.00000000000E+00 -0.00000000000E+00 -0.57857492470E+03  0.57859401440E+03  0.47000000000E+01 0.  1.
          6    1    1    2  502    0 -0.67541531666E+01  0.62676206944E+02 -0.27492501020E+03  0.33036598907E+03  0.17200000000E+03 0. -1.
         -6    1    1    2    0  502  0.67541531666E+01 -0.62676206944E+02 -0.24564108930E+03  0.30642694114E+03  0.17200000000E+03 0.  1.
</event>
<event>
 4    1 -0.7151877E-004  0.4100452E+03  0.7818608E-02  0.1040356E+00
         -5   -1    0    0    0  501 -0.00000000000E+00  0.00000000000E+00  0.25470246477E+04  0.25470289841E+04  0.47000000000E+01 0.  1.
          5   -1    0    0  501    0  0.00000000000E+00 -0.00000000000E+00 -0.12781243157E+03  0.12789881807E+03  0.47000000000E+01 0. -1.
          6    1    1    2  502    0  0.32054968914E+03  0.18921138048E+03  0.27941167596E+03  0.49619344451E+03  0.17200000000E+03 0. -1.
         -6    1    1    2    0  502 -0.32054968914E+03 -0.18921138048E+03  0.21398005401E+04  0.21787343577E+04  0.17200000000E+03 0.  1.
</event>
<event>
 4    1 -0.7151877E-004  0.2419276E+03  0.7818608E-02  0.1118515E+00
         -5   -1    0    0    0  501 -0.00000000000E+00  0.00000000000E+00  0.25026532336E+04  0.25026576469E+04  0.47000000000E+01 0.  1.
          5   -1    0    0  501    0  0.00000000000E+00 -0.00000000000E+00 -0.39472087197E+02  0.39750920338E+02  0.47000000000E+01 0. -1.
          6    1    1    2  502    0  0.11163077083E+03 -0.12838822926E+03  0.41795736745E+03  0.48292579908E+03  0.17200000000E+03 0. -1.
         -6    1    1    2    0  502 -0.11163077083E+03  0.12838822926E+03  0.20452237789E+04  0.20594827682E+04  0.17200000000E+03 0.  1.
</event>
<event>
 4    1 -0.7151877E-004  0.4370509E+03  0.7818608E-02  0.1031656E+00
         -5   -1    0    0    0  501 -0.00000000000E+00  0.00000000000E+00  0.19882607831E+04  0.19882663381E+04  0.47000000000E+01 0.  1.
          5   -1    0    0  501    0  0.00000000000E+00 -0.00000000000E+00 -0.36810096446E+03  0.36813096859E+03  0.47000000000E+01 0. -1.
          6    1    1    2  502    0 -0.28774946955E+03  0.28040989541E+03 -0.20277701498E+03  0.48180077259E+03  0.17200000000E+03 0. -1.
         -6    1    1    2    0  502  0.28774946955E+03 -0.28040989541E+03  0.18229368336E+04  0.18745965341E+04  0.17200000000E+03 0.  1.
</event>
<event>
 4    1 -0.7151877E-004  0.1918380E+03  0.7818608E-02  0.1156814E+00
          5   -1    0    0  501    0  0.00000000000E+00  0.00000000000E+00  0.61873614974E+03  0.61875400038E+03  0.47000000000E+01 0. -1.
         -5   -1    0    0    0  501 -0.00000000000E+00 -0.00000000000E+00 -0.21639909614E+03  0.21645013008E+03  0.47000000000E+01 0.  1.
          6    1    1    2  502    0  0.62984918187E+02 -0.57015112712E+02  0.55679316557E+03  0.58891463916E+03  0.17200000000E+03 0. -1.
         -6    1    1    2    0  502 -0.62984918187E+02  0.57015112712E+02 -0.15445611198E+03  0.24628949130E+03  0.17200000000E+03 0.  1.
</event>
<event>
 4    1 -0.7151877E-004  0.1798998E+03  0.7818608E-02  0.1167900E+00
         -5   -1    0    0    0  501 -0.00000000000E+00  0.00000000000E+00  0.27065750910E+03  0.27069831406E+03  0.47000000000E+01 0.  1.
          5   -1    0    0  501    0  0.00000000000E+00 -0.00000000000E+00 -0.19333824717E+03  0.19339536659E+03  0.47000000000E+01 0. -1.
          6    1    1    2  502    0 -0.11121796962E+02  0.51538638196E+02 -0.10472048199E+03  0.20815932586E+03  0.17200000000E+03 0. -1.
         -6    1    1    2    0  502  0.11121796962E+02 -0.51538638196E+02  0.18203974392E+03  0.25593435479E+03  0.17200000000E+03 0.  1.
</event>
<event>
 4    1 -0.7151877E-004  0.2078747E+03  0.7818608E-02  0.1143260E+00
         -5   -1    0    0    0  501 -0.00000000000E+00  0.00000000000E+00  0.14751599816E+03  0.14759085241E+03  0.47000000000E+01 0.  1.
          5   -1    0    0  501    0  0.00000000000E+00 -0.00000000000E+00 -0.29288728702E+03  0.29292499535E+03  0.47000000000E+01 0. -1.
          6    1    1    2  502    0  0.84656515906E+02  0.80381246198E+02 -0.68131732683E+02  0.21875512205E+03  0.17200000000E+03 0.  1.
         -6    1    1    2    0  502 -0.84656515906E+02 -0.80381246198E+02 -0.77239556174E+02  0.22176072570E+03  0.17200000000E+03 0.  1.
</event>
<event>
 4    1 -0.7151877E-004  0.2294567E+03  0.7818608E-02  0.1127023E+00
         -5   -1    0    0    0  501 -0.00000000000E+00  0.00000000000E+00  0.51280994221E+02  0.51495925745E+02  0.47000000000E+01 0.  1.
          5   -1    0    0  501    0  0.00000000000E+00 -0.00000000000E+00 -0.13010198667E+04  0.13010283562E+04  0.47000000000E+01 0. -1.
          6    1    1    2  502    0  0.14467154028E+03 -0.46222385892E+02 -0.93670646191E+03  0.96440103656E+03  0.17200000000E+03 0. -1.
         -6    1    1    2    0  502 -0.14467154028E+03  0.46222385892E+02 -0.31303241060E+03  0.38812324539E+03  0.17200000000E+03 0.  1.
</event>
<event>
 4    1 -0.7151877E-004  0.1752193E+03  0.7818608E-02  0.1172512E+00
          5   -1    0    0  501    0  0.00000000000E+00  0.00000000000E+00  0.92880034630E+03  0.92881223791E+03  0.47000000000E+01 0. -1.
         -5   -1    0    0    0  501 -0.00000000000E+00 -0.00000000000E+00 -0.82293726472E+02  0.82427831565E+02  0.47000000000E+01 0.  1.
          6    1    1    2  502    0  0.46743943528E+01  0.33105030258E+02  0.81448452700E+03  0.83311874166E+03  0.17200000000E+03 0. -1.
         -6    1    1    2    0  502 -0.46743943528E+01 -0.33105030258E+02  0.32022092828E+02  0.17812132781E+03  0.17200000000E+03 0.  1.
</event>
<event>
 4    1 -0.7151877E-004  0.1817999E+03  0.7818608E-02  0.1166072E+00
          5   -1    0    0  501    0  0.00000000000E+00  0.00000000000E+00  0.46715129719E+03  0.46717493990E+03  0.47000000000E+01 0. -1.
         -5   -1    0    0    0  501 -0.00000000000E+00 -0.00000000000E+00 -0.84072317360E+02  0.84203589865E+02  0.47000000000E+01 0.  1.
          6    1    1    2  502    0  0.33267268767E+02 -0.48584787467E+02  0.30159805674E+03  0.35215419999E+03  0.17200000000E+03 0. -1.
         -6    1    1    2    0  502 -0.33267268767E+02  0.48584787467E+02  0.81480923095E+02  0.19922432977E+03  0.17200000000E+03 0.  1.
</event>
<event>
 4    1 -0.7151877E-004  0.1735294E+03  0.7818608E-02  0.1174216E+00
         -5   -1    0    0    0  501 -0.00000000000E+00  0.00000000000E+00  0.32332248144E+02  0.32672071713E+02  0.47000000000E+01 0.  1.
          5   -1    0    0  501    0  0.00000000000E+00 -0.00000000000E+00 -0.13438632250E+04  0.13438714438E+04  0.47000000000E+01 0. -1.
          6    1    1    2  502    0 -0.16365371898E+02  0.16143752050E+02 -0.10394512560E+04  0.10538364957E+04  0.17200000000E+03 0. -1.
         -6    1    1    2    0  502  0.16365371898E+02 -0.16143752050E+02 -0.27207972084E+03  0.32270701979E+03  0.17200000000E+03 0.  1.
</event>
<event>
 4    1 -0.7151877E-004  0.2471439E+03  0.7818608E-02  0.1115123E+00
          5   -1    0    0  501    0  0.00000000000E+00  0.00000000000E+00  0.11536862950E+04  0.11536958686E+04  0.47000000000E+01 0. -1.
         -5   -1    0    0    0  501 -0.00000000000E+00 -0.00000000000E+00 -0.20899756218E+03  0.20905040301E+03  0.47000000000E+01 0.  1.
          6    1    1    2  502    0  0.13181107914E+03 -0.11883583987E+03  0.10611405880E+04  0.10895409422E+04  0.17200000000E+03 0. -1.
         -6    1    1    2    0  502 -0.13181107914E+03  0.11883583987E+03 -0.11645185516E+03  0.27320532936E+03  0.17200000000E+03 0.  1.
</event>
<event>
 4    1 -0.7151877E-004  0.1805668E+03  0.7818608E-02  0.1167256E+00
          5   -1    0    0  501    0  0.00000000000E+00  0.00000000000E+00  0.18373998949E+03  0.18380009177E+03  0.47000000000E+01 0. -1.
         -5   -1    0    0    0  501 -0.00000000000E+00 -0.00000000000E+00 -0.59210435324E+03  0.59212300675E+03  0.47000000000E+01 0.  1.
          6    1    1    2  502    0 -0.25673098181E-01 -0.54958025195E+02  0.12050081565E+03  0.21708254597E+03  0.17200000000E+03 0. -1.
         -6    1    1    2    0  502  0.25673098181E-01  0.54958025195E+02 -0.52886517941E+03  0.55884055256E+03  0.17200000000E+03 0.  1.
</event>
<event>
 4    1 -0.7151877E-004  0.1745915E+03  0.7818608E-02  0.1173142E+00
         -5   -1    0    0    0  501 -0.00000000000E+00  0.00000000000E+00  0.67918543641E+03  0.67920169835E+03  0.47000000000E+01 0.  1.
          5   -1    0    0  501    0  0.00000000000E+00 -0.00000000000E+00 -0.68452421528E+03  0.68454035039E+03  0.47000000000E+01 0. -1.
          6    1    1    2  502    0  0.28164417111E+02 -0.10245704557E+02 -0.66180929708E+03  0.68445142600E+03  0.17200000000E+03 0. -1.
         -6    1    1    2    0  502 -0.28164417111E+02  0.10245704557E+02  0.65647051821E+03  0.67929062273E+03  0.17200000000E+03 0.  1.
</event>
<event>
 4    1 -0.7151877E-004  0.3675678E+03  0.7818608E-02  0.1055627E+00
         -5   -1    0    0    0  501 -0.00000000000E+00  0.00000000000E+00  0.97709721167E+03  0.97710851549E+03  0.47000000000E+01 0.  1.
          5   -1    0    0  501    0  0.00000000000E+00 -0.00000000000E+00 -0.31253081971E+03  0.31256615823E+03  0.47000000000E+01 0. -1.
          6    1    1    2  502    0  0.13972184480E+02  0.32454098040E+03 -0.14923973583E+03  0.39670967804E+03  0.17200000000E+03 0. -1.
         -6    1    1    2    0  502 -0.13972184480E+02 -0.32454098040E+03  0.81380612778E+03  0.89296499568E+03  0.17200000000E+03 0.  1.
</event>
<event>
 4    1 -0.7151877E-004  0.2151924E+03  0.7818608E-02  0.1137519E+00
         -5   -1    0    0    0  501 -0.00000000000E+00  0.00000000000E+00  0.29786731008E+03  0.29790438804E+03  0.47000000000E+01 0.  1.
          5   -1    0    0  501    0  0.00000000000E+00 -0.00000000000E+00 -0.32563566618E+03  0.32566958268E+03  0.47000000000E+01 0. -1.
          6    1    1    2  502    0 -0.12909318672E+03 -0.76614530472E+01 -0.23929794081E+03  0.32182487971E+03  0.17200000000E+03 0. -1.
         -6    1    1    2    0  502  0.12909318672E+03  0.76614530472E+01  0.21152958472E+03  0.30174909102E+03  0.17200000000E+03 0.  1.
</event>
<event>
 4    1 -0.7151877E-004  0.2987090E+03  0.7818608E-02  0.1085888E+00
          5   -1    0    0  501    0  0.00000000000E+00  0.00000000000E+00  0.21338487457E+04  0.21338539218E+04  0.47000000000E+01 0. -1.
         -5   -1    0    0    0  501 -0.00000000000E+00 -0.00000000000E+00 -0.15671269696E+03  0.15678316041E+03  0.47000000000E+01 0.  1.
          6    1    1    2  502    0  0.85179133506E+01  0.24407072019E+03  0.19692996103E+04  0.19918253002E+04  0.17200000000E+03 0. -1.
         -6    1    1    2    0  502 -0.85179133506E+01 -0.24407072019E+03  0.78364384313E+01  0.29881178201E+03  0.17200000000E+03 0.  1.
</event>
<event>
 4    1 -0.7151877E-004  0.1932712E+03  0.7818608E-02  0.1155544E+00
         -5   -1    0    0    0  501 -0.00000000000E+00  0.00000000000E+00  0.32227142473E+03  0.32230569526E+03  0.47000000000E+01 0.  1.
          5   -1    0    0  501    0  0.00000000000E+00 -0.00000000000E+00 -0.13526982531E+03  0.13535145230E+03  0.47000000000E+01 0. -1.
          6    1    1    2  502    0 -0.54608520929E+02 -0.69193084018E+02  0.67698841507E+01  0.19338977420E+03  0.17200000000E+03 0. -1.
         -6    1    1    2    0  502  0.54608520929E+02  0.69193084018E+02  0.18023171527E+03  0.26426737336E+03  0.17200000000E+03 0.  1.
</event>
<event>
 4    1 -0.7151877E-004  0.2009756E+03  0.7818608E-02  0.1148919E+00
          5   -1    0    0  501    0  0.00000000000E+00  0.00000000000E+00  0.11056772842E+04  0.11056872735E+04  0.47000000000E+01 0. -1.
         -5   -1    0    0    0  501 -0.00000000000E+00 -0.00000000000E+00 -0.11839322385E+03  0.11848647793E+03  0.47000000000E+01 0.  1.
          6    1    1    2  502    0 -0.21707562488E+01 -0.10393494037E+03  0.10026667963E+04  0.10226103307E+04  0.17200000000E+03 0. -1.
         -6    1    1    2    0  502  0.21707562488E+01  0.10393494037E+03 -0.15382735974E+02  0.20156342073E+03  0.17200000000E+03 0.  1.
</event>
<event>
 4    1 -0.7151877E-004  0.4264473E+03  0.7818608E-02  0.1034988E+00
         -5   -1    0    0    0  501 -0.00000000000E+00  0.00000000000E+00  0.32929211936E+03  0.32932565930E+03  0.47000000000E+01 0.  1.
          5   -1    0    0  501    0  0.00000000000E+00 -0.00000000000E+00 -0.73744009708E+03  0.73745507441E+03  0.47000000000E+01 0. -1.
          6    1    1    2  502    0  0.19552919174E+03  0.33770049028E+03 -0.47139883596E+03  0.63566826923E+03  0.17200000000E+03 0. -1.
         -6    1    1    2    0  502 -0.19552919174E+03 -0.33770049028E+03  0.63250858245E+02  0.43111246448E+03  0.17200000000E+03 0.  1.
</event>
<event>
 4    1 -0.7151877E-004  0.1794768E+03  0.7818608E-02  0.1168310E+00
         -5   -1    0    0    0  501 -0.00000000000E+00  0.00000000000E+00  0.10854859853E+03  0.10865030254E+03  0.47000000000E+01 0.  1.
          5   -1    0    0  501    0  0.00000000000E+00 -0.00000000000E+00 -0.34074699845E+03  0.34077941099E+03  0.47000000000E+01 0. -1.
          6    1    1    2  502    0 -0.76914931295E+01  0.50682920209E+02 -0.19706671368E+03  0.26654681973E+03  0.17200000000E+03 0. -1.
         -6    1    1    2    0  502  0.76914931295E+01 -0.50682920209E+02 -0.35131686251E+02  0.18288289380E+03  0.17200000000E+03 0.  1.
</event>
<event>
 4    1 -0.7151877E-004  0.1730217E+03  0.7818608E-02  0.1174733E+00
         -5   -1    0    0    0  501 -0.00000000000E+00  0.00000000000E+00  0.11821596052E+03  0.11830935432E+03  0.47000000000E+01 0.  1.
          5   -1    0    0  501    0  0.00000000000E+00 -0.00000000000E+00 -0.41856910819E+03  0.41859549488E+03  0.47000000000E+01 0. -1.
          6    1    1    2  502    0  0.17677621011E+02 -0.63254058748E+01 -0.31897944727E+03  0.36288344799E+03  0.17200000000E+03 0. -1.
         -6    1    1    2    0  502 -0.17677621011E+02  0.63254058748E+01  0.18626299594E+02  0.17402140121E+03  0.17200000000E+03 0.  1.
</event>
<event>
 4    1 -0.7151877E-004  0.2013380E+03  0.7818608E-02  0.1148615E+00
          5   -1    0    0  501    0  0.00000000000E+00  0.00000000000E+00  0.53002505963E+03  0.53004589786E+03  0.47000000000E+01 0. -1.
         -5   -1    0    0    0  501 -0.00000000000E+00 -0.00000000000E+00 -0.10253261945E+03  0.10264028474E+03  0.47000000000E+01 0.  1.
          6    1    1    2  502    0 -0.91227014758E+02 -0.51289592655E+02  0.37337763523E+03  0.42420260375E+03  0.17200000000E+03 0. -1.
         -6    1    1    2    0  502  0.91227014758E+02  0.51289592655E+02  0.54114804955E+02  0.20848357885E+03  0.17200000000E+03 0.  1.
</event>
<event>
 4    1 -0.7151877E-004  0.3300964E+03  0.7818608E-02  0.1071094E+00
         -5   -1    0    0    0  501 -0.00000000000E+00  0.00000000000E+00  0.74612148273E+03  0.74613628580E+03  0.47000000000E+01 0.  1.
          5   -1    0    0  501    0  0.00000000000E+00 -0.00000000000E+00 -0.73645172862E+03  0.73646672605E+03  0.47000000000E+01 0. -1.
          6    1    1    2  502    0 -0.10272854411E+03  0.26234800592E+03 -0.65891180457E+03  0.73697245280E+03  0.17200000000E+03 0. -1.
         -6    1    1    2    0  502  0.10272854411E+03 -0.26234800592E+03  0.66858155869E+03  0.74563055906E+03  0.17200000000E+03 0.  1.
</event>
<event>
 4    1 -0.7151877E-004  0.2772652E+03  0.7818608E-02  0.1097192E+00
          5   -1    0    0  501    0  0.00000000000E+00  0.00000000000E+00  0.68341880781E+03  0.68343496901E+03  0.47000000000E+01 0. -1.
         -5   -1    0    0    0  501 -0.00000000000E+00 -0.00000000000E+00 -0.16023211492E+03  0.16030103135E+03  0.47000000000E+01 0.  1.
          6    1    1    2  502    0 -0.10949417236E+03 -0.18789096488E+03  0.49196663258E+03  0.56471865211E+03  0.17200000000E+03 0. -1.
         -6    1    1    2    0  502  0.10949417236E+03  0.18789096488E+03  0.31220060311E+02  0.27901734826E+03  0.17200000000E+03 0.  1.
</event>
<event>
 4    1 -0.7151877E-004  0.2617253E+03  0.7818608E-02  0.1106111E+00
         -5   -1    0    0    0  501 -0.00000000000E+00  0.00000000000E+00  0.11649133489E+04  0.11649228302E+04  0.47000000000E+01 0.  1.
          5   -1    0    0  501    0  0.00000000000E+00 -0.00000000000E+00 -0.23967940973E+03  0.23972548769E+03  0.47000000000E+01 0. -1.
          6    1    1    2  502    0 -0.13080084878E+03 -0.14767285116E+03 -0.14751439078E+03  0.30043406681E+03  0.17200000000E+03 0. -1.
         -6    1    1    2    0  502  0.13080084878E+03  0.14767285116E+03  0.10727483299E+04  0.11042142511E+04  0.17200000000E+03 0.  1.
</event>
<event>
 4    1 -0.7151877E-004  0.4127579E+03  0.7818608E-02  0.1039449E+00
          5   -1    0    0  501    0  0.00000000000E+00  0.00000000000E+00  0.52416695349E+03  0.52418802459E+03  0.47000000000E+01 0. -1.
         -5   -1    0    0    0  501 -0.00000000000E+00 -0.00000000000E+00 -0.39041910585E+03  0.39044739493E+03  0.47000000000E+01 0.  1.
          6    1    1    2  502    0  0.37266146207E+03 -0.43686726184E+02  0.25408426341E+03  0.48469362310E+03  0.17200000000E+03 0. -1.
         -6    1    1    2    0  502 -0.37266146207E+03  0.43686726184E+02 -0.12033641578E+03  0.42994179643E+03  0.17200000000E+03 0.  1.
</event>
<event>
 4    1 -0.7151877E-004  0.1949647E+03  0.7818608E-02  0.1154058E+00
         -5   -1    0    0    0  501 -0.00000000000E+00  0.00000000000E+00  0.64193996416E+02  0.64365823042E+02  0.47000000000E+01 0.  1.
          5   -1    0    0  501    0  0.00000000000E+00 -0.00000000000E+00 -0.10448821043E+04  0.10448926748E+04  0.47000000000E+01 0. -1.
          6    1    1    2  502    0 -0.75663994109E+02  0.51982770134E+02 -0.85579253094E+03  0.87771983252E+03  0.17200000000E+03 0. -1.
         -6    1    1    2    0  502  0.75663994109E+02 -0.51982770134E+02 -0.12489557690E+03  0.23153866529E+03  0.17200000000E+03 0.  1.
</event>
<event>
 4    1 -0.7151877E-004  0.2208293E+03  0.7818608E-02  0.1133266E+00
         -5   -1    0    0    0  501 -0.00000000000E+00  0.00000000000E+00  0.45546168787E+03  0.45548593734E+03  0.47000000000E+01 0.  1.
          5   -1    0    0  501    0  0.00000000000E+00 -0.00000000000E+00 -0.19645208161E+03  0.19650829593E+03  0.47000000000E+01 0. -1.
          6    1    1    2  502    0  0.13261113592E+03  0.39948075864E+02 -0.90428365904E+02  0.23862701334E+03  0.17200000000E+03 0. -1.
         -6    1    1    2    0  502 -0.13261113592E+03 -0.39948075864E+02  0.34943797216E+03  0.41336721994E+03  0.17200000000E+03 0.  1.
</event>
<event>
 4    1 -0.7151877E-004  0.1734723E+03  0.7818608E-02  0.1174274E+00
          5   -1    0    0  501    0  0.00000000000E+00  0.00000000000E+00  0.10556474165E+04  0.10556578792E+04  0.47000000000E+01 0. -1.
         -5   -1    0    0    0  501 -0.00000000000E+00 -0.00000000000E+00 -0.12098332820E+03  0.12107458735E+03  0.47000000000E+01 0.  1.
          6    1    1    2  502    0 -0.21289077063E+02 -0.74435574341E+01  0.98177022383E+03  0.99697813604E+03  0.17200000000E+03 0. -1.
         -6    1    1    2    0  502  0.21289077063E+02  0.74435574341E+01 -0.47106135509E+02  0.17975433055E+03  0.17200000000E+03 0.  1.
</event>
<event>
 4    1 -0.7151877E-004  0.4413500E+03  0.7818608E-02  0.1030333E+00
         -5   -1    0    0    0  501 -0.00000000000E+00  0.00000000000E+00  0.23958529937E+03  0.23963139543E+03  0.47000000000E+01 0.  1.
          5   -1    0    0  501    0  0.00000000000E+00 -0.00000000000E+00 -0.10101352947E+04  0.10101462288E+04  0.47000000000E+01 0. -1.
          6    1    1    2  502    0  0.40528573445E+03 -0.30810711232E+02 -0.66139312371E+03  0.79512935461E+03  0.17200000000E+03 0. -1.
         -6    1    1    2    0  502 -0.40528573445E+03  0.30810711232E+02 -0.10915687164E+03  0.45464826966E+03  0.17200000000E+03 0.  1.
</event>
<event>
 4    1 -0.7151877E-004  0.1763989E+03  0.7818608E-02  0.1171334E+00
          5   -1    0    0  501    0  0.00000000000E+00  0.00000000000E+00  0.25807540601E+03  0.25811820003E+03  0.47000000000E+01 0. -1.
         -5   -1    0    0    0  501 -0.00000000000E+00 -0.00000000000E+00 -0.25968664480E+03  0.25972917335E+03  0.47000000000E+01 0.  1.
          6    1    1    2  502    0  0.38934050771E+02  0.40890629039E+01  0.18873222259E+03  0.25833395555E+03  0.17200000000E+03 0. -1.
         -6    1    1    2    0  502 -0.38934050771E+02 -0.40890629039E+01 -0.19034346138E+03  0.25951341783E+03  0.17200000000E+03 0.  1.
</event>
<event>
 4    1 -0.7151877E-004  0.2262374E+03  0.7818608E-02  0.1129316E+00
         -5   -1    0    0    0  501 -0.00000000000E+00  0.00000000000E+00  0.52911142514E+03  0.52913229935E+03  0.47000000000E+01 0.  1.
          5   -1    0    0  501    0  0.00000000000E+00 -0.00000000000E+00 -0.90308708731E+03  0.90309931750E+03  0.47000000000E+01 0. -1.
          6    1    1    2  502    0 -0.61417492955E+02 -0.13351873209E+03 -0.86366607423E+03  0.89280594086E+03  0.17200000000E+03 0. -1.
         -6    1    1    2    0  502  0.61417492955E+02  0.13351873209E+03  0.48969041206E+03  0.53942567599E+03  0.17200000000E+03 0.  1.
</event>
<event>
 4    1 -0.7151877E-004  0.4185799E+03  0.7818608E-02  0.1037529E+00
          5   -1    0    0  501    0  0.00000000000E+00  0.00000000000E+00  0.30222706566E+03  0.30226360882E+03  0.47000000000E+01 0. -1.
         -5   -1    0    0    0  501 -0.00000000000E+00 -0.00000000000E+00 -0.77858595531E+03  0.77860014115E+03  0.47000000000E+01 0.  1.
          6    1    1    2  502    0 -0.38105121988E+03 -0.20618736007E+02  0.34991229492E+02  0.42003993928E+03  0.17200000000E+03 0. -1.
         -6    1    1    2    0  502  0.38105121988E+03  0.20618736007E+02 -0.51135011913E+03  0.66082381070E+03  0.17200000000E+03 0.  1.
</event>
<event>
 4    1 -0.7151877E-004  0.1786486E+03  0.7818608E-02  0.1169117E+00
          5   -1    0    0  501    0  0.00000000000E+00  0.00000000000E+00  0.64667975920E+02  0.64838546480E+02  0.47000000000E+01 0. -1.
         -5   -1    0    0    0  501 -0.00000000000E+00 -0.00000000000E+00 -0.92555690124E+03  0.92556883452E+03  0.47000000000E+01 0.  1.
          6    1    1    2  502    0  0.21031611705E+02 -0.43462371211E+02 -0.91823755915E+02  0.20086539909E+03  0.17200000000E+03 0. -1.
         -6    1    1    2    0  502 -0.21031611705E+02  0.43462371211E+02 -0.76906516940E+03  0.78954198191E+03  0.17200000000E+03 0.  1.
</event>
<event>
 4    1 -0.7151877E-004  0.3562367E+03  0.7818608E-02  0.1060084E+00
         -5   -1    0    0    0  501 -0.00000000000E+00  0.00000000000E+00  0.83198378682E+02  0.83331027926E+02  0.47000000000E+01 0.  1.
          5   -1    0    0  501    0  0.00000000000E+00 -0.00000000000E+00 -0.15923667458E+04  0.15923736820E+04  0.47000000000E+01 0. -1.
          6    1    1    2  502    0  0.25558283065E+03 -0.17887978710E+03 -0.92821747208E+03  0.99422946900E+03  0.17200000000E+03 0. -1.
         -6    1    1    2    0  502 -0.25558283065E+03  0.17887978710E+03 -0.58095089508E+03  0.68147524097E+03  0.17200000000E+03 0.  1.
</event>
<event>
 4    1 -0.7151877E-004  0.3130330E+03  0.7818608E-02  0.1078901E+00
          5   -1    0    0  501    0  0.00000000000E+00  0.00000000000E+00  0.13376146996E+04  0.13376229568E+04  0.47000000000E+01 0. -1.
         -5   -1    0    0    0  501 -0.00000000000E+00 -0.00000000000E+00 -0.16263593251E+03  0.16270383076E+03  0.47000000000E+01 0.  1.
          6    1    1    2  502    0  0.54980565001E+02 -0.25570053848E+03  0.11436649935E+04  0.11857315233E+04  0.17200000000E+03 0. -1.
         -6    1    1    2    0  502 -0.54980565001E+02  0.25570053848E+03  0.31313773591E+02  0.31459526430E+03  0.17200000000E+03 0.  1.
</event>
<event>
 4    1 -0.7151877E-004  0.1733848E+03  0.7818608E-02  0.1174363E+00
          5   -1    0    0  501    0  0.00000000000E+00  0.00000000000E+00  0.38413220117E+03  0.38416095321E+03  0.47000000000E+01 0. -1.
         -5   -1    0    0    0  501 -0.00000000000E+00 -0.00000000000E+00 -0.29889206594E+03  0.29892901679E+03  0.47000000000E+01 0.  1.
          6    1    1    2  502    0  0.19489698704E+02  0.99224653848E+01  0.33607389903E+03  0.37816394498E+03  0.17200000000E+03 0. -1.
         -6    1    1    2    0  502 -0.19489698704E+02 -0.99224653848E+01 -0.25083376380E+03  0.30492602502E+03  0.17200000000E+03 0.  1.
</event>
<event>
 4    1 -0.7151877E-004  0.2029995E+03  0.7818608E-02  0.1147233E+00
         -5   -1    0    0    0  501 -0.00000000000E+00  0.00000000000E+00  0.16278178352E+03  0.16284962095E+03  0.47000000000E+01 0.  1.
          5   -1    0    0  501    0  0.00000000000E+00 -0.00000000000E+00 -0.32162552318E+03  0.32165986253E+03  0.47000000000E+01 0. -1.
          6    1    1    2  502    0 -0.91483913815E+02 -0.57056966283E+02 -0.19129663481E+03  0.27893226127E+03  0.17200000000E+03 0.  1.
         -6    1    1    2    0  502  0.91483913815E+02  0.57056966283E+02  0.32452895146E+02  0.20557722221E+03  0.17200000000E+03 0.  1.
</event>
<event>
 4    1 -0.7151877E-004  0.3174126E+03  0.7818608E-02  0.1076846E+00
         -5   -1    0    0    0  501 -0.00000000000E+00  0.00000000000E+00  0.14017500042E+03  0.14025377265E+03  0.47000000000E+01 0.  1.
          5   -1    0    0  501    0  0.00000000000E+00 -0.00000000000E+00 -0.96316225899E+03  0.96317372635E+03  0.47000000000E+01 0. -1.
          6    1    1    2  502    0 -0.12462231002E+03 -0.23587292557E+03 -0.68956801070E+03  0.75911448317E+03  0.17200000000E+03 0. -1.
         -6    1    1    2    0  502  0.12462231002E+03  0.23587292557E+03 -0.13341924786E+03  0.34431301583E+03  0.17200000000E+03 0.  1.
</event>
<event>
 4    1 -0.7151877E-004  0.2974706E+03  0.7818608E-02  0.1086512E+00
          5   -1    0    0  501    0  0.00000000000E+00  0.00000000000E+00  0.69636612191E+03  0.69638198264E+03  0.47000000000E+01 0. -1.
         -5   -1    0    0    0  501 -0.00000000000E+00 -0.00000000000E+00 -0.27056180229E+03  0.27060262167E+03  0.47000000000E+01 0.  1.
          6    1    1    2  502    0  0.22589782292E+03 -0.88740755063E+02  0.56502529577E+03  0.63854704828E+03  0.17200000000E+03 0. -1.
         -6    1    1    2    0  502 -0.22589782292E+03  0.88740755063E+02 -0.13922097615E+03  0.32843755603E+03  0.17200000000E+03 0.  1.
</event>
<event>
 4    1 -0.7151877E-004  0.1771047E+03  0.7818608E-02  0.1170635E+00
          5   -1    0    0  501    0  0.00000000000E+00  0.00000000000E+00  0.12121036748E+03  0.12130145582E+03  0.47000000000E+01 0. -1.
         -5   -1    0    0    0  501 -0.00000000000E+00 -0.00000000000E+00 -0.63951203427E+03  0.63952930502E+03  0.47000000000E+01 0.  1.
          6    1    1    2  502    0  0.94930906022E+01 -0.41133431641E+02  0.34428395610E+02  0.18042004432E+03  0.17200000000E+03 0. -1.
         -6    1    1    2    0  502 -0.94930906022E+01  0.41133431641E+02 -0.55273006240E+03  0.58041071652E+03  0.17200000000E+03 0.  1.
</event>
<event>
 4    1 -0.7151877E-004  0.1720411E+03  0.7818608E-02  0.1175736E+00
         -5   -1    0    0    0  501 -0.00000000000E+00  0.00000000000E+00  0.26531953697E+03  0.26536116276E+03  0.47000000000E+01 0.  1.
          5   -1    0    0  501    0  0.00000000000E+00 -0.00000000000E+00 -0.20636045145E+03  0.20641396736E+03  0.47000000000E+01 0. -1.
          6    1    1    2  502    0 -0.29117656667E+01  0.23824931821E+01 -0.13044288835E+03  0.21590160206E+03  0.17200000000E+03 0. -1.
         -6    1    1    2    0  502  0.29117656667E+01 -0.23824931821E+01  0.18940197387E+03  0.25587352806E+03  0.17200000000E+03 0.  1.
</event>
<event>
 4    1 -0.7151877E-004  0.1805631E+03  0.7818608E-02  0.1167259E+00
         -5   -1    0    0    0  501 -0.00000000000E+00  0.00000000000E+00  0.39239085206E+03  0.39241899901E+03  0.47000000000E+01 0.  1.
          5   -1    0    0  501    0  0.00000000000E+00 -0.00000000000E+00 -0.10054272588E+03  0.10065251972E+03  0.47000000000E+01 0. -1.
          6    1    1    2  502    0  0.53286964958E+02  0.13399020677E+02  0.42992773737E+02  0.18561091828E+03  0.17200000000E+03 0. -1.
         -6    1    1    2    0  502 -0.53286964958E+02 -0.13399020677E+02  0.24885535245E+03  0.30746060046E+03  0.17200000000E+03 0.  1.
</event>
<event>
 4    1 -0.7151877E-004  0.2163411E+03  0.7818608E-02  0.1136641E+00
         -5   -1    0    0    0  501 -0.00000000000E+00  0.00000000000E+00  0.16026429191E+03  0.16033319451E+03  0.47000000000E+01 0.  1.
          5   -1    0    0  501    0  0.00000000000E+00 -0.00000000000E+00 -0.46031817603E+03  0.46034216968E+03  0.47000000000E+01 0. -1.
          6    1    1    2  502    0 -0.13861832767E+02 -0.13048872728E+03 -0.33772833964E+03  0.40107840848E+03  0.17200000000E+03 0. -1.
         -6    1    1    2    0  502  0.13861832767E+02  0.13048872728E+03  0.37674455516E+02  0.21959695570E+03  0.17200000000E+03 0.  1.
</event>
<event>
 4    1 -0.7151877E-004  0.1858887E+03  0.7818608E-02  0.1162223E+00
          5   -1    0    0  501    0  0.00000000000E+00  0.00000000000E+00  0.15340532385E+03  0.15347730577E+03  0.47000000000E+01 0. -1.
         -5   -1    0    0    0  501 -0.00000000000E+00 -0.00000000000E+00 -0.22753315080E+03  0.22758168800E+03  0.47000000000E+01 0.  1.
          6    1    1    2  502    0  0.33671572893E+01  0.70422018083E+02 -0.56757406274E+02  0.19436049379E+03  0.17200000000E+03 0.  1.
         -6    1    1    2    0  502 -0.33671572893E+01 -0.70422018083E+02 -0.17370420672E+02  0.18669849998E+03  0.17200000000E+03 0. -1.
</event>
<event>
 4    1 -0.7151877E-004  0.1964885E+03  0.7818608E-02  0.1152736E+00
         -5   -1    0    0    0  501 -0.00000000000E+00  0.00000000000E+00  0.12151096254E+04  0.12151187151E+04  0.47000000000E+01 0.  1.
          5   -1    0    0  501    0  0.00000000000E+00 -0.00000000000E+00 -0.27129640929E+03  0.27133711817E+03  0.47000000000E+01 0. -1.
          6    1    1    2  502    0  0.92787173743E+02  0.20353880614E+02 -0.22644986150E+03  0.29981207421E+03  0.17200000000E+03 0. -1.
         -6    1    1    2    0  502 -0.92787173743E+02 -0.20353880614E+02  0.11702630776E+04  0.11866437591E+04  0.17200000000E+03 0.  1.
</event>
<event>
 4    1 -0.7151877E-004  0.1859222E+03  0.7818608E-02  0.1162192E+00
         -5   -1    0    0    0  501 -0.00000000000E+00  0.00000000000E+00  0.15176172534E+03  0.15183448646E+03  0.47000000000E+01 0.  1.
          5   -1    0    0  501    0  0.00000000000E+00 -0.00000000000E+00 -0.11928350835E+04  0.11928443430E+04  0.47000000000E+01 0. -1.
          6    1    1    2  502    0 -0.58900165149E+02  0.38907870175E+02 -0.11253089317E+04  0.11405644408E+04  0.17200000000E+03 0. -1.
         -6    1    1    2    0  502  0.58900165149E+02 -0.38907870175E+02  0.84235573478E+02  0.20411438865E+03  0.17200000000E+03 0.  1.
</event>
<event>
 4    1 -0.7151877E-004  0.1756977E+03  0.7818608E-02  0.1172033E+00
          5   -1    0    0  501    0  0.00000000000E+00  0.00000000000E+00  0.37706859457E+02  0.37998648004E+02  0.47000000000E+01 0. -1.
         -5   -1    0    0    0  501 -0.00000000000E+00 -0.00000000000E+00 -0.11183508692E+04  0.11183607453E+04  0.47000000000E+01 0.  1.
          6    1    1    2  502    0 -0.17300557529E+02 -0.31406442777E+02 -0.23934798476E+03  0.29691266687E+03  0.17200000000E+03 0. -1.
         -6    1    1    2    0  502  0.17300557529E+02  0.31406442777E+02 -0.84129602501E+03  0.85944672647E+03  0.17200000000E+03 0.  1.
</event>
<event>
 4    1 -0.7151877E-004  0.2727363E+03  0.7818608E-02  0.1099724E+00
         -5   -1    0    0    0  501 -0.00000000000E+00  0.00000000000E+00  0.61530948366E+02  0.61710190462E+02  0.47000000000E+01 0.  1.
          5   -1    0    0  501    0  0.00000000000E+00 -0.00000000000E+00 -0.17751477091E+04  0.17751539311E+04  0.47000000000E+01 0. -1.
          6    1    1    2  502    0 -0.13934262401E+03  0.15932577754E+03 -0.13763875355E+04  0.14031492145E+04  0.17200000000E+03 0. -1.
         -6    1    1    2    0  502  0.13934262401E+03 -0.15932577754E+03 -0.33722922518E+03  0.43371490702E+03  0.17200000000E+03 0.  1.
</event>
<event>
 4    1 -0.7151877E-004  0.2033522E+03  0.7818608E-02  0.1146941E+00
         -5   -1    0    0    0  501 -0.00000000000E+00  0.00000000000E+00  0.68573600385E+02  0.68734479482E+02  0.47000000000E+01 0.  1.
          5   -1    0    0  501    0  0.00000000000E+00 -0.00000000000E+00 -0.73575801495E+03  0.73577302653E+03  0.47000000000E+01 0. -1.
          6    1    1    2  502    0  0.78591738864E+02  0.74776127969E+02 -0.50498256703E+03  0.54438912897E+03  0.17200000000E+03 0. -1.
         -6    1    1    2    0  502 -0.78591738864E+02 -0.74776127969E+02 -0.16220184754E+03  0.26011837704E+03  0.17200000000E+03 0.  1.
</event>
<event>
 4    1 -0.7151877E-004  0.2038150E+03  0.7818608E-02  0.1146560E+00
         -5   -1    0    0    0  501 -0.00000000000E+00  0.00000000000E+00  0.57783286592E+02  0.57974116720E+02  0.47000000000E+01 0.  1.
          5   -1    0    0  501    0  0.00000000000E+00 -0.00000000000E+00 -0.88257859085E+03  0.88259110523E+03  0.47000000000E+01 0. -1.
          6    1    1    2  502    0 -0.60116690316E+02  0.91337514931E+02 -0.61575143339E+03  0.64860649535E+03  0.17200000000E+03 0. -1.
         -6    1    1    2    0  502  0.60116690316E+02 -0.91337514931E+02 -0.20904387086E+03  0.29195872659E+03  0.17200000000E+03 0.  1.
</event>
<event>
 4    1 -0.7151877E-004  0.1973717E+03  0.7818608E-02  0.1151976E+00
          5   -1    0    0  501    0  0.00000000000E+00  0.00000000000E+00  0.33112366230E+03  0.33115701674E+03  0.47000000000E+01 0. -1.
         -5   -1    0    0    0  501 -0.00000000000E+00 -0.00000000000E+00 -0.17335207558E+03  0.17341577814E+03  0.47000000000E+01 0.  1.
          6    1    1    2  502    0  0.59255774998E+02 -0.76552967048E+02  0.22196395008E+03  0.29702457603E+03  0.17200000000E+03 0. -1.
         -6    1    1    2    0  502 -0.59255774998E+02  0.76552967048E+02 -0.64192363354E+02  0.20754821885E+03  0.17200000000E+03 0. -1.
</event>
<event>
 4    1 -0.7151877E-004  0.3617479E+03  0.7818608E-02  0.1057894E+00
         -5   -1    0    0    0  501 -0.00000000000E+00  0.00000000000E+00  0.49795912475E+03  0.49798130479E+03  0.47000000000E+01 0.  1.
          5   -1    0    0  501    0  0.00000000000E+00 -0.00000000000E+00 -0.27246471556E+03  0.27250524990E+03  0.47000000000E+01 0. -1.
          6    1    1    2  502    0  0.17363374242E+03  0.26669998226E+03  0.39999807586E+02  0.36395266402E+03  0.17200000000E+03 0. -1.
         -6    1    1    2    0  502 -0.17363374242E+03 -0.26669998226E+03  0.18549460160E+03  0.40653389067E+03  0.17200000000E+03 0.  1.
</event>
<event>
 4    1 -0.7151877E-004  0.1828532E+03  0.7818608E-02  0.1165070E+00
          5   -1    0    0  501    0  0.00000000000E+00  0.00000000000E+00  0.16452336729E+03  0.16459048692E+03  0.47000000000E+01 0. -1.
         -5   -1    0    0    0  501 -0.00000000000E+00 -0.00000000000E+00 -0.29640042782E+03  0.29643768926E+03  0.47000000000E+01 0.  1.
          6    1    1    2  502    0  0.33968389118E+01 -0.61965755679E+02  0.63374333049E+02  0.19352415736E+03  0.17200000000E+03 0. -1.
         -6    1    1    2    0  502 -0.33968389118E+01  0.61965755679E+02 -0.19525139358E+03  0.26750401882E+03  0.17200000000E+03 0.  1.
</event>
<event>
 4    1 -0.7151877E-004  0.1734297E+03  0.7818608E-02  0.1174318E+00
         -5   -1    0    0    0  501 -0.00000000000E+00  0.00000000000E+00  0.15327551326E+03  0.15334755611E+03  0.47000000000E+01 0.  1.
          5   -1    0    0  501    0  0.00000000000E+00 -0.00000000000E+00 -0.74108940978E+03  0.74110431336E+03  0.47000000000E+01 0. -1.
          6    1    1    2  502    0 -0.52470134055E+01 -0.21594797659E+02 -0.67740138854E+03  0.69924996077E+03  0.17200000000E+03 0. -1.
         -6    1    1    2    0  502  0.52470134055E+01  0.21594797659E+02  0.89587492025E+02  0.19520190871E+03  0.17200000000E+03 0.  1.
</event>
<event>
 4    1 -0.7151877E-004  0.3415756E+03  0.7818608E-02  0.1066127E+00
         -5   -1    0    0    0  501 -0.00000000000E+00  0.00000000000E+00  0.16472854171E+04  0.16472921221E+04  0.47000000000E+01 0.  1.
          5   -1    0    0  501    0  0.00000000000E+00 -0.00000000000E+00 -0.41472010420E+03  0.41474673576E+03  0.47000000000E+01 0. -1.
          6    1    1    2  502    0 -0.29025369283E+03 -0.53316753557E+02 -0.32258132019E+03  0.46982187109E+03  0.17200000000E+03 0. -1.
         -6    1    1    2    0  502  0.29025369283E+03  0.53316753557E+02  0.15551466331E+04  0.15922169868E+04  0.17200000000E+03 0.  1.
</event>
<event>
 4    1 -0.7151877E-004  0.2554796E+03  0.7818608E-02  0.1109890E+00
         -5   -1    0    0    0  501 -0.00000000000E+00  0.00000000000E+00  0.11366894008E+03  0.11376606673E+03  0.47000000000E+01 0.  1.
          5   -1    0    0  501    0  0.00000000000E+00 -0.00000000000E+00 -0.58415923295E+03  0.58417814016E+03  0.47000000000E+01 0. -1.
          6    1    1    2  502    0 -0.81468897800E+02 -0.17043658337E+03 -0.28158256139E+03  0.38020856005E+03  0.17200000000E+03 0.  1.
         -6    1    1    2    0  502  0.81468897800E+02  0.17043658337E+03 -0.18890773148E+03  0.31773564684E+03  0.17200000000E+03 0.  1.
</event>
<event>
 4    1 -0.7151877E-004  0.1952275E+03  0.7818608E-02  0.1153829E+00
          5   -1    0    0  501    0  0.00000000000E+00  0.00000000000E+00  0.16576226388E+03  0.16582888206E+03  0.47000000000E+01 0. -1.
         -5   -1    0    0    0  501 -0.00000000000E+00 -0.00000000000E+00 -0.86896175654E+03  0.86897446702E+03  0.47000000000E+01 0.  1.
          6    1    1    2  502    0 -0.67074614557E+02 -0.63488414206E+02  0.92122129511E+02  0.21587095544E+03  0.17200000000E+03 0. -1.
         -6    1    1    2    0  502  0.67074614557E+02  0.63488414206E+02 -0.79532162217E+03  0.81893239364E+03  0.17200000000E+03 0.  1.
</event>
<event>
 4    1 -0.7151877E-004  0.1933675E+03  0.7818608E-02  0.1155459E+00
          5   -1    0    0  501    0  0.00000000000E+00  0.00000000000E+00  0.21803391676E+03  0.21808456813E+03  0.47000000000E+01 0. -1.
         -5   -1    0    0    0  501 -0.00000000000E+00 -0.00000000000E+00 -0.23461060352E+03  0.23465767680E+03  0.47000000000E+01 0.  1.
          6    1    1    2  502    0 -0.51276295607E+01  0.88208310014E+02  0.10919652184E+03  0.22206953623E+03  0.17200000000E+03 0. -1.
         -6    1    1    2    0  502  0.51276295607E+01 -0.88208310014E+02 -0.12577320860E+03  0.23067270870E+03  0.17200000000E+03 0.  1.
</event>
<event>
 4    1 -0.7151877E-004  0.1795228E+03  0.7818608E-02  0.1168266E+00
         -5   -1    0    0    0  501 -0.00000000000E+00  0.00000000000E+00  0.16114017345E+03  0.16120870169E+03  0.47000000000E+01 0.  1.
          5   -1    0    0  501    0  0.00000000000E+00 -0.00000000000E+00 -0.20030857967E+03  0.20036371200E+03  0.47000000000E+01 0. -1.
          6    1    1    2  502    0  0.47330307733E+02 -0.20106363435E+02 -0.11067223948E+02  0.17986357977E+03  0.17200000000E+03 0. -1.
         -6    1    1    2    0  502 -0.47330307733E+02  0.20106363435E+02 -0.28101182271E+02  0.18170883392E+03  0.17200000000E+03 0.  1.
</event>
<event>
 4    1 -0.7151877E-004  0.2383243E+03  0.7818608E-02  0.1120914E+00
          5   -1    0    0  501    0  0.00000000000E+00  0.00000000000E+00  0.15665743024E+03  0.15672791854E+03  0.47000000000E+01 0. -1.
         -5   -1    0    0    0  501 -0.00000000000E+00 -0.00000000000E+00 -0.41180455081E+03  0.41183137091E+03  0.47000000000E+01 0.  1.
          6    1    1    2  502    0  0.11986207298E+03  0.11334710918E+03 -0.29117623605E+02  0.24009647999E+03  0.17200000000E+03 0. -1.
         -6    1    1    2    0  502 -0.11986207298E+03 -0.11334710918E+03 -0.22602949696E+03  0.32846280946E+03  0.17200000000E+03 0.  1.
</event>
<event>
 4    1 -0.7151877E-004  0.1877992E+03  0.7818608E-02  0.1160461E+00
         -5   -1    0    0    0  501 -0.00000000000E+00  0.00000000000E+00  0.87646158247E+02  0.87772085855E+02  0.47000000000E+01 0.  1.
          5   -1    0    0  501    0  0.00000000000E+00 -0.00000000000E+00 -0.45307245937E+03  0.45309683672E+03  0.47000000000E+01 0. -1.
          6    1    1    2  502    0  0.70643407811E+02  0.26344920869E+02 -0.27352303832E+03  0.33178818306E+03  0.17200000000E+03 0. -1.
         -6    1    1    2    0  502 -0.70643407811E+02 -0.26344920869E+02 -0.91903262807E+02  0.20908073952E+03  0.17200000000E+03 0. -1.
</event>
<event>
 4    1 -0.7151877E-004  0.1857338E+03  0.7818608E-02  0.1162366E+00
          5   -1    0    0  501    0  0.00000000000E+00  0.00000000000E+00  0.13395432341E+03  0.13403675153E+03  0.47000000000E+01 0. -1.
         -5   -1    0    0    0  501 -0.00000000000E+00 -0.00000000000E+00 -0.36009180621E+03  0.36012247764E+03  0.47000000000E+01 0.  1.
          6    1    1    2  502    0  0.48853681631E+02  0.50263113102E+02  0.18891050445E+02  0.18669208482E+03  0.17200000000E+03 0. -1.
         -6    1    1    2    0  502 -0.48853681631E+02 -0.50263113102E+02 -0.24502853325E+03  0.30746714435E+03  0.17200000000E+03 0.  1.
</event>
<event>
 4    1 -0.7151877E-004  0.2987384E+03  0.7818608E-02  0.1085873E+00
         -5   -1    0    0    0  501 -0.00000000000E+00  0.00000000000E+00  0.83036692133E+03  0.83038022257E+03  0.47000000000E+01 0.  1.
          5   -1    0    0  501    0  0.00000000000E+00 -0.00000000000E+00 -0.30326645010E+04  0.30326681430E+04  0.47000000000E+01 0. -1.
          6    1    1    2  502    0  0.23656288938E+03  0.60816539610E+02 -0.29981385486E+04  0.30129851325E+04  0.17200000000E+03 0. -1.
         -6    1    1    2    0  502 -0.23656288938E+03 -0.60816539610E+02  0.79584096901E+03  0.85006323299E+03  0.17200000000E+03 0.  1.
</event>
<event>
 4    1 -0.7151877E-004  0.2092286E+03  0.7818608E-02  0.1142178E+00
         -5   -1    0    0    0  501 -0.00000000000E+00  0.00000000000E+00  0.14777683951E+03  0.14785156170E+03  0.47000000000E+01 0.  1.
          5   -1    0    0  501    0  0.00000000000E+00 -0.00000000000E+00 -0.30960961436E+03  0.30964528626E+03  0.47000000000E+01 0. -1.
          6    1    1    2  502    0  0.94277943423E+02 -0.72830365284E+02 -0.12875040224E+03  0.24566900252E+03  0.17200000000E+03 0.  1.
         -6    1    1    2    0  502 -0.94277943423E+02  0.72830365284E+02 -0.33082372607E+02  0.21182784543E+03  0.17200000000E+03 0.  1.
</event>
<event>
 4    1 -0.7151877E-004  0.2524403E+03  0.7818608E-02  0.1111772E+00
          5   -1    0    0  501    0  0.00000000000E+00  0.00000000000E+00  0.19934454654E+03  0.19939994542E+03  0.47000000000E+01 0. -1.
         -5   -1    0    0    0  501 -0.00000000000E+00 -0.00000000000E+00 -0.16766432001E+04  0.16766497876E+04  0.47000000000E+01 0.  1.
          6    1    1    2  502    0 -0.16101471075E+03  0.90644257119E+02  0.10524338479E+03  0.27350007033E+03  0.17200000000E+03 0. -1.
         -6    1    1    2    0  502  0.16101471075E+03 -0.90644257119E+02 -0.15825420383E+04  0.16025496627E+04  0.17200000000E+03 0.  1.
</event>
<event>
 4    1 -0.7151877E-004  0.1872921E+03  0.7818608E-02  0.1160927E+00
         -5   -1    0    0    0  501 -0.00000000000E+00  0.00000000000E+00  0.10833073933E+03  0.10843264769E+03  0.47000000000E+01 0.  1.
          5   -1    0    0  501    0  0.00000000000E+00 -0.00000000000E+00 -0.11772330370E+04  0.11772424191E+04  0.47000000000E+01 0. -1.
          6    1    1    2  502    0 -0.73031288964E+02 -0.12679800688E+02 -0.10818437377E+04  0.10979363458E+04  0.17200000000E+03 0. -1.
         -6    1    1    2    0  502  0.73031288964E+02  0.12679800688E+02  0.12941440048E+02  0.18773872106E+03  0.17200000000E+03 0.  1.
</event>
<event>
 4    1 -0.7151877E-004  0.1734763E+03  0.7818608E-02  0.1174270E+00
         -5   -1    0    0    0  501 -0.00000000000E+00  0.00000000000E+00  0.34054896228E+03  0.34058139366E+03  0.47000000000E+01 0.  1.
          5   -1    0    0  501    0  0.00000000000E+00 -0.00000000000E+00 -0.53459188578E+03  0.53461254600E+03  0.47000000000E+01 0. -1.
          6    1    1    2  502    0  0.21496794325E+02  0.69221549326E+01 -0.49682299033E+03  0.52623864559E+03  0.17200000000E+03 0. -1.
         -6    1    1    2    0  502 -0.21496794325E+02 -0.69221549326E+01  0.30278006682E+03  0.34895529407E+03  0.17200000000E+03 0.  1.
</event>
<event>
 4    1 -0.7151877E-004  0.2399807E+03  0.7818608E-02  0.1119806E+00
         -5   -1    0    0    0  501 -0.00000000000E+00  0.00000000000E+00  0.52725590130E+03  0.52727684897E+03  0.47000000000E+01 0.  1.
          5   -1    0    0  501    0  0.00000000000E+00 -0.00000000000E+00 -0.25282797257E+03  0.25287165463E+03  0.47000000000E+01 0. -1.
          6    1    1    2  502    0 -0.15769590861E+03  0.56024636707E+02 -0.15678386701E+03  0.28665648513E+03  0.17200000000E+03 0. -1.
         -6    1    1    2    0  502  0.15769590861E+03 -0.56024636707E+02  0.43121179574E+03  0.49349201847E+03  0.17200000000E+03 0.  1.
</event>
<event>
 4    1 -0.7151877E-004  0.2036689E+03  0.7818608E-02  0.1146680E+00
         -5   -1    0    0    0  501 -0.00000000000E+00  0.00000000000E+00  0.38132239939E+03  0.38135136328E+03  0.47000000000E+01 0.  1.
          5   -1    0    0  501    0  0.00000000000E+00 -0.00000000000E+00 -0.11982211847E+04  0.11982304025E+04  0.47000000000E+01 0. -1.
          6    1    1    2  502    0  0.24204337165E+02  0.10635403043E+03 -0.11615387972E+04  0.11792596860E+04  0.17200000000E+03 0. -1.
         -6    1    1    2    0  502 -0.24204337165E+02 -0.10635403043E+03  0.34464001189E+03  0.40032207974E+03  0.17200000000E+03 0.  1.
</event>
<event>
 4    1 -0.7151877E-004  0.1754186E+03  0.7818608E-02  0.1172312E+00
         -5   -1    0    0    0  501 -0.00000000000E+00  0.00000000000E+00  0.72252466219E+03  0.72253994871E+03  0.47000000000E+01 0.  1.
          5   -1    0    0  501    0  0.00000000000E+00 -0.00000000000E+00 -0.48858098886E+03  0.48860359462E+03  0.47000000000E+01 0. -1.
          6    1    1    2  502    0  0.32400631235E+02  0.11741697171E+02 -0.46160650588E+03  0.49381396763E+03  0.17200000000E+03 0. -1.
         -6    1    1    2    0  502 -0.32400631235E+02 -0.11741697171E+02  0.69555017922E+03  0.71732957569E+03  0.17200000000E+03 0.  1.
</event>
<event>
 4    1 -0.7151877E-004  0.1843333E+03  0.7818608E-02  0.1163674E+00
          5   -1    0    0  501    0  0.00000000000E+00  0.00000000000E+00  0.38425644584E+03  0.38428518859E+03  0.47000000000E+01 0. -1.
         -5   -1    0    0    0  501 -0.00000000000E+00 -0.00000000000E+00 -0.74535213815E+03  0.74536695650E+03  0.47000000000E+01 0.  1.
          6    1    1    2  502    0  0.20130092883E+02  0.63162925212E+02  0.34971881545E+03  0.39532521503E+03  0.17200000000E+03 0. -1.
         -6    1    1    2    0  502 -0.20130092883E+02 -0.63162925212E+02 -0.71081450776E+03  0.73432693005E+03  0.17200000000E+03 0.  1.
</event>
<event>
 4    1 -0.7151877E-004  0.2550573E+03  0.7818608E-02  0.1110150E+00
          5   -1    0    0  501    0  0.00000000000E+00  0.00000000000E+00  0.42425210208E+03  0.42427813533E+03  0.47000000000E+01 0. -1.
         -5   -1    0    0    0  501 -0.00000000000E+00 -0.00000000000E+00 -0.39777581050E+03  0.39780357643E+03  0.47000000000E+01 0.  1.
          6    1    1    2  502    0  0.18831778686E+03 -0.25756969870E+01  0.33546914127E+03  0.42141875588E+03  0.17200000000E+03 0. -1.
         -6    1    1    2    0  502 -0.18831778686E+03  0.25756969870E+01 -0.30899284969E+03  0.40066295588E+03  0.17200000000E+03 0.  1.
</event>
<event>
 4    1 -0.7151877E-004  0.1885515E+03  0.7818608E-02  0.1159774E+00
          5   -1    0    0  501    0  0.00000000000E+00  0.00000000000E+00  0.19292165397E+03  0.19297889669E+03  0.47000000000E+01 0. -1.
         -5   -1    0    0    0  501 -0.00000000000E+00 -0.00000000000E+00 -0.30205531889E+03  0.30209188282E+03  0.47000000000E+01 0.  1.
          6    1    1    2  502    0  0.72850768796E+02  0.25699019243E+02  0.10004965174E+03  0.21345165007E+03  0.17200000000E+03 0. -1.
         -6    1    1    2    0  502 -0.72850768796E+02 -0.25699019243E+02 -0.20918331666E+03  0.28161912945E+03  0.17200000000E+03 0.  1.
</event>
<event>
 4    1 -0.7151877E-004  0.2317106E+03  0.7818608E-02  0.1125442E+00
          5   -1    0    0  501    0  0.00000000000E+00  0.00000000000E+00  0.14099502834E+03  0.14107334268E+03  0.47000000000E+01 0. -1.
         -5   -1    0    0    0  501 -0.00000000000E+00 -0.00000000000E+00 -0.58302531616E+03  0.58304426014E+03  0.47000000000E+01 0.  1.
          6    1    1    2  502    0 -0.13458412039E+03 -0.77413814787E+02 -0.76926245728E+01  0.23183822087E+03  0.17200000000E+03 0. -1.
         -6    1    1    2    0  502  0.13458412039E+03  0.77413814787E+02 -0.43433766325E+03  0.49227938196E+03  0.17200000000E+03 0.  1.
</event>
<event>
 4    1 -0.7151877E-004  0.3010941E+03  0.7818608E-02  0.1084695E+00
          5   -1    0    0  501    0  0.00000000000E+00  0.00000000000E+00  0.37176783899E+03  0.37179754721E+03  0.47000000000E+01 0. -1.
         -5   -1    0    0    0  501 -0.00000000000E+00 -0.00000000000E+00 -0.60501883674E+03  0.60503709209E+03  0.47000000000E+01 0.  1.
          6    1    1    2  502    0 -0.59317574929E+02  0.23990642477E+03  0.26074995399E+03  0.39830667311E+03  0.17200000000E+03 0. -1.
         -6    1    1    2    0  502  0.59317574929E+02 -0.23990642477E+03 -0.49400095174E+03  0.57852796618E+03  0.17200000000E+03 0.  1.
</event>
<event>
 4    1 -0.7151877E-004  0.2119539E+03  0.7818608E-02  0.1140028E+00
         -5   -1    0    0    0  501 -0.00000000000E+00  0.00000000000E+00  0.40821649955E+03  0.40824355537E+03  0.47000000000E+01 0.  1.
          5   -1    0    0  501    0  0.00000000000E+00 -0.00000000000E+00 -0.79380803568E+03  0.79382194950E+03  0.47000000000E+01 0. -1.
          6    1    1    2  502    0 -0.18938928452E+02  0.12240002283E+03 -0.75061578857E+03  0.77996699331E+03  0.17200000000E+03 0. -1.
         -6    1    1    2    0  502  0.18938928452E+02 -0.12240002283E+03  0.36502425244E+03  0.42209851157E+03  0.17200000000E+03 0.  1.
</event>
<event>
 4    1 -0.7151877E-004  0.1861944E+03  0.7818608E-02  0.1161939E+00
         -5   -1    0    0    0  501 -0.00000000000E+00  0.00000000000E+00  0.18630242538E+03  0.18636170128E+03  0.47000000000E+01 0.  1.
          5   -1    0    0  501    0  0.00000000000E+00 -0.00000000000E+00 -0.27820195487E+03  0.27824165341E+03  0.47000000000E+01 0. -1.
          6    1    1    2  502    0  0.13916826498E+02  0.69933479919E+02 -0.17968100314E+03  0.25875400009E+03  0.17200000000E+03 0. -1.
         -6    1    1    2    0  502 -0.13916826498E+02 -0.69933479919E+02  0.87781473652E+02  0.20584935460E+03  0.17200000000E+03 0.  1.
</event>
<event>
 4    1 -0.7151877E-004  0.1775861E+03  0.7818608E-02  0.1170160E+00
          5   -1    0    0  501    0  0.00000000000E+00  0.00000000000E+00  0.42862702118E+03  0.42865278873E+03  0.47000000000E+01 0. -1.
         -5   -1    0    0    0  501 -0.00000000000E+00 -0.00000000000E+00 -0.17924336389E+03  0.17930497343E+03  0.47000000000E+01 0.  1.
          6    1    1    2  502    0  0.40859096244E+02 -0.16832769698E+02  0.35811493759E+03  0.39972880357E+03  0.17200000000E+03 0. -1.
         -6    1    1    2    0  502 -0.40859096244E+02  0.16832769698E+02 -0.10873128029E+03  0.20822895859E+03  0.17200000000E+03 0.  1.
</event>
<event>
 4    1 -0.7151877E-004  0.1958416E+03  0.7818608E-02  0.1153296E+00
          5   -1    0    0  501    0  0.00000000000E+00  0.00000000000E+00  0.64233976119E+03  0.64235695591E+03  0.47000000000E+01 0. -1.
         -5   -1    0    0    0  501 -0.00000000000E+00 -0.00000000000E+00 -0.21313073181E+03  0.21318254816E+03  0.47000000000E+01 0.  1.
          6    1    1    2  502    0 -0.81305594393E+02  0.46468478895E+02  0.57755525878E+03  0.60985571749E+03  0.17200000000E+03 0. -1.
         -6    1    1    2    0  502  0.81305594393E+02 -0.46468478895E+02 -0.14834622940E+03  0.24568378658E+03  0.17200000000E+03 0.  1.
</event>
<event>
 4    1 -0.7151877E-004  0.1858560E+03  0.7818608E-02  0.1162253E+00
         -5   -1    0    0    0  501 -0.00000000000E+00  0.00000000000E+00  0.24868621792E+03  0.24873062735E+03  0.47000000000E+01 0.  1.
          5   -1    0    0  501    0  0.00000000000E+00 -0.00000000000E+00 -0.37264362608E+03  0.37267326448E+03  0.47000000000E+01 0. -1.
          6    1    1    2  502    0 -0.20990829294E+02  0.67214877763E+02 -0.30807170589E+03  0.35979248280E+03  0.17200000000E+03 0. -1.
         -6    1    1    2    0  502  0.20990829294E+02 -0.67214877763E+02  0.18411429773E+03  0.26161140903E+03  0.17200000000E+03 0.  1.
</event>
<event>
 4    1 -0.7151877E-004  0.2120571E+03  0.7818608E-02  0.1139947E+00
          5   -1    0    0  501    0  0.00000000000E+00  0.00000000000E+00  0.35005436221E+03  0.35008591304E+03  0.47000000000E+01 0. -1.
         -5   -1    0    0    0  501 -0.00000000000E+00 -0.00000000000E+00 -0.52249023681E+03  0.52251137554E+03  0.47000000000E+01 0.  1.
          6    1    1    2  502    0 -0.13482458541E+02 -0.12329808136E+03  0.29267639942E+03  0.36142449880E+03  0.17200000000E+03 0. -1.
         -6    1    1    2    0  502  0.13482458541E+02  0.12329808136E+03 -0.46511227402E+03  0.51117278977E+03  0.17200000000E+03 0.  1.
</event>
<event>
 4    1 -0.7151877E-004  0.2858599E+03  0.7818608E-02  0.1092531E+00
          5   -1    0    0  501    0  0.00000000000E+00  0.00000000000E+00  0.20990553605E+03  0.20995814836E+03  0.47000000000E+01 0. -1.
         -5   -1    0    0    0  501 -0.00000000000E+00 -0.00000000000E+00 -0.10690357654E+04  0.10690460971E+04  0.47000000000E+01 0.  1.
          6    1    1    2  502    0  0.95881164960E+02  0.20721647939E+03  0.80398019605E+02  0.29695068392E+03  0.17200000000E+03 0. -1.
         -6    1    1    2    0  502 -0.95881164960E+02 -0.20721647939E+03 -0.93952824900E+03  0.98205356157E+03  0.17200000000E+03 0.  1.
</event>
<event>
 4    1 -0.7151877E-004  0.2480614E+03  0.7818608E-02  0.1114536E+00
         -5   -1    0    0    0  501 -0.00000000000E+00  0.00000000000E+00  0.56887024217E+03  0.56888965751E+03  0.47000000000E+01 0.  1.
          5   -1    0    0  501    0  0.00000000000E+00 -0.00000000000E+00 -0.23677202304E+03  0.23681866669E+03  0.47000000000E+01 0. -1.
          6    1    1    2  502    0  0.53356939448E+02  0.17059743650E+03 -0.13087356734E+03  0.28046807119E+03  0.17200000000E+03 0. -1.
         -6    1    1    2    0  502 -0.53356939448E+02 -0.17059743650E+03  0.46297178647E+03  0.52524025302E+03  0.17200000000E+03 0.  1.
</event>
<event>
 4    1 -0.7151877E-004  0.1803029E+03  0.7818608E-02  0.1167510E+00
         -5   -1    0    0    0  501 -0.00000000000E+00  0.00000000000E+00  0.12038335578E+04  0.12038427326E+04  0.47000000000E+01 0.  1.
          5   -1    0    0  501    0  0.00000000000E+00 -0.00000000000E+00 -0.64374878986E+02  0.64546224092E+02  0.47000000000E+01 0. -1.
          6    1    1    2  502    0 -0.14502620194E+02  0.52103755335E+02  0.86271798637E+02  0.19987984029E+03  0.17200000000E+03 0. -1.
         -6    1    1    2    0  502  0.14502620194E+02 -0.52103755335E+02  0.10531868802E+04  0.10685091164E+04  0.17200000000E+03 0.  1.
</event>
<event>
 4    1 -0.7151877E-004  0.2194139E+03  0.7818608E-02  0.1134321E+00
         -5   -1    0    0    0  501 -0.00000000000E+00  0.00000000000E+00  0.67389377221E+02  0.67553076631E+02  0.47000000000E+01 0.  1.
          5   -1    0    0  501    0  0.00000000000E+00 -0.00000000000E+00 -0.11939082906E+04  0.11939175417E+04  0.47000000000E+01 0. -1.
          6    1    1    2  502    0  0.10932923281E+03  0.81274688399E+02 -0.96338911371E+03  0.98805922927E+03  0.17200000000E+03 0. -1.
         -6    1    1    2    0  502 -0.10932923281E+03 -0.81274688399E+02 -0.16312979964E+03  0.27341138903E+03  0.17200000000E+03 0.  1.
</event>
<event>
 4    1 -0.7151877E-004  0.1834303E+03  0.7818608E-02  0.1164524E+00
         -5   -1    0    0    0  501 -0.00000000000E+00  0.00000000000E+00  0.20745675609E+04  0.20745728849E+04  0.47000000000E+01 0.  1.
          5   -1    0    0  501    0  0.00000000000E+00 -0.00000000000E+00 -0.10375183635E+03  0.10385823774E+03  0.47000000000E+01 0. -1.
          6    1    1    2  502    0 -0.16566890697E+02  0.61548383467E+02 -0.15110507772E+02  0.18405160369E+03  0.17200000000E+03 0. -1.
         -6    1    1    2    0  502  0.16566890697E+02 -0.61548383467E+02  0.19859262323E+04  0.19943795189E+04  0.17200000000E+03 0.  1.
</event>
<event>
 4    1 -0.7151877E-004  0.1852709E+03  0.7818608E-02  0.1162797E+00
          5   -1    0    0  501    0  0.00000000000E+00  0.00000000000E+00  0.12017054505E+03  0.12026242097E+03  0.47000000000E+01 0. -1.
         -5   -1    0    0    0  501 -0.00000000000E+00 -0.00000000000E+00 -0.34960500056E+03  0.34963659193E+03  0.47000000000E+01 0.  1.
          6    1    1    2  502    0  0.49507387602E+02 -0.47857342897E+02 -0.14063296747E+02  0.18580388320E+03  0.17200000000E+03 0. -1.
         -6    1    1    2    0  502 -0.49507387602E+02  0.47857342897E+02 -0.21537115876E+03  0.28409512971E+03  0.17200000000E+03 0.  1.
</event>
<event>
 4    1 -0.7151877E-004  0.1753094E+03  0.7818608E-02  0.1172421E+00
         -5   -1    0    0    0  501 -0.00000000000E+00  0.00000000000E+00  0.46639244289E+03  0.46641612406E+03  0.47000000000E+01 0.  1.
          5   -1    0    0  501    0  0.00000000000E+00 -0.00000000000E+00 -0.19884308094E+03  0.19889861950E+03  0.47000000000E+01 0. -1.
          6    1    1    2  502    0  0.29413481549E+02  0.16858990182E+02 -0.13825227900E+03  0.22326457645E+03  0.17200000000E+03 0. -1.
         -6    1    1    2    0  502 -0.29413481549E+02 -0.16858990182E+02  0.40580164095E+03  0.44205016712E+03  0.17200000000E+03 0.  1.
</event>
<event>
 4    1 -0.7151877E-004  0.2099147E+03  0.7818608E-02  0.1141634E+00
         -5   -1    0    0    0  501 -0.00000000000E+00  0.00000000000E+00  0.28845246834E+03  0.28849075634E+03  0.47000000000E+01 0.  1.
          5   -1    0    0  501    0  0.00000000000E+00 -0.00000000000E+00 -0.47123091300E+03  0.47125435103E+03  0.47000000000E+01 0. -1.
          6    1    1    2  502    0 -0.11629316463E+03  0.30920445484E+02 -0.40369028783E+03  0.45500551928E+03  0.17200000000E+03 0. -1.
         -6    1    1    2    0  502  0.11629316463E+03 -0.30920445484E+02  0.22091184317E+03  0.30473958808E+03  0.17200000000E+03 0.  1.
</event>
<event>
 4    1 -0.7151877E-004  0.3528480E+03  0.7818608E-02  0.1061452E+00
         -5   -1    0    0    0  501 -0.00000000000E+00  0.00000000000E+00  0.99707422308E+03  0.99708530043E+03  0.47000000000E+01 0.  1.
          5   -1    0    0  501    0  0.00000000000E+00 -0.00000000000E+00 -0.19075966141E+03  0.19081755271E+03  0.47000000000E+01 0. -1.
          6    1    1    2  502    0  0.30352362417E+03 -0.52831359364E+02  0.54005294791E+02  0.35695702098E+03  0.17200000000E+03 0. -1.
         -6    1    1    2    0  502 -0.30352362417E+03  0.52831359364E+02  0.75230926688E+03  0.83094583216E+03  0.17200000000E+03 0.  1.
</event>
<event>
 4    1 -0.7151877E-004  0.1952015E+03  0.7818608E-02  0.1153852E+00
         -5   -1    0    0    0  501 -0.00000000000E+00  0.00000000000E+00  0.65212205914E+02  0.65381356671E+02  0.47000000000E+01 0.  1.
          5   -1    0    0  501    0  0.00000000000E+00 -0.00000000000E+00 -0.62223420689E+03  0.62225195719E+03  0.47000000000E+01 0. -1.
          6    1    1    2  502    0 -0.90593608172E+02  0.17675534487E+02 -0.36442785030E+03  0.41341418025E+03  0.17200000000E+03 0. -1.
         -6    1    1    2    0  502  0.90593608172E+02 -0.17675534487E+02 -0.19259415068E+03  0.27421913361E+03  0.17200000000E+03 0.  1.
</event>
<event>
 4    1 -0.7151877E-004  0.1955300E+03  0.7818608E-02  0.1153566E+00
         -5   -1    0    0    0  501 -0.00000000000E+00  0.00000000000E+00  0.10034512829E+03  0.10045513811E+03  0.47000000000E+01 0.  1.
          5   -1    0    0  501    0  0.00000000000E+00 -0.00000000000E+00 -0.78230718350E+03  0.78232130187E+03  0.47000000000E+01 0. -1.
          6    1    1    2  502    0 -0.18705973296E+02  0.91093703926E+02 -0.65721729585E+03  0.68568691857E+03  0.17200000000E+03 0. -1.
         -6    1    1    2    0  502  0.18705973296E+02 -0.91093703926E+02 -0.24744759353E+02  0.19708952140E+03  0.17200000000E+03 0.  1.
</event>
<event>
 4    1 -0.7151877E-004  0.1980175E+03  0.7818608E-02  0.1151422E+00
         -5   -1    0    0    0  501 -0.00000000000E+00  0.00000000000E+00  0.16668157733E+03  0.16674782823E+03  0.47000000000E+01 0.  1.
          5   -1    0    0  501    0  0.00000000000E+00 -0.00000000000E+00 -0.69564140415E+03  0.69565728140E+03  0.47000000000E+01 0. -1.
          6    1    1    2  502    0  0.11078269526E+02  0.97489520789E+02 -0.61530339546E+03  0.64638162349E+03  0.17200000000E+03 0. -1.
         -6    1    1    2    0  502 -0.11078269526E+02 -0.97489520789E+02  0.86343568642E+02  0.21602348614E+03  0.17200000000E+03 0.  1.
</event>
<event>
 4    1 -0.7151877E-004  0.2140827E+03  0.7818608E-02  0.1138373E+00
          5   -1    0    0  501    0  0.00000000000E+00  0.00000000000E+00  0.17820430920E+03  0.17826627784E+03  0.47000000000E+01 0. -1.
         -5   -1    0    0    0  501 -0.00000000000E+00 -0.00000000000E+00 -0.39694782909E+03  0.39697565293E+03  0.47000000000E+01 0.  1.
          6    1    1    2  502    0  0.49101093606E+02  0.11762852463E+03  0.61352880287E+02  0.22270061320E+03  0.17200000000E+03 0. -1.
         -6    1    1    2    0  502 -0.49101093606E+02 -0.11762852463E+03 -0.28009640018E+03  0.35254131757E+03  0.17200000000E+03 0.  1.
</event>
<event>
 4    1 -0.7151877E-004  0.3004662E+03  0.7818608E-02  0.1085008E+00
         -5   -1    0    0    0  501 -0.00000000000E+00  0.00000000000E+00  0.42003392968E+03  0.42006022435E+03  0.47000000000E+01 0.  1.
          5   -1    0    0  501    0  0.00000000000E+00 -0.00000000000E+00 -0.99005841418E+03  0.99006957002E+03  0.47000000000E+01 0. -1.
          6    1    1    2  502    0  0.14818155550E+03 -0.19682014158E+03 -0.90887343122E+03  0.95725172003E+03  0.17200000000E+03 0. -1.
         -6    1    1    2    0  502 -0.14818155550E+03  0.19682014158E+03  0.33884894672E+03  0.45287807434E+03  0.17200000000E+03 0.  1.
</event>
<event>
 4    1 -0.7151877E-004  0.1800331E+03  0.7818608E-02  0.1167771E+00
          5   -1    0    0  501    0  0.00000000000E+00  0.00000000000E+00  0.99252793298E+02  0.99364012486E+02  0.47000000000E+01 0. -1.
         -5   -1    0    0    0  501 -0.00000000000E+00 -0.00000000000E+00 -0.65950955637E+03  0.65952630345E+03  0.47000000000E+01 0.  1.
          6    1    1    2  502    0 -0.53006741256E+02  0.42661658632E+01 -0.10425246057E+02  0.18033469035E+03  0.17200000000E+03 0. -1.
         -6    1    1    2    0  502  0.53006741256E+02 -0.42661658632E+01 -0.54983151702E+03  0.57855562558E+03  0.17200000000E+03 0.  1.
</event>
<event>
 4    1 -0.7151877E-004  0.1880415E+03  0.7818608E-02  0.1160240E+00
         -5   -1    0    0    0  501 -0.00000000000E+00  0.00000000000E+00  0.82488910850E+02  0.82622699140E+02  0.47000000000E+01 0.  1.
          5   -1    0    0  501    0  0.00000000000E+00 -0.00000000000E+00 -0.75190135940E+03  0.75191604868E+03  0.47000000000E+01 0. -1.
          6    1    1    2  502    0  0.64971419848E+02 -0.39424892960E+02 -0.60847720111E+03  0.63687056130E+03  0.17200000000E+03 0. -1.
         -6    1    1    2    0  502 -0.64971419848E+02  0.39424892960E+02 -0.60935247439E+02  0.19766818652E+03  0.17200000000E+03 0.  1.
</event>
<event>
 4    1 -0.7151877E-004  0.1744344E+03  0.7818608E-02  0.1173301E+00
          5   -1    0    0  501    0  0.00000000000E+00  0.00000000000E+00  0.48713520123E+03  0.48715787407E+03  0.47000000000E+01 0. -1.
         -5   -1    0    0    0  501 -0.00000000000E+00 -0.00000000000E+00 -0.94113403857E+02  0.94230689191E+02  0.47000000000E+01 0.  1.
          6    1    1    2  502    0  0.29019752940E+02  0.10975383775E+01  0.36523924447E+03  0.40475555136E+03  0.17200000000E+03 0. -1.
         -6    1    1    2    0  502 -0.29019752940E+02 -0.10975383775E+01  0.27782552898E+02  0.17663301191E+03  0.17200000000E+03 0.  1.
</event>
<event>
 4    1 -0.7151877E-004  0.1758982E+03  0.7818608E-02  0.1171833E+00
          5   -1    0    0  501    0  0.00000000000E+00  0.00000000000E+00  0.56756637075E+02  0.56950907385E+02  0.47000000000E+01 0. -1.
         -5   -1    0    0    0  501 -0.00000000000E+00 -0.00000000000E+00 -0.69916153233E+03  0.69917732965E+03  0.47000000000E+01 0.  1.
          6    1    1    2  502    0 -0.16523321047E+02  0.32911438952E+02 -0.14312860387E+03  0.22677297061E+03  0.17200000000E+03 0. -1.
         -6    1    1    2    0  502  0.16523321047E+02 -0.32911438952E+02 -0.49927629138E+03  0.52935526642E+03  0.17200000000E+03 0.  1.
</event>
<event>
 4    1 -0.7151877E-004  0.2259671E+03  0.7818608E-02  0.1129511E+00
          5   -1    0    0  501    0  0.00000000000E+00  0.00000000000E+00  0.19273577555E+04  0.19273634862E+04  0.47000000000E+01 0. -1.
         -5   -1    0    0    0  501 -0.00000000000E+00 -0.00000000000E+00 -0.24492224605E+03  0.24496733785E+03  0.47000000000E+01 0.  1.
          6    1    1    2  502    0  0.55751011103E+02 -0.13553219883E+03  0.18669653294E+04  0.18805905172E+04  0.17200000000E+03 0. -1.
         -6    1    1    2    0  502 -0.55751011103E+02  0.13553219883E+03 -0.18452981995E+03  0.29174030680E+03  0.17200000000E+03 0.  1.
</event>
<event>
 4    1 -0.7151877E-004  0.1823833E+03  0.7818608E-02  0.1165516E+00
         -5   -1    0    0    0  501 -0.00000000000E+00  0.00000000000E+00  0.11455122739E+03  0.11464760658E+03  0.47000000000E+01 0.  1.
          5   -1    0    0  501    0  0.00000000000E+00 -0.00000000000E+00 -0.37975749536E+03  0.37978657860E+03  0.47000000000E+01 0. -1.
          6    1    1    2  502    0 -0.28775870355E+02  0.53400425343E+02 -0.25267346075E+03  0.31162081751E+03  0.17200000000E+03 0. -1.
         -6    1    1    2    0  502  0.28775870355E+02 -0.53400425343E+02 -0.12532807227E+02  0.18281336767E+03  0.17200000000E+03 0.  1.
</event>
<event>
 4    1 -0.7151877E-004  0.2156938E+03  0.7818608E-02  0.1137135E+00
         -5   -1    0    0    0  501 -0.00000000000E+00  0.00000000000E+00  0.63865121555E+03  0.63866850957E+03  0.47000000000E+01 0.  1.
          5   -1    0    0  501    0  0.00000000000E+00 -0.00000000000E+00 -0.29602203148E+03  0.29605934054E+03  0.47000000000E+01 0. -1.
          6    1    1    2  502    0  0.50126626537E+02 -0.12011310266E+03 -0.23449800220E+03  0.31861128221E+03  0.17200000000E+03 0. -1.
         -6    1    1    2    0  502 -0.50126626537E+02  0.12011310266E+03  0.57712718627E+03  0.61611656790E+03  0.17200000000E+03 0.  1.
</event>
<event>
 4    1 -0.7151877E-004  0.1734422E+03  0.7818608E-02  0.1174305E+00
          5   -1    0    0  501    0  0.00000000000E+00  0.00000000000E+00  0.16216789892E+03  0.16223599305E+03  0.47000000000E+01 0. -1.
         -5   -1    0    0    0  501 -0.00000000000E+00 -0.00000000000E+00 -0.33236587070E+03  0.33239910049E+03  0.47000000000E+01 0.  1.
          6    1    1    2  502    0  0.18071859437E+02 -0.13099799161E+02  0.79351097210E+02  0.19073225598E+03  0.17200000000E+03 0. -1.
         -6    1    1    2    0  502 -0.18071859437E+02  0.13099799161E+02 -0.24954906899E+03  0.30390283756E+03  0.17200000000E+03 0.  1.
</event>
<event>
 4    1 -0.7151877E-004  0.1723654E+03  0.7818608E-02  0.1175403E+00
         -5   -1    0    0    0  501 -0.00000000000E+00  0.00000000000E+00  0.35950838081E+02  0.36256761559E+02  0.47000000000E+01 0.  1.
          5   -1    0    0  501    0  0.00000000000E+00 -0.00000000000E+00 -0.17444315006E+04  0.17444378322E+04  0.47000000000E+01 0. -1.
          6    1    1    2  502    0 -0.95613038665E+01  0.58672413943E+01 -0.15014153668E+04  0.15112769259E+04  0.17200000000E+03 0. -1.
         -6    1    1    2    0  502  0.95613038665E+01 -0.58672413943E+01 -0.20706529573E+03  0.26941766785E+03  0.17200000000E+03 0.  1.
</event>
<event>
 4    1 -0.7151877E-004  0.2051103E+03  0.7818608E-02  0.1145498E+00
         -5   -1    0    0    0  501 -0.00000000000E+00  0.00000000000E+00  0.16742852023E+03  0.16749447569E+03  0.47000000000E+01 0.  1.
          5   -1    0    0  501    0  0.00000000000E+00 -0.00000000000E+00 -0.45827310110E+03  0.45829720182E+03  0.47000000000E+01 0. -1.
          6    1    1    2  502    0 -0.10637197023E+03 -0.34223607864E+02 -0.35576124787E+03  0.41065352412E+03  0.17200000000E+03 0. -1.
         -6    1    1    2    0  502  0.10637197023E+03  0.34223607864E+02  0.64916666997E+02  0.21513815338E+03  0.17200000000E+03 0.  1.
</event>
<event>
 4    1 -0.7151877E-004  0.1886516E+03  0.7818608E-02  0.1159683E+00
         -5   -1    0    0    0  501 -0.00000000000E+00  0.00000000000E+00  0.17534723704E+03  0.17541021503E+03  0.47000000000E+01 0.  1.
          5   -1    0    0  501    0  0.00000000000E+00 -0.00000000000E+00 -0.22122015758E+03  0.22127007959E+03  0.47000000000E+01 0. -1.
          6    1    1    2  502    0  0.35600186963E+02  0.68833419455E+02 -0.80094223278E+02  0.20494998792E+03  0.17200000000E+03 0. -1.
         -6    1    1    2    0  502 -0.35600186963E+02 -0.68833419455E+02  0.34221302738E+02  0.19173030670E+03  0.17200000000E+03 0.  1.
</event>
<event>
 4    1 -0.7151877E-004  0.1935684E+03  0.7818608E-02  0.1155282E+00
         -5   -1    0    0    0  501 -0.00000000000E+00  0.00000000000E+00  0.13880551763E+03  0.13888506660E+03  0.47000000000E+01 0.  1.
          5   -1    0    0  501    0  0.00000000000E+00 -0.00000000000E+00 -0.38135905515E+03  0.38138801625E+03  0.47000000000E+01 0. -1.
          6    1    1    2  502    0  0.83152429746E+02 -0.31151138040E+02 -0.26197882104E+03  0.32573244028E+03  0.17200000000E+03 0.  1.
         -6    1    1    2    0  502 -0.83152429746E+02  0.31151138040E+02  0.19425283526E+02  0.19454064258E+03  0.17200000000E+03 0.  1.
</event>
<event>
 4    1 -0.7151877E-004  0.1773798E+03  0.7818608E-02  0.1170363E+00
          5   -1    0    0  501    0  0.00000000000E+00  0.00000000000E+00  0.78883309905E+03  0.78884710062E+03  0.47000000000E+01 0. -1.
         -5   -1    0    0    0  501 -0.00000000000E+00 -0.00000000000E+00 -0.50936254471E+02  0.51152634532E+02  0.47000000000E+01 0.  1.
          6    1    1    2  502    0 -0.39097732197E+02 -0.18734218075E+02  0.56541618269E+03  0.59258675587E+03  0.17200000000E+03 0. -1.
         -6    1    1    2    0  502  0.39097732197E+02  0.18734218075E+02  0.17248066189E+03  0.24741297928E+03  0.17200000000E+03 0.  1.
</event>
<event>
 4    1 -0.7151877E-004  0.2279534E+03  0.7818608E-02  0.1128089E+00
         -5   -1    0    0    0  501 -0.00000000000E+00  0.00000000000E+00  0.20066311238E+04  0.20066366281E+04  0.47000000000E+01 0.  1.
          5   -1    0    0  501    0  0.00000000000E+00 -0.00000000000E+00 -0.60503615488E+02  0.60685891994E+02  0.47000000000E+01 0. -1.
          6    1    1    2  502    0  0.14943005276E+03 -0.70291791912E+01  0.19083165974E+03  0.29728685202E+03  0.17200000000E+03 0. -1.
         -6    1    1    2    0  502 -0.14943005276E+03  0.70291791912E+01  0.17552958486E+04  0.17700356680E+04  0.17200000000E+03 0.  1.
</event>
<event>
 4    1 -0.7151877E-004  0.2181045E+03  0.7818608E-02  0.1135304E+00
          5   -1    0    0  501    0  0.00000000000E+00  0.00000000000E+00  0.35005526260E+02  0.35319638570E+02  0.47000000000E+01 0. -1.
         -5   -1    0    0    0  501 -0.00000000000E+00 -0.00000000000E+00 -0.13528828017E+04  0.13528909657E+04  0.47000000000E+01 0.  1.
          6    1    1    2  502    0  0.37448139097E+02  0.12877585515E+03 -0.64770730220E+03  0.68344299932E+03  0.17200000000E+03 0.  1.
         -6    1    1    2    0  502 -0.37448139097E+02 -0.12877585515E+03 -0.67016997322E+03  0.70476760496E+03  0.17200000000E+03 0.  1.
</event>
<event>
 4    1 -0.7151877E-004  0.2042343E+03  0.7818608E-02  0.1146215E+00
         -5   -1    0    0    0  501 -0.00000000000E+00  0.00000000000E+00  0.18584785957E+03  0.18590728040E+03  0.47000000000E+01 0.  1.
          5   -1    0    0  501    0  0.00000000000E+00 -0.00000000000E+00 -0.23240002217E+03  0.23244754312E+03  0.47000000000E+01 0. -1.
          6    1    1    2  502    0 -0.51474390736E+02  0.97355112651E+02  0.15718930526E+02  0.20483826703E+03  0.17200000000E+03 0.  1.
         -6    1    1    2    0  502  0.51474390736E+02 -0.97355112651E+02 -0.62271093121E+02  0.21351655650E+03  0.17200000000E+03 0. -1.
</event>
<event>
 4    1 -0.7151877E-004  0.2938973E+03  0.7818608E-02  0.1088332E+00
          5   -1    0    0  501    0  0.00000000000E+00  0.00000000000E+00  0.11298266690E+03  0.11308038301E+03  0.47000000000E+01 0. -1.
         -5   -1    0    0    0  501 -0.00000000000E+00 -0.00000000000E+00 -0.13813827340E+04  0.13813907296E+04  0.47000000000E+01 0.  1.
          6    1    1    2  502    0  0.23669813686E+03  0.27670122818E+02 -0.13469866573E+03  0.32329456265E+03  0.17200000000E+03 0. -1.
         -6    1    1    2    0  502 -0.23669813686E+03 -0.27670122818E+02 -0.11337014014E+04  0.11711765500E+04  0.17200000000E+03 0.  1.
</event>
<event>
 4    1 -0.7151877E-004  0.1836339E+03  0.7818608E-02  0.1164332E+00
          5   -1    0    0  501    0  0.00000000000E+00  0.00000000000E+00  0.71245597777E+03  0.71247148032E+03  0.47000000000E+01 0. -1.
         -5   -1    0    0    0  501 -0.00000000000E+00 -0.00000000000E+00 -0.73684103844E+02  0.73833848331E+02  0.47000000000E+01 0.  1.
          6    1    1    2  502    0  0.63809877299E+02  0.81066432548E+01  0.55476605788E+03  0.58436871672E+03  0.17200000000E+03 0. -1.
         -6    1    1    2    0  502 -0.63809877299E+02 -0.81066432548E+01  0.84005816046E+02  0.20193661192E+03  0.17200000000E+03 0.  1.
</event>
<event>
 4    1 -0.7151877E-004  0.2321621E+03  0.7818608E-02  0.1125127E+00
         -5   -1    0    0    0  501 -0.00000000000E+00  0.00000000000E+00  0.13631677304E+03  0.13639777349E+03  0.47000000000E+01 0.  1.
          5   -1    0    0  501    0  0.00000000000E+00 -0.00000000000E+00 -0.42931505137E+03  0.42934077763E+03  0.47000000000E+01 0. -1.
          6    1    1    2  502    0 -0.80966760794E+02  0.13326517239E+03 -0.22624630670E+03  0.32417065540E+03  0.17200000000E+03 0. -1.
         -6    1    1    2    0  502  0.80966760794E+02 -0.13326517239E+03 -0.66751971626E+02  0.24156789572E+03  0.17200000000E+03 0. -1.
</event>
<event>
 4    1 -0.7151877E-004  0.2014559E+03  0.7818608E-02  0.1148516E+00
          5   -1    0    0  501    0  0.00000000000E+00  0.00000000000E+00  0.41335251855E+03  0.41337923822E+03  0.47000000000E+01 0. -1.
         -5   -1    0    0    0  501 -0.00000000000E+00 -0.00000000000E+00 -0.10382234588E+03  0.10392867508E+03  0.47000000000E+01 0.  1.
          6    1    1    2  502    0 -0.75483846425E+02  0.72819387263E+02  0.21546246340E+03  0.29497211286E+03  0.17200000000E+03 0.  1.
         -6    1    1    2    0  502  0.75483846425E+02 -0.72819387263E+02  0.94067709268E+02  0.22233580044E+03  0.17200000000E+03 0.  1.
</event>
<event>
 4    1 -0.7151877E-004  0.1940590E+03  0.7818608E-02  0.1154850E+00
          5   -1    0    0  501    0  0.00000000000E+00  0.00000000000E+00  0.92108682326E+02  0.92228517065E+02  0.47000000000E+01 0. -1.
         -5   -1    0    0    0  501 -0.00000000000E+00 -0.00000000000E+00 -0.11955464302E+04  0.11955556686E+04  0.47000000000E+01 0.  1.
          6    1    1    2  502    0 -0.50733429119E+02  0.74168849237E+02 -0.29301329849E+02  0.19625867359E+03  0.17200000000E+03 0. -1.
         -6    1    1    2    0  502  0.50733429119E+02 -0.74168849237E+02 -0.10741364180E+04  0.10915255121E+04  0.17200000000E+03 0.  1.
</event>
<event>
 4    1 -0.7151877E-004  0.2064948E+03  0.7818608E-02  0.1144372E+00
         -5   -1    0    0    0  501 -0.00000000000E+00  0.00000000000E+00  0.80814469119E+02  0.80951024818E+02  0.47000000000E+01 0.  1.
          5   -1    0    0  501    0  0.00000000000E+00 -0.00000000000E+00 -0.16139798626E+04  0.16139867059E+04  0.47000000000E+01 0. -1.
          6    1    1    2  502    0  0.96041896500E+02  0.61903667505E+02 -0.14620196593E+04  0.14765302551E+04  0.17200000000E+03 0. -1.
         -6    1    1    2    0  502 -0.96041896500E+02 -0.61903667505E+02 -0.71145734167E+02  0.21840747566E+03  0.17200000000E+03 0.  1.
</event>
<event>
 4    1 -0.7151877E-004  0.2055814E+03  0.7818608E-02  0.1145114E+00
          5   -1    0    0  501    0  0.00000000000E+00  0.00000000000E+00  0.43326246928E+03  0.43328796116E+03  0.47000000000E+01 0. -1.
         -5   -1    0    0    0  501 -0.00000000000E+00 -0.00000000000E+00 -0.48675337366E+03  0.48677606429E+03  0.47000000000E+01 0.  1.
          6    1    1    2  502    0 -0.84184000061E+02 -0.74784748818E+02  0.38462106330E+03  0.43611588696E+03  0.17200000000E+03 0. -1.
         -6    1    1    2    0  502  0.84184000061E+02  0.74784748818E+02 -0.43811196768E+03  0.48394813849E+03  0.17200000000E+03 0.  1.
</event>
<event>
 4    1 -0.7151877E-004  0.1825499E+03  0.7818608E-02  0.1165358E+00
          5   -1    0    0  501    0  0.00000000000E+00  0.00000000000E+00  0.39020018466E+03  0.39022848962E+03  0.47000000000E+01 0. -1.
         -5   -1    0    0    0  501 -0.00000000000E+00 -0.00000000000E+00 -0.43349344174E+03  0.43351892003E+03  0.47000000000E+01 0.  1.
          6    1    1    2  502    0 -0.52427922994E+02 -0.31492755912E+02  0.34743759583E+03  0.39247594039E+03  0.17200000000E+03 0. -1.
         -6    1    1    2    0  502  0.52427922994E+02  0.31492755912E+02 -0.39073085291E+03  0.43127146926E+03  0.17200000000E+03 0.  1.
</event>
<event>
 4    1 -0.7151877E-004  0.1930248E+03  0.7818608E-02  0.1155761E+00
          5   -1    0    0  501    0  0.00000000000E+00  0.00000000000E+00  0.15188928573E+03  0.15196198577E+03  0.47000000000E+01 0. -1.
         -5   -1    0    0    0  501 -0.00000000000E+00 -0.00000000000E+00 -0.11984309565E+04  0.11984401726E+04  0.47000000000E+01 0.  1.
          6    1    1    2  502    0  0.83905098269E+02  0.25189557194E+02  0.78899939950E+02  0.20852764764E+03  0.17200000000E+03 0. -1.
         -6    1    1    2    0  502 -0.83905098269E+02 -0.25189557194E+02 -0.11254416107E+04  0.11418745108E+04  0.17200000000E+03 0.  1.
</event>
<event>
 4    1 -0.7151877E-004  0.1905327E+03  0.7818608E-02  0.1157982E+00
          5   -1    0    0  501    0  0.00000000000E+00  0.00000000000E+00  0.87622664275E+03  0.87623924785E+03  0.47000000000E+01 0. -1.
         -5   -1    0    0    0  501 -0.00000000000E+00 -0.00000000000E+00 -0.68253122301E+02  0.68414755016E+02  0.47000000000E+01 0.  1.
          6    1    1    2  502    0 -0.77603311059E+02  0.26390012700E+02  0.70039528154E+03  0.72584864611E+03  0.17200000000E+03 0. -1.
         -6    1    1    2    0  502  0.77603311059E+02 -0.26390012700E+02  0.10757823892E+03  0.21880535676E+03  0.17200000000E+03 0.  1.
</event>
<event>
 4    1 -0.7151877E-004  0.1809931E+03  0.7818608E-02  0.1166845E+00
          5   -1    0    0  501    0  0.00000000000E+00  0.00000000000E+00  0.36311813178E+03  0.36314854761E+03  0.47000000000E+01 0. -1.
         -5   -1    0    0    0  501 -0.00000000000E+00 -0.00000000000E+00 -0.10071559566E+03  0.10082520126E+03  0.47000000000E+01 0.  1.
          6    1    1    2  502    0  0.51799535156E+02 -0.22165310040E+02  0.20639521574E+03  0.27451316524E+03  0.17200000000E+03 0. -1.
         -6    1    1    2    0  502 -0.51799535156E+02  0.22165310040E+02  0.56007320386E+02  0.18946058363E+03  0.17200000000E+03 0.  1.
</event>
<event>
 4    1 -0.7151877E-004  0.2205251E+03  0.7818608E-02  0.1133492E+00
         -5   -1    0    0    0  501 -0.00000000000E+00  0.00000000000E+00  0.14718963906E+03  0.14726465919E+03  0.47000000000E+01 0.  1.
          5   -1    0    0  501    0  0.00000000000E+00 -0.00000000000E+00 -0.41035031400E+03  0.41037722915E+03  0.47000000000E+01 0. -1.
          6    1    1    2  502    0  0.55571737523E+02 -0.12632927312E+03 -0.25477234876E+03  0.33695734589E+03  0.17200000000E+03 0. -1.
         -6    1    1    2    0  502 -0.55571737523E+02  0.12632927312E+03 -0.83883261835E+01  0.22068454244E+03  0.17200000000E+03 0.  1.
</event>
<event>
 4    1 -0.7151877E-004  0.1791074E+03  0.7818608E-02  0.1168670E+00
          5   -1    0    0  501    0  0.00000000000E+00  0.00000000000E+00  0.54284517599E+03  0.54286552211E+03  0.47000000000E+01 0. -1.
         -5   -1    0    0    0  501 -0.00000000000E+00 -0.00000000000E+00 -0.10402972416E+03  0.10413584161E+03  0.47000000000E+01 0.  1.
          6    1    1    2  502    0 -0.10199180722E+02 -0.48902489243E+02  0.43212059687E+03  0.46776883926E+03  0.17200000000E+03 0. -1.
         -6    1    1    2    0  502  0.10199180722E+02  0.48902489243E+02  0.66948549623E+01  0.17923252446E+03  0.17200000000E+03 0.  1.
</event>
<event>
 4    1 -0.7151877E-004  0.1723994E+03  0.7818608E-02  0.1175369E+00
         -5   -1    0    0    0  501 -0.00000000000E+00  0.00000000000E+00  0.35363567215E+03  0.35366690348E+03  0.47000000000E+01 0.  1.
          5   -1    0    0  501    0  0.00000000000E+00 -0.00000000000E+00 -0.52321187236E+03  0.52323298193E+03  0.47000000000E+01 0. -1.
          6    1    1    2  502    0  0.74252594592E+01 -0.90776320582E+01 -0.48648718630E+03  0.51613110768E+03  0.17200000000E+03 0. -1.
         -6    1    1    2    0  502 -0.74252594592E+01  0.90776320582E+01  0.31691098609E+03  0.36076877773E+03  0.17200000000E+03 0.  1.
</event>
<event>
 4    1 -0.7151877E-004  0.1768191E+03  0.7818608E-02  0.1170918E+00
          5   -1    0    0  501    0  0.00000000000E+00  0.00000000000E+00  0.35601039357E+02  0.35909942959E+02  0.47000000000E+01 0. -1.
         -5   -1    0    0    0  501 -0.00000000000E+00 -0.00000000000E+00 -0.10836991960E+04  0.10837093879E+04  0.47000000000E+01 0.  1.
          6    1    1    2  502    0  0.30092980285E+02  0.27846045826E+02 -0.27788697927E+03  0.32937237738E+03  0.17200000000E+03 0. -1.
         -6    1    1    2    0  502 -0.30092980285E+02 -0.27846045826E+02 -0.77021117735E+03  0.79024695346E+03  0.17200000000E+03 0.  1.
</event>
<event>
 4    1 -0.7151877E-004  0.1777178E+03  0.7818608E-02  0.1170030E+00
          5   -1    0    0  501    0  0.00000000000E+00  0.00000000000E+00  0.17438418012E+02  0.18060687218E+02  0.47000000000E+01 0. -1.
         -5   -1    0    0    0  501 -0.00000000000E+00 -0.00000000000E+00 -0.19525411366E+04  0.19525467933E+04  0.47000000000E+01 0.  1.
          6    1    1    2  502    0  0.44704846880E+02 -0.10507482451E+01 -0.67366589584E+03  0.69671325998E+03  0.17200000000E+03 0. -1.
         -6    1    1    2    0  502 -0.44704846880E+02  0.10507482451E+01 -0.12614368227E+04  0.12738942205E+04  0.17200000000E+03 0.  1.
</event>
<event>
 4    1 -0.7151877E-004  0.1925205E+03  0.7818608E-02  0.1156207E+00
         -5   -1    0    0    0  501 -0.00000000000E+00  0.00000000000E+00  0.98703189942E+02  0.98815027728E+02  0.47000000000E+01 0.  1.
          5   -1    0    0  501    0  0.00000000000E+00 -0.00000000000E+00 -0.53848170235E+03  0.53850221334E+03  0.47000000000E+01 0. -1.
          6    1    1    2  502    0  0.41389916345E+02 -0.75940814130E+02 -0.39535457153E+03  0.43973784196E+03  0.17200000000E+03 0. -1.
         -6    1    1    2    0  502 -0.41389916345E+02  0.75940814130E+02 -0.44423940881E+02  0.19757939910E+03  0.17200000000E+03 0.  1.
</event>
<event>
 4    1 -0.7151877E-004  0.2700008E+03  0.7818608E-02  0.1101279E+00
          5   -1    0    0  501    0  0.00000000000E+00  0.00000000000E+00  0.98243896320E+03  0.98245020556E+03  0.47000000000E+01 0. -1.
         -5   -1    0    0    0  501 -0.00000000000E+00 -0.00000000000E+00 -0.33149975338E+03  0.33153306998E+03  0.47000000000E+01 0.  1.
          6    1    1    2  502    0  0.45148330779E+02 -0.20317000212E+03  0.90428568337E+03  0.94373355280E+03  0.17200000000E+03 0. -1.
         -6    1    1    2    0  502 -0.45148330779E+02  0.20317000212E+03 -0.25334647355E+03  0.37024972275E+03  0.17200000000E+03 0.  1.
</event>
<event>
 4    1 -0.7151877E-004  0.2231471E+03  0.7818608E-02  0.1131558E+00
          5   -1    0    0  501    0  0.00000000000E+00  0.00000000000E+00  0.14045186382E+03  0.14053048086E+03  0.47000000000E+01 0. -1.
         -5   -1    0    0    0  501 -0.00000000000E+00 -0.00000000000E+00 -0.80693883472E+03  0.80695252214E+03  0.47000000000E+01 0.  1.
          6    1    1    2  502    0 -0.14526711839E+02 -0.14142001136E+03  0.21530233565E+02  0.22418339798E+03  0.17200000000E+03 0. -1.
         -6    1    1    2    0  502  0.14526711839E+02  0.14142001136E+03 -0.68801720447E+03  0.72329960502E+03  0.17200000000E+03 0.  1.
</event>
<event>
 4    1 -0.7151877E-004  0.2129119E+03  0.7818608E-02  0.1139281E+00
          5   -1    0    0  501    0  0.00000000000E+00  0.00000000000E+00  0.23093127584E+03  0.23097909897E+03  0.47000000000E+01 0. -1.
         -5   -1    0    0    0  501 -0.00000000000E+00 -0.00000000000E+00 -0.42208472176E+03  0.42211088868E+03  0.47000000000E+01 0.  1.
          6    1    1    2  502    0 -0.88889695203E+02 -0.88578124749E+02  0.14328068368E+03  0.25663362292E+03  0.17200000000E+03 0. -1.
         -6    1    1    2    0  502  0.88889695203E+02  0.88578124749E+02 -0.33443412960E+03  0.39645636474E+03  0.17200000000E+03 0.  1.
</event>
<event>
 4    1 -0.7151877E-004  0.1826629E+03  0.7818608E-02  0.1165251E+00
         -5   -1    0    0    0  501 -0.00000000000E+00  0.00000000000E+00  0.18172520118E+03  0.18178596960E+03  0.47000000000E+01 0.  1.
          5   -1    0    0  501    0  0.00000000000E+00 -0.00000000000E+00 -0.51555053009E+03  0.51557195335E+03  0.47000000000E+01 0. -1.
          6    1    1    2  502    0  0.61486539227E+02  0.10603143938E+01 -0.44672060400E+03  0.48262305873E+03  0.17200000000E+03 0. -1.
         -6    1    1    2    0  502 -0.61486539227E+02 -0.10603143938E+01  0.11289527509E+03  0.21473486422E+03  0.17200000000E+03 0.  1.
</event>
<event>
 4    1 -0.7151877E-004  0.4647224E+03  0.7818608E-02  0.1023420E+00
          5   -1    0    0  501    0  0.00000000000E+00  0.00000000000E+00  0.58642450029E+03  0.58644333447E+03  0.47000000000E+01 0. -1.
         -5   -1    0    0    0  501 -0.00000000000E+00 -0.00000000000E+00 -0.84000101480E+03  0.84001416349E+03  0.47000000000E+01 0.  1.
          6    1    1    2  502    0 -0.31469305136E+03 -0.29555242088E+03  0.40770292765E+03  0.61821406267E+03  0.17200000000E+03 0. -1.
         -6    1    1    2    0  502  0.31469305136E+03  0.29555242088E+03 -0.66127944216E+03  0.80824343529E+03  0.17200000000E+03 0.  1.
</event>
<event>
 4    1 -0.7151877E-004  0.1973638E+03  0.7818608E-02  0.1151982E+00
          5   -1    0    0  501    0  0.00000000000E+00  0.00000000000E+00  0.15926609654E+04  0.15926679004E+04  0.47000000000E+01 0. -1.
         -5   -1    0    0    0  501 -0.00000000000E+00 -0.00000000000E+00 -0.24564591174E+02  0.25010180718E+02  0.47000000000E+01 0.  1.
          6    1    1    2  502    0  0.82202358541E+02  0.51100204706E+02  0.87833242659E+03  0.90023347542E+03  0.17200000000E+03 0. -1.
         -6    1    1    2    0  502 -0.82202358541E+02 -0.51100204706E+02  0.68976394768E+03  0.71744460566E+03  0.17200000000E+03 0. -1.
</event>
<event>
 4    1 -0.7151877E-004  0.2691792E+03  0.7818608E-02  0.1101750E+00
         -5   -1    0    0    0  501 -0.00000000000E+00  0.00000000000E+00  0.18078600686E+03  0.18084709087E+03  0.47000000000E+01 0.  1.
          5   -1    0    0  501    0  0.00000000000E+00 -0.00000000000E+00 -0.43910811510E+03  0.43913326764E+03  0.47000000000E+01 0. -1.
          6    1    1    2  502    0 -0.20295571091E+02 -0.20606191641E+03 -0.22089312874E+03  0.34821142705E+03  0.17200000000E+03 0. -1.
         -6    1    1    2    0  502  0.20295571091E+02  0.20606191641E+03 -0.37428979493E+02  0.27176893146E+03  0.17200000000E+03 0.  1.
</event>
<event>
 4    1 -0.7151877E-004  0.1734543E+03  0.7818608E-02  0.1174293E+00
          5   -1    0    0  501    0  0.00000000000E+00  0.00000000000E+00  0.38733406057E+03  0.38736257496E+03  0.47000000000E+01 0. -1.
         -5   -1    0    0    0  501 -0.00000000000E+00 -0.00000000000E+00 -0.32502368686E+03  0.32505766722E+03  0.47000000000E+01 0.  1.
          6    1    1    2  502    0  0.22126435650E+02 -0.35795856897E+01  0.34190803027E+03  0.38338948049E+03  0.17200000000E+03 0. -1.
         -6    1    1    2    0  502 -0.22126435650E+02  0.35795856897E+01 -0.27959765656E+03  0.32903076169E+03  0.17200000000E+03 0.  1.
</event>
<event>
 4    1 -0.7151877E-004  0.2585314E+03  0.7818608E-02  0.1108029E+00
         -5   -1    0    0    0  501 -0.00000000000E+00  0.00000000000E+00  0.63394213658E+02  0.63568202156E+02  0.47000000000E+01 0.  1.
          5   -1    0    0  501    0  0.00000000000E+00 -0.00000000000E+00 -0.13448724200E+04  0.13448806327E+04  0.47000000000E+01 0. -1.
          6    1    1    2  502    0  0.11910416563E+03 -0.15188375017E+03 -0.96895189971E+03  0.10028490713E+04  0.17200000000E+03 0. -1.
         -6    1    1    2    0  502 -0.11910416563E+03  0.15188375017E+03 -0.31252630667E+03  0.40559976355E+03  0.17200000000E+03 0.  1.
</event>
<event>
 4    1 -0.7151877E-004  0.3003713E+03  0.7818608E-02  0.1085055E+00
         -5   -1    0    0    0  501 -0.00000000000E+00  0.00000000000E+00  0.99318249218E+02  0.99429395190E+02  0.47000000000E+01 0.  1.
          5   -1    0    0  501    0  0.00000000000E+00 -0.00000000000E+00 -0.11066364890E+04  0.11066464697E+04  0.47000000000E+01 0. -1.
          6    1    1    2  502    0  0.13146111250E+03  0.20822318575E+03 -0.75926412107E+03  0.81652000878E+03  0.17200000000E+03 0. -1.
         -6    1    1    2    0  502 -0.13146111250E+03 -0.20822318575E+03 -0.24805411872E+03  0.38955585607E+03  0.17200000000E+03 0.  1.
</event>
<event>
 4    1 -0.7151877E-004  0.1947899E+03  0.7818608E-02  0.1154211E+00
          5   -1    0    0  501    0  0.00000000000E+00  0.00000000000E+00  0.28567609366E+02  0.28951654614E+02  0.47000000000E+01 0. -1.
         -5   -1    0    0    0  501 -0.00000000000E+00 -0.00000000000E+00 -0.13722411876E+04  0.13722492365E+04  0.47000000000E+01 0.  1.
          6    1    1    2  502    0  0.89248645746E+02  0.19844180393E+02 -0.53376605415E+03  0.56819830414E+03  0.17200000000E+03 0.  1.
         -6    1    1    2    0  502 -0.89248645746E+02 -0.19844180393E+02 -0.80990752409E+03  0.83300258693E+03  0.17200000000E+03 0.  1.
</event>
<event>
 4    1 -0.7151877E-004  0.1723736E+03  0.7818608E-02  0.1175395E+00
          5   -1    0    0  501    0  0.00000000000E+00  0.00000000000E+00  0.12636347546E+03  0.12645085183E+03  0.47000000000E+01 0. -1.
         -5   -1    0    0    0  501 -0.00000000000E+00 -0.00000000000E+00 -0.33297910797E+03  0.33301227657E+03  0.47000000000E+01 0.  1.
          6    1    1    2  502    0 -0.10906145968E+02 -0.31187656238E+01  0.21321155560E+02  0.17368725455E+03  0.17200000000E+03 0. -1.
         -6    1    1    2    0  502  0.10906145968E+02  0.31187656238E+01 -0.22793678808E+03  0.28577587385E+03  0.17200000000E+03 0.  1.
</event>
<event>
 4    1 -0.7151877E-004  0.1767437E+03  0.7818608E-02  0.1170992E+00
         -5   -1    0    0    0  501 -0.00000000000E+00  0.00000000000E+00  0.74175376985E+02  0.74324131686E+02  0.47000000000E+01 0.  1.
          5   -1    0    0  501    0  0.00000000000E+00 -0.00000000000E+00 -0.55661595309E+03  0.55663579586E+03  0.47000000000E+01 0. -1.
          6    1    1    2  502    0  0.31868188945E+02 -0.25273447290E+02 -0.39717171030E+03  0.43472255068E+03  0.17200000000E+03 0. -1.
         -6    1    1    2    0  502 -0.31868188945E+02  0.25273447290E+02 -0.85268865802E+02  0.19623737687E+03  0.17200000000E+03 0.  1.
</event>
<event>
 4    1 -0.7151877E-004  0.1746891E+03  0.7818608E-02  0.1173044E+00
         -5   -1    0    0    0  501 -0.00000000000E+00  0.00000000000E+00  0.22411982694E+04  0.22412031976E+04  0.47000000000E+01 0.  1.
          5   -1    0    0  501    0  0.00000000000E+00 -0.00000000000E+00 -0.61950995245E+02  0.62129025518E+02  0.47000000000E+01 0. -1.
          6    1    1    2  502    0 -0.17012706044E+02  0.25354311934E+02  0.72144026045E+02  0.18900008940E+03  0.17200000000E+03 0. -1.
         -6    1    1    2    0  502  0.17012706044E+02 -0.25354311934E+02  0.21071032481E+04  0.21143321337E+04  0.17200000000E+03 0.  1.
</event>
<event>
 4    1 -0.7151877E-004  0.2922183E+03  0.7818608E-02  0.1089197E+00
         -5   -1    0    0    0  501 -0.00000000000E+00  0.00000000000E+00  0.98108811750E+03  0.98109937534E+03  0.47000000000E+01 0.  1.
          5   -1    0    0  501    0  0.00000000000E+00 -0.00000000000E+00 -0.20501092869E+03  0.20506479678E+03  0.47000000000E+01 0. -1.
          6    1    1    2  502    0  0.29534642060E+02 -0.23438271267E+03 -0.61895579743E+02  0.29870154648E+03  0.17200000000E+03 0. -1.
         -6    1    1    2    0  502 -0.29534642060E+02  0.23438271267E+03  0.83797276856E+03  0.88746262565E+03  0.17200000000E+03 0.  1.
</event>
<event>
 4    1 -0.7151877E-004  0.1798920E+03  0.7818608E-02  0.1167908E+00
          5   -1    0    0  501    0  0.00000000000E+00  0.00000000000E+00  0.83147134511E+02  0.83279865378E+02  0.47000000000E+01 0. -1.
         -5   -1    0    0    0  501 -0.00000000000E+00 -0.00000000000E+00 -0.84751948897E+03  0.84753252102E+03  0.47000000000E+01 0.  1.
          6    1    1    2  502    0 -0.28960864537E+02 -0.44027185954E+02 -0.39799186270E+02  0.18424196049E+03  0.17200000000E+03 0. -1.
         -6    1    1    2    0  502  0.28960864537E+02  0.44027185954E+02 -0.72457316819E+03  0.74657042591E+03  0.17200000000E+03 0.  1.
</event>
<event>
 4    1 -0.7151877E-004  0.2272382E+03  0.7818608E-02  0.1128599E+00
         -5   -1    0    0    0  501 -0.00000000000E+00  0.00000000000E+00  0.44949749380E+03  0.44952206502E+03  0.47000000000E+01 0.  1.
          5   -1    0    0  501    0  0.00000000000E+00 -0.00000000000E+00 -0.21908374596E+03  0.21913415467E+03  0.47000000000E+01 0. -1.
          6    1    1    2  502    0 -0.13792050562E+03 -0.55055886526E+02 -0.11540161089E+03  0.25486221436E+03  0.17200000000E+03 0. -1.
         -6    1    1    2    0  502  0.13792050562E+03  0.55055886526E+02  0.34581535873E+03  0.41379400533E+03  0.17200000000E+03 0.  1.
</event>
<event>
 4    1 -0.7151877E-004  0.2576209E+03  0.7818608E-02  0.1108581E+00
         -5   -1    0    0    0  501 -0.00000000000E+00  0.00000000000E+00  0.41165536774E+03  0.41168219756E+03  0.47000000000E+01 0.  1.
          5   -1    0    0  501    0  0.00000000000E+00 -0.00000000000E+00 -0.10325892100E+04  0.10325999064E+04  0.47000000000E+01 0. -1.
          6    1    1    2  502    0 -0.82261324898E+02 -0.17325592006E+03 -0.97384486012E+03  0.10073442068E+04  0.17200000000E+03 0. -1.
         -6    1    1    2    0  502  0.82261324898E+02  0.17325592006E+03  0.35291101785E+03  0.43693789711E+03  0.17200000000E+03 0.  1.
</event>
<event>
 4    1 -0.7151877E-004  0.2046110E+03  0.7818608E-02  0.1145906E+00
         -5   -1    0    0    0  501 -0.00000000000E+00  0.00000000000E+00  0.19440864348E+03  0.19446544850E+03  0.47000000000E+01 0.  1.
          5   -1    0    0  501    0  0.00000000000E+00 -0.00000000000E+00 -0.45734059744E+03  0.45736474729E+03  0.47000000000E+01 0. -1.
          6    1    1    2  502    0  0.11018463681E+03  0.11875302464E+02 -0.36857178893E+03  0.42155763614E+03  0.17200000000E+03 0. -1.
         -6    1    1    2    0  502 -0.11018463681E+03 -0.11875302464E+02  0.10563983496E+03  0.23027255965E+03  0.17200000000E+03 0.  1.
</event>
<event>
 4    1 -0.7151877E-004  0.1723277E+03  0.7818608E-02  0.1175442E+00
          5   -1    0    0  501    0  0.00000000000E+00  0.00000000000E+00  0.93660609007E+02  0.93778460638E+02  0.47000000000E+01 0. -1.
         -5   -1    0    0    0  501 -0.00000000000E+00 -0.00000000000E+00 -0.42404279664E+03  0.42406884274E+03  0.47000000000E+01 0.  1.
          6    1    1    2  502    0 -0.63970681296E+01  0.84809438967E+01 -0.34961864552E+02  0.17583850791E+03  0.17200000000E+03 0. -1.
         -6    1    1    2    0  502  0.63970681296E+01 -0.84809438967E+01 -0.29542032308E+03  0.34200879547E+03  0.17200000000E+03 0.  1.
</event>
<event>
 4    1 -0.7151877E-004  0.1920043E+03  0.7818608E-02  0.1156666E+00
          5   -1    0    0  501    0  0.00000000000E+00  0.00000000000E+00  0.10465083330E+04  0.10465188871E+04  0.47000000000E+01 0. -1.
         -5   -1    0    0    0  501 -0.00000000000E+00 -0.00000000000E+00 -0.41962436193E+02  0.42224827427E+02  0.47000000000E+01 0.  1.
          6    1    1    2  502    0 -0.51530718622E+01  0.85176833821E+02  0.72227920994E+03  0.74736397042E+03  0.17200000000E+03 0. -1.
         -6    1    1    2    0  502  0.51530718622E+01 -0.85176833821E+02  0.28226668690E+03  0.34137974413E+03  0.17200000000E+03 0.  1.
</event>
<event>
 4    1 -0.7151877E-004  0.2128619E+03  0.7818608E-02  0.1139319E+00
         -5   -1    0    0    0  501 -0.00000000000E+00  0.00000000000E+00  0.23471844586E+03  0.23476549752E+03  0.47000000000E+01 0.  1.
          5   -1    0    0  501    0  0.00000000000E+00 -0.00000000000E+00 -0.47814136013E+03  0.47816445943E+03  0.47000000000E+01 0. -1.
          6    1    1    2  502    0 -0.11405939579E+03  0.52121563142E+02 -0.39698888710E+03  0.45045574655E+03  0.17200000000E+03 0. -1.
         -6    1    1    2    0  502  0.11405939579E+03 -0.52121563142E+02  0.15356597284E+03  0.26247421040E+03  0.17200000000E+03 0.  1.
</event>
<event>
 4    1 -0.7151877E-004  0.2174448E+03  0.7818608E-02  0.1135803E+00
          5   -1    0    0  501    0  0.00000000000E+00  0.00000000000E+00  0.96995258067E+02  0.97109062850E+02  0.47000000000E+01 0. -1.
         -5   -1    0    0    0  501 -0.00000000000E+00 -0.00000000000E+00 -0.56462200629E+03  0.56464156771E+03  0.47000000000E+01 0.  1.
          6    1    1    2  502    0 -0.11245152469E+03  0.71083711141E+02 -0.11119320781E+03  0.24422565151E+03  0.17200000000E+03 0. -1.
         -6    1    1    2    0  502  0.11245152469E+03 -0.71083711141E+02 -0.35643354041E+03  0.41752497904E+03  0.17200000000E+03 0.  1.
</event>
<event>
 4    1 -0.7151877E-004  0.2120507E+03  0.7818608E-02  0.1139952E+00
          5   -1    0    0  501    0  0.00000000000E+00  0.00000000000E+00  0.24371400315E+03  0.24375931845E+03  0.47000000000E+01 0. -1.
         -5   -1    0    0    0  501 -0.00000000000E+00 -0.00000000000E+00 -0.43322376054E+03  0.43324925469E+03  0.47000000000E+01 0.  1.
          6    1    1    2  502    0 -0.57805023138E+02  0.10972738202E+03  0.16175388553E+03  0.26670177830E+03  0.17200000000E+03 0. -1.
         -6    1    1    2    0  502  0.57805023138E+02 -0.10972738202E+03 -0.35126364291E+03  0.41030679485E+03  0.17200000000E+03 0.  1.
</event>
<event>
 4    1 -0.7151877E-004  0.1753738E+03  0.7818608E-02  0.1172357E+00
         -5   -1    0    0    0  501 -0.00000000000E+00  0.00000000000E+00  0.18815079571E+03  0.18820948947E+03  0.47000000000E+01 0.  1.
          5   -1    0    0  501    0  0.00000000000E+00 -0.00000000000E+00 -0.37473350421E+03  0.37476297733E+03  0.47000000000E+01 0. -1.
          6    1    1    2  502    0 -0.26475032877E+01  0.34131717721E+02 -0.30467571558E+03  0.35154412965E+03  0.17200000000E+03 0. -1.
         -6    1    1    2    0  502  0.26475032877E+01 -0.34131717721E+02  0.11809300708E+03  0.21142833715E+03  0.17200000000E+03 0.  1.
</event>
<event>
 4    1 -0.7151877E-004  0.1829094E+03  0.7818608E-02  0.1165017E+00
          5   -1    0    0  501    0  0.00000000000E+00  0.00000000000E+00  0.30953484672E+03  0.30957052724E+03  0.47000000000E+01 0. -1.
         -5   -1    0    0    0  501 -0.00000000000E+00 -0.00000000000E+00 -0.16231486112E+03  0.16238289362E+03  0.47000000000E+01 0.  1.
          6    1    1    2  502    0 -0.42620834114E+00 -0.62222666861E+02  0.21007548223E+03  0.27854541848E+03  0.17200000000E+03 0. -1.
         -6    1    1    2    0  502  0.42620834114E+00  0.62222666861E+02 -0.62855496626E+02  0.19340800237E+03  0.17200000000E+03 0.  1.
</event>
<event>
 4    1 -0.7151877E-004  0.3424689E+03  0.7818608E-02  0.1065749E+00
          5   -1    0    0  501    0  0.00000000000E+00  0.00000000000E+00  0.69149370800E+03  0.69150968048E+03  0.47000000000E+01 0. -1.
         -5   -1    0    0    0  501 -0.00000000000E+00 -0.00000000000E+00 -0.11691178072E+04  0.11691272545E+04  0.47000000000E+01 0.  1.
          6    1    1    2  502    0  0.26310565480E+03  0.13592790553E+03  0.62138202622E+03  0.70950729637E+03  0.17200000000E+03 0. -1.
         -6    1    1    2    0  502 -0.26310565480E+03 -0.13592790553E+03 -0.10990061254E+04  0.11511296386E+04  0.17200000000E+03 0.  1.
</event>
<event>
 4    1 -0.7151877E-004  0.1877667E+03  0.7818608E-02  0.1160491E+00
          5   -1    0    0  501    0  0.00000000000E+00  0.00000000000E+00  0.10256285201E+04  0.10256392890E+04  0.47000000000E+01 0. -1.
         -5   -1    0    0    0  501 -0.00000000000E+00 -0.00000000000E+00 -0.18095764473E+03  0.18101867082E+03  0.47000000000E+01 0.  1.
          6    1    1    2  502    0  0.69560892859E+02  0.28872643787E+02  0.96535859067E+03  0.98344982382E+03  0.17200000000E+03 0. -1.
         -6    1    1    2    0  502 -0.69560892859E+02 -0.28872643787E+02 -0.12068771530E+03  0.22320813605E+03  0.17200000000E+03 0.  1.
</event>
<event>
 4    1 -0.7151877E-004  0.1724612E+03  0.7818608E-02  0.1175305E+00
         -5   -1    0    0    0  501 -0.00000000000E+00  0.00000000000E+00  0.25115102399E+04  0.25115146376E+04  0.47000000000E+01 0.  1.
          5   -1    0    0  501    0  0.00000000000E+00 -0.00000000000E+00 -0.24001842328E+02  0.24457686627E+02  0.47000000000E+01 0. -1.
          6    1    1    2  502    0 -0.12597509305E+02 -0.42472161275E+00  0.33705494285E+03  0.37861446371E+03  0.17200000000E+03 0. -1.
         -6    1    1    2    0  502  0.12597509305E+02  0.42472161275E+00  0.21504534547E+04  0.21573578606E+04  0.17200000000E+03 0.  1.
</event>
<event>
 4    1 -0.7151877E-004  0.2001524E+03  0.7818608E-02  0.1149610E+00
          5   -1    0    0  501    0  0.00000000000E+00  0.00000000000E+00  0.23415759683E+03  0.23420476117E+03  0.47000000000E+01 0. -1.
         -5   -1    0    0    0  501 -0.00000000000E+00 -0.00000000000E+00 -0.18993444381E+03  0.18999258655E+03  0.47000000000E+01 0.  1.
          6    1    1    2  502    0  0.48780754376E+02  0.89985662955E+02  0.89079368905E+02  0.21908015770E+03  0.17200000000E+03 0. -1.
         -6    1    1    2    0  502 -0.48780754376E+02 -0.89985662955E+02 -0.44856215882E+02  0.20511719001E+03  0.17200000000E+03 0. -1.
</event>
<event>
 4    1 -0.7151877E-004  0.1869328E+03  0.7818608E-02  0.1161257E+00
         -5   -1    0    0    0  501 -0.00000000000E+00  0.00000000000E+00  0.69310890042E+02  0.69470061742E+02  0.47000000000E+01 0.  1.
          5   -1    0    0  501    0  0.00000000000E+00 -0.00000000000E+00 -0.11642331852E+04  0.11642426721E+04  0.47000000000E+01 0. -1.
          6    1    1    2  502    0 -0.31496855733E+02 -0.66089471303E+02 -0.10121616227E+04  0.10292788838E+04  0.17200000000E+03 0. -1.
         -6    1    1    2    0  502  0.31496855733E+02  0.66089471303E+02 -0.82760672447E+02  0.20443385004E+03  0.17200000000E+03 0.  1.
</event>
<event>
 4    1 -0.7151877E-004  0.2351903E+03  0.7818608E-02  0.1123039E+00
          5   -1    0    0  501    0  0.00000000000E+00  0.00000000000E+00  0.87708786644E+03  0.87710045916E+03  0.47000000000E+01 0. -1.
         -5   -1    0    0    0  501 -0.00000000000E+00 -0.00000000000E+00 -0.51015728763E+03  0.51017893736E+03  0.47000000000E+01 0.  1.
          6    1    1    2  502    0  0.79711258866E+02  0.13919977201E+03  0.83281941103E+03  0.86539160656E+03  0.17200000000E+03 0. -1.
         -6    1    1    2    0  502 -0.79711258866E+02 -0.13919977201E+03 -0.46588883222E+03  0.52188778995E+03  0.17200000000E+03 0.  1.
</event>
<event>
 4    1 -0.7151877E-004  0.2259922E+03  0.7818608E-02  0.1129493E+00
         -5   -1    0    0    0  501 -0.00000000000E+00  0.00000000000E+00  0.60876503422E+03  0.60878317724E+03  0.47000000000E+01 0.  1.
          5   -1    0    0  501    0  0.00000000000E+00 -0.00000000000E+00 -0.25101873754E+03  0.25106273438E+03  0.47000000000E+01 0. -1.
          6    1    1    2  502    0  0.97070799266E+02  0.10984412657E+03 -0.17193963460E+03  0.28396427620E+03  0.17200000000E+03 0. -1.
         -6    1    1    2    0  502 -0.97070799266E+02 -0.10984412657E+03  0.52968593129E+03  0.57588163542E+03  0.17200000000E+03 0.  1.
</event>
<event>
 4    1 -0.7151877E-004  0.1901415E+03  0.7818608E-02  0.1158334E+00
          5   -1    0    0  501    0  0.00000000000E+00  0.00000000000E+00  0.70963068779E+03  0.70964625205E+03  0.47000000000E+01 0. -1.
         -5   -1    0    0    0  501 -0.00000000000E+00 -0.00000000000E+00 -0.12914424998E+03  0.12922974620E+03  0.47000000000E+01 0.  1.
          6    1    1    2  502    0 -0.26704262904E+02 -0.76528907866E+02  0.61667350304E+03  0.64532162582E+03  0.17200000000E+03 0. -1.
         -6    1    1    2    0  502  0.26704262904E+02  0.76528907866E+02 -0.36187065230E+02  0.19355437243E+03  0.17200000000E+03 0.  1.
</event>
<event>
 4    1 -0.7151877E-004  0.2408362E+03  0.7818608E-02  0.1119237E+00
         -5   -1    0    0    0  501 -0.00000000000E+00  0.00000000000E+00  0.30304943189E+03  0.30308587590E+03  0.47000000000E+01 0.  1.
          5   -1    0    0  501    0  0.00000000000E+00 -0.00000000000E+00 -0.10443622562E+04  0.10443728320E+04  0.47000000000E+01 0. -1.
          6    1    1    2  502    0 -0.16113747495E+03  0.49525528993E+02 -0.97953543375E+03  0.10087079507E+04  0.17200000000E+03 0. -1.
         -6    1    1    2    0  502  0.16113747495E+03 -0.49525528993E+02  0.23822260942E+03  0.33875075718E+03  0.17200000000E+03 0.  1.
</event>
<event>
 4    1 -0.7151877E-004  0.2113026E+03  0.7818608E-02  0.1140539E+00
          5   -1    0    0  501    0  0.00000000000E+00  0.00000000000E+00  0.52090982350E+03  0.52093102635E+03  0.47000000000E+01 0. -1.
         -5   -1    0    0    0  501 -0.00000000000E+00 -0.00000000000E+00 -0.11476865399E+03  0.11486485076E+03  0.47000000000E+01 0.  1.
          6    1    1    2  502    0  0.72738029782E+02  0.98863436404E+02  0.36317002880E+03  0.42016814474E+03  0.17200000000E+03 0. -1.
         -6    1    1    2    0  502 -0.72738029782E+02 -0.98863436404E+02  0.42971140702E+02  0.21562773237E+03  0.17200000000E+03 0.  1.
</event>
<event>
 4    1 -0.7151877E-004  0.2256229E+03  0.7818608E-02  0.1129759E+00
         -5   -1    0    0    0  501 -0.00000000000E+00  0.00000000000E+00  0.81743922470E+03  0.81745273630E+03  0.47000000000E+01 0.  1.
          5   -1    0    0  501    0  0.00000000000E+00 -0.00000000000E+00 -0.12249440117E+03  0.12258453539E+03  0.47000000000E+01 0. -1.
          6    1    1    2  502    0 -0.14538616384E+03  0.13585692928E+02  0.17835566184E+02  0.22632678832E+03  0.17200000000E+03 0. -1.
         -6    1    1    2    0  502  0.14538616384E+03 -0.13585692928E+02  0.67710925735E+03  0.71371048337E+03  0.17200000000E+03 0.  1.
</event>
<event>
 4    1 -0.7151877E-004  0.2452633E+03  0.7818608E-02  0.1116335E+00
         -5   -1    0    0    0  501 -0.00000000000E+00  0.00000000000E+00  0.45577125996E+03  0.45579549296E+03  0.47000000000E+01 0.  1.
          5   -1    0    0  501    0  0.00000000000E+00 -0.00000000000E+00 -0.12215974101E+04  0.12216064515E+04  0.47000000000E+01 0. -1.
          6    1    1    2  502    0  0.68408240928E+02 -0.16090497937E+03 -0.11750145355E+04  0.12003388098E+04  0.17200000000E+03 0. -1.
         -6    1    1    2    0  502 -0.68408240928E+02  0.16090497937E+03  0.40918838529E+03  0.47706313468E+03  0.17200000000E+03 0.  1.
</event>
<event>
 4    1 -0.7151877E-004  0.2179351E+03  0.7818608E-02  0.1135432E+00
          5   -1    0    0  501    0  0.00000000000E+00  0.00000000000E+00  0.48283515403E+03  0.48285802879E+03  0.47000000000E+01 0. -1.
         -5   -1    0    0    0  501 -0.00000000000E+00 -0.00000000000E+00 -0.40780717357E+03  0.40783425655E+03  0.47000000000E+01 0.  1.
          6    1    1    2  502    0 -0.10884179087E+03  0.77879298028E+02  0.42545476625E+03  0.47802455860E+03  0.17200000000E+03 0. -1.
         -6    1    1    2    0  502  0.10884179087E+03 -0.77879298028E+02 -0.35042678579E+03  0.41266772675E+03  0.17200000000E+03 0.  1.
</event>
<event>
 4    1 -0.7151877E-004  0.1883077E+03  0.7818608E-02  0.1159997E+00
          5   -1    0    0  501    0  0.00000000000E+00  0.00000000000E+00  0.19365154625E+04  0.19365211660E+04  0.47000000000E+01 0. -1.
         -5   -1    0    0    0  501 -0.00000000000E+00 -0.00000000000E+00 -0.15730742252E+03  0.15737761969E+03  0.47000000000E+01 0.  1.
          6    1    1    2  502    0 -0.62457235499E+02 -0.44439570284E+02  0.18737514297E+04  0.18831899007E+04  0.17200000000E+03 0. -1.
         -6    1    1    2    0  502  0.62457235499E+02  0.44439570284E+02 -0.94543389763E+02  0.21070888501E+03  0.17200000000E+03 0.  1.
</event>
<event>
 4    1 -0.7151877E-004  0.1778880E+03  0.7818608E-02  0.1169863E+00
          5   -1    0    0  501    0  0.00000000000E+00  0.00000000000E+00  0.14292881248E+03  0.14300606783E+03  0.47000000000E+01 0. -1.
         -5   -1    0    0    0  501 -0.00000000000E+00 -0.00000000000E+00 -0.96574702008E+03  0.96575845676E+03  0.47000000000E+01 0.  1.
          6    1    1    2  502    0  0.11130433528E+02 -0.44002931278E+02  0.75321846455E+02  0.19317744450E+03  0.17200000000E+03 0. -1.
         -6    1    1    2    0  502 -0.11130433528E+02  0.44002931278E+02 -0.89814005406E+03  0.91558708008E+03  0.17200000000E+03 0.  1.
</event>
<event>
 4    1 -0.7151877E-004  0.3260862E+03  0.7818608E-02  0.1072882E+00
          5   -1    0    0  501    0  0.00000000000E+00  0.00000000000E+00  0.19457860781E+04  0.19457917545E+04  0.47000000000E+01 0. -1.
         -5   -1    0    0    0  501 -0.00000000000E+00 -0.00000000000E+00 -0.56908969740E+02  0.57102721799E+02  0.47000000000E+01 0.  1.
          6    1    1    2  502    0 -0.27699743084E+03 -0.45427510817E+01  0.11483708752E+04  0.11937704470E+04  0.17200000000E+03 0. -1.
         -6    1    1    2    0  502  0.27699743084E+03  0.45427510817E+01  0.74050623323E+03  0.80912402926E+03  0.17200000000E+03 0.  1.
</event>
<event>
 4    1 -0.7151877E-004  0.1757965E+03  0.7818608E-02  0.1171934E+00
          5   -1    0    0  501    0  0.00000000000E+00  0.00000000000E+00  0.10288386902E+03  0.10299116712E+03  0.47000000000E+01 0. -1.
         -5   -1    0    0    0  501 -0.00000000000E+00 -0.00000000000E+00 -0.55283639209E+03  0.55285637051E+03  0.47000000000E+01 0.  1.
          6    1    1    2  502    0  0.12392249436E+02 -0.34158980338E+02 -0.32812647976E+01  0.17582710395E+03  0.17200000000E+03 0. -1.
         -6    1    1    2    0  502 -0.12392249436E+02  0.34158980338E+02 -0.44667125827E+03  0.48002043368E+03  0.17200000000E+03 0.  1.
</event>
<event>
 4    1 -0.7151877E-004  0.1752986E+03  0.7818608E-02  0.1172432E+00
         -5   -1    0    0    0  501 -0.00000000000E+00  0.00000000000E+00  0.23569688550E+03  0.23574374188E+03  0.47000000000E+01 0.  1.
          5   -1    0    0  501    0  0.00000000000E+00 -0.00000000000E+00 -0.32977796618E+03  0.32981145671E+03  0.47000000000E+01 0. -1.
          6    1    1    2  502    0  0.29080386628E+02 -0.17318835459E+02 -0.26694729392E+03  0.31935946624E+03  0.17200000000E+03 0. -1.
         -6    1    1    2    0  502 -0.29080386628E+02  0.17318835459E+02  0.17286621324E+03  0.24619573235E+03  0.17200000000E+03 0.  1.
</event>
<event>
 4    1 -0.7151877E-004  0.1980336E+03  0.7818608E-02  0.1151409E+00
         -5   -1    0    0    0  501 -0.00000000000E+00  0.00000000000E+00  0.23490168552E+03  0.23494870048E+03  0.47000000000E+01 0.  1.
          5   -1    0    0  501    0  0.00000000000E+00 -0.00000000000E+00 -0.20700278966E+03  0.20705613955E+03  0.47000000000E+01 0. -1.
          6    1    1    2  502    0  0.10918984759E+01 -0.98143385397E+02 -0.83353616419E+02  0.21486074958E+03  0.17200000000E+03 0. -1.
         -6    1    1    2    0  502 -0.10918984759E+01  0.98143385397E+02  0.11125251228E+03  0.22714409045E+03  0.17200000000E+03 0.  1.
</event>
<event>
 4    1 -0.7151877E-004  0.1989487E+03  0.7818608E-02  0.1150629E+00
          5   -1    0    0  501    0  0.00000000000E+00  0.00000000000E+00  0.35928321749E+03  0.35931395794E+03  0.47000000000E+01 0. -1.
         -5   -1    0    0    0  501 -0.00000000000E+00 -0.00000000000E+00 -0.20914416142E+03  0.20919696522E+03  0.47000000000E+01 0.  1.
          6    1    1    2  502    0  0.77815387940E+02 -0.62780080610E+02  0.27065353137E+03  0.33590758724E+03  0.17200000000E+03 0. -1.
         -6    1    1    2    0  502 -0.77815387940E+02  0.62780080610E+02 -0.12051447530E+03  0.23260333592E+03  0.17200000000E+03 0.  1.
</event>
<event>
 4    1 -0.7151877E-004  0.2264153E+03  0.7818608E-02  0.1129189E+00
         -5   -1    0    0    0  501 -0.00000000000E+00  0.00000000000E+00  0.13550175727E+03  0.13558324462E+03  0.47000000000E+01 0.  1.
          5   -1    0    0  501    0  0.00000000000E+00 -0.00000000000E+00 -0.67533212195E+03  0.67534847667E+03  0.47000000000E+01 0. -1.
          6    1    1    2  502    0  0.49833188349E+02 -0.13855155426E+03 -0.53888149327E+03  0.58451445118E+03  0.17200000000E+03 0. -1.
         -6    1    1    2    0  502 -0.49833188349E+02  0.13855155426E+03 -0.94887141060E+00  0.22641727011E+03  0.17200000000E+03 0.  1.
</event>
<event>
 4    1 -0.7151877E-004  0.1853282E+03  0.7818608E-02  0.1162744E+00
          5   -1    0    0  501    0  0.00000000000E+00  0.00000000000E+00  0.11782344861E+03  0.11791715330E+03  0.47000000000E+01 0. -1.
         -5   -1    0    0    0  501 -0.00000000000E+00 -0.00000000000E+00 -0.30122750276E+03  0.30126416717E+03  0.47000000000E+01 0.  1.
          6    1    1    2  502    0 -0.68987538754E+02  0.18092563236E+01 -0.53623076341E+02  0.19293000863E+03  0.17200000000E+03 0. -1.
         -6    1    1    2    0  502  0.68987538754E+02 -0.18092563236E+01 -0.12978097781E+03  0.22625131185E+03  0.17200000000E+03 0. -1.
</event>
<event>
 4    1 -0.7151877E-004  0.1913492E+03  0.7818608E-02  0.1157250E+00
          5   -1    0    0  501    0  0.00000000000E+00  0.00000000000E+00  0.18530136558E+03  0.18536096160E+03  0.47000000000E+01 0. -1.
         -5   -1    0    0    0  501 -0.00000000000E+00 -0.00000000000E+00 -0.33841771979E+03  0.33845035540E+03  0.47000000000E+01 0.  1.
          6    1    1    2  502    0 -0.41711788452E+02 -0.72736732500E+02  0.92436473742E+02  0.21250648750E+03  0.17200000000E+03 0. -1.
         -6    1    1    2    0  502  0.41711788452E+02  0.72736732500E+02 -0.24555282796E+03  0.31130482950E+03  0.17200000000E+03 0.  1.
</event>
<event>
 4    1 -0.7151877E-004  0.2025036E+03  0.7818608E-02  0.1147644E+00
          5   -1    0    0  501    0  0.00000000000E+00  0.00000000000E+00  0.80380198325E+02  0.80517490540E+02  0.47000000000E+01 0. -1.
         -5   -1    0    0    0  501 -0.00000000000E+00 -0.00000000000E+00 -0.15392692885E+04  0.15392764640E+04  0.47000000000E+01 0.  1.
          6    1    1    2  502    0  0.44749701052E+02  0.97062736290E+02 -0.67071865493E+02  0.21332216402E+03  0.17200000000E+03 0. -1.
         -6    1    1    2    0  502 -0.44749701052E+02 -0.97062736290E+02 -0.13918172247E+04  0.14064717905E+04  0.17200000000E+03 0.  1.
</event>
<event>
 4    1 -0.7151877E-004  0.1788468E+03  0.7818608E-02  0.1168924E+00
         -5   -1    0    0    0  501 -0.00000000000E+00  0.00000000000E+00  0.75112481650E+02  0.75259384130E+02  0.47000000000E+01 0.  1.
          5   -1    0    0  501    0  0.00000000000E+00 -0.00000000000E+00 -0.13249456243E+04  0.13249539604E+04  0.47000000000E+01 0. -1.
          6    1    1    2  502    0 -0.36080667832E+02 -0.33171622558E+02 -0.12017917224E+04  0.12150265492E+04  0.17200000000E+03 0. -1.
         -6    1    1    2    0  502  0.36080667832E+02  0.33171622558E+02 -0.48041420216E+02  0.18518679540E+03  0.17200000000E+03 0.  1.
</event>
<event>
 4    1 -0.7151877E-004  0.1723656E+03  0.7818608E-02  0.1175403E+00
          5   -1    0    0  501    0  0.00000000000E+00  0.00000000000E+00  0.18825316995E+04  0.18825375666E+04  0.47000000000E+01 0. -1.
         -5   -1    0    0    0  501 -0.00000000000E+00 -0.00000000000E+00 -0.15878065297E+02  0.16559074780E+02  0.47000000000E+01 0.  1.
          6    1    1    2  502    0  0.15145886694E+01  0.11117182329E+02  0.77649643760E+03  0.79539713560E+03  0.17200000000E+03 0.  1.
         -6    1    1    2    0  502 -0.15145886694E+01 -0.11117182329E+02  0.10901571966E+04  0.11036995058E+04  0.17200000000E+03 0. -1.
</event>
<event>
 4    1 -0.7151877E-004  0.1735901E+03  0.7818608E-02  0.1174155E+00
         -5   -1    0    0    0  501 -0.00000000000E+00  0.00000000000E+00  0.54940758656E+03  0.54942768966E+03  0.47000000000E+01 0.  1.
          5   -1    0    0  501    0  0.00000000000E+00 -0.00000000000E+00 -0.10903387480E+03  0.10913512658E+03  0.47000000000E+01 0. -1.
          6    1    1    2  502    0 -0.74614176810E+01  0.22222740354E+02 -0.12022007360E+02  0.17400589531E+03  0.17200000000E+03 0. -1.
         -6    1    1    2    0  502  0.74614176810E+01 -0.22222740354E+02  0.45239571912E+03  0.48455692093E+03  0.17200000000E+03 0.  1.
</event>
<event>
 4    1 -0.7151877E-004  0.1955277E+03  0.7818608E-02  0.1153568E+00
          5   -1    0    0  501    0  0.00000000000E+00  0.00000000000E+00  0.45184376684E+02  0.45428161930E+02  0.47000000000E+01 0. -1.
         -5   -1    0    0    0  501 -0.00000000000E+00 -0.00000000000E+00 -0.91715412137E+03  0.91716616397E+03  0.47000000000E+01 0.  1.
          6    1    1    2  502    0  0.44464217028E+02  0.81670054391E+02 -0.29969076041E+03  0.35783462137E+03  0.17200000000E+03 0. -1.
         -6    1    1    2    0  502 -0.44464217028E+02 -0.81670054391E+02 -0.57227898428E+03  0.60475970453E+03  0.17200000000E+03 0.  1.
</event>
<event>
 4    1 -0.7151877E-004  0.1769406E+03  0.7818608E-02  0.1170797E+00
         -5   -1    0    0    0  501 -0.00000000000E+00  0.00000000000E+00  0.32030708175E+02  0.32373697135E+02  0.47000000000E+01 0.  1.
          5   -1    0    0  501    0  0.00000000000E+00 -0.00000000000E+00 -0.12522480229E+04  0.12522568430E+04  0.47000000000E+01 0. -1.
          6    1    1    2  502    0 -0.30174677841E+02 -0.28521157395E+02 -0.91399038876E+03  0.93095993380E+03  0.17200000000E+03 0. -1.
         -6    1    1    2    0  502  0.30174677841E+02  0.28521157395E+02 -0.30622692597E+03  0.35367060634E+03  0.17200000000E+03 0.  1.
</event>
<event>
 4    1 -0.7151877E-004  0.2740887E+03  0.7818608E-02  0.1098962E+00
         -5   -1    0    0    0  501 -0.00000000000E+00  0.00000000000E+00  0.83785291915E+03  0.83786610155E+03  0.47000000000E+01 0.  1.
          5   -1    0    0  501    0  0.00000000000E+00 -0.00000000000E+00 -0.63096528258E+03  0.63098278726E+03  0.47000000000E+01 0. -1.
          6    1    1    2  502    0  0.19918005031E+03 -0.76602293672E+02 -0.57680181005E+03  0.63861172234E+03  0.17200000000E+03 0. -1.
         -6    1    1    2    0  502 -0.19918005031E+03  0.76602293672E+02  0.78368944662E+03  0.83023716647E+03  0.17200000000E+03 0.  1.
</event>
<event>
 4    1 -0.7151877E-004  0.2460377E+03  0.7818608E-02  0.1115835E+00
          5   -1    0    0  501    0  0.00000000000E+00  0.00000000000E+00  0.52884888654E+03  0.52886977111E+03  0.47000000000E+01 0. -1.
         -5   -1    0    0    0  501 -0.00000000000E+00 -0.00000000000E+00 -0.19700956976E+03  0.19706562505E+03  0.47000000000E+01 0.  1.
          6    1    1    2  502    0 -0.13812391129E+03 -0.10896020383E+03  0.40090997781E+03  0.47038638500E+03  0.17200000000E+03 0. -1.
         -6    1    1    2    0  502  0.13812391129E+03  0.10896020383E+03 -0.69070661028E+02  0.25554901116E+03  0.17200000000E+03 0.  1.
</event>
<event>
 4    1 -0.7151877E-004  0.1768447E+03  0.7818608E-02  0.1170892E+00
          5   -1    0    0  501    0  0.00000000000E+00  0.00000000000E+00  0.21638888232E+03  0.21643991867E+03  0.47000000000E+01 0. -1.
         -5   -1    0    0    0  501 -0.00000000000E+00 -0.00000000000E+00 -0.26077784898E+03  0.26082019960E+03  0.47000000000E+01 0.  1.
          6    1    1    2  502    0 -0.64639442694E+01 -0.40598749809E+02  0.13717103421E+03  0.22380780524E+03  0.17200000000E+03 0. -1.
         -6    1    1    2    0  502  0.64639442694E+01  0.40598749809E+02 -0.18156000087E+03  0.25345231302E+03  0.17200000000E+03 0.  1.
</event>
<event>
 4    1 -0.7151877E-004  0.2079291E+03  0.7818608E-02  0.1143216E+00
          5   -1    0    0  501    0  0.00000000000E+00  0.00000000000E+00  0.76056513606E+03  0.76057965802E+03  0.47000000000E+01 0. -1.
         -5   -1    0    0    0  501 -0.00000000000E+00 -0.00000000000E+00 -0.80104585971E+02  0.80242349752E+02  0.47000000000E+01 0.  1.
          6    1    1    2  502    0 -0.84916490608E+02  0.80247718930E+02  0.56706027002E+03  0.60398001341E+03  0.17200000000E+03 0. -1.
         -6    1    1    2    0  502  0.84916490608E+02 -0.80247718930E+02  0.11340028007E+03  0.23684199436E+03  0.17200000000E+03 0.  1.
</event>
<event>
 4    1 -0.7151877E-004  0.2465185E+03  0.7818608E-02  0.1115525E+00
         -5   -1    0    0    0  501 -0.00000000000E+00  0.00000000000E+00  0.72984465660E+03  0.72985978980E+03  0.47000000000E+01 0.  1.
          5   -1    0    0  501    0  0.00000000000E+00 -0.00000000000E+00 -0.94694647166E+02  0.94811213482E+02  0.47000000000E+01 0. -1.
          6    1    1    2  502    0 -0.16983252230E+03 -0.48418014740E+02  0.17392019451E+03  0.30169458703E+03  0.17200000000E+03 0. -1.
         -6    1    1    2    0  502  0.16983252230E+03  0.48418014740E+02  0.46122981492E+03  0.52297641625E+03  0.17200000000E+03 0.  1.
</event>
<event>
 4    1 -0.7151877E-004  0.1848121E+03  0.7818608E-02  0.1163225E+00
         -5   -1    0    0    0  501 -0.00000000000E+00  0.00000000000E+00  0.66087378648E+02  0.66254295080E+02  0.47000000000E+01 0.  1.
          5   -1    0    0  501    0  0.00000000000E+00 -0.00000000000E+00 -0.76903765790E+03  0.76905201987E+03  0.47000000000E+01 0. -1.
          6    1    1    2  502    0  0.65136992627E+02 -0.18129825893E+02 -0.59102029361E+03  0.61924187993E+03  0.17200000000E+03 0. -1.
         -6    1    1    2    0  502 -0.65136992627E+02  0.18129825893E+02 -0.11192998563E+03  0.21606443502E+03  0.17200000000E+03 0.  1.
</event>
<event>
 4    1 -0.7151877E-004  0.1807090E+03  0.7818608E-02  0.1167119E+00
         -5   -1    0    0    0  501 -0.00000000000E+00  0.00000000000E+00  0.67321047865E+03  0.67322688491E+03  0.47000000000E+01 0.  1.
          5   -1    0    0  501    0  0.00000000000E+00 -0.00000000000E+00 -0.16973531806E+03  0.16980037749E+03  0.47000000000E+01 0. -1.
          6    1    1    2  502    0  0.47325871707E+02 -0.28844715833E+02 -0.10451068897E+03  0.20875401762E+03  0.17200000000E+03 0. -1.
         -6    1    1    2    0  502 -0.47325871707E+02  0.28844715833E+02  0.60798584957E+03  0.63427324477E+03  0.17200000000E+03 0.  1.
</event>
<event>
 4    1 -0.7151877E-004  0.1914699E+03  0.7818608E-02  0.1157142E+00
         -5   -1    0    0    0  501 -0.00000000000E+00  0.00000000000E+00  0.29631541954E+03  0.29635269166E+03  0.47000000000E+01 0.  1.
          5   -1    0    0  501    0  0.00000000000E+00 -0.00000000000E+00 -0.67400793583E+03  0.67402432267E+03  0.47000000000E+01 0. -1.
          6    1    1    2  502    0  0.80993186155E+02 -0.22733715288E+02 -0.62725438304E+03  0.65582679044E+03  0.17200000000E+03 0. -1.
         -6    1    1    2    0  502 -0.80993186155E+02  0.22733715288E+02  0.24956186675E+03  0.31455022389E+03  0.17200000000E+03 0.  1.
</event>
<event>
 4    1 -0.7151877E-004  0.2079438E+03  0.7818608E-02  0.1143205E+00
          5   -1    0    0  501    0  0.00000000000E+00  0.00000000000E+00  0.85064701052E+03  0.85065999465E+03  0.47000000000E+01 0. -1.
         -5   -1    0    0    0  501 -0.00000000000E+00 -0.00000000000E+00 -0.16024456102E+03  0.16031347210E+03  0.47000000000E+01 0.  1.
          6    1    1    2  502    0  0.11433496306E+03 -0.24169409683E+02  0.76291715216E+03  0.79074852210E+03  0.17200000000E+03 0. -1.
         -6    1    1    2    0  502 -0.11433496306E+03  0.24169409683E+02 -0.72514702664E+02  0.22022494465E+03  0.17200000000E+03 0.  1.
</event>
<event>
 4    1 -0.7151877E-004  0.3096338E+03  0.7818608E-02  0.1080522E+00
         -5   -1    0    0    0  501 -0.00000000000E+00  0.00000000000E+00  0.93249877459E+02  0.93368247526E+02  0.47000000000E+01 0.  1.
          5   -1    0    0  501    0  0.00000000000E+00 -0.00000000000E+00 -0.18344882307E+04  0.18344942515E+04  0.47000000000E+01 0. -1.
          6    1    1    2  502    0  0.38673321406E+01 -0.25743758923E+03 -0.15099803131E+04  0.15413998879E+04  0.17200000000E+03 0. -1.
         -6    1    1    2    0  502 -0.38673321406E+01  0.25743758923E+03 -0.23125804020E+03  0.38646261108E+03  0.17200000000E+03 0.  1.
</event>
<event>
 4    1 -0.7151877E-004  0.2113129E+03  0.7818608E-02  0.1140531E+00
          5   -1    0    0  501    0  0.00000000000E+00  0.00000000000E+00  0.19051911861E+03  0.19057708298E+03  0.47000000000E+01 0. -1.
         -5   -1    0    0    0  501 -0.00000000000E+00 -0.00000000000E+00 -0.38496960277E+03  0.38499829228E+03  0.47000000000E+01 0.  1.
          6    1    1    2  502    0  0.12002681320E+03 -0.25742984639E+02  0.82818018787E+02  0.22696246690E+03  0.17200000000E+03 0. -1.
         -6    1    1    2    0  502 -0.12002681320E+03  0.25742984639E+02 -0.27726850295E+03  0.34861290836E+03  0.17200000000E+03 0.  1.
</event>
<event>
 4    1 -0.7151877E-004  0.2160610E+03  0.7818608E-02  0.1136854E+00
          5   -1    0    0  501    0  0.00000000000E+00  0.00000000000E+00  0.10412144697E+04  0.10412250774E+04  0.47000000000E+01 0. -1.
         -5   -1    0    0    0  501 -0.00000000000E+00 -0.00000000000E+00 -0.71788130217E+02  0.71941821217E+02  0.47000000000E+01 0.  1.
          6    1    1    2  502    0  0.11285613527E+03 -0.66044249077E+02  0.14332118328E+03  0.25927458742E+03  0.17200000000E+03 0.  1.
         -6    1    1    2    0  502 -0.11285613527E+03  0.66044249077E+02  0.82610515619E+03  0.85389231123E+03  0.17200000000E+03 0. -1.
</event>
<event>
 4    1 -0.7151877E-004  0.1799847E+03  0.7818608E-02  0.1167818E+00
         -5   -1    0    0    0  501 -0.00000000000E+00  0.00000000000E+00  0.46726241987E+02  0.46962023915E+02  0.47000000000E+01 0.  1.
          5   -1    0    0  501    0  0.00000000000E+00 -0.00000000000E+00 -0.18144240067E+04  0.18144300940E+04  0.47000000000E+01 0. -1.
          6    1    1    2  502    0  0.70625636720E+01  0.52541604736E+02 -0.16160390791E+04  0.16260309976E+04  0.17200000000E+03 0. -1.
         -6    1    1    2    0  502 -0.70625636720E+01 -0.52541604736E+02 -0.15165868560E+03  0.23536112031E+03  0.17200000000E+03 0.  1.
</event>
<event>
 4    1 -0.7151877E-004  0.1978748E+03  0.7818608E-02  0.1151545E+00
          5   -1    0    0  501    0  0.00000000000E+00  0.00000000000E+00  0.53854818497E+02  0.54059517898E+02  0.47000000000E+01 0. -1.
         -5   -1    0    0    0  501 -0.00000000000E+00 -0.00000000000E+00 -0.77212884974E+03  0.77214315421E+03  0.47000000000E+01 0.  1.
          6    1    1    2  502    0  0.88725351943E+02 -0.41209871270E+02 -0.46069895371E+03  0.50139601865E+03  0.17200000000E+03 0. -1.
         -6    1    1    2    0  502 -0.88725351943E+02  0.41209871270E+02 -0.25757507753E+03  0.32480665346E+03  0.17200000000E+03 0.  1.
</event>
<event>
 4    1 -0.7151877E-004  0.1787116E+03  0.7818608E-02  0.1169056E+00
          5   -1    0    0  501    0  0.00000000000E+00  0.00000000000E+00  0.60719793221E+02  0.60901422716E+02  0.47000000000E+01 0. -1.
         -5   -1    0    0    0  501 -0.00000000000E+00 -0.00000000000E+00 -0.67079163239E+03  0.67080809781E+03  0.47000000000E+01 0.  1.
          6    1    1    2  502    0  0.48505878887E+02  0.99958092472E+00 -0.13450525157E+03  0.22367271212E+03  0.17200000000E+03 0. -1.
         -6    1    1    2    0  502 -0.48505878887E+02 -0.99958092472E+00 -0.47556658760E+03  0.50803680840E+03  0.17200000000E+03 0.  1.
</event>
<event>
 4    1 -0.7151877E-004  0.2332809E+03  0.7818608E-02  0.1124352E+00
          5   -1    0    0  501    0  0.00000000000E+00  0.00000000000E+00  0.19856466209E+03  0.19862027850E+03  0.47000000000E+01 0. -1.
         -5   -1    0    0    0  501 -0.00000000000E+00 -0.00000000000E+00 -0.31324916169E+03  0.31328441918E+03  0.47000000000E+01 0.  1.
          6    1    1    2  502    0  0.55256599457E+02 -0.14758959793E+03  0.33299116322E+02  0.23564552266E+03  0.17200000000E+03 0.  1.
         -6    1    1    2    0  502 -0.55256599457E+02  0.14758959793E+03 -0.14798361592E+03  0.27625917502E+03  0.17200000000E+03 0.  1.
</event>
<event>
 4    1 -0.7151877E-004  0.2133011E+03  0.7818608E-02  0.1138978E+00
         -5   -1    0    0    0  501 -0.00000000000E+00  0.00000000000E+00  0.51162426915E+03  0.51164585680E+03  0.47000000000E+01 0.  1.
          5   -1    0    0  501    0  0.00000000000E+00 -0.00000000000E+00 -0.21630431523E+03  0.21635537152E+03  0.47000000000E+01 0. -1.
          6    1    1    2  502    0 -0.12465270880E+03  0.19365998251E+02 -0.13169174446E+03  0.25067918792E+03  0.17200000000E+03 0. -1.
         -6    1    1    2    0  502  0.12465270880E+03 -0.19365998251E+02  0.42701169838E+03  0.47732204040E+03  0.17200000000E+03 0.  1.
</event>
<event>
 4    1 -0.7151877E-004  0.2612386E+03  0.7818608E-02  0.1106401E+00
          5   -1    0    0  501    0  0.00000000000E+00  0.00000000000E+00  0.88449344446E+02  0.88574130156E+02  0.47000000000E+01 0. -1.
         -5   -1    0    0    0  501 -0.00000000000E+00 -0.00000000000E+00 -0.83689832292E+03  0.83691152035E+03  0.47000000000E+01 0.  1.
          6    1    1    2  502    0  0.66723568788E+02  0.18495824961E+03 -0.24428953272E+03  0.35766319985E+03  0.17200000000E+03 0. -1.
         -6    1    1    2    0  502 -0.66723568788E+02 -0.18495824961E+03 -0.50415944575E+03  0.56782245066E+03  0.17200000000E+03 0. -1.
</event>
<event>
 4    1 -0.7151877E-004  0.2182483E+03  0.7818608E-02  0.1135196E+00
         -5   -1    0    0    0  501 -0.00000000000E+00  0.00000000000E+00  0.11270167841E+04  0.11270265843E+04  0.47000000000E+01 0.  1.
          5   -1    0    0  501    0  0.00000000000E+00 -0.00000000000E+00 -0.12012344234E+03  0.12021535426E+03  0.47000000000E+01 0. -1.
          6    1    1    2  502    0 -0.82132748278E+02  0.10631335753E+03  0.13151773289E+01  0.21825225777E+03  0.17200000000E+03 0. -1.
         -6    1    1    2    0  502  0.82132748278E+02 -0.10631335753E+03  0.10055781645E+04  0.10289896808E+04  0.17200000000E+03 0.  1.
</event>
<event>
 4    1 -0.7151877E-004  0.2400758E+03  0.7818608E-02  0.1119742E+00
         -5   -1    0    0    0  501 -0.00000000000E+00  0.00000000000E+00  0.28983215973E+03  0.28987026548E+03  0.47000000000E+01 0.  1.
          5   -1    0    0  501    0  0.00000000000E+00 -0.00000000000E+00 -0.44093849742E+03  0.44096354556E+03  0.47000000000E+01 0. -1.
          6    1    1    2  502    0 -0.68265667314E+02 -0.15294501523E+03 -0.34632833770E+03  0.42140206040E+03  0.17200000000E+03 0. -1.
         -6    1    1    2    0  502  0.68265667314E+02  0.15294501523E+03  0.19522200000E+03  0.30943175064E+03  0.17200000000E+03 0.  1.
</event>
<event>
 4    1 -0.7151877E-004  0.2089731E+03  0.7818608E-02  0.1142382E+00
          5   -1    0    0  501    0  0.00000000000E+00  0.00000000000E+00  0.20255904629E+04  0.20255959156E+04  0.47000000000E+01 0. -1.
         -5   -1    0    0    0  501 -0.00000000000E+00 -0.00000000000E+00 -0.34099646974E+03  0.34102885857E+03  0.47000000000E+01 0.  1.
          6    1    1    2  502    0  0.56313452277E+02 -0.10447272398E+03  0.19875945451E+04  0.19985499320E+04  0.17200000000E+03 0. -1.
         -6    1    1    2    0  502 -0.56313452277E+02  0.10447272398E+03 -0.30300055195E+03  0.36807484218E+03  0.17200000000E+03 0.  1.
</event>
<event>
 4    1 -0.7151877E-004  0.2420800E+03  0.7818608E-02  0.1118415E+00
         -5   -1    0    0    0  501 -0.00000000000E+00  0.00000000000E+00  0.11114247410E+04  0.11114346787E+04  0.47000000000E+01 0.  1.
          5   -1    0    0  501    0  0.00000000000E+00 -0.00000000000E+00 -0.51967752302E+03  0.51969877615E+03  0.47000000000E+01 0. -1.
          6    1    1    2  502    0 -0.29773612208E+02 -0.16772676811E+03 -0.47721411364E+03  0.53510377216E+03  0.17200000000E+03 0. -1.
         -6    1    1    2    0  502  0.29773612208E+02  0.16772676811E+03  0.10689613317E+04  0.10960296827E+04  0.17200000000E+03 0.  1.
</event>
<event>
 4    1 -0.7151877E-004  0.1761000E+03  0.7818608E-02  0.1171632E+00
         -5   -1    0    0    0  501 -0.00000000000E+00  0.00000000000E+00  0.12361669149E+03  0.12370600800E+03  0.47000000000E+01 0.  1.
          5   -1    0    0  501    0  0.00000000000E+00 -0.00000000000E+00 -0.36446342482E+03  0.36449372839E+03  0.47000000000E+01 0. -1.
          6    1    1    2  502    0 -0.36306831610E+02  0.10440716953E+02 -0.25679863241E+03  0.31137876003E+03  0.17200000000E+03 0. -1.
         -6    1    1    2    0  502  0.36306831610E+02 -0.10440716953E+02  0.15951899076E+02  0.17682097635E+03  0.17200000000E+03 0.  1.
</event>
<event>
 4    1 -0.7151877E-004  0.1872531E+03  0.7818608E-02  0.1160962E+00
         -5   -1    0    0    0  501 -0.00000000000E+00  0.00000000000E+00  0.37274480360E+02  0.37569627175E+02  0.47000000000E+01 0.  1.
          5   -1    0    0  501    0  0.00000000000E+00 -0.00000000000E+00 -0.15452891285E+04  0.15452962760E+04  0.47000000000E+01 0. -1.
          6    1    1    2  502    0  0.62256353487E+02 -0.40048121571E+02 -0.12506409910E+04  0.12645815884E+04  0.17200000000E+03 0. -1.
         -6    1    1    2    0  502 -0.62256353487E+02  0.40048121571E+02 -0.25737365715E+03  0.31828431470E+03  0.17200000000E+03 0.  1.
</event>
<event>
 4    1 -0.7151877E-004  0.2653193E+03  0.7818608E-02  0.1103989E+00
         -5   -1    0    0    0  501 -0.00000000000E+00  0.00000000000E+00  0.15159312672E+03  0.15166596873E+03  0.47000000000E+01 0.  1.
          5   -1    0    0  501    0  0.00000000000E+00 -0.00000000000E+00 -0.63258838020E+03  0.63260583997E+03  0.47000000000E+01 0. -1.
          6    1    1    2  502    0 -0.56002495427E+02  0.19409801701E+03 -0.44281920611E+03  0.51622007807E+03  0.17200000000E+03 0. -1.
         -6    1    1    2    0  502  0.56002495427E+02 -0.19409801701E+03 -0.38176047372E+02  0.26805173063E+03  0.17200000000E+03 0.  1.
</event>
<event>
 4    1 -0.7151877E-004  0.2471550E+03  0.7818608E-02  0.1115116E+00
          5   -1    0    0  501    0  0.00000000000E+00  0.00000000000E+00  0.12338134400E+03  0.12347083075E+03  0.47000000000E+01 0. -1.
         -5   -1    0    0    0  501 -0.00000000000E+00 -0.00000000000E+00 -0.66723427283E+03  0.66725082603E+03  0.47000000000E+01 0.  1.
          6    1    1    2  502    0 -0.80895873693E+02  0.15797920973E+03 -0.70965734245E+02  0.25714141736E+03  0.17200000000E+03 0. -1.
         -6    1    1    2    0  502  0.80895873693E+02 -0.15797920973E+03 -0.47288719459E+03  0.53358023941E+03  0.17200000000E+03 0.  1.
</event>
<event>
 4    1 -0.7151877E-004  0.3047953E+03  0.7818608E-02  0.1082868E+00
         -5   -1    0    0    0  501 -0.00000000000E+00  0.00000000000E+00  0.25109099635E+03  0.25113498054E+03  0.47000000000E+01 0.  1.
          5   -1    0    0  501    0  0.00000000000E+00 -0.00000000000E+00 -0.85130635304E+03  0.85131932711E+03  0.47000000000E+01 0. -1.
          6    1    1    2  502    0  0.14096093419E+03  0.20843751510E+03 -0.71461216749E+03  0.77689814815E+03  0.17200000000E+03 0. -1.
         -6    1    1    2    0  502 -0.14096093419E+03 -0.20843751510E+03  0.11439681081E+03  0.32555615950E+03  0.17200000000E+03 0.  1.
</event>
<event>
 4    1 -0.7151877E-004  0.1741248E+03  0.7818608E-02  0.1173613E+00
         -5   -1    0    0    0  501 -0.00000000000E+00  0.00000000000E+00  0.61649380579E+03  0.61651172137E+03  0.47000000000E+01 0.  1.
          5   -1    0    0  501    0  0.00000000000E+00 -0.00000000000E+00 -0.61736146083E+02  0.61914794138E+02  0.47000000000E+01 0. -1.
          6    1    1    2  502    0  0.27069568561E+02 -0.16374691009E+01  0.12387979138E+03  0.21369521651E+03  0.17200000000E+03 0. -1.
         -6    1    1    2    0  502 -0.27069568561E+02  0.16374691009E+01  0.43087786833E+03  0.46473129899E+03  0.17200000000E+03 0.  1.
</event>
<event>
 4    1 -0.7151877E-004  0.1745902E+03  0.7818608E-02  0.1173144E+00
         -5   -1    0    0    0  501 -0.00000000000E+00  0.00000000000E+00  0.15686173187E+03  0.15693212840E+03  0.47000000000E+01 0.  1.
          5   -1    0    0  501    0  0.00000000000E+00 -0.00000000000E+00 -0.97697055398E+03  0.97698185927E+03  0.47000000000E+01 0. -1.
          6    1    1    2  502    0  0.20271938534E+02 -0.22063477530E+02 -0.91752275068E+03  0.93398594558E+03  0.17200000000E+03 0. -1.
         -6    1    1    2    0  502 -0.20271938534E+02  0.22063477530E+02  0.97413928569E+02  0.19992804208E+03  0.17200000000E+03 0.  1.
</event>
<event>
 4    1 -0.7151877E-004  0.4172482E+03  0.7818608E-02  0.1037966E+00
          5   -1    0    0  501    0  0.00000000000E+00  0.00000000000E+00  0.75379461081E+03  0.75380926320E+03  0.47000000000E+01 0. -1.
         -5   -1    0    0    0  501 -0.00000000000E+00 -0.00000000000E+00 -0.50082556201E+03  0.50084761511E+03  0.47000000000E+01 0.  1.
          6    1    1    2  502    0 -0.17011898878E+03 -0.33995817647E+03  0.58699254271E+03  0.72017794835E+03  0.17200000000E+03 0. -1.
         -6    1    1    2    0  502  0.17011898878E+03  0.33995817647E+03 -0.33402349390E+03  0.53447892996E+03  0.17200000000E+03 0.  1.
</event>
<event>
 4    1 -0.7151877E-004  0.1953278E+03  0.7818608E-02  0.1153742E+00
         -5   -1    0    0    0  501 -0.00000000000E+00  0.00000000000E+00  0.28124143573E+03  0.28128070529E+03  0.47000000000E+01 0.  1.
          5   -1    0    0  501    0  0.00000000000E+00 -0.00000000000E+00 -0.10326321653E+04  0.10326428612E+04  0.47000000000E+01 0. -1.
          6    1    1    2  502    0  0.16552421995E+02  0.91076649722E+02 -0.98799036480E+03  0.10071136479E+04  0.17200000000E+03 0. -1.
         -6    1    1    2    0  502 -0.16552421995E+02 -0.91076649722E+02  0.23659963521E+03  0.30680991865E+03  0.17200000000E+03 0.  1.
</event>
<event>
 4    1 -0.7151877E-004  0.1978479E+03  0.7818608E-02  0.1151568E+00
         -5   -1    0    0    0  501 -0.00000000000E+00  0.00000000000E+00  0.75597430189E+02  0.75743392128E+02  0.47000000000E+01 0.  1.
          5   -1    0    0  501    0  0.00000000000E+00 -0.00000000000E+00 -0.10202310413E+04  0.10202418673E+04  0.47000000000E+01 0. -1.
          6    1    1    2  502    0 -0.78827506275E+02  0.57844754322E+02 -0.85709967333E+03  0.87963835828E+03  0.17200000000E+03 0. -1.
         -6    1    1    2    0  502  0.78827506275E+02 -0.57844754322E+02 -0.87533937828E+02  0.21634690111E+03  0.17200000000E+03 0.  1.
</event>
<event>
 4    1 -0.7151877E-004  0.2622528E+03  0.7818608E-02  0.1105797E+00
          5   -1    0    0  501    0  0.00000000000E+00  0.00000000000E+00  0.16647751000E+03  0.16654384208E+03  0.47000000000E+01 0. -1.
         -5   -1    0    0    0  501 -0.00000000000E+00 -0.00000000000E+00 -0.41297922041E+03  0.41300596423E+03  0.47000000000E+01 0.  1.
          6    1    1    2  502    0  0.10988495352E+03  0.16467492447E+03 -0.12161667053E+03  0.28907983034E+03  0.17200000000E+03 0. -1.
         -6    1    1    2    0  502 -0.10988495352E+03 -0.16467492447E+03 -0.12488503988E+03  0.29046997597E+03  0.17200000000E+03 0.  1.
</event>
<event>
 4    1 -0.7151877E-004  0.1888628E+03  0.7818608E-02  0.1159491E+00
         -5   -1    0    0    0  501 -0.00000000000E+00  0.00000000000E+00  0.27254257202E+03  0.27258309479E+03  0.47000000000E+01 0.  1.
          5   -1    0    0  501    0  0.00000000000E+00 -0.00000000000E+00 -0.20913358583E+03  0.20918639230E+03  0.47000000000E+01 0. -1.
          6    1    1    2  502    0 -0.51890315321E+02 -0.58245721867E+02 -0.11569802146E+03  0.22148408771E+03  0.17200000000E+03 0. -1.
         -6    1    1    2    0  502  0.51890315321E+02  0.58245721867E+02  0.17910700765E+03  0.26028539938E+03  0.17200000000E+03 0.  1.
</event>
<event>
 4    1 -0.7151877E-004  0.1756653E+03  0.7818608E-02  0.1172065E+00
         -5   -1    0    0    0  501 -0.00000000000E+00  0.00000000000E+00  0.13827610638E+03  0.13835595974E+03  0.47000000000E+01 0.  1.
          5   -1    0    0  501    0  0.00000000000E+00 -0.00000000000E+00 -0.13530745682E+04  0.13530827310E+04  0.47000000000E+01 0. -1.
          6    1    1    2  502    0  0.23209522630E+02  0.27122099036E+02 -0.12888767933E+04  0.13007927116E+04  0.17200000000E+03 0. -1.
         -6    1    1    2    0  502 -0.23209522630E+02 -0.27122099036E+02  0.74078331487E+02  0.19064597922E+03  0.17200000000E+03 0.  1.
</event>
<event>
 4    1 -0.7151877E-004  0.2204674E+03  0.7818608E-02  0.1133535E+00
         -5   -1    0    0    0  501 -0.00000000000E+00  0.00000000000E+00  0.46190139352E+03  0.46192530494E+03  0.47000000000E+01 0.  1.
          5   -1    0    0  501    0  0.00000000000E+00 -0.00000000000E+00 -0.41614364164E+03  0.41617018211E+03  0.47000000000E+01 0. -1.
          6    1    1    2  502    0 -0.10806037180E+03 -0.85701896693E+02 -0.35662700628E+03  0.41927160727E+03  0.17200000000E+03 0. -1.
         -6    1    1    2    0  502  0.10806037180E+03  0.85701896693E+02  0.40238475817E+03  0.45882387978E+03  0.17200000000E+03 0.  1.
</event>
<event>
 4    1 -0.7151877E-004  0.1914068E+03  0.7818608E-02  0.1157199E+00
         -5   -1    0    0    0  501 -0.00000000000E+00  0.00000000000E+00  0.39259172691E+03  0.39261985945E+03  0.47000000000E+01 0.  1.
          5   -1    0    0  501    0  0.00000000000E+00 -0.00000000000E+00 -0.10057266328E+03  0.10068242448E+03  0.47000000000E+01 0. -1.
          6    1    1    2  502    0  0.29451352009E+02  0.78645978790E+02  0.79407159161E+02  0.20722468251E+03  0.17200000000E+03 0. -1.
         -6    1    1    2    0  502 -0.29451352009E+02 -0.78645978790E+02  0.21261190447E+03  0.28607760142E+03  0.17200000000E+03 0. -1.
</event>
<event>
 4    1 -0.7151877E-004  0.2727360E+03  0.7818608E-02  0.1099724E+00
         -5   -1    0    0    0  501 -0.00000000000E+00  0.00000000000E+00  0.76222213115E+03  0.76223662153E+03  0.47000000000E+01 0.  1.
          5   -1    0    0  501    0  0.00000000000E+00 -0.00000000000E+00 -0.11918634240E+03  0.11927897642E+03  0.47000000000E+01 0. -1.
          6    1    1    2  502    0 -0.19107621033E+03  0.91053754101E+02  0.13367680163E+03  0.30373408038E+03  0.17200000000E+03 0. -1.
         -6    1    1    2    0  502  0.19107621033E+03 -0.91053754101E+02  0.50935898711E+03  0.57778151757E+03  0.17200000000E+03 0.  1.
</event>
<event>
 4    1 -0.7151877E-004  0.1876702E+03  0.7818608E-02  0.1160580E+00
         -5   -1    0    0    0  501 -0.00000000000E+00  0.00000000000E+00  0.35856722338E+03  0.35859802521E+03  0.47000000000E+01 0.  1.
          5   -1    0    0  501    0  0.00000000000E+00 -0.00000000000E+00 -0.16033424398E+03  0.16040311653E+03  0.47000000000E+01 0. -1.
          6    1    1    2  502    0 -0.16031123007E+02 -0.73342397408E+02 -0.62452955259E+02  0.19778896780E+03  0.17200000000E+03 0. -1.
         -6    1    1    2    0  502  0.16031123007E+02  0.73342397408E+02  0.26068593465E+03  0.32121217394E+03  0.17200000000E+03 0.  1.
</event>
<event>
 4    1 -0.7151877E-004  0.1934618E+03  0.7818608E-02  0.1155376E+00
         -5   -1    0    0    0  501 -0.00000000000E+00  0.00000000000E+00  0.17171348480E+03  0.17177779502E+03  0.47000000000E+01 0.  1.
          5   -1    0    0  501    0  0.00000000000E+00 -0.00000000000E+00 -0.44966601860E+03  0.44969058061E+03  0.47000000000E+01 0. -1.
          6    1    1    2  502    0 -0.76699859074E+02  0.44278692203E+02 -0.36206688715E+03  0.41051175591E+03  0.17200000000E+03 0. -1.
         -6    1    1    2    0  502  0.76699859074E+02 -0.44278692203E+02  0.84114353345E+02  0.21095661972E+03  0.17200000000E+03 0. -1.
</event>
<event>
 4    1 -0.7151877E-004  0.1966020E+03  0.7818608E-02  0.1152638E+00
          5   -1    0    0  501    0  0.00000000000E+00  0.00000000000E+00  0.96555228025E+02  0.96669550836E+02  0.47000000000E+01 0. -1.
         -5   -1    0    0    0  501 -0.00000000000E+00 -0.00000000000E+00 -0.70804771927E+03  0.70806331833E+03  0.47000000000E+01 0.  1.
          6    1    1    2  502    0  0.95218228520E+02 -0.13574684654E+01 -0.40350389917E+02  0.20070004417E+03  0.17200000000E+03 0. -1.
         -6    1    1    2    0  502 -0.95218228520E+02  0.13574684654E+01 -0.57114210133E+03  0.60403282500E+03  0.17200000000E+03 0.  1.
</event>
<event>
 4    1 -0.7151877E-004  0.2183714E+03  0.7818608E-02  0.1135103E+00
          5   -1    0    0  501    0  0.00000000000E+00  0.00000000000E+00  0.18398439588E+04  0.18398499620E+04  0.47000000000E+01 0. -1.
         -5   -1    0    0    0  501 -0.00000000000E+00 -0.00000000000E+00 -0.47442635817E+02  0.47674874864E+02  0.47000000000E+01 0.  1.
          6    1    1    2  502    0  0.13339703528E+03  0.17529936972E+02  0.15328664070E+04  0.15483428203E+04  0.17200000000E+03 0. -1.
         -6    1    1    2    0  502 -0.13339703528E+03 -0.17529936972E+02  0.25953491604E+03  0.33918201656E+03  0.17200000000E+03 0.  1.
</event>
<event>
 4    1 -0.7151877E-004  0.2608281E+03  0.7818608E-02  0.1106647E+00
         -5   -1    0    0    0  501 -0.00000000000E+00  0.00000000000E+00  0.37420991438E+03  0.37423942874E+03  0.47000000000E+01 0.  1.
          5   -1    0    0  501    0  0.00000000000E+00 -0.00000000000E+00 -0.25035265346E+03  0.25039676734E+03  0.47000000000E+01 0. -1.
          6    1    1    2  502    0  0.12657991296E+03 -0.14974912716E+03 -0.10155534277E+03  0.27990134529E+03  0.17200000000E+03 0. -1.
         -6    1    1    2    0  502 -0.12657991296E+03  0.14974912716E+03  0.22541260369E+03  0.34473485079E+03  0.17200000000E+03 0.  1.
</event>
<event>
 4    1 -0.7151877E-004  0.1861292E+03  0.7818608E-02  0.1162000E+00
         -5   -1    0    0    0  501 -0.00000000000E+00  0.00000000000E+00  0.22147056739E+03  0.22152043296E+03  0.47000000000E+01 0.  1.
          5   -1    0    0  501    0  0.00000000000E+00 -0.00000000000E+00 -0.27078188611E+03  0.27082267233E+03  0.47000000000E+01 0. -1.
          6    1    1    2  502    0 -0.14861377310E+02 -0.69564571597E+02 -0.18467220919E+03  0.26219823608E+03  0.17200000000E+03 0. -1.
         -6    1    1    2    0  502  0.14861377310E+02  0.69564571597E+02  0.13536089047E+03  0.23014486921E+03  0.17200000000E+03 0.  1.
</event>
<event>
 4    1 -0.7151877E-004  0.2033178E+03  0.7818608E-02  0.1146970E+00
          5   -1    0    0  501    0  0.00000000000E+00  0.00000000000E+00  0.41647146929E+03  0.41649798887E+03  0.47000000000E+01 0. -1.
         -5   -1    0    0    0  501 -0.00000000000E+00 -0.00000000000E+00 -0.19117094588E+03  0.19122871266E+03  0.47000000000E+01 0.  1.
          6    1    1    2  502    0  0.76356219607E+02 -0.76966648860E+02  0.32338253103E+03  0.38198743263E+03  0.17200000000E+03 0. -1.
         -6    1    1    2    0  502 -0.76356219607E+02  0.76966648860E+02 -0.98082007615E+02  0.22573926891E+03  0.17200000000E+03 0.  1.
</event>
<event>
 4    1 -0.7151877E-004  0.2332902E+03  0.7818608E-02  0.1124345E+00
          5   -1    0    0  501    0  0.00000000000E+00  0.00000000000E+00  0.12857522615E+04  0.12857608517E+04  0.47000000000E+01 0. -1.
         -5   -1    0    0    0  501 -0.00000000000E+00 -0.00000000000E+00 -0.12612406782E+03  0.12621160994E+03  0.47000000000E+01 0.  1.
          6    1    1    2  502    0 -0.24306592321E+02 -0.15572246499E+03  0.11553242407E+04  0.11786426082E+04  0.17200000000E+03 0. -1.
         -6    1    1    2    0  502  0.24306592321E+02  0.15572246499E+03  0.43039529115E+01  0.23332985352E+03  0.17200000000E+03 0.  1.
</event>
<event>
 4    1 -0.7151877E-004  0.1838409E+03  0.7818608E-02  0.1164137E+00
         -5   -1    0    0    0  501 -0.00000000000E+00  0.00000000000E+00  0.54750964049E+03  0.54752981328E+03  0.47000000000E+01 0.  1.
          5   -1    0    0  501    0  0.00000000000E+00 -0.00000000000E+00 -0.14594278841E+03  0.14601844914E+03  0.47000000000E+01 0. -1.
          6    1    1    2  502    0  0.32254990599E+02 -0.56330165539E+02 -0.62674918118E+02  0.19423083517E+03  0.17200000000E+03 0. -1.
         -6    1    1    2    0  502 -0.32254990599E+02  0.56330165539E+02  0.46424177019E+03  0.49931742725E+03  0.17200000000E+03 0.  1.
</event>
<event>
 4    1 -0.7151877E-004  0.1748305E+03  0.7818608E-02  0.1172902E+00
         -5   -1    0    0    0  501 -0.00000000000E+00  0.00000000000E+00  0.54060092436E+03  0.54062135494E+03  0.47000000000E+01 0.  1.
          5   -1    0    0  501    0  0.00000000000E+00 -0.00000000000E+00 -0.56545268296E+02  0.56740262307E+02  0.47000000000E+01 0. -1.
          6    1    1    2  502    0  0.14380824364E+02 -0.27836909264E+02  0.22805361023E+03  0.28735718325E+03  0.17200000000E+03 0. -1.
         -6    1    1    2    0  502 -0.14380824364E+02  0.27836909264E+02  0.25600204583E+03  0.31000443399E+03  0.17200000000E+03 0. -1.
</event>
<event>
 4    1 -0.7151877E-004  0.2092547E+03  0.7818608E-02  0.1142158E+00
         -5   -1    0    0    0  501 -0.00000000000E+00  0.00000000000E+00  0.10933069996E+04  0.10933171019E+04  0.47000000000E+01 0.  1.
          5   -1    0    0  501    0  0.00000000000E+00 -0.00000000000E+00 -0.76626882704E+02  0.76770887405E+02  0.47000000000E+01 0. -1.
          6    1    1    2  502    0 -0.96820049947E+02 -0.69493945373E+02  0.10390056317E+03  0.23362974456E+03  0.17200000000E+03 0. -1.
         -6    1    1    2    0  502  0.96820049947E+02  0.69493945373E+02  0.91277955372E+03  0.93645824477E+03  0.17200000000E+03 0.  1.
</event>
<event>
 4    1 -0.7151877E-004  0.1739789E+03  0.7818608E-02  0.1173761E+00
         -5   -1    0    0    0  501 -0.00000000000E+00  0.00000000000E+00  0.24273630509E+03  0.24278180288E+03  0.47000000000E+01 0.  1.
          5   -1    0    0  501    0  0.00000000000E+00 -0.00000000000E+00 -0.20020499553E+03  0.20026015638E+03  0.47000000000E+01 0. -1.
          6    1    1    2  502    0 -0.10633872972E+01 -0.26144381762E+02 -0.11482748902E+03  0.20845625854E+03  0.17200000000E+03 0. -1.
         -6    1    1    2    0  502  0.10633872972E+01  0.26144381762E+02  0.15735879858E+03  0.23458570072E+03  0.17200000000E+03 0.  1.
</event>
<event>
 4    1 -0.7151877E-004  0.2096845E+03  0.7818608E-02  0.1141816E+00
         -5   -1    0    0    0  501 -0.00000000000E+00  0.00000000000E+00  0.10206546575E+03  0.10217362330E+03  0.47000000000E+01 0.  1.
          5   -1    0    0  501    0  0.00000000000E+00 -0.00000000000E+00 -0.62284968398E+03  0.62286741674E+03  0.47000000000E+01 0. -1.
          6    1    1    2  502    0  0.90922937884E+02  0.78208855017E+02 -0.46186711353E+03  0.50723646970E+03  0.17200000000E+03 0. -1.
         -6    1    1    2    0  502 -0.90922937884E+02 -0.78208855017E+02 -0.58917104704E+02  0.21780457035E+03  0.17200000000E+03 0.  1.
</event>
<event>
 4    1 -0.7151877E-004  0.2398289E+03  0.7818608E-02  0.1119907E+00
         -5   -1    0    0    0  501 -0.00000000000E+00  0.00000000000E+00  0.18259378546E+03  0.18265426490E+03  0.47000000000E+01 0.  1.
          5   -1    0    0  501    0  0.00000000000E+00 -0.00000000000E+00 -0.56440225665E+03  0.56442182569E+03  0.47000000000E+01 0. -1.
          6    1    1    2  502    0 -0.10282863491E+03 -0.13175793717E+03 -0.43925539518E+03  0.50046297001E+03  0.17200000000E+03 0. -1.
         -6    1    1    2    0  502  0.10282863491E+03  0.13175793717E+03  0.57446923979E+02  0.24661312058E+03  0.17200000000E+03 0.  1.
</event>
<event>
 4    1 -0.7151877E-004  0.1828952E+03  0.7818608E-02  0.1165030E+00
         -5   -1    0    0    0  501 -0.00000000000E+00  0.00000000000E+00  0.58048837463E+03  0.58050740140E+03  0.47000000000E+01 0.  1.
          5   -1    0    0  501    0  0.00000000000E+00 -0.00000000000E+00 -0.72145141999E+02  0.72298074068E+02  0.47000000000E+01 0. -1.
          6    1    1    2  502    0 -0.53106678900E+02  0.32346938165E+02  0.10735139553E+03  0.21207302015E+03  0.17200000000E+03 0. -1.
         -6    1    1    2    0  502  0.53106678900E+02 -0.32346938165E+02  0.40099183710E+03  0.44073245532E+03  0.17200000000E+03 0.  1.
</event>
<event>
 4    1 -0.7151877E-004  0.2684010E+03  0.7818608E-02  0.1102198E+00
         -5   -1    0    0    0  501 -0.00000000000E+00  0.00000000000E+00  0.13260550725E+03  0.13268877328E+03  0.47000000000E+01 0.  1.
          5   -1    0    0  501    0  0.00000000000E+00 -0.00000000000E+00 -0.11001687293E+04  0.11001787686E+04  0.47000000000E+01 0. -1.
          6    1    1    2  502    0  0.13420750009E+03  0.15634399689E+03 -0.92244636967E+03  0.96070099581E+03  0.17200000000E+03 0. -1.
         -6    1    1    2    0  502 -0.13420750009E+03 -0.15634399689E+03 -0.45116852380E+02  0.27216654609E+03  0.17200000000E+03 0.  1.
</event>
<event>
 4    1 -0.7151877E-004  0.1857347E+03  0.7818608E-02  0.1162366E+00
          5   -1    0    0  501    0  0.00000000000E+00  0.00000000000E+00  0.16656212278E+03  0.16662842118E+03  0.47000000000E+01 0. -1.
         -5   -1    0    0    0  501 -0.00000000000E+00 -0.00000000000E+00 -0.36341472321E+03  0.36344511421E+03  0.47000000000E+01 0.  1.
          6    1    1    2  502    0 -0.69023247934E+02 -0.12213324270E+02  0.75436576219E+02  0.20046957644E+03  0.17200000000E+03 0. -1.
         -6    1    1    2    0  502  0.69023247934E+02  0.12213324270E+02 -0.27228917664E+03  0.32960395896E+03  0.17200000000E+03 0.  1.
</event>
<event>
 4    1 -0.7151877E-004  0.1735383E+03  0.7818608E-02  0.1174207E+00
         -5   -1    0    0    0  501 -0.00000000000E+00  0.00000000000E+00  0.25791549871E+03  0.25795831926E+03  0.47000000000E+01 0.  1.
          5   -1    0    0  501    0  0.00000000000E+00 -0.00000000000E+00 -0.15183293446E+03  0.15190566147E+03  0.47000000000E+01 0. -1.
          6    1    1    2  502    0 -0.10874547981E+02 -0.20329132412E+02 -0.45545268078E+02  0.17941544210E+03  0.17200000000E+03 0. -1.
         -6    1    1    2    0  502  0.10874547981E+02  0.20329132412E+02  0.15162783234E+03  0.23044853863E+03  0.17200000000E+03 0.  1.
</event>
<event>
 4    1 -0.7151877E-004  0.2065988E+03  0.7818608E-02  0.1144288E+00
          5   -1    0    0  501    0  0.00000000000E+00  0.00000000000E+00  0.11851842783E+04  0.11851935975E+04  0.47000000000E+01 0. -1.
         -5   -1    0    0    0  501 -0.00000000000E+00 -0.00000000000E+00 -0.39653995530E+03  0.39656780775E+03  0.47000000000E+01 0.  1.
          6    1    1    2  502    0 -0.46677799646E+02  0.10450002769E+03  0.11484365121E+04  0.11668716704E+04  0.17200000000E+03 0. -1.
         -6    1    1    2    0  502  0.46677799646E+02 -0.10450002769E+03 -0.35979218910E+03  0.41488973488E+03  0.17200000000E+03 0.  1.
</event>
<event>
 4    1 -0.7151877E-004  0.1805010E+03  0.7818608E-02  0.1167319E+00
         -5   -1    0    0    0  501 -0.00000000000E+00  0.00000000000E+00  0.23313581076E+03  0.23318318176E+03  0.47000000000E+01 0.  1.
          5   -1    0    0  501    0  0.00000000000E+00 -0.00000000000E+00 -0.84739361702E+03  0.84740665101E+03  0.47000000000E+01 0. -1.
          6    1    1    2  502    0  0.36489678577E+02 -0.40805753835E+02 -0.80087403783E+03  0.82096274621E+03  0.17200000000E+03 0. -1.
         -6    1    1    2    0  502 -0.36489678577E+02  0.40805753835E+02  0.18661623157E+03  0.25962708656E+03  0.17200000000E+03 0.  1.
</event>
<event>
 4    1 -0.7151877E-004  0.2663647E+03  0.7818608E-02  0.1103378E+00
          5   -1    0    0  501    0  0.00000000000E+00  0.00000000000E+00  0.58343416261E+03  0.58345309332E+03  0.47000000000E+01 0. -1.
         -5   -1    0    0    0  501 -0.00000000000E+00 -0.00000000000E+00 -0.30574395811E+03  0.30578008098E+03  0.47000000000E+01 0.  1.
          6    1    1    2  502    0  0.68200314040E+01  0.20327226589E+03  0.48390617552E+03  0.55237244104E+03  0.17200000000E+03 0. -1.
         -6    1    1    2    0  502 -0.68200314040E+01 -0.20327226589E+03 -0.20621597102E+03  0.33686073326E+03  0.17200000000E+03 0.  1.
</event>
<event>
 4    1 -0.7151877E-004  0.2366080E+03  0.7818608E-02  0.1122073E+00
         -5   -1    0    0    0  501 -0.00000000000E+00  0.00000000000E+00  0.14594684830E+03  0.14602250693E+03  0.47000000000E+01 0.  1.
          5   -1    0    0  501    0  0.00000000000E+00 -0.00000000000E+00 -0.75295277659E+03  0.75296744536E+03  0.47000000000E+01 0. -1.
          6    1    1    2  502    0  0.15090690253E+03  0.60219959166E+02 -0.61838832798E+03  0.66210834529E+03  0.17200000000E+03 0. -1.
         -6    1    1    2    0  502 -0.15090690253E+03 -0.60219959166E+02  0.11382399699E+02  0.23688160700E+03  0.17200000000E+03 0. -1.
</event>
<event>
 4    1 -0.7151877E-004  0.1752252E+03  0.7818608E-02  0.1172506E+00
          5   -1    0    0  501    0  0.00000000000E+00  0.00000000000E+00  0.43995714442E+03  0.43998224842E+03  0.47000000000E+01 0. -1.
         -5   -1    0    0    0  501 -0.00000000000E+00 -0.00000000000E+00 -0.11256511552E+03  0.11266319377E+03  0.47000000000E+01 0.  1.
          6    1    1    2  502    0  0.21921748730E+02 -0.25284721875E+02  0.33413221755E+03  0.37729062940E+03  0.17200000000E+03 0. -1.
         -6    1    1    2    0  502 -0.21921748730E+02  0.25284721875E+02 -0.67401886482E+01  0.17535481280E+03  0.17200000000E+03 0.  1.
</event>
<event>
 4    1 -0.7151877E-004  0.1736014E+03  0.7818608E-02  0.1174143E+00
         -5   -1    0    0    0  501 -0.00000000000E+00  0.00000000000E+00  0.21025287967E+03  0.21030540509E+03  0.47000000000E+01 0.  1.
          5   -1    0    0  501    0  0.00000000000E+00 -0.00000000000E+00 -0.36329816629E+03  0.36332856705E+03  0.47000000000E+01 0. -1.
          6    1    1    2  502    0 -0.18018667109E+02 -0.15125774367E+02 -0.29971957821E+03  0.34636582825E+03  0.17200000000E+03 0. -1.
         -6    1    1    2    0  502  0.18018667109E+02  0.15125774367E+02  0.14667429159E+03  0.22726814389E+03  0.17200000000E+03 0.  1.
</event>
<event>
 4    1 -0.7151877E-004  0.1726380E+03  0.7818608E-02  0.1175124E+00
         -5   -1    0    0    0  501 -0.00000000000E+00  0.00000000000E+00  0.43176924687E+03  0.43179482690E+03  0.47000000000E+01 0.  1.
          5   -1    0    0  501    0  0.00000000000E+00 -0.00000000000E+00 -0.20359902758E+03  0.20365326914E+03  0.47000000000E+01 0. -1.
          6    1    1    2  502    0  0.87220220115E+01 -0.11991854653E+02 -0.14424273675E+03  0.22496632048E+03  0.17200000000E+03 0. -1.
         -6    1    1    2    0  502 -0.87220220115E+01  0.11991854653E+02  0.37241295604E+03  0.41048177556E+03  0.17200000000E+03 0.  1.
</event>
<event>
 4    1 -0.7151877E-004  0.2471046E+03  0.7818608E-02  0.1115148E+00
          5   -1    0    0  501    0  0.00000000000E+00  0.00000000000E+00  0.13865303954E+04  0.13865383613E+04  0.47000000000E+01 0. -1.
         -5   -1    0    0    0  501 -0.00000000000E+00 -0.00000000000E+00 -0.10524036263E+03  0.10534526058E+03  0.47000000000E+01 0.  1.
          6    1    1    2  502    0  0.57034120810E+02  0.16799944351E+03  0.12096108887E+04  0.12345927288E+04  0.17200000000E+03 0. -1.
         -6    1    1    2    0  502 -0.57034120810E+02 -0.16799944351E+03  0.71679144053E+02  0.25729089306E+03  0.17200000000E+03 0.  1.
</event>
<event>
 4    1 -0.7151877E-004  0.2268482E+03  0.7818608E-02  0.1128878E+00
          5   -1    0    0  501    0  0.00000000000E+00  0.00000000000E+00  0.15388046860E+03  0.15395222836E+03  0.47000000000E+01 0. -1.
         -5   -1    0    0    0  501 -0.00000000000E+00 -0.00000000000E+00 -0.45254075539E+03  0.45256516137E+03  0.47000000000E+01 0.  1.
          6    1    1    2  502    0 -0.97599908166E+02  0.11113215266E+03  0.56985062625E+01  0.22691974441E+03  0.17200000000E+03 0. -1.
         -6    1    1    2    0  502  0.97599908166E+02 -0.11113215266E+03 -0.30435879305E+03  0.37959764532E+03  0.17200000000E+03 0.  1.
</event>
<event>
 4    1 -0.7151877E-004  0.2046524E+03  0.7818608E-02  0.1145872E+00
          5   -1    0    0  501    0  0.00000000000E+00  0.00000000000E+00  0.88464930491E+02  0.88589694247E+02  0.47000000000E+01 0. -1.
         -5   -1    0    0    0  501 -0.00000000000E+00 -0.00000000000E+00 -0.64435127675E+03  0.64436841779E+03  0.47000000000E+01 0.  1.
          6    1    1    2  502    0 -0.60475470785E+02  0.92958684470E+02 -0.88959578443E+02  0.22315108376E+03  0.17200000000E+03 0. -1.
         -6    1    1    2    0  502  0.60475470785E+02 -0.92958684470E+02 -0.46692676781E+03  0.50980702828E+03  0.17200000000E+03 0.  1.
</event>
<event>
 4    1 -0.7151877E-004  0.2043093E+03  0.7818608E-02  0.1146153E+00
         -5   -1    0    0    0  501 -0.00000000000E+00  0.00000000000E+00  0.15472300577E+03  0.15479437494E+03  0.47000000000E+01 0.  1.
          5   -1    0    0  501    0  0.00000000000E+00 -0.00000000000E+00 -0.58044952882E+03  0.58046855686E+03  0.47000000000E+01 0. -1.
          6    1    1    2  502    0  0.86376986283E+02  0.68537025610E+02 -0.48185837158E+03  0.52338303173E+03  0.17200000000E+03 0. -1.
         -6    1    1    2    0  502 -0.86376986283E+02 -0.68537025610E+02  0.56131848529E+02  0.21187990008E+03  0.17200000000E+03 0.  1.
</event>
<event>
 4    1 -0.7151877E-004  0.2638049E+03  0.7818608E-02  0.1104878E+00
          5   -1    0    0  501    0  0.00000000000E+00  0.00000000000E+00  0.64574179828E+02  0.64744997494E+02  0.47000000000E+01 0. -1.
         -5   -1    0    0    0  501 -0.00000000000E+00 -0.00000000000E+00 -0.11692472382E+04  0.11692566844E+04  0.47000000000E+01 0.  1.
          6    1    1    2  502    0  0.73463693845E+02  0.18604334214E+03 -0.37822373205E+03  0.46113580533E+03  0.17200000000E+03 0. -1.
         -6    1    1    2    0  502 -0.73463693845E+02 -0.18604334214E+03 -0.72644932634E+03  0.77286587660E+03  0.17200000000E+03 0.  1.
</event>
<event>
 4    1 -0.7151877E-004  0.1932141E+03  0.7818608E-02  0.1155594E+00
         -5   -1    0    0    0  501 -0.00000000000E+00  0.00000000000E+00  0.14384556618E+03  0.14392232943E+03  0.47000000000E+01 0.  1.
          5   -1    0    0  501    0  0.00000000000E+00 -0.00000000000E+00 -0.13345421191E+04  0.13345503953E+04  0.47000000000E+01 0. -1.
          6    1    1    2  502    0 -0.87755710372E+02  0.68275050991E+01 -0.12588496190E+04  0.12735910029E+04  0.17200000000E+03 0. -1.
         -6    1    1    2    0  502  0.87755710372E+02 -0.68275050991E+01  0.68153066048E+02  0.20488172183E+03  0.17200000000E+03 0.  1.
</event>
<event>
 4    1 -0.7151877E-004  0.1835595E+03  0.7818608E-02  0.1164402E+00
          5   -1    0    0  501    0  0.00000000000E+00  0.00000000000E+00  0.67563847602E+03  0.67565482332E+03  0.47000000000E+01 0. -1.
         -5   -1    0    0    0  501 -0.00000000000E+00 -0.00000000000E+00 -0.51405128600E+03  0.51407277173E+03  0.47000000000E+01 0.  1.
          6    1    1    2  502    0 -0.20545192893E+01  0.64076989126E+02  0.64606842227E+03  0.67163865869E+03  0.17200000000E+03 0. -1.
         -6    1    1    2    0  502  0.20545192893E+01 -0.64076989126E+02 -0.48448123225E+03  0.51808893637E+03  0.17200000000E+03 0.  1.
</event>
<event>
 4    1 -0.7151877E-004  0.3124887E+03  0.7818608E-02  0.1079159E+00
          5   -1    0    0  501    0  0.00000000000E+00  0.00000000000E+00  0.26295114564E+03  0.26299314629E+03  0.47000000000E+01 0. -1.
         -5   -1    0    0    0  501 -0.00000000000E+00 -0.00000000000E+00 -0.37295934211E+03  0.37298895543E+03  0.47000000000E+01 0.  1.
          6    1    1    2  502    0 -0.56138913288E+02 -0.25478154433E+03 -0.33618872120E+02  0.31429196853E+03  0.17200000000E+03 0. -1.
         -6    1    1    2    0  502  0.56138913288E+02  0.25478154433E+03 -0.76389324350E+02  0.32169013319E+03  0.17200000000E+03 0.  1.
</event>
<event>
 4    1 -0.7151877E-004  0.2108155E+03  0.7818608E-02  0.1140922E+00
          5   -1    0    0  501    0  0.00000000000E+00  0.00000000000E+00  0.10778832475E+03  0.10789074545E+03  0.47000000000E+01 0. -1.
         -5   -1    0    0    0  501 -0.00000000000E+00 -0.00000000000E+00 -0.54051590730E+03  0.54053634109E+03  0.47000000000E+01 0.  1.
          6    1    1    2  502    0  0.24223132027E+02 -0.11946718951E+03 -0.58296378994E+02  0.21872731265E+03  0.17200000000E+03 0. -1.
         -6    1    1    2    0  502 -0.24223132027E+02  0.11946718951E+03 -0.37443120355E+03  0.42969977390E+03  0.17200000000E+03 0.  1.
</event>
<event>
 4    1 -0.7151877E-004  0.4315760E+03  0.7818608E-02  0.1033363E+00
         -5   -1    0    0    0  501 -0.00000000000E+00  0.00000000000E+00  0.46539098416E+03  0.46541471628E+03  0.47000000000E+01 0.  1.
          5   -1    0    0  501    0  0.00000000000E+00 -0.00000000000E+00 -0.75541733898E+03  0.75543195989E+03  0.47000000000E+01 0. -1.
          6    1    1    2  502    0  0.39335283710E+03  0.44129155485E+02 -0.56360432205E+03  0.70986454247E+03  0.17200000000E+03 0. -1.
         -6    1    1    2    0  502 -0.39335283710E+03 -0.44129155485E+02  0.27357796722E+03  0.51098213371E+03  0.17200000000E+03 0.  1.
</event>
<event>
 4    1 -0.7151877E-004  0.1795714E+03  0.7818608E-02  0.1168218E+00
         -5   -1    0    0    0  501 -0.00000000000E+00  0.00000000000E+00  0.11385629967E+04  0.11385726975E+04  0.47000000000E+01 0.  1.
          5   -1    0    0  501    0  0.00000000000E+00 -0.00000000000E+00 -0.21312581361E+03  0.21317763116E+03  0.47000000000E+01 0. -1.
          6    1    1    2  502    0  0.13923344753E+02  0.49679236628E+02 -0.16665734984E+03  0.24499093521E+03  0.17200000000E+03 0. -1.
         -6    1    1    2    0  502 -0.13923344753E+02 -0.49679236628E+02  0.10920945329E+04  0.11067593934E+04  0.17200000000E+03 0.  1.
</event>
<event>
 4    1 -0.7151877E-004  0.4020395E+03  0.7818608E-02  0.1043076E+00
         -5   -1    0    0    0  501 -0.00000000000E+00  0.00000000000E+00  0.25900336946E+03  0.25904601018E+03  0.47000000000E+01 0.  1.
          5   -1    0    0  501    0  0.00000000000E+00 -0.00000000000E+00 -0.95489114155E+03  0.95490270824E+03  0.47000000000E+01 0. -1.
          6    1    1    2  502    0 -0.32416057443E+03  0.16423067879E+03 -0.70525426666E+03  0.81180008285E+03  0.17200000000E+03 0. -1.
         -6    1    1    2    0  502  0.32416057443E+03 -0.16423067879E+03  0.93664945707E+01  0.40214863557E+03  0.17200000000E+03 0.  1.
</event>
<event>
 4    1 -0.7151877E-004  0.2135131E+03  0.7818608E-02  0.1138814E+00
         -5   -1    0    0    0  501 -0.00000000000E+00  0.00000000000E+00  0.15331433465E+03  0.15338635927E+03  0.47000000000E+01 0.  1.
          5   -1    0    0  501    0  0.00000000000E+00 -0.00000000000E+00 -0.17935959255E+04  0.17936020835E+04  0.47000000000E+01 0. -1.
          6    1    1    2  502    0 -0.12650581309E+03 -0.33257513430E+00 -0.17093105474E+04  0.17225940841E+04  0.17200000000E+03 0. -1.
         -6    1    1    2    0  502  0.12650581309E+03  0.33257513430E+00  0.69028956516E+02  0.22439435864E+03  0.17200000000E+03 0.  1.
</event>
<event>
 4    1 -0.7151877E-004  0.2489883E+03  0.7818608E-02  0.1113946E+00
         -5   -1    0    0    0  501 -0.00000000000E+00  0.00000000000E+00  0.26846568857E+03  0.26850682662E+03  0.47000000000E+01 0.  1.
          5   -1    0    0  501    0  0.00000000000E+00 -0.00000000000E+00 -0.10001695001E+04  0.10001805431E+04  0.47000000000E+01 0. -1.
          6    1    1    2  502    0  0.11198565150E+03 -0.14096240223E+03 -0.92217657583E+03  0.95519883898E+03  0.17200000000E+03 0. -1.
         -6    1    1    2    0  502 -0.11198565150E+03  0.14096240223E+03  0.19047276432E+03  0.31348853078E+03  0.17200000000E+03 0.  1.
</event>
<event>
 4    1 -0.7151877E-004  0.2242945E+03  0.7818608E-02  0.1130721E+00
          5   -1    0    0  501    0  0.00000000000E+00  0.00000000000E+00  0.45865707031E+03  0.45868115085E+03  0.47000000000E+01 0. -1.
         -5   -1    0    0    0  501 -0.00000000000E+00 -0.00000000000E+00 -0.11660017071E+03  0.11669485769E+03  0.47000000000E+01 0.  1.
          6    1    1    2  502    0  0.14395190427E+03 -0.13684513092E+01  0.24144040254E+03  0.32954740385E+03  0.17200000000E+03 0. -1.
         -6    1    1    2    0  502 -0.14395190427E+03  0.13684513092E+01  0.10061649705E+03  0.24582860469E+03  0.17200000000E+03 0.  1.
</event>
<event>
 4    1 -0.7151877E-004  0.2499843E+03  0.7818608E-02  0.1113315E+00
          5   -1    0    0  501    0  0.00000000000E+00  0.00000000000E+00  0.23886778790E+03  0.23891402239E+03  0.47000000000E+01 0. -1.
         -5   -1    0    0    0  501 -0.00000000000E+00 -0.00000000000E+00 -0.26864081602E+03  0.26868192725E+03  0.47000000000E+01 0.  1.
          6    1    1    2  502    0 -0.17736588244E+03 -0.38071969864E+02  0.26411673909E+02  0.25137563060E+03  0.17200000000E+03 0. -1.
         -6    1    1    2    0  502  0.17736588244E+03  0.38071969864E+02 -0.56184702031E+02  0.25622031903E+03  0.17200000000E+03 0.  1.
</event>
<event>
 4    1 -0.7151877E-004  0.3894398E+03  0.7818608E-02  0.1047499E+00
          5   -1    0    0  501    0  0.00000000000E+00  0.00000000000E+00  0.94946781895E+03  0.94947945171E+03  0.47000000000E+01 0. -1.
         -5   -1    0    0    0  501 -0.00000000000E+00 -0.00000000000E+00 -0.16037828345E+03  0.16044713710E+03  0.47000000000E+01 0.  1.
          6    1    1    2  502    0 -0.34812281294E+03  0.29830449005E+02  0.35814323945E+03  0.52908404676E+03  0.17200000000E+03 0.  1.
         -6    1    1    2    0  502  0.34812281294E+03 -0.29830449005E+02  0.43094629605E+03  0.58084254205E+03  0.17200000000E+03 0.  1.
</event>
<event>
 4    1 -0.7151877E-004  0.2114445E+03  0.7818608E-02  0.1140427E+00
          5   -1    0    0  501    0  0.00000000000E+00  0.00000000000E+00  0.18449913037E+03  0.18455898544E+03  0.47000000000E+01 0. -1.
         -5   -1    0    0    0  501 -0.00000000000E+00 -0.00000000000E+00 -0.26917452715E+03  0.26921555688E+03  0.47000000000E+01 0.  1.
          6    1    1    2  502    0 -0.75346050885E+02  0.97199441310E+02  0.29468521044E+02  0.21348806174E+03  0.17200000000E+03 0. -1.
         -6    1    1    2    0  502  0.75346050885E+02 -0.97199441310E+02 -0.11414391783E+03  0.24028648058E+03  0.17200000000E+03 0.  1.
</event>
<event>
 4    1 -0.7151877E-004  0.1793068E+03  0.7818608E-02  0.1168476E+00
         -5   -1    0    0    0  501 -0.00000000000E+00  0.00000000000E+00  0.79593296458E+03  0.79594684126E+03  0.47000000000E+01 0.  1.
          5   -1    0    0  501    0  0.00000000000E+00 -0.00000000000E+00 -0.16718407805E+03  0.16725012990E+03  0.47000000000E+01 0. -1.
          6    1    1    2  502    0 -0.13929176351E+01 -0.50645549693E+02 -0.10504668480E+03  0.20781173670E+03  0.17200000000E+03 0. -1.
         -6    1    1    2    0  502  0.13929176351E+01  0.50645549693E+02  0.73379557134E+03  0.75538523446E+03  0.17200000000E+03 0.  1.
</event>
<event>
 4    1 -0.7151877E-004  0.1832365E+03  0.7818608E-02  0.1164707E+00
         -5   -1    0    0    0  501 -0.00000000000E+00  0.00000000000E+00  0.56554384321E+03  0.56556337275E+03  0.47000000000E+01 0.  1.
          5   -1    0    0  501    0  0.00000000000E+00 -0.00000000000E+00 -0.17008081058E+03  0.17014573790E+03  0.47000000000E+01 0. -1.
          6    1    1    2  502    0  0.20549630755E+02  0.59743715361E+02 -0.99081984509E+02  0.20830947771E+03  0.17200000000E+03 0. -1.
         -6    1    1    2    0  502 -0.20549630755E+02 -0.59743715361E+02  0.49454501714E+03  0.52739963295E+03  0.17200000000E+03 0.  1.
</event>
<event>
 4    1 -0.7151877E-004  0.2027922E+03  0.7818608E-02  0.1147404E+00
          5   -1    0    0  501    0  0.00000000000E+00  0.00000000000E+00  0.54494486025E+03  0.54496512798E+03  0.47000000000E+01 0. -1.
         -5   -1    0    0    0  501 -0.00000000000E+00 -0.00000000000E+00 -0.89078883991E+02  0.89202789043E+02  0.47000000000E+01 0.  1.
          6    1    1    2  502    0  0.10461886270E+02  0.10691696084E+03  0.35221120578E+03  0.40642025178E+03  0.17200000000E+03 0. -1.
         -6    1    1    2    0  502 -0.10461886270E+02 -0.10691696084E+03  0.10365477048E+03  0.22774766524E+03  0.17200000000E+03 0.  1.
</event>
<event>
 4    1 -0.7151877E-004  0.1869922E+03  0.7818608E-02  0.1161203E+00
          5   -1    0    0  501    0  0.00000000000E+00  0.00000000000E+00  0.68111027013E+03  0.68112648610E+03  0.47000000000E+01 0. -1.
         -5   -1    0    0    0  501 -0.00000000000E+00 -0.00000000000E+00 -0.61965710863E+02  0.62143698979E+02  0.47000000000E+01 0.  1.
          6    1    1    2  502    0  0.25682301793E+02 -0.68720378595E+02  0.46412148550E+03  0.50037468397E+03  0.17200000000E+03 0. -1.
         -6    1    1    2    0  502 -0.25682301793E+02  0.68720378595E+02  0.15502307376E+03  0.24289550111E+03  0.17200000000E+03 0.  1.
</event>
<event>
 4    1 -0.7151877E-004  0.1891017E+03  0.7818608E-02  0.1159274E+00
         -5   -1    0    0    0  501 -0.00000000000E+00  0.00000000000E+00  0.11000315648E+04  0.11000416054E+04  0.47000000000E+01 0.  1.
          5   -1    0    0  501    0  0.00000000000E+00 -0.00000000000E+00 -0.21885381125E+03  0.21890427291E+03  0.47000000000E+01 0. -1.
          6    1    1    2  502    0  0.58522619243E+02  0.52445614369E+02 -0.16794733451E+03  0.25291450453E+03  0.17200000000E+03 0. -1.
         -6    1    1    2    0  502 -0.58522619243E+02 -0.52445614369E+02  0.10491250881E+04  0.10660313738E+04  0.17200000000E+03 0.  1.
</event>
<event>
 4    1 -0.7151877E-004  0.2081597E+03  0.7818608E-02  0.1143032E+00
         -5   -1    0    0    0  501 -0.00000000000E+00  0.00000000000E+00  0.34021228667E+03  0.34024475015E+03  0.47000000000E+01 0.  1.
          5   -1    0    0  501    0  0.00000000000E+00 -0.00000000000E+00 -0.37950844597E+03  0.37953754829E+03  0.47000000000E+01 0. -1.
          6    1    1    2  502    0 -0.88321728286E+02 -0.77108493710E+02 -0.31301075060E+03  0.37590713944E+03  0.17200000000E+03 0. -1.
         -6    1    1    2    0  502  0.88321728286E+02  0.77108493710E+02  0.27371459130E+03  0.34387515900E+03  0.17200000000E+03 0.  1.
</event>
<event>
 4    1 -0.7151877E-004  0.1900989E+03  0.7818608E-02  0.1158372E+00
          5   -1    0    0  501    0  0.00000000000E+00  0.00000000000E+00  0.12346341442E+03  0.12355284173E+03  0.47000000000E+01 0. -1.
         -5   -1    0    0    0  501 -0.00000000000E+00 -0.00000000000E+00 -0.70068086690E+03  0.70069662996E+03  0.47000000000E+01 0.  1.
          6    1    1    2  502    0 -0.75826037511E+02 -0.28355084799E+02  0.25924896204E+02  0.19185853914E+03  0.17200000000E+03 0. -1.
         -6    1    1    2    0  502  0.75826037511E+02  0.28355084799E+02 -0.60314234869E+03  0.63239093255E+03  0.17200000000E+03 0.  1.
</event>
<event>
 4    1 -0.7151877E-004  0.1835110E+03  0.7818608E-02  0.1164448E+00
         -5   -1    0    0    0  501 -0.00000000000E+00  0.00000000000E+00  0.14791452505E+03  0.14798917771E+03  0.47000000000E+01 0.  1.
          5   -1    0    0  501    0  0.00000000000E+00 -0.00000000000E+00 -0.34975420230E+03  0.34978578020E+03  0.47000000000E+01 0. -1.
          6    1    1    2  502    0 -0.63957188572E+02  0.13242928624E+01 -0.24803286487E+03  0.30853942662E+03  0.17200000000E+03 0. -1.
         -6    1    1    2    0  502  0.63957188572E+02 -0.13242928624E+01  0.46193187613E+02  0.18923553129E+03  0.17200000000E+03 0.  1.
</event>
<event>
 4    1 -0.7151877E-004  0.2202113E+03  0.7818608E-02  0.1133726E+00
          5   -1    0    0  501    0  0.00000000000E+00  0.00000000000E+00  0.40834306028E+03  0.40837010771E+03  0.47000000000E+01 0. -1.
         -5   -1    0    0    0  501 -0.00000000000E+00 -0.00000000000E+00 -0.88318232708E+03  0.88319483290E+03  0.47000000000E+01 0.  1.
          6    1    1    2  502    0  0.78578447736E+02  0.11284699661E+03  0.36338239904E+03  0.42489973526E+03  0.17200000000E+03 0. -1.
         -6    1    1    2    0  502 -0.78578447736E+02 -0.11284699661E+03 -0.83822166584E+03  0.86666520536E+03  0.17200000000E+03 0.  1.
</event>
<event>
 4    1 -0.7151877E-004  0.2132714E+03  0.7818608E-02  0.1139001E+00
          5   -1    0    0  501    0  0.00000000000E+00  0.00000000000E+00  0.33446387233E+03  0.33449689370E+03  0.47000000000E+01 0. -1.
         -5   -1    0    0    0  501 -0.00000000000E+00 -0.00000000000E+00 -0.83099828971E+03  0.83101158084E+03  0.47000000000E+01 0.  1.
          6    1    1    2  502    0  0.98747681151E+02 -0.78419324485E+02  0.28467927666E+03  0.35570631924E+03  0.17200000000E+03 0. -1.
         -6    1    1    2    0  502 -0.98747681151E+02  0.78419324485E+02 -0.78121369404E+03  0.80980215530E+03  0.17200000000E+03 0.  1.
</event>
<event>
 4    1 -0.7151877E-004  0.1745607E+03  0.7818608E-02  0.1173174E+00
         -5   -1    0    0    0  501 -0.00000000000E+00  0.00000000000E+00  0.16010542201E+04  0.16010611187E+04  0.47000000000E+01 0.  1.
          5   -1    0    0  501    0  0.00000000000E+00 -0.00000000000E+00 -0.28303673286E+02  0.28691251654E+02  0.47000000000E+01 0. -1.
          6    1    1    2  502    0  0.19528416627E+02 -0.22496051025E+02  0.31662867850E+03  0.36155933319E+03  0.17200000000E+03 0. -1.
         -6    1    1    2    0  502 -0.19528416627E+02  0.22496051025E+02  0.12561218683E+04  0.12681930371E+04  0.17200000000E+03 0.  1.
</event>
<event>
 4    1 -0.7151877E-004  0.2219486E+03  0.7818608E-02  0.1132439E+00
         -5   -1    0    0    0  501 -0.00000000000E+00  0.00000000000E+00  0.40537409223E+03  0.40540133775E+03  0.47000000000E+01 0.  1.
          5   -1    0    0  501    0  0.00000000000E+00 -0.00000000000E+00 -0.39033475983E+03  0.39036305503E+03  0.47000000000E+01 0. -1.
          6    1    1    2  502    0 -0.21591020289E+02 -0.13860372007E+03 -0.32267948190E+03  0.39164168753E+03  0.17200000000E+03 0. -1.
         -6    1    1    2    0  502  0.21591020289E+02  0.13860372007E+03  0.33771881429E+03  0.40412270525E+03  0.17200000000E+03 0.  1.
</event>
<event>
 4    1 -0.7151877E-004  0.2809474E+03  0.7818608E-02  0.1095173E+00
         -5   -1    0    0    0  501 -0.00000000000E+00  0.00000000000E+00  0.72299549919E+03  0.72301077575E+03  0.47000000000E+01 0.  1.
          5   -1    0    0  501    0  0.00000000000E+00 -0.00000000000E+00 -0.78983791534E+03  0.78985189910E+03  0.47000000000E+01 0. -1.
          6    1    1    2  502    0 -0.87734089927E+02  0.20408376948E+03 -0.73563380276E+03  0.78745701296E+03  0.17200000000E+03 0. -1.
         -6    1    1    2    0  502  0.87734089927E+02 -0.20408376948E+03  0.66879138661E+03  0.72540566189E+03  0.17200000000E+03 0.  1.
</event>
<event>
 4    1 -0.7151877E-004  0.1735173E+03  0.7818608E-02  0.1174229E+00
         -5   -1    0    0    0  501 -0.00000000000E+00  0.00000000000E+00  0.49308600695E+03  0.49310840619E+03  0.47000000000E+01 0.  1.
          5   -1    0    0  501    0  0.00000000000E+00 -0.00000000000E+00 -0.25871638777E+03  0.25875907579E+03  0.47000000000E+01 0. -1.
          6    1    1    2  502    0 -0.56111646951E+00 -0.22890020358E+02 -0.21141450664E+03  0.27350386012E+03  0.17200000000E+03 0. -1.
         -6    1    1    2    0  502  0.56111646951E+00  0.22890020358E+02  0.44578412582E+03  0.47836362185E+03  0.17200000000E+03 0.  1.
</event>
<event>
 4    1 -0.7151877E-004  0.2399609E+03  0.7818608E-02  0.1119819E+00
         -5   -1    0    0    0  501 -0.00000000000E+00  0.00000000000E+00  0.28969755926E+03  0.28973568272E+03  0.47000000000E+01 0.  1.
          5   -1    0    0  501    0  0.00000000000E+00 -0.00000000000E+00 -0.25671718313E+03  0.25676020352E+03  0.47000000000E+01 0. -1.
          6    1    1    2  502    0  0.70169810657E+02 -0.15189937865E+03 -0.11340491850E+03  0.26540892808E+03  0.17200000000E+03 0. -1.
         -6    1    1    2    0  502 -0.70169810657E+02  0.15189937865E+03  0.14638529464E+03  0.28108695816E+03  0.17200000000E+03 0. -1.
</event>
<event>
 4    1 -0.7151877E-004  0.2588713E+03  0.7818608E-02  0.1107823E+00
          5   -1    0    0  501    0  0.00000000000E+00  0.00000000000E+00  0.92428987354E+03  0.92430182318E+03  0.47000000000E+01 0. -1.
         -5   -1    0    0    0  501 -0.00000000000E+00 -0.00000000000E+00 -0.14050668204E+03  0.14058526843E+03  0.47000000000E+01 0.  1.
          6    1    1    2  502    0 -0.30365895654E+02  0.19107137456E+03  0.76238050290E+03  0.80513252884E+03  0.17200000000E+03 0. -1.
         -6    1    1    2    0  502  0.30365895654E+02 -0.19107137456E+03  0.21402688598E+02  0.25975456276E+03  0.17200000000E+03 0.  1.
</event>
<event>
 4    1 -0.7151877E-004  0.2344393E+03  0.7818608E-02  0.1123554E+00
         -5   -1    0    0    0  501 -0.00000000000E+00  0.00000000000E+00  0.90767435947E+03  0.90768652785E+03  0.47000000000E+01 0.  1.
          5   -1    0    0  501    0  0.00000000000E+00 -0.00000000000E+00 -0.71356757319E+02  0.71511375424E+02  0.47000000000E+01 0. -1.
          6    1    1    2  502    0  0.94474676921E+01  0.15902363925E+03  0.22697493572E+03  0.32631180477E+03  0.17200000000E+03 0. -1.
         -6    1    1    2    0  502 -0.94474676921E+01 -0.15902363925E+03  0.60934266643E+03  0.65288609850E+03  0.17200000000E+03 0.  1.
</event>
<event>
 4    1 -0.7151877E-004  0.2411846E+03  0.7818608E-02  0.1119006E+00
         -5   -1    0    0    0  501 -0.00000000000E+00  0.00000000000E+00  0.24905483456E+03  0.24909917828E+03  0.47000000000E+01 0.  1.
          5   -1    0    0  501    0  0.00000000000E+00 -0.00000000000E+00 -0.72212661134E+03  0.72214190628E+03  0.47000000000E+01 0. -1.
          6    1    1    2  502    0  0.14751837099E+03  0.82609574987E+02 -0.63599066195E+03  0.68018683738E+03  0.17200000000E+03 0. -1.
         -6    1    1    2    0  502 -0.14751837099E+03 -0.82609574987E+02  0.16291888517E+03  0.29105424718E+03  0.17200000000E+03 0.  1.
</event>
<event>
 4    1 -0.7151877E-004  0.2280600E+03  0.7818608E-02  0.1128013E+00
          5   -1    0    0  501    0  0.00000000000E+00  0.00000000000E+00  0.29728321513E+02  0.30097559702E+02  0.47000000000E+01 0. -1.
         -5   -1    0    0    0  501 -0.00000000000E+00 -0.00000000000E+00 -0.17824346993E+04  0.17824408958E+04  0.47000000000E+01 0.  1.
          6    1    1    2  502    0  0.14791744731E+03  0.23405366280E+02 -0.10188058143E+04  0.10440194777E+04  0.17200000000E+03 0.  1.
         -6    1    1    2    0  502 -0.14791744731E+03 -0.23405366280E+02 -0.73390056341E+03  0.76851897788E+03  0.17200000000E+03 0. -1.
</event>
<event>
 4    1 -0.7151877E-004  0.1900294E+03  0.7818608E-02  0.1158435E+00
          5   -1    0    0  501    0  0.00000000000E+00  0.00000000000E+00  0.12292715724E+03  0.12301697438E+03  0.47000000000E+01 0. -1.
         -5   -1    0    0    0  501 -0.00000000000E+00 -0.00000000000E+00 -0.63547160678E+03  0.63548898733E+03  0.47000000000E+01 0.  1.
          6    1    1    2  502    0 -0.35802753424E+02  0.72424642359E+02  0.21895944254E+02  0.19128669151E+03  0.17200000000E+03 0. -1.
         -6    1    1    2    0  502  0.35802753424E+02 -0.72424642359E+02 -0.53444039380E+03  0.56721927021E+03  0.17200000000E+03 0.  1.
</event>
<event>
 4    1 -0.7151877E-004  0.1985126E+03  0.7818608E-02  0.1151000E+00
          5   -1    0    0  501    0  0.00000000000E+00  0.00000000000E+00  0.10576696288E+03  0.10587133907E+03  0.47000000000E+01 0. -1.
         -5   -1    0    0    0  501 -0.00000000000E+00 -0.00000000000E+00 -0.15330219486E+04  0.15330291533E+04  0.47000000000E+01 0.  1.
          6    1    1    2  502    0 -0.28364189823E+01  0.99071689540E+02 -0.61299739440E+00  0.19851352777E+03  0.17200000000E+03 0. -1.
         -6    1    1    2    0  502  0.28364189823E+01 -0.99071689540E+02 -0.14266419883E+04  0.14403869646E+04  0.17200000000E+03 0.  1.
</event>
<event>
 4    1 -0.7151877E-004  0.1825224E+03  0.7818608E-02  0.1165384E+00
         -5   -1    0    0    0  501 -0.00000000000E+00  0.00000000000E+00  0.66437727378E+02  0.66603765803E+02  0.47000000000E+01 0.  1.
          5   -1    0    0  501    0  0.00000000000E+00 -0.00000000000E+00 -0.12028391766E+04  0.12028483590E+04  0.47000000000E+01 0. -1.
          6    1    1    2  502    0 -0.34594661410E+02  0.50335349286E+02 -0.10531331792E+04  0.10688329762E+04  0.17200000000E+03 0. -1.
         -6    1    1    2    0  502  0.34594661410E+02 -0.50335349286E+02 -0.83268270063E+02  0.20061914860E+03  0.17200000000E+03 0.  1.
</event>
<event>
 4    1 -0.7151877E-004  0.1927248E+03  0.7818608E-02  0.1156026E+00
          5   -1    0    0  501    0  0.00000000000E+00  0.00000000000E+00  0.84035699626E+03  0.84037013938E+03  0.47000000000E+01 0. -1.
         -5   -1    0    0    0  501 -0.00000000000E+00 -0.00000000000E+00 -0.17844365031E+03  0.17850553587E+03  0.47000000000E+01 0.  1.
          6    1    1    2  502    0  0.55620485377E+02  0.66822328144E+02  0.77283989092E+03  0.79650760130E+03  0.17200000000E+03 0. -1.
         -6    1    1    2    0  502 -0.55620485377E+02 -0.66822328144E+02 -0.11092654497E+03  0.22236807395E+03  0.17200000000E+03 0.  1.
</event>
<event>
 4    1 -0.7151877E-004  0.1929756E+03  0.7818608E-02  0.1155805E+00
          5   -1    0    0  501    0  0.00000000000E+00  0.00000000000E+00  0.13100814210E+03  0.13109242272E+03  0.47000000000E+01 0. -1.
         -5   -1    0    0    0  501 -0.00000000000E+00 -0.00000000000E+00 -0.55424846702E+03  0.55426839455E+03  0.47000000000E+01 0.  1.
          6    1    1    2  502    0  0.26125192202E+02 -0.83504820480E+02  0.27616009989E+02  0.19494159310E+03  0.17200000000E+03 0. -1.
         -6    1    1    2    0  502 -0.26125192202E+02  0.83504820480E+02 -0.45085633492E+03  0.49041922418E+03  0.17200000000E+03 0.  1.
</event>
<event>
 4    1 -0.7151877E-004  0.3219956E+03  0.7818608E-02  0.1074735E+00
         -5   -1    0    0    0  501 -0.00000000000E+00  0.00000000000E+00  0.26690835684E+03  0.26694973488E+03  0.47000000000E+01 0.  1.
          5   -1    0    0  501    0  0.00000000000E+00 -0.00000000000E+00 -0.51399342921E+03  0.51401491736E+03  0.47000000000E+01 0. -1.
          6    1    1    2  502    0  0.25440131124E+03  0.96835677713E+02  0.69492309833E+02  0.32940910243E+03  0.17200000000E+03 0.  1.
         -6    1    1    2    0  502 -0.25440131124E+03 -0.96835677713E+02 -0.31657738220E+03  0.45155554981E+03  0.17200000000E+03 0. -1.
</event>
<event>
 4    1 -0.7151877E-004  0.2605368E+03  0.7818608E-02  0.1106821E+00
         -5   -1    0    0    0  501 -0.00000000000E+00  0.00000000000E+00  0.56524070280E+03  0.56526024281E+03  0.47000000000E+01 0.  1.
          5   -1    0    0  501    0  0.00000000000E+00 -0.00000000000E+00 -0.11294100765E+04  0.11294198559E+04  0.47000000000E+01 0. -1.
          6    1    1    2  502    0 -0.82389514004E+02  0.17750315412E+03 -0.10831123248E+04  0.11140070511E+04  0.17200000000E+03 0. -1.
         -6    1    1    2    0  502  0.82389514004E+02 -0.17750315412E+03  0.51894295110E+03  0.58067304762E+03  0.17200000000E+03 0.  1.
</event>
<event>
 4    1 -0.7151877E-004  0.1817209E+03  0.7818608E-02  0.1166148E+00
          5   -1    0    0  501    0  0.00000000000E+00  0.00000000000E+00  0.13135352059E+03  0.13143757976E+03  0.47000000000E+01 0. -1.
         -5   -1    0    0    0  501 -0.00000000000E+00 -0.00000000000E+00 -0.25959332094E+03  0.25963586478E+03  0.47000000000E+01 0.  1.
          6    1    1    2  502    0 -0.56783419172E+02 -0.14633149880E+02 -0.29000269550E+02  0.18402038312E+03  0.17200000000E+03 0. -1.
         -6    1    1    2    0  502  0.56783419172E+02  0.14633149880E+02 -0.99239530801E+02  0.20705306142E+03  0.17200000000E+03 0.  1.
</event>
<event>
 4    1 -0.7151877E-004  0.1806572E+03  0.7818608E-02  0.1167169E+00
          5   -1    0    0  501    0  0.00000000000E+00  0.00000000000E+00  0.23256015999E+03  0.23260764822E+03  0.47000000000E+01 0. -1.
         -5   -1    0    0    0  501 -0.00000000000E+00 -0.00000000000E+00 -0.57369525648E+03  0.57371450854E+03  0.47000000000E+01 0.  1.
          6    1    1    2  502    0 -0.70754506812E+01 -0.54799134163E+02  0.17984143197E+03  0.25491164697E+03  0.17200000000E+03 0. -1.
         -6    1    1    2    0  502  0.70754506812E+01  0.54799134163E+02 -0.52097652846E+03  0.55141050980E+03  0.17200000000E+03 0.  1.
</event>
<event>
 4    1 -0.7151877E-004  0.2214301E+03  0.7818608E-02  0.1132821E+00
          5   -1    0    0  501    0  0.00000000000E+00  0.00000000000E+00  0.37869161691E+03  0.37872078200E+03  0.47000000000E+01 0. -1.
         -5   -1    0    0    0  501 -0.00000000000E+00 -0.00000000000E+00 -0.10189281204E+04  0.10189389601E+04  0.47000000000E+01 0.  1.
          6    1    1    2  502    0  0.13640342672E+03 -0.29006773706E+02  0.33280687940E+03  0.39973954860E+03  0.17200000000E+03 0. -1.
         -6    1    1    2    0  502 -0.13640342672E+03  0.29006773706E+02 -0.97304338287E+03  0.99792019355E+03  0.17200000000E+03 0.  1.
</event>
<event>
 4    1 -0.7151877E-004  0.1800039E+03  0.7818608E-02  0.1167799E+00
         -5   -1    0    0    0  501 -0.00000000000E+00  0.00000000000E+00  0.24936100076E+03  0.24940529004E+03  0.47000000000E+01 0.  1.
          5   -1    0    0  501    0  0.00000000000E+00 -0.00000000000E+00 -0.41175052601E+03  0.41177734963E+03  0.47000000000E+01 0. -1.
          6    1    1    2  502    0  0.22284924069E+02  0.48174380523E+02 -0.35470757718E+03  0.39776733663E+03  0.17200000000E+03 0. -1.
         -6    1    1    2    0  502 -0.22284924069E+02 -0.48174380523E+02  0.19231805193E+03  0.26341530304E+03  0.17200000000E+03 0.  1.
</event>
<event>
 4    1 -0.7151877E-004  0.2060982E+03  0.7818608E-02  0.1144694E+00
         -5   -1    0    0    0  501 -0.00000000000E+00  0.00000000000E+00  0.20904318567E+03  0.20909601496E+03  0.47000000000E+01 0.  1.
          5   -1    0    0  501    0  0.00000000000E+00 -0.00000000000E+00 -0.46946584044E+03  0.46948936659E+03  0.47000000000E+01 0. -1.
          6    1    1    2  502    0 -0.98674620554E+02  0.56176555644E+02 -0.38576269343E+03  0.43736637021E+03  0.17200000000E+03 0. -1.
         -6    1    1    2    0  502  0.98674620554E+02 -0.56176555644E+02  0.12534003865E+03  0.24121901135E+03  0.17200000000E+03 0.  1.
</event>
<event>
 4    1 -0.7151877E-004  0.1893671E+03  0.7818608E-02  0.1159033E+00
         -5   -1    0    0    0  501 -0.00000000000E+00  0.00000000000E+00  0.80859782556E+02  0.80996261859E+02  0.47000000000E+01 0.  1.
          5   -1    0    0  501    0  0.00000000000E+00 -0.00000000000E+00 -0.56756327304E+03  0.56758273309E+03  0.47000000000E+01 0. -1.
          6    1    1    2  502    0 -0.79049292224E+02 -0.52050395130E+01 -0.39527728970E+03  0.43829672459E+03  0.17200000000E+03 0. -1.
         -6    1    1    2    0  502  0.79049292224E+02  0.52050395130E+01 -0.91426200789E+02  0.21028227036E+03  0.17200000000E+03 0.  1.
</event>
<event>
 4    1 -0.7151877E-004  0.1996602E+03  0.7818608E-02  0.1150026E+00
         -5   -1    0    0    0  501 -0.00000000000E+00  0.00000000000E+00  0.61556574547E+03  0.61558368806E+03  0.47000000000E+01 0.  1.
          5   -1    0    0  501    0  0.00000000000E+00 -0.00000000000E+00 -0.17500870387E+03  0.17507180364E+03  0.47000000000E+01 0. -1.
          6    1    1    2  502    0  0.53283234643E+02 -0.86261871878E+02 -0.93520491550E+02  0.22047742736E+03  0.17200000000E+03 0. -1.
         -6    1    1    2    0  502 -0.53283234643E+02  0.86261871878E+02  0.53407753315E+03  0.57017806434E+03  0.17200000000E+03 0.  1.
</event>
<event>
 4    1 -0.7151877E-004  0.2446394E+03  0.7818608E-02  0.1116740E+00
         -5   -1    0    0    0  501 -0.00000000000E+00  0.00000000000E+00  0.45392653457E+02  0.45635326096E+02  0.47000000000E+01 0.  1.
          5   -1    0    0  501    0  0.00000000000E+00 -0.00000000000E+00 -0.22192810623E+04  0.22192860391E+04  0.47000000000E+01 0. -1.
          6    1    1    2  502    0 -0.91222977268E+02  0.14813096160E+03 -0.18099082042E+04  0.18263669185E+04  0.17200000000E+03 0. -1.
         -6    1    1    2    0  502  0.91222977268E+02 -0.14813096160E+03 -0.36398020460E+03  0.43855444669E+03  0.17200000000E+03 0.  1.
</event>
<event>
 4    1 -0.7151877E-004  0.2003193E+03  0.7818608E-02  0.1149470E+00
          5   -1    0    0  501    0  0.00000000000E+00  0.00000000000E+00  0.15909154948E+04  0.15909224374E+04  0.47000000000E+01 0. -1.
         -5   -1    0    0    0  501 -0.00000000000E+00 -0.00000000000E+00 -0.56525165179E+02  0.56720228301E+02  0.47000000000E+01 0.  1.
          6    1    1    2  502    0 -0.24479889842E+02 -0.99722480985E+02  0.13807049341E+04  0.13951609059E+04  0.17200000000E+03 0. -1.
         -6    1    1    2    0  502  0.24479889842E+02  0.99722480985E+02  0.15368539555E+03  0.25248175979E+03  0.17200000000E+03 0.  1.
</event>
<event>
 4    1 -0.7151877E-004  0.1874588E+03  0.7818608E-02  0.1160774E+00
         -5   -1    0    0    0  501 -0.00000000000E+00  0.00000000000E+00  0.10134905412E+03  0.10145797539E+03  0.47000000000E+01 0.  1.
          5   -1    0    0  501    0  0.00000000000E+00 -0.00000000000E+00 -0.75456300097E+03  0.75457763844E+03  0.47000000000E+01 0. -1.
          6    1    1    2  502    0 -0.51706727928E+02 -0.53695555782E+02 -0.64136918334E+03  0.66820298395E+03  0.17200000000E+03 0. -1.
         -6    1    1    2    0  502  0.51706727928E+02  0.53695555782E+02 -0.11844763506E+02  0.18783262988E+03  0.17200000000E+03 0.  1.
</event>
<event>
 4    1 -0.7151877E-004  0.2203460E+03  0.7818608E-02  0.1133625E+00
          5   -1    0    0  501    0  0.00000000000E+00  0.00000000000E+00  0.55404851326E+03  0.55406844798E+03  0.47000000000E+01 0. -1.
         -5   -1    0    0    0  501 -0.00000000000E+00 -0.00000000000E+00 -0.11506495323E+03  0.11516090249E+03  0.47000000000E+01 0.  1.
          6    1    1    2  502    0 -0.98736222624E+02  0.96018346826E+02  0.38303447612E+03  0.44189113420E+03  0.17200000000E+03 0. -1.
         -6    1    1    2    0  502  0.98736222624E+02 -0.96018346826E+02  0.55949083902E+02  0.22733821627E+03  0.17200000000E+03 0.  1.
</event>
<event>
 4    1 -0.7151877E-004  0.1790789E+03  0.7818608E-02  0.1168697E+00
          5   -1    0    0  501    0  0.00000000000E+00  0.00000000000E+00  0.10127673873E+04  0.10127782930E+04  0.47000000000E+01 0. -1.
         -5   -1    0    0    0  501 -0.00000000000E+00 -0.00000000000E+00 -0.85436755313E+02  0.85565934568E+02  0.47000000000E+01 0.  1.
          6    1    1    2  502    0 -0.19654966759E+02  0.45814059591E+02  0.89945495063E+03  0.91710874709E+03  0.17200000000E+03 0. -1.
         -6    1    1    2    0  502  0.19654966759E+02 -0.45814059591E+02  0.27875681357E+02  0.18123548048E+03  0.17200000000E+03 0.  1.
</event>
<event>
 4    1 -0.7151877E-004  0.2316557E+03  0.7818608E-02  0.1125480E+00
         -5   -1    0    0    0  501 -0.00000000000E+00  0.00000000000E+00  0.70866438616E+02  0.71022124173E+02  0.47000000000E+01 0.  1.
          5   -1    0    0  501    0  0.00000000000E+00 -0.00000000000E+00 -0.12329537868E+04  0.12329627449E+04  0.47000000000E+01 0. -1.
          6    1    1    2  502    0 -0.91885886527E+02 -0.12504934975E+03 -0.98641813974E+03  0.10132547076E+04  0.17200000000E+03 0. -1.
         -6    1    1    2    0  502  0.91885886527E+02  0.12504934975E+03 -0.17566920840E+03  0.29073016148E+03  0.17200000000E+03 0.  1.
</event>
<event>
 4    1 -0.7151877E-004  0.1820857E+03  0.7818608E-02  0.1165800E+00
          5   -1    0    0  501    0  0.00000000000E+00  0.00000000000E+00  0.17096015080E+03  0.17102474430E+03  0.47000000000E+01 0. -1.
         -5   -1    0    0    0  501 -0.00000000000E+00 -0.00000000000E+00 -0.19645068117E+03  0.19650689589E+03  0.47000000000E+01 0.  1.
          6    1    1    2  502    0  0.28820683125E+02 -0.52350292689E+02  0.85722366048E+01  0.18228732309E+03  0.17200000000E+03 0. -1.
         -6    1    1    2    0  502 -0.28820683125E+02  0.52350292689E+02 -0.34062766973E+02  0.18524431709E+03  0.17200000000E+03 0.  1.
</event>
<event>
 4    1 -0.7151877E-004  0.1808814E+03  0.7818608E-02  0.1166953E+00
         -5   -1    0    0    0  501 -0.00000000000E+00  0.00000000000E+00  0.38741518076E+02  0.39025571396E+02  0.47000000000E+01 0.  1.
          5   -1    0    0  501    0  0.00000000000E+00 -0.00000000000E+00 -0.17346871273E+04  0.17346934945E+04  0.47000000000E+01 0. -1.
          6    1    1    2  502    0 -0.42096366979E+02  0.36904888555E+02 -0.14844231586E+04  0.14954030188E+04  0.17200000000E+03 0. -1.
         -6    1    1    2    0  502  0.42096366979E+02 -0.36904888555E+02 -0.21152245070E+03  0.27831604708E+03  0.17200000000E+03 0.  1.
</event>
<event>
 4    1 -0.7151877E-004  0.2118713E+03  0.7818608E-02  0.1140093E+00
         -5   -1    0    0    0  501 -0.00000000000E+00  0.00000000000E+00  0.49125527839E+03  0.49127776109E+03  0.47000000000E+01 0.  1.
          5   -1    0    0  501    0  0.00000000000E+00 -0.00000000000E+00 -0.56878054458E+03  0.56879996299E+03  0.47000000000E+01 0. -1.
          6    1    1    2  502    0  0.11580992592E+03 -0.43514259143E+02 -0.52436575820E+03  0.56555183499E+03  0.17200000000E+03 0. -1.
         -6    1    1    2    0  502 -0.11580992592E+03  0.43514259143E+02  0.44684049200E+03  0.49452588909E+03  0.17200000000E+03 0.  1.
</event>
<event>
 4    1 -0.7151877E-004  0.2398003E+03  0.7818608E-02  0.1119926E+00
          5   -1    0    0  501    0  0.00000000000E+00  0.00000000000E+00  0.20972147813E+03  0.20977413661E+03  0.47000000000E+01 0. -1.
         -5   -1    0    0    0  501 -0.00000000000E+00 -0.00000000000E+00 -0.28199456356E+03  0.28203372826E+03  0.47000000000E+01 0.  1.
          6    1    1    2  502    0  0.12243506945E+03 -0.11370934821E+03  0.50380110696E+01  0.23985317104E+03  0.17200000000E+03 0. -1.
         -6    1    1    2    0  502 -0.12243506945E+03  0.11370934821E+03 -0.77311096497E+02  0.25195469383E+03  0.17200000000E+03 0.  1.
</event>
<event>
 4    1 -0.7151877E-004  0.1722847E+03  0.7818608E-02  0.1175486E+00
          5   -1    0    0  501    0  0.00000000000E+00  0.00000000000E+00  0.43848469953E+03  0.43850988782E+03  0.47000000000E+01 0. -1.
         -5   -1    0    0    0  501 -0.00000000000E+00 -0.00000000000E+00 -0.27012090676E+03  0.27016179277E+03  0.47000000000E+01 0.  1.
          6    1    1    2  502    0 -0.98624663182E+01 -0.86708800432E+00  0.39093313069E+03  0.42721274882E+03  0.17200000000E+03 0. -1.
         -6    1    1    2    0  502  0.98624663182E+01  0.86708800432E+00 -0.22256933793E+03  0.28145893177E+03  0.17200000000E+03 0.  1.
</event>
<event>
 4    1 -0.7151877E-004  0.2112809E+03  0.7818608E-02  0.1140556E+00
          5   -1    0    0  501    0  0.00000000000E+00  0.00000000000E+00  0.19292305646E+03  0.19298029877E+03  0.47000000000E+01 0. -1.
         -5   -1    0    0    0  501 -0.00000000000E+00 -0.00000000000E+00 -0.23128450432E+03  0.23133225443E+03  0.47000000000E+01 0.  1.
          6    1    1    2  502    0 -0.16812596901E+01  0.12268981208E+03 -0.17509878205E+02  0.21200521800E+03  0.17200000000E+03 0.  1.
         -6    1    1    2    0  502  0.16812596901E+01 -0.12268981208E+03 -0.20851569655E+02  0.21230733520E+03  0.17200000000E+03 0. -1.
</event>
<event>
 4    1 -0.7151877E-004  0.1884909E+03  0.7818608E-02  0.1159830E+00
          5   -1    0    0  501    0  0.00000000000E+00  0.00000000000E+00  0.10228422409E+03  0.10239215057E+03  0.47000000000E+01 0. -1.
         -5   -1    0    0    0  501 -0.00000000000E+00 -0.00000000000E+00 -0.44578665141E+03  0.44581142715E+03  0.47000000000E+01 0.  1.
          6    1    1    2  502    0  0.34724100690E+02  0.68840809449E+02 -0.42769512716E+02  0.19328231019E+03  0.17200000000E+03 0. -1.
         -6    1    1    2    0  502 -0.34724100690E+02 -0.68840809449E+02 -0.30073291461E+03  0.35492126752E+03  0.17200000000E+03 0.  1.
</event>
<event>
 4    1 -0.7151877E-004  0.1940046E+03  0.7818608E-02  0.1154898E+00
          5   -1    0    0  501    0  0.00000000000E+00  0.00000000000E+00  0.39841368887E+03  0.39844141034E+03  0.47000000000E+01 0. -1.
         -5   -1    0    0    0  501 -0.00000000000E+00 -0.00000000000E+00 -0.16974981366E+03  0.16981486754E+03  0.47000000000E+01 0.  1.
          6    1    1    2  502    0 -0.84670098739E+02  0.29744832852E+02  0.30359140116E+03  0.36028533076E+03  0.17200000000E+03 0. -1.
         -6    1    1    2    0  502  0.84670098739E+02 -0.29744832852E+02 -0.74927525954E+02  0.20797094712E+03  0.17200000000E+03 0.  1.
</event>
<event>
 4    1 -0.7151877E-004  0.2695061E+03  0.7818608E-02  0.1101563E+00
          5   -1    0    0  501    0  0.00000000000E+00  0.00000000000E+00  0.64761828440E+03  0.64763533897E+03  0.47000000000E+01 0. -1.
         -5   -1    0    0    0  501 -0.00000000000E+00 -0.00000000000E+00 -0.15755139384E+03  0.15762148236E+03  0.47000000000E+01 0.  1.
          6    1    1    2  502    0 -0.10468878576E+03 -0.17913621041E+03  0.28816826611E+02  0.27104230895E+03  0.17200000000E+03 0.  1.
         -6    1    1    2    0  502  0.10468878576E+03  0.17913621041E+03  0.46125006395E+03  0.53421451238E+03  0.17200000000E+03 0. -1.
</event>
<event>
 4    1 -0.7151877E-004  0.2796637E+03  0.7818608E-02  0.1095873E+00
         -5   -1    0    0    0  501 -0.00000000000E+00  0.00000000000E+00  0.20710411825E+03  0.20715744205E+03  0.47000000000E+01 0.  1.
          5   -1    0    0  501    0  0.00000000000E+00 -0.00000000000E+00 -0.15070688311E+04  0.15070761599E+04  0.47000000000E+01 0. -1.
          6    1    1    2  502    0 -0.19779227296E+03  0.97498752966E+02 -0.13919997233E+04  0.14198151357E+04  0.17200000000E+03 0. -1.
         -6    1    1    2    0  502  0.19779227296E+03 -0.97498752966E+02  0.92035010445E+02  0.29441846616E+03  0.17200000000E+03 0.  1.
</event>
<event>
 4    1 -0.7151877E-004  0.2198932E+03  0.7818608E-02  0.1133963E+00
         -5   -1    0    0    0  501 -0.00000000000E+00  0.00000000000E+00  0.29226937283E+03  0.29230716087E+03  0.47000000000E+01 0.  1.
          5   -1    0    0  501    0  0.00000000000E+00 -0.00000000000E+00 -0.69359459010E+03  0.69361051420E+03  0.47000000000E+01 0. -1.
          6    1    1    2  502    0 -0.36808565493E+02  0.13196261835E+03 -0.63083970056E+03  0.66806566364E+03  0.17200000000E+03 0. -1.
         -6    1    1    2    0  502  0.36808565493E+02 -0.13196261835E+03  0.22951448329E+03  0.31785201144E+03  0.17200000000E+03 0.  1.
</event>
<event>
 4    1 -0.7151877E-004  0.1927226E+03  0.7818608E-02  0.1156028E+00
          5   -1    0    0  501    0  0.00000000000E+00  0.00000000000E+00  0.75768976201E+03  0.75770433908E+03  0.47000000000E+01 0. -1.
         -5   -1    0    0    0  501 -0.00000000000E+00 -0.00000000000E+00 -0.94875369276E+02  0.94991713824E+02  0.47000000000E+01 0.  1.
          6    1    1    2  502    0  0.53533060739E+02 -0.68499625480E+02  0.62793294727E+03  0.65684227448E+03  0.17200000000E+03 0. -1.
         -6    1    1    2    0  502 -0.53533060739E+02  0.68499625480E+02  0.34881445468E+02  0.19585377842E+03  0.17200000000E+03 0.  1.
</event>
<event>
 4    1 -0.7151877E-004  0.3579736E+03  0.7818608E-02  0.1059389E+00
         -5   -1    0    0    0  501 -0.00000000000E+00  0.00000000000E+00  0.34308896903E+03  0.34312116034E+03  0.47000000000E+01 0.  1.
          5   -1    0    0  501    0  0.00000000000E+00 -0.00000000000E+00 -0.76000442120E+03  0.76001895387E+03  0.47000000000E+01 0. -1.
          6    1    1    2  502    0  0.10672036637E+03  0.29524884547E+03 -0.60181602795E+03  0.70023399578E+03  0.17200000000E+03 0. -1.
         -6    1    1    2    0  502 -0.10672036637E+03 -0.29524884547E+03  0.18490057578E+03  0.40290611843E+03  0.17200000000E+03 0.  1.
</event>
<event>
 4    1 -0.7151877E-004  0.2443852E+03  0.7818608E-02  0.1116906E+00
         -5   -1    0    0    0  501 -0.00000000000E+00  0.00000000000E+00  0.25888863839E+03  0.25893129800E+03  0.47000000000E+01 0.  1.
          5   -1    0    0  501    0  0.00000000000E+00 -0.00000000000E+00 -0.30765029429E+03  0.30768619335E+03  0.47000000000E+01 0. -1.
          6    1    1    2  502    0 -0.13834352528E+03  0.10488649322E+03 -0.16613458611E+03  0.29550771250E+03  0.17200000000E+03 0. -1.
         -6    1    1    2    0  502  0.13834352528E+03 -0.10488649322E+03  0.11737293021E+03  0.27110977885E+03  0.17200000000E+03 0.  1.
</event>
<event>
 4    1 -0.7151877E-004  0.1931643E+03  0.7818608E-02  0.1155638E+00
         -5   -1    0    0    0  501 -0.00000000000E+00  0.00000000000E+00  0.18743815716E+03  0.18749707400E+03  0.47000000000E+01 0.  1.
          5   -1    0    0  501    0  0.00000000000E+00 -0.00000000000E+00 -0.24679577405E+03  0.24684052360E+03  0.47000000000E+01 0. -1.
          6    1    1    2  502    0 -0.87548790684E+02 -0.79787484864E+01 -0.12528060235E+03  0.23023396905E+03  0.17200000000E+03 0. -1.
         -6    1    1    2    0  502  0.87548790684E+02  0.79787484864E+01  0.65922985462E+02  0.20410362856E+03  0.17200000000E+03 0.  1.
</event>
<event>
 4    1 -0.7151877E-004  0.1790014E+03  0.7818608E-02  0.1168773E+00
          5   -1    0    0  501    0  0.00000000000E+00  0.00000000000E+00  0.12582748584E+03  0.12591523416E+03  0.47000000000E+01 0. -1.
         -5   -1    0    0    0  501 -0.00000000000E+00 -0.00000000000E+00 -0.35572132847E+03  0.35575237670E+03  0.47000000000E+01 0.  1.
          6    1    1    2  502    0 -0.43273551359E+02  0.24184471162E+02  0.13532575463E+02  0.17951217087E+03  0.17200000000E+03 0. -1.
         -6    1    1    2    0  502  0.43273551359E+02 -0.24184471162E+02 -0.24342641809E+03  0.30215543999E+03  0.17200000000E+03 0.  1.
</event>
<event>
 4    1 -0.7151877E-004  0.5165178E+03  0.7818608E-02  0.1009555E+00
         -5   -1    0    0    0  501 -0.00000000000E+00  0.00000000000E+00  0.67229096016E+03  0.67230738885E+03  0.47000000000E+01 0.  1.
          5   -1    0    0  501    0  0.00000000000E+00 -0.00000000000E+00 -0.63358838416E+03  0.63360581637E+03  0.47000000000E+01 0. -1.
          6    1    1    2  502    0  0.69374315189E+02 -0.48207243036E+03 -0.37980678662E+03  0.64112699123E+03  0.17200000000E+03 0. -1.
         -6    1    1    2    0  502 -0.69374315189E+02  0.48207243036E+03  0.41850936262E+03  0.66478621400E+03  0.17200000000E+03 0.  1.
</event>
<event>
 4    1 -0.7151877E-004  0.1939595E+03  0.7818608E-02  0.1154938E+00
          5   -1    0    0  501    0  0.00000000000E+00  0.00000000000E+00  0.17981547401E+03  0.17987688760E+03  0.47000000000E+01 0. -1.
         -5   -1    0    0    0  501 -0.00000000000E+00 -0.00000000000E+00 -0.36506532903E+03  0.36509558264E+03  0.47000000000E+01 0.  1.
          6    1    1    2  502    0  0.29129729203E+02 -0.84780546438E+02  0.85458095610E+02  0.21195133470E+03  0.17200000000E+03 0. -1.
         -6    1    1    2    0  502 -0.29129729203E+02  0.84780546438E+02 -0.27070795063E+03  0.33302113554E+03  0.17200000000E+03 0.  1.
</event>
<event>
 4    1 -0.7151877E-004  0.1825141E+03  0.7818608E-02  0.1165392E+00
          5   -1    0    0  501    0  0.00000000000E+00  0.00000000000E+00  0.48460531773E+03  0.48462810894E+03  0.47000000000E+01 0. -1.
         -5   -1    0    0    0  501 -0.00000000000E+00 -0.00000000000E+00 -0.88277714793E+02  0.88402742769E+02  0.47000000000E+01 0.  1.
          6    1    1    2  502    0 -0.53793256099E+02 -0.28873550220E+02  0.33319125510E+03  0.37990499968E+03  0.17200000000E+03 0. -1.
         -6    1    1    2    0  502  0.53793256099E+02  0.28873550220E+02  0.63136347838E+02  0.19312585203E+03  0.17200000000E+03 0.  1.
</event>
<event>
 4    1 -0.7151877E-004  0.1735073E+03  0.7818608E-02  0.1174239E+00
          5   -1    0    0  501    0  0.00000000000E+00  0.00000000000E+00  0.26269230900E+03  0.26273435102E+03  0.47000000000E+01 0. -1.
         -5   -1    0    0    0  501 -0.00000000000E+00 -0.00000000000E+00 -0.36958455965E+03  0.36961444335E+03  0.47000000000E+01 0.  1.
          6    1    1    2  502    0 -0.16950183236E+02  0.15279649332E+02  0.20918658320E+03  0.27177895980E+03  0.17200000000E+03 0. -1.
         -6    1    1    2    0  502  0.16950183236E+02 -0.15279649332E+02 -0.31607883385E+03  0.36056983458E+03  0.17200000000E+03 0.  1.
</event>
<event>
 4    1 -0.7151877E-004  0.1821758E+03  0.7818608E-02  0.1165714E+00
          5   -1    0    0  501    0  0.00000000000E+00  0.00000000000E+00  0.56577744453E+02  0.56772626920E+02  0.47000000000E+01 0. -1.
         -5   -1    0    0    0  501 -0.00000000000E+00 -0.00000000000E+00 -0.11077302975E+04  0.11077402683E+04  0.47000000000E+01 0.  1.
          6    1    1    2  502    0 -0.50786261335E+02 -0.32012124982E+02 -0.12578089673E+03  0.22137943551E+03  0.17200000000E+03 0. -1.
         -6    1    1    2    0  502  0.50786261335E+02  0.32012124982E+02 -0.92537165635E+03  0.94313345973E+03  0.17200000000E+03 0.  1.
</event>
<event>
 4    1 -0.7151877E-004  0.1730345E+03  0.7818608E-02  0.1174720E+00
          5   -1    0    0  501    0  0.00000000000E+00  0.00000000000E+00  0.27122178124E+03  0.27126250132E+03  0.47000000000E+01 0. -1.
         -5   -1    0    0    0  501 -0.00000000000E+00 -0.00000000000E+00 -0.43286310884E+03  0.43288862424E+03  0.47000000000E+01 0.  1.
          6    1    1    2  502    0  0.12994807697E+02 -0.13713987706E+02  0.22307199370E+03  0.28231552005E+03  0.17200000000E+03 0. -1.
         -6    1    1    2    0  502 -0.12994807697E+02  0.13713987706E+02 -0.38471332130E+03  0.42183560551E+03  0.17200000000E+03 0.  1.
</event>
<event>
 4    1 -0.7151877E-004  0.1873295E+03  0.7818608E-02  0.1160892E+00
         -5   -1    0    0    0  501 -0.00000000000E+00  0.00000000000E+00  0.11546993591E+04  0.11547089243E+04  0.47000000000E+01 0.  1.
          5   -1    0    0  501    0  0.00000000000E+00 -0.00000000000E+00 -0.54977312525E+02  0.55177847842E+02  0.47000000000E+01 0. -1.
          6    1    1    2  502    0  0.48311530340E+02  0.56341282896E+02  0.14481325894E+03  0.23677673891E+03  0.17200000000E+03 0. -1.
         -6    1    1    2    0  502 -0.48311530340E+02 -0.56341282896E+02  0.95490878761E+03  0.97311003323E+03  0.17200000000E+03 0.  1.
</event>
<event>
 4    1 -0.7151877E-004  0.2662792E+03  0.7818608E-02  0.1103428E+00
          5   -1    0    0  501    0  0.00000000000E+00  0.00000000000E+00  0.24026205123E+04  0.24026251094E+04  0.47000000000E+01 0. -1.
         -5   -1    0    0    0  501 -0.00000000000E+00 -0.00000000000E+00 -0.69006362172E+02  0.69166234683E+02  0.47000000000E+01 0.  1.
          6    1    1    2  502    0 -0.67700032251E+02 -0.19166975436E+03  0.21022276636E+04  0.21190247140E+04  0.17200000000E+03 0. -1.
         -6    1    1    2    0  502  0.67700032251E+02  0.19166975436E+03  0.23138648656E+03  0.35276663003E+03  0.17200000000E+03 0.  1.
</event>
<event>
 4    1 -0.7151877E-004  0.1780808E+03  0.7818608E-02  0.1169673E+00
         -5   -1    0    0    0  501 -0.00000000000E+00  0.00000000000E+00  0.11555826233E+03  0.11565380233E+03  0.47000000000E+01 0.  1.
          5   -1    0    0  501    0  0.00000000000E+00 -0.00000000000E+00 -0.16591934144E+04  0.16592000712E+04  0.47000000000E+01 0. -1.
          6    1    1    2  502    0  0.85180344603E+01  0.45345489239E+02 -0.15825771325E+04  0.15925649596E+04  0.17200000000E+03 0. -1.
         -6    1    1    2    0  502 -0.85180344603E+01 -0.45345489239E+02  0.38941980433E+02  0.18228891394E+03  0.17200000000E+03 0.  1.
</event>
<event>
 4    1 -0.7151877E-004  0.1779342E+03  0.7818608E-02  0.1169817E+00
          5   -1    0    0  501    0  0.00000000000E+00  0.00000000000E+00  0.12659723804E+04  0.12659811049E+04  0.47000000000E+01 0. -1.
         -5   -1    0    0    0  501 -0.00000000000E+00 -0.00000000000E+00 -0.11527167295E+03  0.11536745028E+03  0.47000000000E+01 0.  1.
          6    1    1    2  502    0 -0.18976505398E+02 -0.41430373468E+02  0.11865682274E+04  0.11998352979E+04  0.17200000000E+03 0. -1.
         -6    1    1    2    0  502  0.18976505398E+02  0.41430373468E+02 -0.35867519970E+02  0.18151325734E+03  0.17200000000E+03 0.  1.
</event>
<event>
 4    1 -0.7151877E-004  0.1830137E+03  0.7818608E-02  0.1164918E+00
          5   -1    0    0  501    0  0.00000000000E+00  0.00000000000E+00  0.39576195112E+03  0.39578985833E+03  0.47000000000E+01 0. -1.
         -5   -1    0    0    0  501 -0.00000000000E+00 -0.00000000000E+00 -0.98215016191E+02  0.98327409228E+02  0.47000000000E+01 0.  1.
          6    1    1    2  502    0  0.36785422152E+02 -0.50565446409E+02  0.24090640478E+03  0.30253913386E+03  0.17200000000E+03 0. -1.
         -6    1    1    2    0  502 -0.36785422152E+02  0.50565446409E+02  0.56640530147E+02  0.19157813369E+03  0.17200000000E+03 0.  1.
</event>
<event>
 4    1 -0.7151877E-004  0.1747350E+03  0.7818608E-02  0.1172998E+00
         -5   -1    0    0    0  501 -0.00000000000E+00  0.00000000000E+00  0.97056441362E+02  0.97170174487E+02  0.47000000000E+01 0.  1.
          5   -1    0    0  501    0  0.00000000000E+00 -0.00000000000E+00 -0.58216251405E+03  0.58218148611E+03  0.47000000000E+01 0. -1.
          6    1    1    2  502    0  0.12412259901E+02  0.28182564850E+02 -0.47294759843E+03  0.50419416103E+03  0.17200000000E+03 0. -1.
         -6    1    1    2    0  502 -0.12412259901E+02 -0.28182564850E+02 -0.12158474260E+02  0.17515749956E+03  0.17200000000E+03 0.  1.
</event>
<event>
 4    1 -0.7151877E-004  0.1746872E+03  0.7818608E-02  0.1173046E+00
         -5   -1    0    0    0  501 -0.00000000000E+00  0.00000000000E+00  0.25058695438E+03  0.25063102702E+03  0.47000000000E+01 0.  1.
          5   -1    0    0  501    0  0.00000000000E+00 -0.00000000000E+00 -0.13825896387E+03  0.13833882713E+03  0.47000000000E+01 0. -1.
          6    1    1    2  502    0 -0.29130780088E+02  0.91116615881E+01 -0.11158707783E+02  0.17504325604E+03  0.17200000000E+03 0. -1.
         -6    1    1    2    0  502  0.29130780088E+02 -0.91116615881E+01  0.12348669829E+03  0.21392659811E+03  0.17200000000E+03 0.  1.
</event>
<event>
 4    1 -0.7151877E-004  0.1851011E+03  0.7818608E-02  0.1162956E+00
         -5   -1    0    0    0  501 -0.00000000000E+00  0.00000000000E+00  0.24044060660E+03  0.24048653871E+03  0.47000000000E+01 0.  1.
          5   -1    0    0  501    0  0.00000000000E+00 -0.00000000000E+00 -0.14944529217E+03  0.14951918055E+03  0.47000000000E+01 0. -1.
          6    1    1    2  502    0 -0.63164537204E+02 -0.26242027537E+02  0.31752904459E+01  0.18512829400E+03  0.17200000000E+03 0. -1.
         -6    1    1    2    0  502  0.63164537204E+02  0.26242027537E+02  0.87820023978E+02  0.20487742526E+03  0.17200000000E+03 0. -1.
</event>
<event>
 4    1 -0.7151877E-004  0.3351959E+03  0.7818608E-02  0.1068861E+00
         -5   -1    0    0    0  501 -0.00000000000E+00  0.00000000000E+00  0.56364052456E+03  0.56366012004E+03  0.47000000000E+01 0.  1.
          5   -1    0    0  501    0  0.00000000000E+00 -0.00000000000E+00 -0.61542009913E+03  0.61543804596E+03  0.47000000000E+01 0. -1.
          6    1    1    2  502    0 -0.11025863224E+03  0.26573545547E+03 -0.51065233381E+03  0.61083721588E+03  0.17200000000E+03 0. -1.
         -6    1    1    2    0  502  0.11025863224E+03 -0.26573545547E+03  0.45887275923E+03  0.56826095013E+03  0.17200000000E+03 0.  1.
</event>
<event>
 4    1 -0.7151877E-004  0.1742524E+03  0.7818608E-02  0.1173484E+00
         -5   -1    0    0    0  501 -0.00000000000E+00  0.00000000000E+00  0.19265197347E+03  0.19270929631E+03  0.47000000000E+01 0.  1.
          5   -1    0    0  501    0  0.00000000000E+00 -0.00000000000E+00 -0.30643980068E+03  0.30647584153E+03  0.47000000000E+01 0. -1.
          6    1    1    2  502    0 -0.23780728662E+02 -0.14642113952E+02 -0.23087195665E+03  0.28925036720E+03  0.17200000000E+03 0. -1.
         -6    1    1    2    0  502  0.23780728662E+02  0.14642113952E+02  0.11708412944E+03  0.20993477064E+03  0.17200000000E+03 0.  1.
</event>
<event>
 4    1 -0.7151877E-004  0.2371322E+03  0.7818608E-02  0.1121718E+00
         -5   -1    0    0    0  501 -0.00000000000E+00  0.00000000000E+00  0.12760156902E+03  0.12768809818E+03  0.47000000000E+01 0.  1.
          5   -1    0    0  501    0  0.00000000000E+00 -0.00000000000E+00 -0.14963579697E+04  0.14963653509E+04  0.47000000000E+01 0. -1.
          6    1    1    2  502    0  0.92088007793E+02  0.13478678390E+03 -0.13664877546E+04  0.13869104015E+04  0.17200000000E+03 0. -1.
         -6    1    1    2    0  502 -0.92088007793E+02 -0.13478678390E+03 -0.22686461058E+01  0.23714304765E+03  0.17200000000E+03 0.  1.
</event>
<event>
 4    1 -0.7151877E-004  0.1786936E+03  0.7818608E-02  0.1169073E+00
         -5   -1    0    0    0  501 -0.00000000000E+00  0.00000000000E+00  0.10916093081E+03  0.10926206485E+03  0.47000000000E+01 0.  1.
          5   -1    0    0  501    0  0.00000000000E+00 -0.00000000000E+00 -0.34219027177E+03  0.34222254762E+03  0.47000000000E+01 0. -1.
          6    1    1    2  502    0 -0.48417119811E+02 -0.17854648799E+01 -0.20272691875E+03  0.27023991001E+03  0.17200000000E+03 0. -1.
         -6    1    1    2    0  502  0.48417119811E+02  0.17854648799E+01 -0.30302422218E+02  0.18124470245E+03  0.17200000000E+03 0.  1.
</event>
<event>
 4    1 -0.7151877E-004  0.2131732E+03  0.7818608E-02  0.1139077E+00
          5   -1    0    0  501    0  0.00000000000E+00  0.00000000000E+00  0.28334521244E+03  0.28338419048E+03  0.47000000000E+01 0. -1.
         -5   -1    0    0    0  501 -0.00000000000E+00 -0.00000000000E+00 -0.30673645955E+03  0.30677246555E+03  0.47000000000E+01 0.  1.
          6    1    1    2  502    0  0.35904499371E+02  0.12070501494E+03  0.19215943182E+03  0.28699839885E+03  0.17200000000E+03 0. -1.
         -6    1    1    2    0  502 -0.35904499371E+02 -0.12070501494E+03 -0.21555067893E+03  0.30315825717E+03  0.17200000000E+03 0.  1.
</event>
<event>
 4    1 -0.7151877E-004  0.2470636E+03  0.7818608E-02  0.1115175E+00
          5   -1    0    0  501    0  0.00000000000E+00  0.00000000000E+00  0.17544390242E+03  0.17550684573E+03  0.47000000000E+01 0. -1.
         -5   -1    0    0    0  501 -0.00000000000E+00 -0.00000000000E+00 -0.57809769646E+03  0.57811680191E+03  0.47000000000E+01 0.  1.
          6    1    1    2  502    0 -0.16664593359E+03 -0.60708570996E+02  0.36497145034E+02  0.24974474843E+03  0.17200000000E+03 0. -1.
         -6    1    1    2    0  502  0.16664593359E+03  0.60708570996E+02 -0.43915093907E+03  0.50387889921E+03  0.17200000000E+03 0.  1.
</event>
<event>
 4    1 -0.7151877E-004  0.2562132E+03  0.7818608E-02  0.1109440E+00
          5   -1    0    0  501    0  0.00000000000E+00  0.00000000000E+00  0.12033458701E+03  0.12042633778E+03  0.47000000000E+01 0. -1.
         -5   -1    0    0    0  501 -0.00000000000E+00 -0.00000000000E+00 -0.19788021334E+04  0.19788077151E+04  0.47000000000E+01 0.  1.
          6    1    1    2  502    0 -0.50526760051E+02  0.18305258178E+03 -0.35865310673E+02  0.25871127089E+03  0.17200000000E+03 0. -1.
         -6    1    1    2    0  502  0.50526760051E+02 -0.18305258178E+03 -0.18226022357E+04  0.18405227819E+04  0.17200000000E+03 0.  1.
</event>
<event>
 4    1 -0.7151877E-004  0.2325372E+03  0.7818608E-02  0.1124867E+00
          5   -1    0    0  501    0  0.00000000000E+00  0.00000000000E+00  0.63699039867E+02  0.63872198020E+02  0.47000000000E+01 0. -1.
         -5   -1    0    0    0  501 -0.00000000000E+00 -0.00000000000E+00 -0.10244341280E+04  0.10244449096E+04  0.47000000000E+01 0.  1.
          6    1    1    2  502    0  0.10346782142E+03  0.11740505673E+03 -0.25427950823E+03  0.34457452855E+03  0.17200000000E+03 0. -1.
         -6    1    1    2    0  502 -0.10346782142E+03 -0.11740505673E+03 -0.70645557995E+03  0.74374257903E+03  0.17200000000E+03 0.  1.
</event>
<event>
 4    1 -0.7151877E-004  0.3140326E+03  0.7818608E-02  0.1078429E+00
         -5   -1    0    0    0  501 -0.00000000000E+00  0.00000000000E+00  0.39067396065E+03  0.39070223128E+03  0.47000000000E+01 0.  1.
          5   -1    0    0  501    0  0.00000000000E+00 -0.00000000000E+00 -0.33959848652E+03  0.33963100866E+03  0.47000000000E+01 0. -1.
          6    1    1    2  502    0 -0.22158570193E+03  0.14118154171E+03 -0.15951772051E+03  0.35222486309E+03  0.17200000000E+03 0. -1.
         -6    1    1    2    0  502  0.22158570193E+03 -0.14118154171E+03  0.21059319464E+03  0.37810837686E+03  0.17200000000E+03 0.  1.
</event>
<event>
 4    1 -0.7151877E-004  0.2220680E+03  0.7818608E-02  0.1132351E+00
         -5   -1    0    0    0  501 -0.00000000000E+00  0.00000000000E+00  0.14201025535E+03  0.14208801013E+03  0.47000000000E+01 0.  1.
          5   -1    0    0  501    0  0.00000000000E+00 -0.00000000000E+00 -0.10968846883E+04  0.10968947577E+04  0.47000000000E+01 0. -1.
          6    1    1    2  502    0 -0.13414466950E+03  0.41658253644E+02 -0.98960518128E+03  0.10142152717E+04  0.17200000000E+03 0. -1.
         -6    1    1    2    0  502  0.13414466950E+03 -0.41658253644E+02  0.34730748319E+02  0.22476749616E+03  0.17200000000E+03 0.  1.
</event>
<event>
 4    1 -0.7151877E-004  0.1931848E+03  0.7818608E-02  0.1155620E+00
          5   -1    0    0  501    0  0.00000000000E+00  0.00000000000E+00  0.68044365577E+03  0.68045988764E+03  0.47000000000E+01 0. -1.
         -5   -1    0    0    0  501 -0.00000000000E+00 -0.00000000000E+00 -0.12661455004E+03  0.12670175328E+03  0.47000000000E+01 0.  1.
          6    1    1    2  502    0  0.12247335248E+02  0.87099671195E+02  0.58081607035E+03  0.61210101905E+03  0.17200000000E+03 0. -1.
         -6    1    1    2    0  502 -0.12247335248E+02 -0.87099671195E+02 -0.26986964620E+02  0.19506062187E+03  0.17200000000E+03 0.  1.
</event>
<event>
 4    1 -0.7151877E-004  0.1923571E+03  0.7818608E-02  0.1156352E+00
         -5   -1    0    0    0  501 -0.00000000000E+00  0.00000000000E+00  0.59087234916E+03  0.59089104156E+03  0.47000000000E+01 0.  1.
          5   -1    0    0  501    0  0.00000000000E+00 -0.00000000000E+00 -0.22699565349E+03  0.22704430559E+03  0.47000000000E+01 0. -1.
          6    1    1    2  502    0 -0.23008579447E+01 -0.86092733727E+02 -0.16608957673E+03  0.25413972583E+03  0.17200000000E+03 0. -1.
         -6    1    1    2    0  502  0.23008579447E+01  0.86092733727E+02  0.52996627240E+03  0.56379562133E+03  0.17200000000E+03 0.  1.
</event>
<event>
 4    1 -0.7151877E-004  0.1762043E+03  0.7818608E-02  0.1171528E+00
         -5   -1    0    0    0  501 -0.00000000000E+00  0.00000000000E+00  0.20370905783E+03  0.20376327011E+03  0.47000000000E+01 0.  1.
          5   -1    0    0  501    0  0.00000000000E+00 -0.00000000000E+00 -0.16556657363E+03  0.16563327052E+03  0.47000000000E+01 0. -1.
          6    1    1    2  502    0  0.37906544132E+02  0.52011288646E+01 -0.33186746296E+02  0.17930230885E+03  0.17200000000E+03 0. -1.
         -6    1    1    2    0  502 -0.37906544132E+02 -0.52011288646E+01  0.71329230503E+02  0.19009423177E+03  0.17200000000E+03 0.  1.
</event>
<event>
 4    1 -0.7151877E-004  0.2962177E+03  0.7818608E-02  0.1087147E+00
         -5   -1    0    0    0  501 -0.00000000000E+00  0.00000000000E+00  0.16869379800E+03  0.16875925895E+03  0.47000000000E+01 0.  1.
          5   -1    0    0  501    0  0.00000000000E+00 -0.00000000000E+00 -0.57306748991E+03  0.57308676306E+03  0.47000000000E+01 0. -1.
          6    1    1    2  502    0  0.11266295373E+02  0.24090243575E+03 -0.31508876906E+03  0.43246484868E+03  0.17200000000E+03 0. -1.
         -6    1    1    2    0  502 -0.11266295373E+02 -0.24090243575E+03 -0.89284922856E+02  0.30938117333E+03  0.17200000000E+03 0.  1.
</event>
<event>
 4    1 -0.7151877E-004  0.1739976E+03  0.7818608E-02  0.1173742E+00
          5   -1    0    0  501    0  0.00000000000E+00  0.00000000000E+00  0.21924187295E+03  0.21929224532E+03  0.47000000000E+01 0. -1.
         -5   -1    0    0    0  501 -0.00000000000E+00 -0.00000000000E+00 -0.50178328967E+03  0.50180530068E+03  0.47000000000E+01 0.  1.
          6    1    1    2  502    0 -0.25809258754E+02  0.50044382881E+01  0.16569720329E+03  0.24027219027E+03  0.17200000000E+03 0. -1.
         -6    1    1    2    0  502  0.25809258754E+02 -0.50044382881E+01 -0.44823862001E+03  0.48082535573E+03  0.17200000000E+03 0.  1.
</event>
<event>
 4    1 -0.7151877E-004  0.1743725E+03  0.7818608E-02  0.1173363E+00
         -5   -1    0    0    0  501 -0.00000000000E+00  0.00000000000E+00  0.47492257984E+02  0.47724255556E+02  0.47000000000E+01 0.  1.
          5   -1    0    0  501    0  0.00000000000E+00 -0.00000000000E+00 -0.16111852993E+04  0.16111921545E+04  0.47000000000E+01 0. -1.
          6    1    1    2  502    0  0.26346775808E+02 -0.11297165635E+02 -0.14263001789E+04  0.14369196146E+04  0.17200000000E+03 0. -1.
         -6    1    1    2    0  502 -0.26346775808E+02  0.11297165635E+02 -0.13739286248E+03  0.22199679549E+03  0.17200000000E+03 0.  1.
</event>
<event>
 4    1 -0.7151877E-004  0.1758989E+03  0.7818608E-02  0.1171832E+00
         -5   -1    0    0    0  501 -0.00000000000E+00  0.00000000000E+00  0.28644410191E+03  0.28648265833E+03  0.47000000000E+01 0.  1.
          5   -1    0    0  501    0  0.00000000000E+00 -0.00000000000E+00 -0.20070109446E+03  0.20075611900E+03  0.47000000000E+01 0. -1.
          6    1    1    2  502    0  0.29701227879E+01  0.36709836925E+02 -0.12272193637E+03  0.21447868757E+03  0.17200000000E+03 0. -1.
         -6    1    1    2    0  502 -0.29701227879E+01 -0.36709836925E+02  0.20846494383E+03  0.27276008975E+03  0.17200000000E+03 0.  1.
</event>
<event>
 4    1 -0.7151877E-004  0.1966198E+03  0.7818608E-02  0.1152623E+00
         -5   -1    0    0    0  501 -0.00000000000E+00  0.00000000000E+00  0.13850069735E+03  0.13858042129E+03  0.47000000000E+01 0.  1.
          5   -1    0    0  501    0  0.00000000000E+00 -0.00000000000E+00 -0.28319971598E+03  0.28323871404E+03  0.47000000000E+01 0. -1.
          6    1    1    2  502    0  0.68080965681E+02 -0.66635923229E+02 -0.98187222469E+02  0.21977282546E+03  0.17200000000E+03 0. -1.
         -6    1    1    2    0  502 -0.68080965681E+02  0.66635923229E+02 -0.46511796169E+02  0.20204630988E+03  0.17200000000E+03 0.  1.
</event>
<event>
 4    1 -0.7151877E-004  0.2088447E+03  0.7818608E-02  0.1142484E+00
          5   -1    0    0  501    0  0.00000000000E+00  0.00000000000E+00  0.26004756899E+03  0.26009003852E+03  0.47000000000E+01 0. -1.
         -5   -1    0    0    0  501 -0.00000000000E+00 -0.00000000000E+00 -0.24818665606E+03  0.24823115486E+03  0.47000000000E+01 0.  1.
          6    1    1    2  502    0 -0.54651246320E+02 -0.10509685931E+03  0.15069834146E+03  0.25753853824E+03  0.17200000000E+03 0. -1.
         -6    1    1    2    0  502  0.54651246320E+02  0.10509685931E+03 -0.13883742853E+03  0.25078265514E+03  0.17200000000E+03 0.  1.
</event>
<event>
 4    1 -0.7151877E-004  0.1794099E+03  0.7818608E-02  0.1168375E+00
         -5   -1    0    0    0  501 -0.00000000000E+00  0.00000000000E+00  0.39462941007E+03  0.39465739737E+03  0.47000000000E+01 0.  1.
          5   -1    0    0  501    0  0.00000000000E+00 -0.00000000000E+00 -0.41670780292E+03  0.41673430746E+03  0.47000000000E+01 0. -1.
          6    1    1    2  502    0 -0.52309766186E+01  0.50759744229E+02 -0.37487619278E+03  0.41559604746E+03  0.17200000000E+03 0. -1.
         -6    1    1    2    0  502  0.52309766186E+01 -0.50759744229E+02  0.35279779993E+03  0.39579565737E+03  0.17200000000E+03 0.  1.
</event>
<event>
 4    1 -0.7151877E-004  0.2250266E+03  0.7818608E-02  0.1130190E+00
         -5   -1    0    0    0  501 -0.00000000000E+00  0.00000000000E+00  0.11217871621E+04  0.11217970079E+04  0.47000000000E+01 0.  1.
          5   -1    0    0  501    0  0.00000000000E+00 -0.00000000000E+00 -0.10869739791E+03  0.10879896283E+03  0.47000000000E+01 0. -1.
          6    1    1    2  502    0  0.68958922676E+02 -0.12766225228E+03  0.35950114901E+02  0.22788021949E+03  0.17200000000E+03 0. -1.
         -6    1    1    2    0  502 -0.68958922676E+02  0.12766225228E+03  0.97713964928E+03  0.10027157513E+04  0.17200000000E+03 0.  1.
</event>
<event>
 4    1 -0.7151877E-004  0.7134591E+03  0.7818608E-02  0.9694488E-01
          5   -1    0    0  501    0  0.00000000000E+00  0.00000000000E+00  0.12848765994E+04  0.12848851955E+04  0.47000000000E+01 0. -1.
         -5   -1    0    0    0  501 -0.00000000000E+00 -0.00000000000E+00 -0.12155214976E+04  0.12155305842E+04  0.47000000000E+01 0.  1.
          6    1    1    2  502    0  0.68494935344E+03 -0.10141159074E+03  0.10611296509E+04  0.12786790307E+04  0.17200000000E+03 0. -1.
         -6    1    1    2    0  502 -0.68494935344E+03  0.10141159074E+03 -0.99177454911E+03  0.12217367490E+04  0.17200000000E+03 0.  1.
</event>
<event>
 4    1 -0.7151877E-004  0.1937887E+03  0.7818608E-02  0.1155088E+00
          5   -1    0    0  501    0  0.00000000000E+00  0.00000000000E+00  0.12537158291E+03  0.12545965009E+03  0.47000000000E+01 0. -1.
         -5   -1    0    0    0  501 -0.00000000000E+00 -0.00000000000E+00 -0.31693568494E+03  0.31697053236E+03  0.47000000000E+01 0.  1.
          6    1    1    2  502    0  0.54336030200E+02  0.70835348050E+02 -0.43654500325E+02  0.19864482402E+03  0.17200000000E+03 0. -1.
         -6    1    1    2    0  502 -0.54336030200E+02 -0.70835348050E+02 -0.14790960170E+03  0.24378535844E+03  0.17200000000E+03 0.  1.
</event>
<event>
 4    1 -0.7151877E-004  0.1944266E+03  0.7818608E-02  0.1154528E+00
          5   -1    0    0  501    0  0.00000000000E+00  0.00000000000E+00  0.38681127227E+03  0.38683982519E+03  0.47000000000E+01 0. -1.
         -5   -1    0    0    0  501 -0.00000000000E+00 -0.00000000000E+00 -0.16395500309E+03  0.16402235530E+03  0.47000000000E+01 0.  1.
          6    1    1    2  502    0 -0.52680556427E+02  0.73772988886E+02  0.28653637712E+03  0.34627271092E+03  0.17200000000E+03 0. -1.
         -6    1    1    2    0  502  0.52680556427E+02 -0.73772988886E+02 -0.63680107944E+02  0.20458946958E+03  0.17200000000E+03 0.  1.
</event>
<event>
 4    1 -0.7151877E-004  0.1763620E+03  0.7818608E-02  0.1171371E+00
         -5   -1    0    0    0  501 -0.00000000000E+00  0.00000000000E+00  0.42259900616E+03  0.42262514124E+03  0.47000000000E+01 0.  1.
          5   -1    0    0  501    0  0.00000000000E+00 -0.00000000000E+00 -0.91840245867E+02  0.91960430409E+02  0.47000000000E+01 0. -1.
          6    1    1    2  502    0  0.27522956329E+02 -0.27604997259E+02  0.50493570172E+02  0.18344794801E+03  0.17200000000E+03 0. -1.
         -6    1    1    2    0  502 -0.27522956329E+02  0.27604997259E+02  0.28026519012E+03  0.33113762365E+03  0.17200000000E+03 0.  1.
</event>
<event>
 4    1 -0.7151877E-004  0.1868553E+03  0.7818608E-02  0.1161329E+00
          5   -1    0    0  501    0  0.00000000000E+00  0.00000000000E+00  0.10289051376E+04  0.10289158722E+04  0.47000000000E+01 0. -1.
         -5   -1    0    0    0  501 -0.00000000000E+00 -0.00000000000E+00 -0.13492820029E+03  0.13501003383E+03  0.47000000000E+01 0.  1.
          6    1    1    2  502    0 -0.30808867635E+02 -0.66194649632E+02  0.95051271022E+03  0.96870497586E+03  0.17200000000E+03 0. -1.
         -6    1    1    2    0  502  0.30808867635E+02  0.66194649632E+02 -0.56535772940E+02  0.19522093020E+03  0.17200000000E+03 0.  1.
</event>
<event>
 4    1 -0.7151877E-004  0.2102998E+03  0.7818608E-02  0.1141329E+00
         -5   -1    0    0    0  501 -0.00000000000E+00  0.00000000000E+00  0.13241496905E+03  0.13249835481E+03  0.47000000000E+01 0.  1.
          5   -1    0    0  501    0  0.00000000000E+00 -0.00000000000E+00 -0.70640758379E+03  0.70642321906E+03  0.47000000000E+01 0. -1.
          6    1    1    2  502    0 -0.87874791972E+02  0.83186749217E+02 -0.59161878235E+03  0.62788438262E+03  0.17200000000E+03 0. -1.
         -6    1    1    2    0  502  0.87874791972E+02 -0.83186749217E+02  0.17626167603E+02  0.21103719126E+03  0.17200000000E+03 0.  1.
</event>
<event>
 4    1 -0.7151877E-004  0.2953507E+03  0.7818608E-02  0.1087588E+00
          5   -1    0    0  501    0  0.00000000000E+00  0.00000000000E+00  0.73418013963E+03  0.73419518347E+03  0.47000000000E+01 0. -1.
         -5   -1    0    0    0  501 -0.00000000000E+00 -0.00000000000E+00 -0.45146647520E+03  0.45149093926E+03  0.47000000000E+01 0.  1.
          6    1    1    2  502    0  0.23295032359E+03 -0.58156734330E+02  0.65025020931E+03  0.71418302536E+03  0.17200000000E+03 0. -1.
         -6    1    1    2    0  502 -0.23295032359E+03  0.58156734330E+02 -0.36753654488E+03  0.47150309737E+03  0.17200000000E+03 0.  1.
</event>
<event>
 4    1 -0.7151877E-004  0.1898987E+03  0.7818608E-02  0.1158553E+00
          5   -1    0    0  501    0  0.00000000000E+00  0.00000000000E+00  0.25777514190E+03  0.25781798576E+03  0.47000000000E+01 0. -1.
         -5   -1    0    0    0  501 -0.00000000000E+00 -0.00000000000E+00 -0.24599076598E+03  0.24603566195E+03  0.47000000000E+01 0.  1.
          6    1    1    2  502    0 -0.79149020324E+02 -0.14592357025E+02  0.17137899427E+03  0.25579731034E+03  0.17200000000E+03 0. -1.
         -6    1    1    2    0  502  0.79149020324E+02  0.14592357025E+02 -0.15959461835E+03  0.24805633737E+03  0.17200000000E+03 0.  1.
</event>
<event>
 4    1 -0.7151877E-004  0.2151960E+03  0.7818608E-02  0.1137516E+00
         -5   -1    0    0    0  501 -0.00000000000E+00  0.00000000000E+00  0.89707903268E+03  0.89709134478E+03  0.47000000000E+01 0.  1.
          5   -1    0    0  501    0  0.00000000000E+00 -0.00000000000E+00 -0.88885226891E+02  0.89009401523E+02  0.47000000000E+01 0. -1.
          6    1    1    2  502    0 -0.97083927504E+02 -0.85440211346E+02  0.84672380266E+02  0.23125468790E+03  0.17200000000E+03 0. -1.
         -6    1    1    2    0  502  0.97083927504E+02  0.85440211346E+02  0.72352142552E+03  0.75484605840E+03  0.17200000000E+03 0.  1.
</event>
<event>
 4    1 -0.7151877E-004  0.1889935E+03  0.7818608E-02  0.1159372E+00
         -5   -1    0    0    0  501 -0.00000000000E+00  0.00000000000E+00  0.65232009887E+03  0.65233703052E+03  0.47000000000E+01 0.  1.
          5   -1    0    0  501    0  0.00000000000E+00 -0.00000000000E+00 -0.71017504107E+03  0.71019059340E+03  0.47000000000E+01 0. -1.
          6    1    1    2  502    0  0.65035278261E+02 -0.43645932699E+02 -0.68340230680E+03  0.70905378343E+03  0.17200000000E+03 0. -1.
         -6    1    1    2    0  502 -0.65035278261E+02  0.43645932699E+02  0.62554736459E+03  0.65347384049E+03  0.17200000000E+03 0.  1.
</event>
<event>
 4    1 -0.7151877E-004  0.1804400E+03  0.7818608E-02  0.1167378E+00
         -5   -1    0    0    0  501 -0.00000000000E+00  0.00000000000E+00  0.16458591665E+03  0.16465301078E+03  0.47000000000E+01 0.  1.
          5   -1    0    0  501    0  0.00000000000E+00 -0.00000000000E+00 -0.19778025857E+03  0.19783609549E+03  0.47000000000E+01 0. -1.
          6    1    1    2  502    0 -0.52873040079E+02 -0.13380022504E+02 -0.20555704958E+02  0.18160704936E+03  0.17200000000E+03 0.  1.
         -6    1    1    2    0  502  0.52873040079E+02  0.13380022504E+02 -0.12638636966E+02  0.18088205691E+03  0.17200000000E+03 0.  1.
</event>
<event>
 4    1 -0.7151877E-004  0.2056785E+03  0.7818608E-02  0.1145035E+00
          5   -1    0    0  501    0  0.00000000000E+00  0.00000000000E+00  0.25951730226E+03  0.25955985856E+03  0.47000000000E+01 0. -1.
         -5   -1    0    0    0  501 -0.00000000000E+00 -0.00000000000E+00 -0.61484783499E+03  0.61486579852E+03  0.47000000000E+01 0.  1.
          6    1    1    2  502    0 -0.89742771829E+02 -0.68307145966E+02  0.19714707594E+03  0.28490454689E+03  0.17200000000E+03 0. -1.
         -6    1    1    2    0  502  0.89742771829E+02  0.68307145966E+02 -0.55247760867E+03  0.58952111019E+03  0.17200000000E+03 0.  1.
</event>
<event>
 4    1 -0.7151877E-004  0.1774296E+03  0.7818608E-02  0.1170314E+00
         -5   -1    0    0    0  501 -0.00000000000E+00  0.00000000000E+00  0.30691729622E+04  0.30691765609E+04  0.47000000000E+01 0.  1.
          5   -1    0    0  501    0  0.00000000000E+00 -0.00000000000E+00 -0.14455488817E+02  0.15200367001E+02  0.47000000000E+01 0. -1.
          6    1    1    2  502    0  0.21325051634E+02  0.37980492313E+02  0.67090086201E+03  0.69396631205E+03  0.17200000000E+03 0. -1.
         -6    1    1    2    0  502 -0.21325051634E+02 -0.37980492313E+02  0.23838166114E+04  0.23904106159E+04  0.17200000000E+03 0.  1.
</event>
<event>
 4    1 -0.7151877E-004  0.2343023E+03  0.7818608E-02  0.1123648E+00
          5   -1    0    0  501    0  0.00000000000E+00  0.00000000000E+00  0.14715128202E+04  0.14715203261E+04  0.47000000000E+01 0. -1.
         -5   -1    0    0    0  501 -0.00000000000E+00 -0.00000000000E+00 -0.30340900315E+03  0.30344540397E+03  0.47000000000E+01 0.  1.
          6    1    1    2  502    0  0.92859848926E+02 -0.12919220243E+03  0.14151887966E+04  0.14344535220E+04  0.17200000000E+03 0. -1.
         -6    1    1    2    0  502 -0.92859848926E+02  0.12919220243E+03 -0.24708497955E+03  0.34051220805E+03  0.17200000000E+03 0.  1.
</event>
<event>
 4    1 -0.7151877E-004  0.2417288E+03  0.7818608E-02  0.1118646E+00
         -5   -1    0    0    0  501 -0.00000000000E+00  0.00000000000E+00  0.62743502988E+03  0.62745263305E+03  0.47000000000E+01 0.  1.
          5   -1    0    0  501    0  0.00000000000E+00 -0.00000000000E+00 -0.21339096814E+03  0.21344272132E+03  0.47000000000E+01 0. -1.
          6    1    1    2  502    0  0.16021116643E+03  0.56402193830E+02 -0.10864081892E+03  0.26502009896E+03  0.17200000000E+03 0. -1.
         -6    1    1    2    0  502 -0.16021116643E+03 -0.56402193830E+02  0.52268488066E+03  0.57587525540E+03  0.17200000000E+03 0.  1.
</event>
<event>
 4    1 -0.7151877E-004  0.2272155E+03  0.7818608E-02  0.1128615E+00
         -5   -1    0    0    0  501 -0.00000000000E+00  0.00000000000E+00  0.47887006504E+03  0.47889312919E+03  0.47000000000E+01 0.  1.
          5   -1    0    0  501    0  0.00000000000E+00 -0.00000000000E+00 -0.19880813988E+03  0.19886368820E+03  0.47000000000E+01 0. -1.
          6    1    1    2  502    0  0.14839075816E+03 -0.48011225153E+01 -0.89275130508E+02  0.24412479762E+03  0.17200000000E+03 0. -1.
         -6    1    1    2    0  502 -0.14839075816E+03  0.48011225153E+01  0.36933705567E+03  0.43363201977E+03  0.17200000000E+03 0.  1.
</event>
<event>
 4    1 -0.7151877E-004  0.2245759E+03  0.7818608E-02  0.1130517E+00
          5   -1    0    0  501    0  0.00000000000E+00  0.00000000000E+00  0.20581891065E+04  0.20581944729E+04  0.47000000000E+01 0. -1.
         -5   -1    0    0    0  501 -0.00000000000E+00 -0.00000000000E+00 -0.65738926124E+02  0.65906725058E+02  0.47000000000E+01 0.  1.
          6    1    1    2  502    0  0.13989491250E+03  0.35773417791E+02  0.18376985608E+04  0.18513698507E+04  0.17200000000E+03 0. -1.
         -6    1    1    2    0  502 -0.13989491250E+03 -0.35773417791E+02  0.15475161960E+03  0.27273134718E+03  0.17200000000E+03 0.  1.
</event>
<event>
 4    1 -0.7151877E-004  0.1879141E+03  0.7818608E-02  0.1160356E+00
         -5   -1    0    0    0  501 -0.00000000000E+00  0.00000000000E+00  0.92727301238E+03  0.92728492358E+03  0.47000000000E+01 0.  1.
          5   -1    0    0  501    0  0.00000000000E+00 -0.00000000000E+00 -0.10214086724E+03  0.10224894504E+03  0.47000000000E+01 0. -1.
          6    1    1    2  502    0  0.57288763674E+01 -0.75464468226E+02  0.48224440597E+01  0.18797596111E+03  0.17200000000E+03 0. -1.
         -6    1    1    2    0  502 -0.57288763674E+01  0.75464468226E+02  0.82030970108E+03  0.84155790750E+03  0.17200000000E+03 0.  1.
</event>
<event>
 4    1 -0.7151877E-004  0.2083292E+03  0.7818608E-02  0.1142896E+00
          5   -1    0    0  501    0  0.00000000000E+00  0.00000000000E+00  0.67555627281E+03  0.67557262211E+03  0.47000000000E+01 0. -1.
         -5   -1    0    0    0  501 -0.00000000000E+00 -0.00000000000E+00 -0.14212776861E+03  0.14220545915E+03  0.47000000000E+01 0.  1.
          6    1    1    2  502    0  0.93798280100E+02 -0.70844386434E+02  0.56944648491E+03  0.60635826342E+03  0.17200000000E+03 0. -1.
         -6    1    1    2    0  502 -0.93798280100E+02  0.70844386434E+02 -0.36017980711E+02  0.21141981783E+03  0.17200000000E+03 0.  1.
</event>
<event>
 4    1 -0.7151877E-004  0.2278643E+03  0.7818608E-02  0.1128152E+00
          5   -1    0    0  501    0  0.00000000000E+00  0.00000000000E+00  0.16544491080E+03  0.16551165672E+03  0.47000000000E+01 0. -1.
         -5   -1    0    0    0  501 -0.00000000000E+00 -0.00000000000E+00 -0.63811812237E+03  0.63813543084E+03  0.47000000000E+01 0.  1.
          6    1    1    2  502    0 -0.26040137901E+02 -0.14717360396E+03  0.50157176236E+02  0.23331931084E+03  0.17200000000E+03 0. -1.
         -6    1    1    2    0  502  0.26040137901E+02  0.14717360396E+03 -0.52283038780E+03  0.57032777671E+03  0.17200000000E+03 0.  1.
</event>
<event>
 4    1 -0.7151877E-004  0.1955524E+03  0.7818608E-02  0.1153547E+00
          5   -1    0    0  501    0  0.00000000000E+00  0.00000000000E+00  0.19777700562E+03  0.19783284347E+03  0.47000000000E+01 0. -1.
         -5   -1    0    0    0  501 -0.00000000000E+00 -0.00000000000E+00 -0.38418693825E+03  0.38421568620E+03  0.47000000000E+01 0.  1.
          6    1    1    2  502    0  0.82845142475E+02 -0.42348803620E+02  0.11193825448E+03  0.22532401474E+03  0.17200000000E+03 0. -1.
         -6    1    1    2    0  502 -0.82845142475E+02  0.42348803620E+02 -0.29834818711E+03  0.35672451493E+03  0.17200000000E+03 0.  1.
</event>
<event>
 4    1 -0.7151877E-004  0.1928433E+03  0.7818608E-02  0.1155922E+00
         -5   -1    0    0    0  501 -0.00000000000E+00  0.00000000000E+00  0.22080568955E+04  0.22080618976E+04  0.47000000000E+01 0.  1.
          5   -1    0    0  501    0  0.00000000000E+00 -0.00000000000E+00 -0.20232284232E+02  0.20771021286E+02  0.47000000000E+01 0. -1.
          6    1    1    2  502    0 -0.58465240676E+02 -0.64702018869E+02  0.62282006842E+03  0.65199185059E+03  0.17200000000E+03 0. -1.
         -6    1    1    2    0  502  0.58465240676E+02  0.64702018869E+02  0.15650045428E+04  0.15768410683E+04  0.17200000000E+03 0.  1.
</event>
<event>
 4    1 -0.7151877E-004  0.2678349E+03  0.7818608E-02  0.1102525E+00
          5   -1    0    0  501    0  0.00000000000E+00  0.00000000000E+00  0.57384457753E+03  0.57386382458E+03  0.47000000000E+01 0. -1.
         -5   -1    0    0    0  501 -0.00000000000E+00 -0.00000000000E+00 -0.35558889700E+03  0.35561995680E+03  0.47000000000E+01 0.  1.
          6    1    1    2  502    0  0.17846923918E+03 -0.10149018031E+03  0.48337824365E+03  0.55262107494E+03  0.17200000000E+03 0. -1.
         -6    1    1    2    0  502 -0.17846923918E+03  0.10149018031E+03 -0.26512256312E+03  0.37686270644E+03  0.17200000000E+03 0.  1.
</event>
<event>
 4    1 -0.7151877E-004  0.1826732E+03  0.7818608E-02  0.1165241E+00
         -5   -1    0    0    0  501 -0.00000000000E+00  0.00000000000E+00  0.53801089252E+02  0.54005992304E+02  0.47000000000E+01 0.  1.
          5   -1    0    0  501    0  0.00000000000E+00 -0.00000000000E+00 -0.95900494652E+03  0.95901646359E+03  0.47000000000E+01 0. -1.
          6    1    1    2  502    0  0.60673683060E+02  0.10207273418E+02 -0.75422897035E+03  0.77603532391E+03  0.17200000000E+03 0. -1.
         -6    1    1    2    0  502 -0.60673683060E+02 -0.10207273418E+02 -0.15097488691E+03  0.23698713198E+03  0.17200000000E+03 0.  1.
</event>
<event>
 4    1 -0.7151877E-004  0.1770226E+03  0.7818608E-02  0.1170716E+00
          5   -1    0    0  501    0  0.00000000000E+00  0.00000000000E+00  0.37284125309E+03  0.37287087578E+03  0.47000000000E+01 0. -1.
         -5   -1    0    0    0  501 -0.00000000000E+00 -0.00000000000E+00 -0.36310472353E+03  0.36313514048E+03  0.47000000000E+01 0.  1.
          6    1    1    2  502    0 -0.41817044809E+02 -0.20810931739E+01  0.32748837075E+03  0.37227090829E+03  0.17200000000E+03 0. -1.
         -6    1    1    2    0  502  0.41817044809E+02  0.20810931739E+01 -0.31775184119E+03  0.36373510797E+03  0.17200000000E+03 0.  1.
</event>
<event>
 4    1 -0.7151877E-004  0.2724376E+03  0.7818608E-02  0.1099893E+00
         -5   -1    0    0    0  501 -0.00000000000E+00  0.00000000000E+00  0.11426080592E+03  0.11435742988E+03  0.47000000000E+01 0.  1.
          5   -1    0    0  501    0  0.00000000000E+00 -0.00000000000E+00 -0.12747877298E+04  0.12747963939E+04  0.47000000000E+01 0. -1.
          6    1    1    2  502    0 -0.15005002776E+03  0.14873872552E+03 -0.10668103259E+04  0.11010479057E+04  0.17200000000E+03 0. -1.
         -6    1    1    2    0  502  0.15005002776E+03 -0.14873872552E+03 -0.93716597973E+02  0.28810591809E+03  0.17200000000E+03 0.  1.
</event>
<event>
 4    1 -0.7151877E-004  0.1754034E+03  0.7818608E-02  0.1172327E+00
          5   -1    0    0  501    0  0.00000000000E+00  0.00000000000E+00  0.13445239845E+03  0.13453452140E+03  0.47000000000E+01 0. -1.
         -5   -1    0    0    0  501 -0.00000000000E+00 -0.00000000000E+00 -0.29964873908E+03  0.29968559663E+03  0.47000000000E+01 0.  1.
          6    1    1    2  502    0  0.32813083863E+02 -0.10279213753E+02  0.23060600790E+02  0.17691283734E+03  0.17200000000E+03 0. -1.
         -6    1    1    2    0  502 -0.32813083863E+02  0.10279213753E+02 -0.18825694141E+03  0.25730728069E+03  0.17200000000E+03 0.  1.
</event>
<event>
 4    1 -0.7151877E-004  0.2110073E+03  0.7818608E-02  0.1140771E+00
         -5   -1    0    0    0  501 -0.00000000000E+00  0.00000000000E+00  0.34645352362E+03  0.34648540233E+03  0.47000000000E+01 0.  1.
          5   -1    0    0  501    0  0.00000000000E+00 -0.00000000000E+00 -0.18726022728E+03  0.18731920009E+03  0.47000000000E+01 0. -1.
          6    1    1    2  502    0 -0.79414209142E+02 -0.92916322946E+02 -0.69957223477E+02  0.22230176068E+03  0.17200000000E+03 0. -1.
         -6    1    1    2    0  502  0.79414209142E+02  0.92916322946E+02  0.22915051981E+03  0.31150284174E+03  0.17200000000E+03 0.  1.
</event>
<event>
 4    1 -0.7151877E-004  0.1733667E+03  0.7818608E-02  0.1174382E+00
          5   -1    0    0  501    0  0.00000000000E+00  0.00000000000E+00  0.13289665653E+04  0.13289748763E+04  0.47000000000E+01 0. -1.
         -5   -1    0    0    0  501 -0.00000000000E+00 -0.00000000000E+00 -0.12896183055E+03  0.12904744763E+03  0.47000000000E+01 0.  1.
          6    1    1    2  502    0  0.23113353866E+01  0.21602912066E+02  0.12620390807E+04  0.12738911528E+04  0.17200000000E+03 0. -1.
         -6    1    1    2    0  502 -0.23113353866E+01 -0.21602912066E+02 -0.62034345919E+02  0.18413117106E+03  0.17200000000E+03 0.  1.
</event>
<event>
 4    1 -0.7151877E-004  0.1756085E+03  0.7818608E-02  0.1172122E+00
         -5   -1    0    0    0  501 -0.00000000000E+00  0.00000000000E+00  0.34406076454E+03  0.34409286493E+03  0.47000000000E+01 0.  1.
          5   -1    0    0  501    0  0.00000000000E+00 -0.00000000000E+00 -0.36649673305E+03  0.36652686850E+03  0.47000000000E+01 0. -1.
          6    1    1    2  502    0 -0.30832698748E+02  0.17426224966E+02 -0.32004803774E+03  0.36506037184E+03  0.17200000000E+03 0. -1.
         -6    1    1    2    0  502  0.30832698748E+02 -0.17426224966E+02  0.29761206923E+03  0.34555936159E+03  0.17200000000E+03 0.  1.
</event>
<event>
 4    1 -0.7151877E-004  0.1789855E+03  0.7818608E-02  0.1168788E+00
          5   -1    0    0  501    0  0.00000000000E+00  0.00000000000E+00  0.27493436607E+03  0.27497453636E+03  0.47000000000E+01 0. -1.
         -5   -1    0    0    0  501 -0.00000000000E+00 -0.00000000000E+00 -0.14183449175E+03  0.14191234283E+03  0.47000000000E+01 0.  1.
          6    1    1    2  502    0  0.47622498517E+01 -0.49286270347E+02  0.15473533250E+03  0.23659847546E+03  0.17200000000E+03 0. -1.
         -6    1    1    2    0  502 -0.47622498517E+01  0.49286270347E+02 -0.21635458176E+02  0.18028840373E+03  0.17200000000E+03 0.  1.
</event>
<event>
 4    1 -0.7151877E-004  0.1910845E+03  0.7818608E-02  0.1157487E+00
         -5   -1    0    0    0  501 -0.00000000000E+00  0.00000000000E+00  0.47160399969E+03  0.47162741918E+03  0.47000000000E+01 0.  1.
          5   -1    0    0  501    0  0.00000000000E+00 -0.00000000000E+00 -0.11460970624E+03  0.11470603631E+03  0.47000000000E+01 0. -1.
          6    1    1    2  502    0  0.82764630276E+02  0.89060710641E+01  0.11392976524E+02  0.19142388054E+03  0.17200000000E+03 0. -1.
         -6    1    1    2    0  502 -0.82764630276E+02 -0.89060710641E+01  0.34560131693E+03  0.39490957495E+03  0.17200000000E+03 0.  1.
</event>
<event>
 4    1 -0.7151877E-004  0.2729446E+03  0.7818608E-02  0.1099606E+00
         -5   -1    0    0    0  501 -0.00000000000E+00  0.00000000000E+00  0.13442469388E+04  0.13442551553E+04  0.47000000000E+01 0.  1.
          5   -1    0    0  501    0  0.00000000000E+00 -0.00000000000E+00 -0.17767521110E+03  0.17773736422E+03  0.47000000000E+01 0. -1.
          6    1    1    2  502    0  0.16994076948E+03 -0.12662900925E+03 -0.47997080633E+02  0.27713262324E+03  0.17200000000E+03 0. -1.
         -6    1    1    2    0  502 -0.16994076948E+03  0.12662900925E+03  0.12145688083E+04  0.12448598962E+04  0.17200000000E+03 0.  1.
</event>
<event>
 4    1 -0.7151877E-004  0.1759860E+03  0.7818608E-02  0.1171745E+00
         -5   -1    0    0    0  501 -0.00000000000E+00  0.00000000000E+00  0.14853490707E+04  0.14853565067E+04  0.47000000000E+01 0.  1.
          5   -1    0    0  501    0  0.00000000000E+00 -0.00000000000E+00 -0.28777025557E+02  0.29158312707E+02  0.47000000000E+01 0. -1.
          6    1    1    2  502    0  0.32057290288E+02 -0.18957648050E+02  0.32730915980E+03  0.37162124316E+03  0.17200000000E+03 0. -1.
         -6    1    1    2    0  502 -0.32057290288E+02  0.18957648050E+02  0.11292628854E+04  0.11428935762E+04  0.17200000000E+03 0.  1.
</event>
<event>
 4    1 -0.7151877E-004  0.1736556E+03  0.7818608E-02  0.1174088E+00
          5   -1    0    0  501    0  0.00000000000E+00  0.00000000000E+00  0.14151944561E+03  0.14159746991E+03  0.47000000000E+01 0. -1.
         -5   -1    0    0    0  501 -0.00000000000E+00 -0.00000000000E+00 -0.36219689507E+03  0.36222738825E+03  0.47000000000E+01 0.  1.
          6    1    1    2  502    0  0.23582431809E+02  0.40161487001E+01  0.51354806754E+02  0.18108996857E+03  0.17200000000E+03 0. -1.
         -6    1    1    2    0  502 -0.23582431809E+02 -0.40161487001E+01 -0.27203225621E+03  0.32273488959E+03  0.17200000000E+03 0.  1.
</event>
<event>
 4    1 -0.7151877E-004  0.2257654E+03  0.7818608E-02  0.1129656E+00
          5   -1    0    0  501    0  0.00000000000E+00  0.00000000000E+00  0.17777431239E+04  0.17777493368E+04  0.47000000000E+01 0. -1.
         -5   -1    0    0    0  501 -0.00000000000E+00 -0.00000000000E+00 -0.74990255290E+02  0.75137396737E+02  0.47000000000E+01 0.  1.
          6    1    1    2  502    0  0.12906373195E+03 -0.68764736802E+02  0.15797250979E+04  0.15957761186E+04  0.17200000000E+03 0. -1.
         -6    1    1    2    0  502 -0.12906373195E+03  0.68764736802E+02  0.12302777072E+03  0.25711061491E+03  0.17200000000E+03 0.  1.
</event>
<event>
 4    1 -0.7151877E-004  0.3637795E+03  0.7818608E-02  0.1057097E+00
          5   -1    0    0  501    0  0.00000000000E+00  0.00000000000E+00  0.57899318976E+03  0.57901226566E+03  0.47000000000E+01 0. -1.
         -5   -1    0    0    0  501 -0.00000000000E+00 -0.00000000000E+00 -0.45526518398E+03  0.45528944392E+03  0.47000000000E+01 0.  1.
          6    1    1    2  502    0 -0.22473765624E+03 -0.22857061626E+03  0.42681364755E+03  0.56080783739E+03  0.17200000000E+03 0. -1.
         -6    1    1    2    0  502  0.22473765624E+03  0.22857061626E+03 -0.30308564177E+03  0.47349387218E+03  0.17200000000E+03 0.  1.
</event>
<event>
 4    1 -0.7151877E-004  0.2040425E+03  0.7818608E-02  0.1146372E+00
          5   -1    0    0  501    0  0.00000000000E+00  0.00000000000E+00  0.46469048980E+03  0.46471425770E+03  0.47000000000E+01 0. -1.
         -5   -1    0    0    0  501 -0.00000000000E+00 -0.00000000000E+00 -0.14734580473E+03  0.14742074539E+03  0.47000000000E+01 0.  1.
          6    1    1    2  502    0  0.10018925167E+03  0.44849368179E+02  0.35035404420E+03  0.40543964812E+03  0.17200000000E+03 0. -1.
         -6    1    1    2    0  502 -0.10018925167E+03 -0.44849368179E+02 -0.33009359136E+02  0.20669535497E+03  0.17200000000E+03 0.  1.
</event>
<event>
 4    1 -0.7151877E-004  0.2657530E+03  0.7818608E-02  0.1103735E+00
          5   -1    0    0  501    0  0.00000000000E+00  0.00000000000E+00  0.25640602033E+03  0.25644909292E+03  0.47000000000E+01 0. -1.
         -5   -1    0    0    0  501 -0.00000000000E+00 -0.00000000000E+00 -0.11435967772E+04  0.11436064353E+04  0.47000000000E+01 0.  1.
          6    1    1    2  502    0 -0.44112341852E+02 -0.19772397170E+03  0.16634356956E+03  0.31352009636E+03  0.17200000000E+03 0. -1.
         -6    1    1    2    0  502  0.44112341852E+02  0.19772397170E+03 -0.10535343264E+04  0.10865354319E+04  0.17200000000E+03 0.  1.
</event>
<event>
 4    1 -0.7151877E-004  0.2464101E+03  0.7818608E-02  0.1115595E+00
          5   -1    0    0  501    0  0.00000000000E+00  0.00000000000E+00  0.58420679703E+03  0.58422570270E+03  0.47000000000E+01 0. -1.
         -5   -1    0    0    0  501 -0.00000000000E+00 -0.00000000000E+00 -0.11182867525E+03  0.11192739883E+03  0.47000000000E+01 0.  1.
          6    1    1    2  502    0 -0.12933164362E+03  0.12003016935E+03  0.32906357593E+03  0.41109701118E+03  0.17200000000E+03 0. -1.
         -6    1    1    2    0  502  0.12933164362E+03 -0.12003016935E+03  0.14331454585E+03  0.28505609035E+03  0.17200000000E+03 0.  1.
</event>
<event>
 4    1 -0.7151877E-004  0.2216580E+03  0.7818608E-02  0.1132653E+00
         -5   -1    0    0    0  501 -0.00000000000E+00  0.00000000000E+00  0.62006821038E+03  0.62008602268E+03  0.47000000000E+01 0.  1.
          5   -1    0    0  501    0  0.00000000000E+00 -0.00000000000E+00 -0.10036897719E+03  0.10047896090E+03  0.47000000000E+01 0. -1.
          6    1    1    2  502    0  0.12644853673E+03 -0.59657624623E+02  0.94304704212E+02  0.24088512169E+03  0.17200000000E+03 0. -1.
         -6    1    1    2    0  502 -0.12644853673E+03  0.59657624623E+02  0.42539452898E+03  0.47967986189E+03  0.17200000000E+03 0.  1.
</event>
<event>
 4    1 -0.7151877E-004  0.1737028E+03  0.7818608E-02  0.1174041E+00
          5   -1    0    0  501    0  0.00000000000E+00  0.00000000000E+00  0.65585584467E+02  0.65753774720E+02  0.47000000000E+01 0. -1.
         -5   -1    0    0    0  501 -0.00000000000E+00 -0.00000000000E+00 -0.76013136232E+03  0.76014589256E+03  0.47000000000E+01 0.  1.
          6    1    1    2  502    0 -0.23403766771E+02  0.63972457548E+01 -0.87511380237E+02  0.19450167794E+03  0.17200000000E+03 0. -1.
         -6    1    1    2    0  502  0.23403766771E+02 -0.63972457548E+01 -0.60703439762E+03  0.63139798934E+03  0.17200000000E+03 0.  1.
</event>
<event>
 4    1 -0.7151877E-004  0.2050722E+03  0.7818608E-02  0.1145529E+00
          5   -1    0    0  501    0  0.00000000000E+00  0.00000000000E+00  0.95779351297E+03  0.95780504461E+03  0.47000000000E+01 0. -1.
         -5   -1    0    0    0  501 -0.00000000000E+00 -0.00000000000E+00 -0.77820456628E+02  0.77962256700E+02  0.47000000000E+01 0.  1.
          6    1    1    2  502    0 -0.83014017145E+01  0.11136293162E+03  0.78209602661E+03  0.80853497800E+03  0.17200000000E+03 0. -1.
         -6    1    1    2    0  502  0.83014017145E+01 -0.11136293162E+03  0.97877029734E+02  0.22723232332E+03  0.17200000000E+03 0.  1.
</event>
<event>
 4    1 -0.7151877E-004  0.5835044E+03  0.7818608E-02  0.9940233E-01
         -5   -1    0    0    0  501 -0.00000000000E+00  0.00000000000E+00  0.73788996903E+03  0.73790493724E+03  0.47000000000E+01 0.  1.
          5   -1    0    0  501    0  0.00000000000E+00 -0.00000000000E+00 -0.70255482385E+03  0.70257054487E+03  0.47000000000E+01 0. -1.
          6    1    1    2  502    0 -0.21380329774E+03  0.51495777363E+03 -0.40430404485E+03  0.70988669478E+03  0.17200000000E+03 0. -1.
         -6    1    1    2    0  502  0.21380329774E+03 -0.51495777363E+03  0.43963919004E+03  0.73058878732E+03  0.17200000000E+03 0.  1.
</event>
<event>
 4    1 -0.7151877E-004  0.2052440E+03  0.7818608E-02  0.1145389E+00
         -5   -1    0    0    0  501 -0.00000000000E+00  0.00000000000E+00  0.58305489870E+02  0.58494616410E+02  0.47000000000E+01 0.  1.
          5   -1    0    0  501    0  0.00000000000E+00 -0.00000000000E+00 -0.73520572470E+03  0.73522074755E+03  0.47000000000E+01 0. -1.
          6    1    1    2  502    0  0.85001944436E+02 -0.72909451006E+02 -0.39336780819E+03  0.44369285674E+03  0.17200000000E+03 0. -1.
         -6    1    1    2    0  502 -0.85001944436E+02  0.72909451006E+02 -0.28353242664E+03  0.35002250722E+03  0.17200000000E+03 0.  1.
</event>
<event>
 4    1 -0.7151877E-004  0.1799763E+03  0.7818608E-02  0.1167826E+00
          5   -1    0    0  501    0  0.00000000000E+00  0.00000000000E+00  0.55268186274E+02  0.55467669989E+02  0.47000000000E+01 0. -1.
         -5   -1    0    0    0  501 -0.00000000000E+00 -0.00000000000E+00 -0.96417098559E+03  0.96418244096E+03  0.47000000000E+01 0.  1.
          6    1    1    2  502    0 -0.22276162092E+02 -0.48075505635E+02 -0.13469435627E+03  0.22479780081E+03  0.17200000000E+03 0. -1.
         -6    1    1    2    0  502  0.22276162092E+02  0.48075505635E+02 -0.77420844305E+03  0.79485231014E+03  0.17200000000E+03 0.  1.
</event>
<event>
 4    1 -0.7151877E-004  0.3107881E+03  0.7818608E-02  0.1079969E+00
          5   -1    0    0  501    0  0.00000000000E+00  0.00000000000E+00  0.23900951553E+03  0.23905572262E+03  0.47000000000E+01 0. -1.
         -5   -1    0    0    0  501 -0.00000000000E+00 -0.00000000000E+00 -0.65717200358E+03  0.65718881023E+03  0.47000000000E+01 0.  1.
          6    1    1    2  502    0  0.23675199676E+03 -0.10466011693E+03  0.69031964337E+02  0.31836246661E+03  0.17200000000E+03 0. -1.
         -6    1    1    2    0  502 -0.23675199676E+03  0.10466011693E+03 -0.48719445238E+03  0.57788206624E+03  0.17200000000E+03 0.  1.
</event>
<event>
 4    1 -0.7151877E-004  0.1770590E+03  0.7818608E-02  0.1170680E+00
          5   -1    0    0  501    0  0.00000000000E+00  0.00000000000E+00  0.24100489837E+03  0.24105072296E+03  0.47000000000E+01 0. -1.
         -5   -1    0    0    0  501 -0.00000000000E+00 -0.00000000000E+00 -0.15860872242E+04  0.15860941879E+04  0.47000000000E+01 0.  1.
          6    1    1    2  502    0  0.78836300377E+01 -0.41276321118E+02  0.20277247412E+03  0.26919614144E+03  0.17200000000E+03 0. -1.
         -6    1    1    2    0  502 -0.78836300377E+01  0.41276321118E+02 -0.15478547999E+04  0.15579487694E+04  0.17200000000E+03 0.  1.
</event>
<event>
 4    1 -0.7151877E-004  0.2203966E+03  0.7818608E-02  0.1133588E+00
         -5   -1    0    0    0  501 -0.00000000000E+00  0.00000000000E+00  0.10899240241E+04  0.10899341578E+04  0.47000000000E+01 0.  1.
          5   -1    0    0  501    0  0.00000000000E+00 -0.00000000000E+00 -0.54447188157E+02  0.54649668785E+02  0.47000000000E+01 0. -1.
          6    1    1    2  502    0  0.18088665161E+02  0.13661425072E+03  0.27282804857E+03  0.35072752585E+03  0.17200000000E+03 0. -1.
         -6    1    1    2    0  502 -0.18088665161E+02 -0.13661425072E+03  0.76264878739E+03  0.79385630073E+03  0.17200000000E+03 0.  1.
</event>
<event>
 4    1 -0.7151877E-004  0.2345193E+03  0.7818608E-02  0.1123499E+00
         -5   -1    0    0    0  501 -0.00000000000E+00  0.00000000000E+00  0.79716734550E+03  0.79718120069E+03  0.47000000000E+01 0.  1.
          5   -1    0    0  501    0  0.00000000000E+00 -0.00000000000E+00 -0.32211726328E+03  0.32215155021E+03  0.47000000000E+01 0. -1.
          6    1    1    2  502    0 -0.15136005754E+03 -0.50054285792E+02 -0.25860435000E+03  0.34910672922E+03  0.17200000000E+03 0. -1.
         -6    1    1    2    0  502  0.15136005754E+03  0.50054285792E+02  0.73365443223E+03  0.77022602168E+03  0.17200000000E+03 0.  1.
</event>
<event>
 4    1 -0.7151877E-004  0.1800710E+03  0.7818608E-02  0.1167734E+00
         -5   -1    0    0    0  501 -0.00000000000E+00  0.00000000000E+00  0.49080966255E+03  0.49083216566E+03  0.47000000000E+01 0.  1.
          5   -1    0    0  501    0  0.00000000000E+00 -0.00000000000E+00 -0.68177308893E+02  0.68339120918E+02  0.47000000000E+01 0. -1.
          6    1    1    2  502    0 -0.40351956700E+02 -0.34832151114E+02  0.16093968083E+03  0.24151012406E+03  0.17200000000E+03 0. -1.
         -6    1    1    2    0  502  0.40351956700E+02  0.34832151114E+02  0.26169267283E+03  0.31766116252E+03  0.17200000000E+03 0.  1.
</event>
<event>
 4    1 -0.7151877E-004  0.2336404E+03  0.7818608E-02  0.1124103E+00
         -5   -1    0    0    0  501 -0.00000000000E+00  0.00000000000E+00  0.15627805740E+03  0.15634871674E+03  0.47000000000E+01 0.  1.
          5   -1    0    0  501    0  0.00000000000E+00 -0.00000000000E+00 -0.46624503032E+03  0.46626871898E+03  0.47000000000E+01 0. -1.
          6    1    1    2  502    0 -0.15654248753E+03 -0.22321800118E+02 -0.31098814118E+03  0.38897485409E+03  0.17200000000E+03 0. -1.
         -6    1    1    2    0  502  0.15654248753E+03  0.22321800118E+02  0.10211682609E+01  0.23364258162E+03  0.17200000000E+03 0.  1.
</event>
<event>
 4    1 -0.7151877E-004  0.3576095E+03  0.7818608E-02  0.1059534E+00
          5   -1    0    0  501    0  0.00000000000E+00  0.00000000000E+00  0.64804299754E+03  0.64806004094E+03  0.47000000000E+01 0. -1.
         -5   -1    0    0    0  501 -0.00000000000E+00 -0.00000000000E+00 -0.20426927190E+03  0.20432333553E+03  0.47000000000E+01 0.  1.
          6    1    1    2  502    0  0.31055824899E+03 -0.43059529357E+02  0.30064045068E+03  0.46719292554E+03  0.17200000000E+03 0. -1.
         -6    1    1    2    0  502 -0.31055824899E+03  0.43059529357E+02  0.14313327497E+03  0.38519045093E+03  0.17200000000E+03 0.  1.
</event>
<event>
 4    1 -0.7151877E-004  0.2203117E+03  0.7818608E-02  0.1133651E+00
          5   -1    0    0  501    0  0.00000000000E+00  0.00000000000E+00  0.25234430842E+04  0.25234474612E+04  0.47000000000E+01 0. -1.
         -5   -1    0    0    0  501 -0.00000000000E+00 -0.00000000000E+00 -0.15760621352E+03  0.15767627767E+03  0.47000000000E+01 0.  1.
          6    1    1    2  502    0 -0.85695277632E+02 -0.10774770810E+03  0.24390391402E+04  0.24489690028E+04  0.17200000000E+03 0. -1.
         -6    1    1    2    0  502  0.85695277632E+02  0.10774770810E+03 -0.73202269502E+02  0.23215473605E+03  0.17200000000E+03 0.  1.
</event>
<event>
 4    1 -0.7151877E-004  0.2124648E+03  0.7818608E-02  0.1139629E+00
         -5   -1    0    0    0  501 -0.00000000000E+00  0.00000000000E+00  0.19178167986E+03  0.19183926274E+03  0.47000000000E+01 0.  1.
          5   -1    0    0  501    0  0.00000000000E+00 -0.00000000000E+00 -0.40488686502E+03  0.40491414332E+03  0.47000000000E+01 0. -1.
          6    1    1    2  502    0  0.73420594262E+02 -0.10083011840E+03 -0.29965683525E+03  0.36733569844E+03  0.17200000000E+03 0. -1.
         -6    1    1    2    0  502 -0.73420594262E+02  0.10083011840E+03  0.86551650092E+02  0.22941770763E+03  0.17200000000E+03 0.  1.
</event>
<event>
 4    1 -0.7151877E-004  0.1872337E+03  0.7818608E-02  0.1160980E+00
         -5   -1    0    0    0  501 -0.00000000000E+00  0.00000000000E+00  0.70526154715E+03  0.70527720783E+03  0.47000000000E+01 0.  1.
          5   -1    0    0  501    0  0.00000000000E+00 -0.00000000000E+00 -0.11867057692E+03  0.11876361323E+03  0.47000000000E+01 0. -1.
          6    1    1    2  502    0 -0.29528103005E+02 -0.67827449841E+02 -0.20857085393E+02  0.18839185181E+03  0.17200000000E+03 0. -1.
         -6    1    1    2    0  502  0.29528103005E+02  0.67827449841E+02  0.60744805562E+03  0.63564896924E+03  0.17200000000E+03 0.  1.
</event>
<event>
 4    1 -0.7151877E-004  0.1816923E+03  0.7818608E-02  0.1166175E+00
          5   -1    0    0  501    0  0.00000000000E+00  0.00000000000E+00  0.36315288926E+03  0.36318330217E+03  0.47000000000E+01 0. -1.
         -5   -1    0    0    0  501 -0.00000000000E+00 -0.00000000000E+00 -0.73060839013E+03  0.73062350751E+03  0.47000000000E+01 0.  1.
          6    1    1    2  502    0 -0.41235504588E+02 -0.41565709763E+02  0.32802576838E+03  0.37498397271E+03  0.17200000000E+03 0. -1.
         -6    1    1    2    0  502  0.41235504588E+02  0.41565709763E+02 -0.69548126925E+03  0.71882283697E+03  0.17200000000E+03 0.  1.
</event>
<event>
 4    1 -0.7151877E-004  0.1836389E+03  0.7818608E-02  0.1164327E+00
          5   -1    0    0  501    0  0.00000000000E+00  0.00000000000E+00  0.12997993371E+03  0.13006488061E+03  0.47000000000E+01 0. -1.
         -5   -1    0    0    0  501 -0.00000000000E+00 -0.00000000000E+00 -0.46731272622E+03  0.46733636076E+03  0.47000000000E+01 0.  1.
          6    1    1    2  502    0 -0.16419240790E+02  0.62206423831E+02  0.30614525132E+02  0.18617325206E+03  0.17200000000E+03 0. -1.
         -6    1    1    2    0  502  0.16419240790E+02 -0.62206423831E+02 -0.36794731764E+03  0.41122798931E+03  0.17200000000E+03 0.  1.
</event>
<event>
 4    1 -0.7151877E-004  0.1759471E+03  0.7818608E-02  0.1171784E+00
          5   -1    0    0  501    0  0.00000000000E+00  0.00000000000E+00  0.43385603255E+03  0.43388148956E+03  0.47000000000E+01 0. -1.
         -5   -1    0    0    0  501 -0.00000000000E+00 -0.00000000000E+00 -0.14579964522E+03  0.14587538019E+03  0.47000000000E+01 0.  1.
          6    1    1    2  502    0  0.24074847990E+01  0.36980945999E+02  0.35121095111E+03  0.39281868404E+03  0.17200000000E+03 0. -1.
         -6    1    1    2    0  502 -0.24074847990E+01 -0.36980945999E+02 -0.63154563774E+02  0.18693818571E+03  0.17200000000E+03 0.  1.
</event>
<event>
 4    1 -0.7151877E-004  0.3239999E+03  0.7818608E-02  0.1073823E+00
         -5   -1    0    0    0  501 -0.00000000000E+00  0.00000000000E+00  0.20945673888E+03  0.20950946390E+03  0.47000000000E+01 0.  1.
          5   -1    0    0  501    0  0.00000000000E+00 -0.00000000000E+00 -0.10277818244E+04  0.10277925708E+04  0.47000000000E+01 0. -1.
          6    1    1    2  502    0 -0.12364774933E+03  0.24515942948E+03 -0.85202959841E+03  0.91155380990E+03  0.17200000000E+03 0. -1.
         -6    1    1    2    0  502  0.12364774933E+03 -0.24515942948E+03  0.33704512873E+02  0.32574822481E+03  0.17200000000E+03 0.  1.
</event>
<event>
 4    1 -0.7151877E-004  0.2388559E+03  0.7818608E-02  0.1120557E+00
          5   -1    0    0  501    0  0.00000000000E+00  0.00000000000E+00  0.84659482522E+03  0.84660787150E+03  0.47000000000E+01 0. -1.
         -5   -1    0    0    0  501 -0.00000000000E+00 -0.00000000000E+00 -0.30954530836E+03  0.30958098767E+03  0.47000000000E+01 0.  1.
          6    1    1    2  502    0  0.94995851285E+02  0.13580842708E+03  0.77984153324E+03  0.81560097940E+03  0.17200000000E+03 0. -1.
         -6    1    1    2    0  502 -0.94995851285E+02 -0.13580842708E+03 -0.24279201639E+03  0.34058787977E+03  0.17200000000E+03 0.  1.
</event>
<event>
 4    1 -0.7151877E-004  0.2744884E+03  0.7818608E-02  0.1098738E+00
         -5   -1    0    0    0  501 -0.00000000000E+00  0.00000000000E+00  0.16557907832E+03  0.16564577018E+03  0.47000000000E+01 0.  1.
          5   -1    0    0  501    0  0.00000000000E+00 -0.00000000000E+00 -0.51056541555E+03  0.51058704797E+03  0.47000000000E+01 0. -1.
          6    1    1    2  502    0  0.17346257239E+03 -0.12518230541E+03 -0.28416480716E+03  0.39508671356E+03  0.17200000000E+03 0. -1.
         -6    1    1    2    0  502 -0.17346257239E+03  0.12518230541E+03 -0.60821530075E+02  0.28114610459E+03  0.17200000000E+03 0.  1.
</event>
<event>
 4    1 -0.7151877E-004  0.2357378E+03  0.7818608E-02  0.1122665E+00
          5   -1    0    0  501    0  0.00000000000E+00  0.00000000000E+00  0.80198047410E+03  0.80199424613E+03  0.47000000000E+01 0. -1.
         -5   -1    0    0    0  501 -0.00000000000E+00 -0.00000000000E+00 -0.21611904766E+03  0.21617014771E+03  0.47000000000E+01 0.  1.
          6    1    1    2  502    0  0.29487262712E+02 -0.15848918340E+03  0.71255556064E+03  0.75053830476E+03  0.17200000000E+03 0. -1.
         -6    1    1    2    0  502 -0.29487262712E+02  0.15848918340E+03 -0.12669413420E+03  0.26762608908E+03  0.17200000000E+03 0.  1.
</event>
<event>
 4    1 -0.7151877E-004  0.1853906E+03  0.7818608E-02  0.1162686E+00
         -5   -1    0    0    0  501 -0.00000000000E+00  0.00000000000E+00  0.14868308983E+03  0.14875735680E+03  0.47000000000E+01 0.  1.
          5   -1    0    0  501    0  0.00000000000E+00 -0.00000000000E+00 -0.30868566000E+03  0.30872143866E+03  0.47000000000E+01 0. -1.
          6    1    1    2  502    0  0.44491107967E+02  0.52973798152E+02 -0.19472632057E+03  0.26886431876E+03  0.17200000000E+03 0. -1.
         -6    1    1    2    0  502 -0.44491107967E+02 -0.52973798152E+02  0.34723750404E+02  0.18861447670E+03  0.17200000000E+03 0.  1.
</event>
<event>
 4    1 -0.7151877E-004  0.1721982E+03  0.7818608E-02  0.1175575E+00
          5   -1    0    0  501    0  0.00000000000E+00  0.00000000000E+00  0.17298243077E+03  0.17304626941E+03  0.47000000000E+01 0. -1.
         -5   -1    0    0    0  501 -0.00000000000E+00 -0.00000000000E+00 -0.30091544408E+03  0.30095214650E+03  0.47000000000E+01 0.  1.
          6    1    1    2  502    0  0.49966980497E+01  0.65774870230E+01  0.91553912567E+02  0.19502397092E+03  0.17200000000E+03 0. -1.
         -6    1    1    2    0  502 -0.49966980497E+01 -0.65774870230E+01 -0.21948692588E+03  0.27897444499E+03  0.17200000000E+03 0.  1.
</event>
<event>
 4    1 -0.7151877E-004  0.1803789E+03  0.7818608E-02  0.1167437E+00
          5   -1    0    0  501    0  0.00000000000E+00  0.00000000000E+00  0.63381740415E+02  0.63555763059E+02  0.47000000000E+01 0. -1.
         -5   -1    0    0    0  501 -0.00000000000E+00 -0.00000000000E+00 -0.56120502941E+03  0.56122470992E+03  0.47000000000E+01 0.  1.
          6    1    1    2  502    0 -0.53939810503E+02  0.65609162088E+01 -0.15685544612E+03  0.23904012164E+03  0.17200000000E+03 0. -1.
         -6    1    1    2    0  502  0.53939810503E+02 -0.65609162088E+01 -0.34096784287E+03  0.38574035134E+03  0.17200000000E+03 0.  1.
</event>
<event>
 4    1 -0.7151877E-004  0.2528809E+03  0.7818608E-02  0.1111498E+00
          5   -1    0    0  501    0  0.00000000000E+00  0.00000000000E+00  0.28290464602E+03  0.28294368475E+03  0.47000000000E+01 0. -1.
         -5   -1    0    0    0  501 -0.00000000000E+00 -0.00000000000E+00 -0.14856886383E+04  0.14856960726E+04  0.47000000000E+01 0.  1.
          6    1    1    2  502    0  0.89925487545E+02 -0.16210532419E+03  0.21288735154E+03  0.33055975842E+03  0.17200000000E+03 0. -1.
         -6    1    1    2    0  502 -0.89925487545E+02  0.16210532419E+03 -0.14156713439E+04  0.14380799989E+04  0.17200000000E+03 0.  1.
</event>
